Membrane in water
40347
    1TMC1    C1    1   0.895   1.405  11.149 -0.9439  0.0733 -0.3235
    1TMC1    C2    2   0.884   1.518  11.221 -0.4334  0.8619 -0.6489
    1TMC1    C3    3   0.895   1.637  11.156  0.5182 -0.4607  0.1593
    1TMC1    C4    4   0.894   1.405  11.014  0.1909 -0.2999 -0.6621
    1TMC1    C5    5   0.889   1.532  10.944 -0.1109 -0.1038  0.2579
    1TMC1    C6    6   0.890   1.644  11.017 -1.3370  0.0069 -0.0965
    1TMC1     C    7   0.934   1.286  11.224 -0.2202 -1.0632 -0.6506
    1TMC1     O    8   0.901   1.288  11.340  0.3550 -0.2678  0.8506
    1TMC1     H    9   0.890   1.514  11.329  1.5980 -0.0113 -0.7968
    1TMC1    H1   10   0.892   1.315  10.954 -2.2666 -2.1472  2.1933
    1TMC1    H2   11   0.890   1.743  10.973 -0.0054 -1.3620 -3.1829
    1TMC1    C7   12   0.911   1.532  10.801  0.1112  0.3924  0.3008
    1TMC1    C8   13   0.924   1.745  11.236 -0.2171 -0.9534 -0.4989
    1TMC1    O1   14   0.986   1.596  10.731 -0.3915  0.7241 -0.1590
    1TMC1    O2   15   1.010   1.825  11.205  0.0151 -0.1590 -0.0113
    1TMC1    O3   16   0.850   1.423  10.749 -0.5844 -0.2041  0.0535
    1TMC1    H3   17   0.780   1.390  10.810  1.8319  0.6088  3.2538
    1TMC1    O5   18   0.818   1.777  11.314 -0.1252  0.5711 -0.2718
    1TMC1    H5   19   0.750   1.707  11.322 -1.4476  2.1758  2.5195
    2MPD2     C   20   1.245   0.879  11.336  0.1429  0.7171 -0.3208
    2MPD2    C1   21   1.132   0.928  11.403  0.0170 -0.1111  0.3886
    2MPD2    C2   22   1.064   1.042  11.351 -0.5339 -0.7913  0.5652
    2MPD2    C3   23   1.092   1.098  11.222 -0.1839  0.4351 -0.6297
    2MPD2    C4   24   1.199   1.039  11.158 -0.2781 -0.2954 -0.4710
    2MPD2    C5   25   1.272   0.940  11.216  0.0166 -0.5985 -0.2601
    2MPD2     H   26   0.983   1.084  11.409  0.5538  0.2793  1.3130
    2MPD2    H1   27   1.233   1.071  11.061 -1.3512 -1.2031 -1.1354
    2MPD2    H2   28   1.308   0.798  11.371  0.0418  1.3498  1.3339
    2MPD2    H3   29   1.357   0.904  11.159 -0.0837  0.6687 -1.2056
    2MPD2     N   30   1.033   1.206  11.163  0.2384 -0.5286  0.2372
    2MPD2    H5   31   1.057   1.232  11.068 -1.3051  1.1859  0.3123
    2MPD2    N1   32   1.086   0.880  11.530  0.6325  0.4922  0.1444
    2MPD2    H7   33   1.015   0.934  11.578  0.8249  0.4832  0.4460
    3TMC1    C1   34   1.103   2.138  10.779 -0.4688 -0.6127  0.7281
    3TMC1    C2   35   1.109   2.269  10.808  0.4830 -0.3393 -0.0250
    3TMC1    C3   36   1.199   2.353  10.746 -0.4987 -0.5587 -0.1266
    3TMC1    C4   37   1.196   2.079  10.698  0.6249  0.1512 -0.3452
    3TMC1    C5   38   1.282   2.163  10.640 -0.4317 -0.0197  0.4660
    3TMC1    C6   39   1.283   2.300  10.656 -0.1356 -0.1440 -0.3851
    3TMC1     C   40   1.012   2.047  10.847 -0.1912  0.1468  0.4509
    3TMC1     O   41   1.000   1.929  10.811 -0.0196 -0.2250 -0.1580
    3TMC1     H   42   1.035   2.322  10.867 -1.3139 -1.4953 -1.2674
    3TMC1    H1   43   1.184   1.983  10.651  0.8932  1.0107 -2.1574
    3TMC1    H2   44   1.344   2.371  10.601  0.6444 -0.5215 -0.0149
    3TMC1    C7   45   1.367   2.098  10.549 -0.5826 -0.2340 -0.1136
    3TMC1    C8   46   1.182   2.496  10.745  0.6767  0.0977 -0.1827
    3TMC1    O1   47   1.394   2.156  10.444  0.0882  0.3616 -0.3950
    3TMC1    O2   48   1.073   2.538  10.770 -0.0708  0.4221 -0.4831
    3TMC1    O3   49   1.424   1.987  10.593  0.6071 -0.5083  0.6600
    3TMC1    H3   50   1.397   1.965  10.685  0.3559  0.6113  0.8666
    3TMC1    O5   51   1.298   2.562  10.740  0.3607 -0.2316  0.4017
    3TMC1    H5   52   1.382   2.511  10.743  0.8679  0.5694 -0.3714
    4MPD2     C   53   0.555   1.989  11.067 -0.1768 -0.4428 -0.0529
    4MPD2    C1   54   0.604   2.113  11.106 -0.1269  0.7214  0.1985
    4MPD2    C2   55   0.732   2.153  11.064  0.1777  0.4231  0.0772
    4MPD2    C3   56   0.796   2.072  10.971  0.0039  0.2848  1.0889
    4MPD2    C4   57   0.739   1.951  10.933 -0.2626  0.5294 -0.0647
    4MPD2    C5   58   0.619   1.905  10.981 -0.8526 -0.3809  0.4378
    4MPD2     H   59   0.769   2.251  11.088 -0.1342  0.0003  2.3326
    4MPD2    H1   60   0.772   1.890  10.849  1.0670 -2.1933  2.4475
    4MPD2    H2   61   0.456   1.950  11.088 -1.2411  1.7707 -0.9996
    4MPD2    H3   62   0.569   1.819  10.938 -1.3082  0.7049 -1.1920
    4MPD2     N   63   0.929   2.111  10.936  0.3268  0.4097  0.4586
    4MPD2    H5   64   0.949   2.206  10.965 -1.7599  1.0054 -0.0313
    4MPD2    N1   65   0.531   2.203  11.193  0.4205  0.1188  0.4889
    4MPD2    H7   66   0.571   2.296  11.190  1.6158 -0.4172 -0.1500
    5TCq1    O1   67   1.839   4.331  11.739  0.0318  0.0514 -0.5913
    5TCq1    C1   68   1.787   4.212  11.792  0.0643 -0.7248 -0.2746
    5TCq1    O2   69   1.823   4.096  11.772 -0.3654 -0.0109 -0.3069
    5TCq1    C2   70   1.641   4.246  11.789  0.2122  0.4415 -0.8772
    5TCq1    C3   71   1.598   4.376  11.821 -0.3409 -1.1743  0.2501
    5TCq1    C4   72   1.488   4.437  11.767 -0.3814 -0.4912 -0.6753
    5TCq1    C5   73   1.421   4.375  11.667 -0.1465 -0.3220 -0.1948
    5TCq1    C6   74   1.458   4.243  11.638 -0.3464 -0.3840 -0.9003
    5TCq1    C7   75   1.569   4.181  11.687 -0.0355  0.1315 -0.2083
    5TCq1    C8   76   1.378   4.164  11.552 -0.1317  0.5010 -0.1131
    5TCq1    O4   77   1.421   4.061  11.500 -0.3647  0.6934  0.2047
    5TCq1    C9   78   1.445   4.567  11.813 -0.1044 -0.4145  0.3385
    5TCq1    O5   79   1.363   4.628  11.738  0.5772  0.0844  0.6214
    5TCq1    O6   80   1.462   4.590  11.934  0.9702  0.2625  0.3241
    5TCq1    H1   81   1.763   4.393  11.730 -0.6639 -0.8271 -0.7576
    5TCq1    H2   82   1.645   4.422  11.907 -0.2981  0.9443 -0.9094
    5TCq1    H3   83   1.344   4.438  11.623 -1.2507  0.8645  3.3768
    5TCq1    H4   84   1.589   4.080  11.655  0.6339  0.1181  0.2481
    6MPD2     C   85   1.018   4.217  11.485  0.5292  0.3243  0.5710
    6MPD2    C1   86   1.140   4.159  11.467  0.1580 -0.3843 -0.4082
    6MPD2    C2   87   1.157   4.075  11.356  0.3872 -0.1919  0.3705
    6MPD2    C3   88   1.049   4.042  11.272 -0.7473  0.0787  0.1884
    6MPD2    C4   89   0.927   4.101  11.293 -0.4877  0.1477  0.6433
    6MPD2    C5   90   0.916   4.183  11.399 -0.0769 -0.1278 -0.3685
    6MPD2     H   91   1.259   4.046  11.334  0.0536  0.2316 -1.7760
    6MPD2    H1   92   0.834   4.098  11.237  0.1019  2.6787 -0.5098
    6MPD2    H2   93   0.992   4.291  11.559 -0.6908  2.2322 -1.7670
    6MPD2    H3   94   0.820   4.231  11.415  0.7500  1.3961  0.0138
    6MPD2     N   95   1.075   3.954  11.162 -0.3117 -0.4845  0.2248
    6MPD2    H5   96   1.165   3.907  11.156  0.1518  0.4781 -0.3522
    6MPD2    N1   97   1.250   4.214  11.543 -0.2697 -0.6782  0.1398
    6MPD2    H7   98   1.230   4.289  11.609  2.8858  1.2552 -1.0911
    7TCq1    O1   99   4.406   2.732  13.683  0.2080 -0.7253  0.2635
    7TCq1    C1  100   4.431   2.615  13.754  0.0533 -0.2562 -0.0232
    7TCq1    O2  101   4.529   2.589  13.817 -0.2050  0.3649 -0.1789
    7TCq1    C2  102   4.303   2.536  13.764  0.0773  0.2214 -0.0581
    7TCq1    C3  103   4.279   2.465  13.875 -0.0763  0.6039  0.4900
    7TCq1    C4  104   4.154   2.414  13.895  0.0978  0.1877 -0.4040
    7TCq1    C5  105   4.054   2.430  13.800 -0.4780  0.5001  0.2320
    7TCq1    C6  106   4.080   2.496  13.682 -0.0272 -0.9400  0.5432
    7TCq1    C7  107   4.207   2.552  13.665 -0.1927  0.4712 -0.3600
    7TCq1    C8  108   3.986   2.483  13.569  0.7970 -0.2499  0.4018
    7TCq1    O4  109   3.905   2.395  13.581 -0.0927  0.1718 -0.4042
    7TCq1    C9  110   4.131   2.329  14.004 -0.2176 -0.2362 -0.5454
    7TCq1    O5  111   4.234   2.297  14.070  0.2960  0.2160  0.2208
    7TCq1    O6  112   4.011   2.285  14.019  0.1499 -0.4524  0.5673
    7TCq1    H1  113   4.317   2.743  13.643  0.8672  0.4353 -0.8716
    7TCq1    H2  114   4.359   2.449  13.946  2.0854  1.1090 -1.8178
    7TCq1    H3  115   3.956   2.387  13.814 -0.9291  1.4299 -0.0481
    7TCq1    H4  116   4.244   2.606  13.579 -0.0564 -1.3232 -1.4043
    8MPD2     C  117   3.773   2.638  13.125 -0.0477  0.8736 -0.2691
    8MPD2    C1  118   3.729   2.545  13.218 -0.2510  0.0272  0.5804
    8MPD2    C2  119   3.806   2.503  13.327 -0.9939 -0.0503  0.4280
    8MPD2    C3  120   3.933   2.560  13.336 -0.3907  0.7897  0.5848
    8MPD2    C4  121   3.988   2.641  13.239  0.5294  0.6841  0.5623
    8MPD2    C5  122   3.907   2.685  13.140 -0.9077  0.5778 -0.6679
    8MPD2     H  123   3.769   2.433  13.401 -2.7494  0.5903  0.1359
    8MPD2    H1  124   4.089   2.682  13.243  1.0701 -0.7560  1.5832
    8MPD2    H2  125   3.706   2.671  13.047  0.5101  1.4706 -0.4964
    8MPD2    H3  126   3.945   2.750  13.061 -0.5958 -1.3529 -2.0973
    8MPD2     N  127   4.010   2.558  13.455  0.4174  0.2995  0.0414
    8MPD2    H5  128   4.080   2.630  13.472 -1.1264  2.3916 -2.4601
    8MPD2    N1  129   3.600   2.483  13.210 -0.0750  0.1344 -0.2304
    8MPD2    H7  130   3.589   2.405  13.275  2.1899 -1.3945 -1.6997
    9TMC1    C1  131   4.663   2.318  12.698  0.1225 -0.1028  0.2559
    9TMC1    C2  132   4.703   2.407  12.600  0.2818 -0.4510 -0.2253
    9TMC1    C3  133   4.604   2.494  12.545 -0.6487 -0.4140 -0.0885
    9TMC1    C4  134   4.531   2.311  12.752 -0.5985  0.4490 -0.5575
    9TMC1    C5  135   4.443   2.406  12.693  0.4099  0.2391  0.2873
    9TMC1    C6  136   4.482   2.505  12.597  0.2876 -0.1108  0.1411
    9TMC1     C  137   0.024   2.215  12.756  0.5366  0.1986  1.3915
    9TMC1     O  138   4.726   2.188  12.870  0.5667  0.0606  0.1042
    9TMC1     H  139   0.068   2.395  12.552 -0.6162 -1.9998 -1.6151
    9TMC1    H1  140   4.501   2.231  12.818  0.7247 -0.6306 -1.2622
    9TMC1    H2  141   4.399   2.551  12.545  0.4004  1.0579  1.0210
    9TMC1    C7  142   4.303   2.387  12.713 -0.3189  0.0814  0.1605
    9TMC1    C8  143   4.642   2.586  12.439 -0.0441 -0.9794  0.0010
    9TMC1    O1  144   4.216   2.435  12.641 -0.3356  0.8103 -0.1553
    9TMC1    O2  145   4.565   2.678  12.406 -0.0395 -0.0195  0.8764
    9TMC1    O3  146   4.289   2.357  12.840 -0.0926  0.7564  0.3750
    9TMC1    H3  147   4.366   2.379  12.897  0.0228 -3.0923  1.6932
    9TMC1    O5  148   4.729   2.527  12.355 -0.0277 -0.0056  0.2483
    9TMC1    H5  149   0.038   2.441  12.379  1.8824  0.4233 -1.3407
   10MPD2     C  150   0.146   1.953  12.801 -0.3459 -0.1876  0.1026
   10MPD2    C1  151   0.148   2.018  12.677 -0.2043 -0.4510  0.0577
   10MPD2    C2  152   0.193   1.949  12.565  0.2515 -0.2083  0.2871
   10MPD2    C3  153   0.229   1.817  12.579 -0.1051 -0.1096  0.7613
   10MPD2    C4  154   0.229   1.758  12.699  0.0251  0.4823  0.1064
   10MPD2    C5  155   0.185   1.819  12.810  0.4499 -0.5455  0.0405
   10MPD2     H  156   0.182   1.999  12.469 -0.7979  0.7084  0.8851
   10MPD2    H1  157   0.275   1.660  12.711 -0.6851  0.1629  0.1979
   10MPD2    H2  158   0.107   2.001  12.890 -0.2000  0.0442  0.0401
   10MPD2    H3  159   0.197   1.772  12.907  1.0263 -1.3438 -0.4102
   10MPD2     N  160   0.276   1.739  12.477 -0.1714  0.0799  0.4919
   10MPD2    H5  161   0.300   1.643  12.497 -0.2479 -0.4519 -1.9486
   10MPD2    N1  162   0.089   2.147  12.652  0.0048  0.1677 -0.2766
   10MPD2    H7  163   0.093   2.183  12.557  1.1234 -0.4943 -0.4921
   11TCq1    O1  164   1.964   1.653  14.934 -0.3369 -0.3348  0.4057
   11TCq1    C1  165   1.973   1.591  14.812  0.4247  0.6268 -0.2714
   11TCq1    O2  166   1.937   1.476  14.793 -0.2598  0.3814 -0.4616
   11TCq1    C2  167   1.963   1.700  14.713 -0.2782  0.5512  0.4118
   11TCq1    C3  168   2.033   1.818  14.727 -0.0232  0.5461  0.2243
   11TCq1    C4  169   2.029   1.913  14.623  0.4540  0.1002 -0.5168
   11TCq1    C5  170   1.948   1.891  14.517 -0.2586 -1.5614 -0.7070
   11TCq1    C6  171   1.879   1.772  14.513 -0.5860  0.0101  0.6196
   11TCq1    C7  172   1.882   1.678  14.609  0.1027  0.1727 -0.0110
   11TCq1    C8  173   1.767   1.764  14.421  0.4379  0.3737 -0.2891
   11TCq1    O4  174   1.734   1.873  14.379 -0.2398  0.3948  0.1458
   11TCq1    C9  175   2.107   2.032  14.632  0.4848 -0.4829 -0.1464
   11TCq1    O5  176   2.162   2.053  14.742  0.0077 -0.0831  0.0671
   11TCq1    O6  177   2.138   2.081  14.521  0.1177  0.0961 -0.2101
   11TCq1    H1  178   1.990   1.747  14.933  1.6513 -0.8989 -1.1188
   11TCq1    H2  179   2.111   1.831  14.801  2.7463 -1.6821 -2.2837
   11TCq1    H3  180   1.942   1.976  14.449  1.0218 -0.6051  0.3674
   11TCq1    H4  181   1.830   1.583  14.602 -0.7630  0.7296 -0.9312
   12MPD2     C  182   1.504   1.697  14.298 -0.7241 -0.4538 -0.1214
   12MPD2    C1  183   1.607   1.606  14.321  0.1624 -0.6619  0.9169
   12MPD2    C2  184   1.590   1.477  14.280 -0.5849 -0.0214 -0.0695
   12MPD2    C3  185   1.478   1.438  14.202  0.6072 -0.1889  0.1169
   12MPD2    C4  186   1.388   1.537  14.170 -0.8092 -0.1729  1.0797
   12MPD2    C5  187   1.394   1.660  14.224 -0.5032  0.1388  0.1167
   12MPD2     H  188   1.660   1.402  14.314 -1.8893 -1.9647 -1.6423
   12MPD2    H1  189   1.306   1.513  14.104 -0.2129 -0.0882  0.3143
   12MPD2    H2  190   1.505   1.799  14.333  0.6890 -0.3662 -0.4456
   12MPD2    H3  191   1.326   1.738  14.192  0.6026  0.3498 -1.7206
   12MPD2     N  192   1.458   1.308  14.148  0.2974  0.2793 -0.3028
   12MPD2    H5  193   1.390   1.291  14.075  0.4060 -0.0018 -0.3382
   12MPD2    N1  194   1.727   1.636  14.393 -0.3338 -0.1191 -0.3130
   12MPD2    H7  195   1.794   1.562  14.410  1.0872  1.1494 -0.3613
   13TCq1    O1  196   1.810   1.935  10.646  0.9842 -0.5303  0.2323
   13TCq1    C1  197   1.733   1.911  10.757  1.2424  0.0005 -0.3508
   13TCq1    O2  198   1.664   1.809  10.770  0.0832 -0.1317 -0.7724
   13TCq1    C2  199   1.685   2.034  10.802 -0.2721 -0.2679 -0.4075
   13TCq1    C3  200   1.690   2.154  10.731  0.0479 -0.7378 -0.0069
   13TCq1    C4  201   1.618   2.259  10.769 -0.2513  0.2357  0.1075
   13TCq1    C5  202   1.535   2.247  10.875  0.2639  0.2001 -0.1570
   13TCq1    C6  203   1.544   2.136  10.958  0.1173 -0.1755  1.3325
   13TCq1    C7  204   1.625   2.029  10.923  0.4910 -0.0371 -0.2599
   13TCq1    C8  205   1.474   2.131  11.090  0.0465 -0.5524 -0.4462
   13TCq1    O4  206   1.381   2.202  11.111 -0.6835 -0.7311 -0.5295
   13TCq1    C9  207   1.622   2.383  10.698 -0.6260 -0.8585 -0.2825
   13TCq1    O5  208   1.716   2.398  10.615  0.1239  0.3614  1.0418
   13TCq1    O6  209   1.533   2.464  10.724 -0.0500  0.1437  0.2689
   13TCq1    H1  210   1.869   2.014  10.654 -2.0996  1.8918 -0.8986
   13TCq1    H2  211   1.743   2.158  10.637 -1.0076  0.8722 -0.5311
   13TCq1    H3  212   1.463   2.324  10.903 -1.0229  0.7239 -4.8541
   13TCq1    H4  213   1.630   1.933  10.972  0.2368 -0.8462 -1.8524
   14MPD2     C  214   1.583   1.919  11.373  0.3302 -0.1371 -0.3404
   14MPD2    C1  215   1.493   1.990  11.292  0.4195 -0.1816  0.0117
   14MPD2    C2  216   1.358   1.990  11.321  0.1095 -0.5300  0.4154
   14MPD2    C3  217   1.311   1.919  11.436  0.2062 -0.0984 -0.3195
   14MPD2    C4  218   1.398   1.853  11.517  0.4235  0.7494 -1.0677
   14MPD2    C5  219   1.533   1.850  11.486 -0.2510  0.1861  0.4788
   14MPD2     H  220   1.284   2.045  11.265 -1.5456 -2.4122  0.7443
   14MPD2    H1  221   1.367   1.798  11.605  0.2754 -0.1154 -1.6649
   14MPD2    H2  222   1.688   1.901  11.350  0.2463  0.7362 -1.3741
   14MPD2    H3  223   1.597   1.790  11.550 -0.0749  0.8854  0.9628
   14MPD2     N  224   1.173   1.929  11.466  0.3407  0.0868  0.8010
   14MPD2    H5  225   1.115   1.982  11.402  0.0915 -0.4220  0.6137
   14MPD2    N1  226   1.542   2.045  11.174  0.0545 -0.0065  0.5679
   14MPD2    H7  227   1.641   2.036  11.157  0.3539  0.2526  2.1552
   15TCq1    O1  228   3.940   1.161   1.588 -0.5588 -0.3286 -0.3695
   15TCq1    C1  229   3.900   1.036   1.593  0.1962  0.5751 -0.0760
   15TCq1    O2  230   3.958   0.948   1.653  0.0597  0.2881 -0.2176
   15TCq1    C2  231   3.773   1.021   1.514 -0.4480 -0.2960 -0.1333
   15TCq1    C3  232   3.677   1.115   1.511  0.7686 -0.0626 -0.8982
   15TCq1    C4  233   3.542   1.082   1.506 -0.0655 -0.9174  0.4955
   15TCq1    C5  234   3.505   0.955   1.481 -0.2626  0.2465  0.0496
   15TCq1    C6  235   3.604   0.862   1.463  1.0414  0.0736  0.1931
   15TCq1    C7  236   3.739   0.888   1.486  0.6158 -0.3551  0.5222
   15TCq1    C8  237   3.582   0.718   1.424 -0.0732  0.4564  0.2291
   15TCq1    O4  238   3.679   0.646   1.425  0.5655 -0.0237 -0.2036
   15TCq1    C9  239   3.433   1.183   1.525 -0.5317  0.2309 -0.3127
   15TCq1    O5  240   3.458   1.296   1.572 -0.8006 -0.8127  0.0224
   15TCq1    O6  241   3.317   1.143   1.507 -0.0979 -0.0786 -0.2217
   15TCq1    H1  242   3.898   1.215   1.518 -0.2422 -2.4971 -2.2544
   15TCq1    H2  243   3.695   1.218   1.541  1.2948  0.0110 -1.4570
   15TCq1    H3  244   3.398   0.935   1.479 -0.3113  0.6342 -1.1765
   15TCq1    H4  245   3.814   0.810   1.492 -1.6955 -2.6523 -0.4704
   16MPD2     C  246   3.253   0.574   1.340  0.0031 -0.1999 -0.5025
   16MPD2    C1  247   3.391   0.576   1.352  0.3680 -0.3424  0.1430
   16MPD2    C2  248   3.458   0.463   1.317 -0.1401  0.2719  0.3668
   16MPD2    C3  249   3.395   0.352   1.263 -0.1653 -0.4227  0.1463
   16MPD2    C4  250   3.265   0.364   1.230 -0.2413  0.7813 -0.2150
   16MPD2    C5  251   3.194   0.472   1.278  0.0219  0.6548 -0.2491
   16MPD2     H  252   3.565   0.453   1.330 -0.1046 -1.4459 -1.3554
   16MPD2    H1  253   3.206   0.286   1.183 -0.2855 -0.0281  1.1682
   16MPD2    H2  254   3.192   0.658   1.370 -0.1916 -1.2197  1.9393
   16MPD2    H3  255   3.090   0.484   1.251 -0.4173 -1.5137  0.4991
   16MPD2     N  256   3.483   0.247   1.233 -0.2190 -0.2395 -0.0411
   16MPD2    H5  257   3.581   0.261   1.258 -0.4713 -1.6822  1.6990
   16MPD2    N1  258   3.451   0.694   1.390  0.4376 -0.4973  0.0330
   16MPD2    H7  259   3.388   0.772   1.408 -0.1828 -1.4367  1.8657
   17TMC1    C1  260   0.982   0.270  10.568 -0.5971 -0.4268  0.1243
   17TMC1    C2  261   1.049   0.150  10.550 -0.2388  0.3466 -0.2150
   17TMC1    C3  262   1.063   0.063  10.659  0.2351 -0.8229  0.3325
   17TMC1    C4  263   0.921   0.306  10.686 -0.3093  0.6445 -1.1725
   17TMC1    C5  264   0.941   0.217  10.788 -0.4258  0.6200  0.3474
   17TMC1    C6  265   1.013   0.104  10.778 -0.0562 -0.2242  0.0451
   17TMC1     C  266   0.984   0.358  10.453  1.0901  0.5093 -0.5815
   17TMC1     O  267   0.942   0.303  10.346 -0.7599 -0.1590 -1.3100
   17TMC1     H  268   1.088   0.125  10.452 -3.1814  1.2247 -1.6167
   17TMC1    H1  269   0.871   0.401  10.700 -1.3366 -0.2882  1.5552
   17TMC1    H2  270   1.022   0.027  10.854 -0.6707  0.8417  1.2053
   17TMC1    C7  271   0.902   0.250  10.921 -0.8652  0.0536 -0.0628
   17TMC1    C8  272   1.179   4.698  10.653 -0.6557 -0.1540  0.5716
   17TMC1    O1  273   0.869   0.166  11.006 -0.5542 -0.5191 -0.1753
   17TMC1    O2  274   1.241   4.680  10.551 -0.3814 -0.0128 -0.0669
   17TMC1    O3  275   0.867   0.384  10.928  0.1542 -0.4559 -0.0272
   17TMC1    H3  276   0.894   0.425  10.843 -0.6559  0.8561  0.3488
   17TMC1    O5  277   1.241   4.715  10.772  0.6638  0.4989  0.1144
   17TMC1    H5  278   1.189   0.026  10.843  1.1693  1.5359 -0.1396
   18MPD2     C  279   1.035   0.573  10.255  0.4416 -0.0265 -0.6445
   18MPD2    C1  280   1.029   0.590  10.395 -0.1369 -0.1640  0.2048
   18MPD2    C2  281   1.049   0.717  10.440 -0.1686  0.2964  0.5193
   18MPD2    C3  282   1.050   0.829  10.362  0.3369  0.9069  0.0156
   18MPD2    C4  283   1.018   0.811  10.230  0.6565  0.0093 -0.7350
   18MPD2    C5  284   1.040   0.682  10.179  0.2598 -0.1275 -0.4054
   18MPD2     H  285   1.075   0.717  10.545 -1.5935  0.3809  0.8703
   18MPD2    H1  286   1.030   0.889  10.156  0.3500 -0.5810 -1.4176
   18MPD2    H2  287   1.031   0.486  10.191  0.4046 -0.2612 -0.3263
   18MPD2    H3  288   1.045   0.670  10.071 -0.5503  0.5650 -0.5238
   18MPD2     N  289   1.075   0.957  10.404  0.0508  0.5194  1.0039
   18MPD2    H5  290   1.073   1.033  10.338  0.4833 -0.8002 -0.5272
   18MPD2    N1  291   1.005   0.488  10.489  0.1762 -0.4755  0.5072
   18MPD2    H7  292   1.021   0.508  10.588 -0.0408  4.1967 -0.4097
   19TMC2    C1  293   3.042   0.913  13.886  1.0913 -0.6165  0.2759
   19TMC2    C2  294   3.010   0.970  13.767 -0.0111 -0.1644  0.5983
   19TMC2    C3  295   2.882   1.008  13.744 -0.2196  0.0520 -0.2235
   19TMC2    C4  296   2.953   0.910  13.990  0.2432 -0.2528 -0.7213
   19TMC2    C5  297   2.828   0.951  13.967 -0.6396 -0.2924  0.1658
   19TMC2    C6  298   2.787   0.997  13.846 -0.3993 -0.3849  1.4059
   19TMC2     C  299   3.179   0.887  13.913 -0.5991 -0.6933 -0.0008
   19TMC2     O  300   3.257   0.902  13.823  0.3199 -0.3426 -0.9425
   19TMC2     H  301   3.085   0.968  13.689  0.7670  0.3708  1.3338
   19TMC2    H1  302   2.979   0.861  14.084 -0.8680 -1.3725 -0.9899
   19TMC2    H2  303   2.683   1.008  13.816  0.1552 -0.6551 -0.5479
   19TMC2    C7  304   2.732   0.926  14.073 -0.4555  0.7072  1.1645
   19TMC2    C8  305   2.837   1.063  13.617  0.3430  0.3294 -0.0570
   19TMC2    O1  306   2.760   0.849  14.162 -0.3923  0.5259  0.3341
   19TMC2    O2  307   2.722   1.051  13.575 -0.4182 -0.1035  0.7336
   19TMC2    O5  308   2.942   1.122  13.558 -0.1295  0.0603  0.0103
   19TMC2    H5  309   3.028   1.101  13.601 -0.1758 -1.2314 -0.4960
   20MPD2     C  310   3.460   0.809  14.002 -0.0834  0.4526  1.7503
   20MPD2    C1  311   3.352   0.847  14.085  0.5996 -0.0688  0.0532
   20MPD2    C2  312   3.378   0.870  14.221 -0.0507 -0.1441 -0.2474
   20MPD2    C3  313   3.507   0.845  14.266 -0.0077 -0.4097 -0.2442
   20MPD2    C4  314   3.614   0.811  14.183 -0.3756 -0.1846  0.4899
   20MPD2    C5  315   3.589   0.793  14.050  0.1184  1.0158  0.9773
   20MPD2     H  316   3.292   0.891  14.284  0.0471  0.1893 -0.2228
   20MPD2    H1  317   3.713   0.805  14.227  0.5040  2.3105 -1.1425
   20MPD2    H2  318   3.442   0.793  13.896 -0.6779  0.8346  1.7930
   20MPD2    H3  319   3.677   0.779  13.988 -1.5944  0.3518 -1.3335
   20MPD2     N  320   3.542   0.870  14.402 -0.6101  0.4355 -0.7517
   20MPD2    H5  321   3.636   0.850  14.434 -1.2109  0.8326  1.2381
   20MPD2    N1  322   3.220   0.877  14.044 -0.6320  0.3469 -0.0636
   20MPD2    H7  323   3.156   0.916  14.113 -0.2701  0.2937  0.3047
   21TMC2    C1  324   0.816   1.962  14.386 -0.1351  0.3763  0.2194
   21TMC2    C2  325   0.774   1.881  14.282 -0.1339  0.1526 -0.0917
   21TMC2    C3  326   0.641   1.895  14.245  0.5017 -0.2907 -0.0087
   21TMC2    C4  327   0.737   2.046  14.456  0.4721 -0.4212 -0.3640
   21TMC2    C5  328   0.607   2.054  14.412 -0.2362  0.2076  0.5129
   21TMC2    C6  329   0.552   1.988  14.298 -0.0371 -0.6290  0.3141
   21TMC2     C  330   0.951   1.936  14.436  0.2255 -0.5844 -0.6341
   21TMC2     O  331   1.000   1.826  14.407 -0.0051 -0.5820  0.2104
   21TMC2     H  332   0.841   1.807  14.240 -1.7902 -2.1025  1.2024
   21TMC2    H1  333   0.767   2.103  14.544  0.1481  0.1526 -0.6237
   21TMC2    H2  334   0.446   1.999  14.278  0.0902 -0.1534 -0.0903
   21TMC2    C7  335   0.517   2.113  14.506 -0.5907 -0.7631 -0.1223
   21TMC2    C8  336   0.596   1.801  14.150  0.0277  0.2769 -0.3056
   21TMC2    O1  337   0.575   2.196  14.577 -0.3420 -0.2563 -0.2274
   21TMC2    O2  338   0.668   1.758  14.063 -0.2475  0.1529  0.9090
   21TMC2    O5  339   0.459   1.794  14.158  0.1010 -0.5866 -0.4508
   21TMC2    H5  340   0.430   1.792  14.252 -2.9464 -2.6086 -1.4336
   22MPD2     C  341   1.363   2.095  14.661 -0.8520  0.2798 -0.0569
   22MPD2    C1  342   1.321   1.966  14.650 -0.1221  0.1834 -0.1152
   22MPD2    C2  343   1.201   1.948  14.596 -0.1321 -0.4578 -0.4956
   22MPD2    C3  344   1.130   2.056  14.552 -0.1507 -0.0303  0.9883
   22MPD2    C4  345   1.173   2.183  14.567 -0.1851 -0.3577 -0.1750
   22MPD2    C5  346   1.295   2.210  14.631 -0.0208 -0.6363 -0.2216
   22MPD2     H  347   1.171   1.844  14.584 -0.5907 -0.2268 -1.2937
   22MPD2    H1  348   1.105   2.267  14.555 -0.7416 -0.9441 -1.1083
   22MPD2    H2  349   1.454   2.113  14.717 -0.5537 -1.8252  0.1421
   22MPD2    H3  350   1.332   2.305  14.670 -1.2593 -0.7617  1.2586
   22MPD2     N  351   1.008   2.051  14.483 -0.2558  0.2335 -0.6203
   22MPD2    H5  352   0.971   2.143  14.463 -2.1483 -0.4910 -0.4781
   22MPD2    N1  353   1.407   1.852  14.679  0.8534 -0.2895 -0.3354
   22MPD2    H7  354   1.358   1.766  14.656  0.7381 -0.2542 -0.2235
   23TMC2    C1  355   1.697   3.311  14.900  0.0578 -0.0503  1.0207
   23TMC2    C2  356   1.675   3.238  14.787  0.3376  0.6875  0.6020
   23TMC2    C3  357   1.550   3.208  14.754 -0.4776  0.8600 -0.7319
   23TMC2    C4  358   1.590   3.343  14.979 -0.2899  0.4480  0.1891
   23TMC2    C5  359   1.461   3.317  14.946 -0.0513  0.4483 -0.2259
   23TMC2    C6  360   1.439   3.241  14.835  0.4594  0.2518 -0.5271
   23TMC2     C  361   1.814   3.267  14.965 -0.1097  0.4006 -0.3488
   23TMC2     O  362   1.805   3.188  15.060 -0.6115  0.0718 -0.0832
   23TMC2     H  363   1.757   3.203  14.726 -1.3549 -0.8877 -0.7798
   23TMC2    H1  364   1.615   3.383  15.077  0.7715  0.0741  0.0710
   23TMC2    H2  365   1.340   3.197  14.822 -0.0914  1.3777 -0.1490
   23TMC2    C7  366   1.368   3.314  15.060  0.2204  0.7812 -0.0388
   23TMC2    C8  367   1.541   3.110  14.651 -0.0653  0.5828  0.5100
   23TMC2    O1  368   1.404   3.358  15.167  0.3463 -0.1257  0.7809
   23TMC2    O2  369   1.596   3.119  14.543 -0.0899 -0.0200 -0.3628
   23TMC2    O5  370   1.524   2.995  14.721  0.2137  0.5016 -0.0078
   23TMC2    H5  371   1.508   3.016  14.815 -2.4552  0.1372 -0.3974
   24MPD2     C  372   2.330   3.181  14.932 -0.3027  0.2001 -0.4913
   24MPD2    C1  373   2.241   3.127  15.022  0.6938  0.3946  0.1369
   24MPD2    C2  374   2.107   3.169  15.012 -0.8184  0.1730  0.0206
   24MPD2    C3  375   2.064   3.254  14.908 -0.4181 -0.1938 -0.0900
   24MPD2    C4  376   2.166   3.310  14.837  0.4023  0.3267  0.1504
   24MPD2    C5  377   2.295   3.272  14.837  0.0532 -0.1629  0.1179
   24MPD2     H  378   2.025   3.134  15.074 -1.5291 -0.0920 -1.0611
   24MPD2    H1  379   2.141   3.380  14.758  2.5242  0.7743 -0.1235
   24MPD2    H2  380   2.432   3.145  14.924 -0.3315  0.3388 -1.4809
   24MPD2    H3  381   2.373   3.317  14.777  1.0482 -0.1261  1.4292
   24MPD2     N  382   1.930   3.289  14.886  0.5413 -0.6417 -0.7716
   24MPD2    H5  383   1.911   3.354  14.811  1.4566  0.2488 -0.2360
   24MPD2    N1  384   2.267   3.023  15.113  0.5163  0.1298 -0.6659
   24MPD2    H7  385   2.200   3.012  15.189  1.3372 -1.8426 -0.2188
   25TMC2    C1  386   0.451   0.835  11.691 -0.0185  1.0514  0.7297
   25TMC2    C2  387   0.437   0.970  11.685 -0.0827  0.9579  0.0237
   25TMC2    C3  388   0.317   1.026  11.731 -0.4658  0.7425 -0.2213
   25TMC2    C4  389   0.357   0.758  11.755  0.8103  0.0426 -0.1621
   25TMC2    C5  390   0.247   0.815  11.809 -0.0971  0.3701  0.3493
   25TMC2    C6  391   0.223   0.955  11.794  0.3695 -0.4426 -0.5961
   25TMC2     C  392   0.569   0.766  11.628 -0.9883 -0.0392 -0.1579
   25TMC2     O  393   0.660   0.829  11.577  0.2013 -0.3983  0.0056
   25TMC2     H  394   0.506   1.020  11.618 -0.4615  1.7030  0.1801
   25TMC2    H1  395   0.369   0.652  11.775  4.1321  0.8318  2.0189
   25TMC2    H2  396   0.137   1.007  11.834  0.6125 -0.2244 -0.3560
   25TMC2    C7  397   0.166   0.737  11.904 -0.0574 -0.2337 -0.4328
   25TMC2    C8  398   0.276   1.150  11.667  0.2897  0.6504  0.5328
   25TMC2    O1  399   0.218   0.635  11.948 -0.1154 -0.1768 -0.4778
   25TMC2    O2  400   0.157   1.181  11.667 -0.1332  0.2146  0.0207
   25TMC2    O5  401   0.381   1.229  11.689  0.0179  0.3472  0.3960
   25TMC2    H5  402   0.467   1.185  11.705  0.0233 -0.2451 -1.3102
   26MPD2     C  403   0.819   0.338  11.511  0.2018  0.3913  0.6203
   26MPD2    C1  404   0.684   0.304  11.513 -0.3515 -0.4964  0.4807
   26MPD2    C2  405   0.597   0.406  11.533  0.0887 -0.2041  0.2606
   26MPD2    C3  406   0.635   0.537  11.552 -0.0538 -0.9296  0.6348
   26MPD2    C4  407   0.767   0.566  11.545  0.3424 -0.9435  0.2569
   26MPD2    C5  408   0.861   0.466  11.526  0.8214  0.5983  0.1335
   26MPD2     H  409   0.493   0.383  11.551  0.8235 -1.4639  2.9297
   26MPD2    H1  410   0.806   0.657  11.589 -0.7033  0.0912 -0.9738
   26MPD2    H2  411   0.890   0.261  11.485 -1.3661 -0.9812  0.4019
   26MPD2    H3  412   0.965   0.495  11.524  0.9941  0.0232  0.5203
   26MPD2     N  413   0.542   0.635  11.606 -0.6208 -0.0015  0.7672
   26MPD2    H5  414   0.451   0.596  11.630 -0.9870  1.6744  2.0849
   26MPD2    N1  415   0.647   0.168  11.499 -0.1948 -0.3156  0.1472
   26MPD2    H7  416   0.724   0.106  11.476 -1.3696 -1.5030 -0.6091
   27TMC2    C1  417   4.066   2.565  12.010  0.5128 -0.3976  0.5137
   27TMC2    C2  418   4.164   2.523  11.920 -0.1432  0.1565 -0.7952
   27TMC2    C3  419   4.173   2.390  11.897  0.8207 -0.4749  0.1399
   27TMC2    C4  420   4.003   2.479  12.092  0.2811 -0.1665 -0.5546
   27TMC2    C5  421   4.027   2.343  12.082  0.0361  0.0238  0.3237
   27TMC2    C6  422   4.109   2.300  11.976  0.1058 -0.1423  0.1424
   27TMC2     C  423   4.035   2.707  12.012  0.2016 -0.2471  0.0479
   27TMC2     O  424   4.128   2.775  11.970  0.3558 -0.4611 -0.1874
   27TMC2     H  425   4.228   2.593  11.868  2.9737 -1.5130  0.8011
   27TMC2    H1  426   3.954   2.519  12.180 -2.1184 -0.4421 -1.7618
   27TMC2    H2  427   4.120   2.197  11.946  0.5623 -0.0836  0.1054
   27TMC2    C7  428   3.957   2.246  12.154 -0.3644 -0.4359 -0.0950
   27TMC2    C8  429   4.249   2.340  11.782  0.6054 -0.3890 -0.0120
   27TMC2    O1  430   4.002   2.135  12.169 -0.1623 -0.2073  0.3278
   27TMC2    O2  431   4.292   2.220  11.774  0.0245 -0.0103 -0.8106
   27TMC2    O5  432   4.195   2.402  11.673 -0.1538  0.1441 -0.1947
   27TMC2    H5  433   4.149   2.483  11.703 -0.0627 -1.5417  4.4852
   28MPD2     C  434   3.746   3.112  12.133  0.1542 -0.3423 -0.3941
   28MPD2    C1  435   3.677   3.002  12.170 -0.5980  0.5451 -0.8344
   28MPD2    C2  436   3.732   2.876  12.151  0.2858 -0.6316 -0.4753
   28MPD2    C3  437   3.864   2.862  12.094  0.9120  0.3465 -0.6111
   28MPD2    C4  438   3.930   2.977  12.057  0.8447  0.5356  0.6672
   28MPD2    C5  439   3.869   3.102  12.076 -0.6917  0.5764 -0.3778
   28MPD2     H  440   3.673   2.786  12.160  1.1775 -1.2487 -0.8006
   28MPD2    H1  441   4.024   2.986  12.004  2.3082 -1.5966  2.9107
   28MPD2    H2  442   3.693   3.206  12.137  2.2896  0.6408  4.3049
   28MPD2    H3  443   3.908   3.194  12.034 -2.2889 -0.1430 -3.4611
   28MPD2     N  444   3.912   2.733  12.061 -0.3265 -0.0768 -0.6977
   28MPD2    H5  445   3.842   2.660  12.070 -0.2663 -0.4469 -3.3147
   28MPD2    N1  446   3.549   3.016  12.234 -0.3748  1.0396  0.1832
   28MPD2    H7  447   3.516   3.109  12.256  1.0694  0.6791  3.8332
   29TMC2    C1  448   4.004   4.600  14.567 -0.4780  0.5159  0.4581
   29TMC2    C2  449   4.005   4.577  14.703  0.0687 -0.4817  0.1838
   29TMC2    C3  450   4.032   4.684  14.786 -0.3857 -0.8671 -0.8231
   29TMC2    C4  451   4.041   4.720  14.515 -0.2942 -0.4362 -0.2139
   29TMC2    C5  452   4.077   0.097  14.593  0.5606  0.0317 -0.1591
   29TMC2    C6  453   4.070   0.078  14.738 -0.5340 -0.5502  0.2792
   29TMC2     C  454   4.010   4.486  14.481 -0.2336  0.6114  0.2386
   29TMC2     O  455   4.062   4.385  14.520 -0.4216  0.0552  0.1421
   29TMC2     H  456   3.974   4.482  14.745 -2.0728 -0.0815 -0.4970
   29TMC2    H1  457   4.034   4.729  14.407 -0.0127 -0.5912 -0.2448
   29TMC2    H2  458   4.079   0.161  14.807  3.5668 -0.6569 -0.1165
   29TMC2    C7  459   4.114   0.214  14.522  0.1957 -0.6139 -0.2413
   29TMC2    C8  460   3.997   4.680  14.923 -0.5092 -0.4979  0.0071
   29TMC2    O1  461   4.073   0.216  14.405  0.3846  0.1552 -0.1933
   29TMC2    O2  462   3.973   0.050  14.990 -0.3356 -0.2267 -0.3837
   29TMC2    O5  463   4.021   4.553  14.969  0.2652  0.7085  0.3051
   29TMC2    H5  464   4.040   4.486  14.900 -0.1935  1.0552 -0.1605
   30MPD2     C  465   3.906   4.237  14.042 -0.5694  1.1613 -0.6405
   30MPD2    C1  466   3.984   4.197  14.154  0.4392  0.3297 -0.4536
   30MPD2    C2  467   4.011   4.286  14.252 -0.2621  0.0744 -0.1128
   30MPD2    C3  468   3.953   4.412  14.255  0.1242 -0.1821  0.1236
   30MPD2    C4  469   3.883   4.451  14.139  0.1601  0.1903  0.7935
   30MPD2    C5  470   3.854   4.366  14.039 -0.1015  0.3575 -0.3609
   30MPD2     H  471   4.081   4.259  14.330  0.9148  0.4660 -1.0382
   30MPD2    H1  472   3.851   4.555  14.135 -3.1891 -0.8967 -0.4829
   30MPD2    H2  473   3.893   4.176  13.953 -1.0067 -1.6220  1.3370
   30MPD2    H3  474   3.805   4.393  13.946 -3.9808 -0.3331  1.4878
   30MPD2     N  475   3.944   4.499  14.363 -0.0872 -0.2182 -0.2906
   30MPD2    H5  476   3.889   4.584  14.358  0.0155 -0.2333 -1.8498
   30MPD2    N1  477   4.050   4.076  14.159 -0.5513  0.2081 -0.0869
   30MPD2    H7  478   4.129   4.066  14.222 -0.6572 -0.9271 -0.1360
   31TMC2    C1  479   1.998   3.279  15.682 -0.2032 -0.5959  0.3545
   31TMC2    C2  480   2.003   3.150  15.649 -0.2933 -0.7705  0.7697
   31TMC2    C3  481   1.985   3.058  15.751  0.0015  0.1904  0.4046
   31TMC2    C4  482   1.979   3.327  15.806 -0.0235 -0.0413  0.4145
   31TMC2    C5  483   1.961   3.234  15.902  0.3138  0.2028  0.4057
   31TMC2    C6  484   1.962   3.098  15.877  0.0850 -0.0326 -0.9623
   31TMC2     C  485   2.031   3.365  15.574  0.0329  0.4823  0.1108
   31TMC2     O  486   1.971   3.470  15.557 -0.4631 -0.3803 -0.1044
   31TMC2     H  487   2.007   3.117  15.546  0.6743  0.8616  0.2748
   31TMC2    H1  488   1.963   3.433  15.817  0.0505  0.1422 -1.1902
   31TMC2    H2  489   1.930   3.027  15.953 -0.9622  3.6421  2.0246
   31TMC2    C7  490   1.988   3.270  16.038  0.3575  0.0552  0.2513
   31TMC2    C8  491   1.968   2.919  15.729  0.6578 -0.5367  0.4009
   31TMC2    O1  492   2.030   3.175  16.106  0.0233  0.3149  0.2107
   31TMC2    O2  493   1.868   2.871  15.781 -0.0689  0.6932 -0.1127
   31TMC2    O5  494   2.027   2.888  15.615 -0.3395  0.3167 -0.0448
   31TMC2    H5  495   2.110   2.939  15.607  1.0353 -1.4717  2.7547
   32MPD2     C  496   2.293   3.461  15.149  0.6022 -0.3578  0.3319
   32MPD2    C1  497   2.156   3.487  15.173  0.3365 -0.8501  0.0654
   32MPD2    C2  498   2.098   3.439  15.286  0.3854  1.1326 -0.3080
   32MPD2    C3  499   2.180   3.367  15.375  0.5126 -0.1736 -0.0087
   32MPD2    C4  500   2.312   3.352  15.351 -0.7343  0.3664 -0.2645
   32MPD2    C5  501   2.371   3.406  15.244 -0.5187 -0.3244  0.0851
   32MPD2     H  502   1.992   3.435  15.306  0.2376  0.9017 -1.1390
   32MPD2    H1  503   2.364   3.305  15.434 -1.5970 -1.0441 -0.5299
   32MPD2    H2  504   2.345   3.522  15.076 -1.2085  1.9413  0.9288
   32MPD2    H3  505   2.479   3.399  15.230 -0.8586 -0.8698 -2.1903
   32MPD2     N  506   2.133   3.314  15.504 -0.1312 -0.2266 -0.3088
   32MPD2    H5  507   2.180   3.232  15.540 -1.2004  0.3558  2.3779
   32MPD2    N1  508   2.081   3.555  15.066  0.0911  0.0356  0.1492
   32MPD2    H7  509   2.130   3.587  14.984  1.1740 -0.5440  0.5740
   33TMC2    C1  510   1.880   1.556   9.906  0.2112 -0.2046 -0.1836
   33TMC2    C2  511   1.910   1.440   9.842 -0.0112  0.1018  0.5719
   33TMC2    C3  512   2.014   1.456   9.751 -0.3352 -0.0271 -0.3054
   33TMC2    C4  513   1.947   1.674   9.896 -0.0471 -0.3841  0.2241
   33TMC2    C5  514   2.057   1.683   9.812  1.0627 -0.4274 -0.2786
   33TMC2    C6  515   2.093   1.571   9.746  0.0602 -0.2666  0.3281
   33TMC2     C  516   1.772   1.547  10.001  1.0297  0.0483  0.0061
   33TMC2     O  517   1.714   1.439  10.001 -1.1887 -0.3280 -0.4661
   33TMC2     H  518   1.848   1.352   9.836  1.5882 -0.8475 -1.9386
   33TMC2    H1  519   1.911   1.762   9.949  0.3159  0.7430 -1.4098
   33TMC2    H2  520   2.168   1.576   9.668 -0.0819  0.5665  0.2489
   33TMC2    C7  521   2.148   1.798   9.813  0.2481 -0.0874 -0.7778
   33TMC2    C8  522   2.041   1.347   9.656  0.0887 -0.5680 -0.0387
   33TMC2    O1  523   2.253   1.772   9.760 -1.0628 -0.1465 -0.2659
   33TMC2    O2  524   1.962   1.264   9.608  0.3015 -0.2822  0.4619
   33TMC2    O5  525   2.169   1.330   9.656 -0.2405  0.4279 -0.1280
   33TMC2    H5  526   2.208   1.385   9.727  1.4989  2.1438 -2.3907
   34MPD2     C  527   1.427   1.726  10.343 -1.1497  0.5283  0.5508
   34MPD2    C1  528   1.455   1.594  10.309 -0.0696 -0.2098  0.0295
   34MPD2    C2  529   1.556   1.567  10.211 -0.5700 -0.1148  0.1525
   34MPD2    C3  530   1.632   1.671  10.161 -0.4762  0.2704  0.0061
   34MPD2    C4  531   1.607   1.794  10.212 -0.7595  0.0352 -0.6955
   34MPD2    C5  532   1.502   1.824  10.292  0.2803 -0.3118 -0.0172
   34MPD2     H  533   1.576   1.462  10.195  1.5944  0.0988  1.4220
   34MPD2    H1  534   1.672   1.876  10.183 -0.1388 -0.6035 -1.1123
   34MPD2    H2  535   1.347   1.751  10.412 -1.4797  1.8549 -0.2949
   34MPD2    H3  536   1.484   1.925  10.327  0.4631 -0.5966  0.9197
   34MPD2     N  537   1.742   1.656  10.070 -0.0158 -0.1682 -0.4322
   34MPD2    H5  538   1.806   1.732  10.051  2.8816 -2.5911 -0.3025
   34MPD2    N1  539   1.386   1.502  10.388  0.1908  0.4371  0.3976
   34MPD2    H7  540   1.329   1.532  10.467  0.3676  0.4404  0.5239
   35TMC2    C1  541   2.368   2.986  11.459 -0.1115  0.3003  0.2291
   35TMC2    C2  542   2.306   3.099  11.416  0.1390  0.2265  0.0872
   35TMC2    C3  543   2.177   3.125  11.459 -0.0628 -0.5141  0.9291
   35TMC2    C4  544   2.293   2.891  11.521 -0.0166  0.2215  0.0200
   35TMC2    C5  545   2.159   2.917  11.551  0.7203 -0.2800  0.5711
   35TMC2    C6  546   2.105   3.042  11.537 -0.3501  0.8461  0.2949
   35TMC2     C  547   2.494   2.945  11.406  0.0548 -0.2455 -0.1472
   35TMC2     O  548   2.512   2.979  11.287 -0.1919  0.2252 -0.1610
   35TMC2     H  549   2.361   3.165  11.349  0.3764  0.4330  0.4849
   35TMC2    H1  550   2.334   2.794  11.548  1.3465  0.5624 -0.8115
   35TMC2    H2  551   2.003   3.071  11.562  0.0742  1.2844  1.4889
   35TMC2    C7  552   2.078   2.794  11.542 -0.4312 -0.8301  0.0917
   35TMC2    C8  553   2.126   3.253  11.410 -0.2055 -0.3779 -0.1787
   35TMC2    O1  554   2.124   2.693  11.494 -0.3498  0.2696  0.2008
   35TMC2    O2  555   2.197   3.338  11.356  0.0141  0.0983 -0.2506
   35TMC2    O5  556   1.995   3.228  11.402  0.4922 -0.5681  0.0196
   35TMC2    H5  557   1.946   3.293  11.346 -1.0124 -1.1926  0.6253
   36MPD2     C  558   2.990   2.774  11.413  0.4498  0.2036  0.2526
   36MPD2    C1  559   2.933   2.775  11.542  0.4911  0.7796 -0.0541
   36MPD2    C2  560   2.809   2.820  11.571 -0.2418 -0.2497  1.5189
   36MPD2    C3  561   2.720   2.863  11.471 -0.1802 -0.6762  0.2284
   36MPD2    C4  562   2.774   2.858  11.346 -0.1146  0.3455  0.2639
   36MPD2    C5  563   2.895   2.798  11.313  0.0543 -0.3851  0.2781
   36MPD2     H  564   2.776   2.822  11.674 -0.5574 -0.9654  1.4387
   36MPD2    H1  565   2.719   2.887  11.257 -1.6738 -1.9398  0.4916
   36MPD2    H2  566   3.091   2.748  11.384  0.1794 -2.4266  1.6433
   36MPD2    H3  567   2.918   2.778  11.209  1.0780  1.4279  0.1619
   36MPD2     N  568   2.583   2.893  11.497  0.1808  0.3835  0.6899
   36MPD2    H5  569   2.557   2.889  11.595 -0.4265  1.9381  0.5830
   36MPD2    N1  570   3.018   2.721  11.643  0.1155 -0.1529 -0.2743
   36MPD2    H7  571   3.115   2.712  11.614  0.2519 -2.7168  0.9245
   37TMC2    C1  572   1.128   2.453  11.554  0.2745 -1.1929 -0.3397
   37TMC2    C2  573   1.204   2.362  11.477 -0.1222 -0.4502  0.0486
   37TMC2    C3  574   1.316   2.409  11.410  0.4782 -0.1846 -0.0003
   37TMC2    C4  575   1.140   2.582  11.542  0.3715 -0.4870 -1.0639
   37TMC2    C5  576   1.252   2.625  11.471  0.3003  0.0348  0.1425
   37TMC2    C6  577   1.343   2.542  11.418 -1.1427  0.3720 -0.1014
   37TMC2     C  578   1.056   2.397  11.660 -0.4066 -0.0579 -0.0009
   37TMC2     O  579   1.024   2.276  11.655 -0.4711 -0.4941  0.6667
   37TMC2     H  580   1.197   2.255  11.494  0.6365 -0.3153  1.2378
   37TMC2    H1  581   1.050   2.641  11.555 -0.4114 -2.0281  0.4959
   37TMC2    H2  582   1.444   2.576  11.395 -1.2152  0.5919 -0.0916
   37TMC2    C7  583   1.267   2.774  11.471  0.5633 -0.4667 -0.4739
   37TMC2    C8  584   1.428   2.318  11.435  0.1512 -0.5274  0.4262
   37TMC2    O1  585   1.172   2.841  11.510 -0.0404 -0.5851  0.1253
   37TMC2    O2  586   1.436   2.247  11.533 -0.0333  0.4805 -0.3230
   37TMC2    O5  587   1.528   2.372  11.368  0.0400 -0.2604  0.4795
   37TMC2    H5  588   1.517   2.432  11.292  0.4409  1.4535  1.7709
   38MPD2     C  589   0.789   2.469  12.087  0.6911  0.0604 -0.0208
   38MPD2    C1  590   0.912   2.541  12.101  0.0925 -0.1695  0.1669
   38MPD2    C2  591   0.985   2.544  11.982 -0.4522  0.3075 -0.1368
   38MPD2    C3  592   0.954   2.471  11.872 -0.4231  0.3155  1.1363
   38MPD2    C4  593   0.841   2.391  11.868 -0.0529 -0.7976 -0.1896
   38MPD2    C5  594   0.763   2.395  11.980  0.1485 -0.6706  0.3521
   38MPD2     H  595   1.070   2.611  11.970 -1.6504  1.7607 -0.6203
   38MPD2    H1  596   0.822   2.329  11.782  1.5802  0.6409 -1.5939
   38MPD2    H2  597   0.725   2.467  12.174  0.1171  1.2035 -0.4195
   38MPD2    H3  598   0.678   2.329  11.992  0.1128 -0.4342  1.3879
   38MPD2     N  599   1.040   2.490  11.762 -0.4715  0.2206  0.1343
   38MPD2    H5  600   1.101   2.570  11.768 -1.2590  0.8207  0.1199
   38MPD2    N1  601   0.950   2.620  12.213  0.7731  0.0022 -1.2494
   38MPD2    H7  602   1.027   2.685  12.203  0.0810  0.5863 -2.7947
   39TMC2    C1  603   4.149   0.148   1.486  0.6570  0.6622 -0.2656
   39TMC2    C2  604   4.275   0.099   1.522  0.2363 -0.5516  0.1520
   39TMC2    C3  605   4.373   0.192   1.529 -1.0061  0.8126  0.2523
   39TMC2    C4  606   4.125   0.280   1.455 -0.1948 -0.1757 -0.4271
   39TMC2    C5  607   4.231   0.366   1.458 -0.7214 -1.5361  0.6944
   39TMC2    C6  608   4.352   0.325   1.505 -0.2440 -0.0272 -0.7672
   39TMC2     C  609   4.046   0.054   1.440 -0.1180 -0.6330 -0.2421
   39TMC2     O  610   3.930   0.090   1.452  0.1355  0.8077  0.1840
   39TMC2     H  611   4.282   0.013   1.587  0.3392 -1.2292 -0.7466
   39TMC2    H1  612   4.033   0.309   1.406  0.6540  3.3745  0.0440
   39TMC2    H2  613   4.438   0.390   1.512 -0.1100 -0.1750 -1.0470
   39TMC2    C7  614   4.205   0.511   1.433  0.5018  0.3726 -0.0476
   39TMC2    C8  615   4.492   0.144   1.597  0.1601 -0.1396  0.2264
   39TMC2    O1  616   4.092   0.544   1.414 -0.0041 -0.1379 -0.1878
   39TMC2    O2  617   4.501   0.035   1.656  0.4703  0.5024 -0.2959
   39TMC2    O5  618   4.598   0.216   1.566  0.5512 -0.0423 -0.1853
   39TMC2    H5  619   4.568   0.290   1.509 -1.1319 -0.1641  0.5210
   40MPD2     C  620   4.086   4.437   1.340 -0.6767 -0.0631  0.4369
   40MPD2    C1  621   4.013   4.550   1.367  0.2658 -0.2465 -1.5349
   40MPD2    C2  622   3.877   4.550   1.362  0.2183 -0.6365 -0.2108
   40MPD2    C3  623   3.813   4.429   1.337 -1.1080 -0.4282 -0.4006
   40MPD2    C4  624   3.890   4.318   1.298 -0.4499  0.0703  0.7517
   40MPD2    C5  625   4.022   4.323   1.299 -0.3683  0.4533 -0.6596
   40MPD2     H  626   3.820   4.642   1.373  1.4713  0.1790 -0.4347
   40MPD2    H1  627   3.841   4.223   1.282 -1.7207  0.6763  1.0164
   40MPD2    H2  628   4.194   4.435   1.338 -0.6429  2.9087  0.0709
   40MPD2    H3  629   4.072   4.229   1.279 -0.2622 -0.2332  2.7009
   40MPD2     N  630   3.672   4.403   1.347 -0.7044  0.1708 -0.4916
   40MPD2    H5  631   3.636   4.312   1.318 -1.5421  0.5024 -0.4891
   40MPD2    N1  632   4.096   4.664   1.395  0.0989  0.1958  0.7676
   40MPD2    H7  633   4.197   4.656   1.400  0.2354  0.0545 -2.1535
   41TMC2    C1  634   2.894   2.898  13.532  0.2950 -0.1937 -0.2073
   41TMC2    C2  635   2.930   2.920  13.662 -0.3923  0.2744 -0.0387
   41TMC2    C3  636   3.041   2.993  13.677 -0.1015  0.0785  0.5264
   41TMC2    C4  637   2.950   2.964  13.419  0.4368 -0.5291 -0.7898
   41TMC2    C5  638   3.060   3.037  13.444 -1.1406  0.3126  0.0692
   41TMC2    C6  639   3.099   3.062  13.569 -0.3941  0.3928  0.2880
   41TMC2     C  640   2.775   2.818  13.506 -0.5798 -0.5298 -0.3815
   41TMC2     O  641   2.725   2.825  13.393  0.0489 -0.1839 -0.2136
   41TMC2     H  642   2.877   2.876  13.746 -0.0503 -1.0629 -0.5329
   41TMC2    H1  643   2.912   2.933  13.323  1.9267 -0.7033 -1.3099
   41TMC2    H2  644   3.183   3.129  13.584  0.7927 -0.9238 -0.5784
   41TMC2    C7  645   3.148   3.083  13.339 -0.4354  0.4331  0.5554
   41TMC2    C8  646   3.100   3.003  13.812 -0.4494  1.0307 -0.3401
   41TMC2    O1  647   3.261   3.120  13.366 -0.9233  0.1713  0.4266
   41TMC2    O2  648   3.209   3.058  13.819 -0.2677  0.3406  0.0187
   41TMC2    O5  649   3.017   2.982  13.908 -0.4661 -0.1748  0.3215
   41TMC2    H5  650   2.924   2.971  13.878 -0.7217 -2.9688  2.1457
   42MPD2     C  651   2.499   2.689  13.535 -0.1064  0.2309  0.1301
   42MPD2    C1  652   2.601   2.694  13.633  1.0114  0.5287  0.5045
   42MPD2    C2  653   2.562   2.673  13.759 -0.3013  0.2457  0.4320
   42MPD2    C3  654   2.430   2.632  13.786 -0.0419 -0.2638  0.2350
   42MPD2    C4  655   2.334   2.624  13.693  0.1664 -0.3060  0.5306
   42MPD2    C5  656   2.369   2.654  13.564  0.3301  0.4032  0.1046
   42MPD2     H  657   2.629   2.706  13.838  1.9713 -1.5974 -0.7404
   42MPD2    H1  658   2.228   2.608  13.710  0.4264 -2.6174 -0.0402
   42MPD2    H2  659   2.509   2.715  13.430  0.0518  0.6663  0.2504
   42MPD2    H3  660   2.290   2.660  13.489 -2.2997 -0.2130  2.8502
   42MPD2     N  661   2.405   2.620  13.923  0.2022 -0.4513  0.3558
   42MPD2    H5  662   2.487   2.631  13.981 -0.7197  1.6241  1.2654
   42MPD2    N1  663   2.732   2.758  13.613 -0.1837  0.1092 -0.0557
   42MPD2    H7  664   2.796   2.763  13.691 -0.7198  1.9084  0.2619
   43TMC2    C1  665   4.423   0.765   0.586  0.3213  0.5530 -0.4895
   43TMC2    C2  666   4.300   0.803   0.628  0.4411 -0.4123  0.1622
   43TMC2    C3  667   4.290   0.937   0.670  0.6604  0.2438 -0.0636
   43TMC2    C4  668   4.535   0.839   0.601  0.3010 -0.9256  0.4893
   43TMC2    C5  669   4.524   0.954   0.673 -0.4683 -0.0130 -0.5335
   43TMC2    C6  670   4.399   1.015   0.693  0.3064 -0.9411  0.6882
   43TMC2     C  671   4.434   0.638   0.516  0.5758 -0.0154 -0.8131
   43TMC2     O  672   4.545   0.602   0.478 -0.1578  0.2052  0.0335
   43TMC2     H  673   4.206   0.749   0.633 -0.6297  1.4373 -0.0767
   43TMC2    H1  674   4.623   0.800   0.551  0.8162  0.3756  0.3892
   43TMC2    H2  675   4.382   1.109   0.743 -0.3565 -0.2908 -0.7597
   43TMC2    C7  676   4.646   1.018   0.694 -0.0065  0.3747  1.3295
   43TMC2    C8  677   4.158   0.993   0.699  0.9407  0.2164 -0.1818
   43TMC2    O1  678   0.009   0.975   0.627 -0.2290  0.1194 -0.2766
   43TMC2    O2  679   4.150   1.062   0.801 -0.0027  0.1953 -0.1888
   43TMC2    O5  680   4.060   0.922   0.633 -0.0442  0.3100 -0.4292
   43TMC2    H5  681   4.071   0.876   0.547 -0.1471  0.4504 -0.5179
   44MPD2     C  682   4.271   0.181   0.371 -1.3259 -0.3299 -0.8573
   44MPD2    C1  683   4.390   0.243   0.352 -0.4158  0.3182 -0.3048
   44MPD2    C2  684   4.403   0.377   0.385  0.3149 -0.1630  0.0414
   44MPD2    C3  685   4.302   0.456   0.441  0.8498  0.2430  0.0857
   44MPD2    C4  686   4.185   0.388   0.445 -0.3791 -0.1631 -0.3340
   44MPD2    C5  687   4.167   0.255   0.420  0.3856 -0.0317  0.0875
   44MPD2     H  688   4.506   0.409   0.370 -0.0559  1.0928  0.1464
   44MPD2    H1  689   4.095   0.442   0.474 -0.9405 -2.1769  1.5832
   44MPD2    H2  690   4.268   0.073   0.357  1.4756 -0.3753 -0.9287
   44MPD2    H3  691   4.074   0.199   0.427 -0.0160  0.8468  1.7215
   44MPD2     N  692   4.313   0.584   0.501  0.4799  0.0473 -0.6062
   44MPD2    H5  693   4.227   0.635   0.516  0.3984 -0.3356  0.2488
   44MPD2    N1  694   4.508   0.173   0.319  0.1187 -0.9245 -0.4103
   44MPD2    H7  695   4.593   0.227   0.303  0.4320 -1.3328 -0.1179
   45TMC2    C1  696   0.156   2.653  10.199  0.8359 -0.0393  0.0256
   45TMC2    C2  697   0.234   2.547  10.220 -0.6345 -0.1593 -0.2730
   45TMC2    C3  698   0.350   2.561  10.296 -0.0526  0.9961 -0.2593
   45TMC2    C4  699   0.191   2.778  10.249  0.4528  0.1337  1.0271
   45TMC2    C5  700   0.295   2.790  10.336 -0.1871 -0.1626 -0.4781
   45TMC2    C6  701   0.379   2.682  10.358  0.2565  0.5571 -0.8213
   45TMC2     C  702   0.031   2.635  10.136  0.1120  0.0097  0.1180
   45TMC2     O  703   4.722   2.521  10.117 -0.8420 -0.5017 -0.2150
   45TMC2     H  704   0.211   2.452  10.173 -0.4389 -0.3778  0.0738
   45TMC2    H1  705   0.131   2.869  10.246 -1.5209 -1.1878  0.7569
   45TMC2    H2  706   0.473   2.692  10.410  0.6873 -1.3675 -1.2082
   45TMC2    C7  707   0.350   2.916  10.373 -0.4582 -0.9240  0.1486
   45TMC2    C8  708   0.425   2.436  10.325 -0.2184 -0.0477  0.6013
   45TMC2    O1  709   0.444   2.918  10.456  0.4205  0.3419 -0.1941
   45TMC2    O2  710   0.422   2.332  10.262  0.0663 -0.3998 -0.4115
   45TMC2    O5  711   0.466   2.446  10.457  0.5293 -0.3695  0.4560
   45TMC2    H5  712   0.434   2.525  10.507 -2.6338 -0.3241 -1.6038
   46MPD2     C  713   4.555   2.642   9.912  0.7176  0.7481  0.2357
   46MPD2    C1  714   4.606   2.754   9.977 -0.0832 -0.1503 -0.7025
   46MPD2    C2  715   4.566   2.884   9.933 -0.2744 -0.1849 -0.0439
   46MPD2    C3  716   4.463   2.897   9.846  0.3752 -0.3023  0.5523
   46MPD2    C4  717   4.415   2.784   9.784  0.6865  0.4521  0.3709
   46MPD2    C5  718   4.460   2.657   9.819  0.1868 -0.0691  0.7909
   46MPD2     H  719   4.610   2.972   9.979 -0.3521 -0.2713  0.1997
   46MPD2    H1  720   4.325   2.781   9.724  0.1616 -3.1503  1.3298
   46MPD2    H2  721   4.581   2.544   9.949  0.2793  0.9081  0.9547
   46MPD2    H3  722   4.413   2.566   9.782 -3.1878  2.4773 -1.1443
   46MPD2     N  723   4.420   3.029   9.825  0.2892 -0.7342  0.1697
   46MPD2    H5  724   4.462   3.103   9.879  3.0028 -0.1737 -2.7114
   46MPD2    N1  725   4.717   2.746  10.075 -0.2701  0.5395  0.1559
   46MPD2    H7  726   0.030   2.836  10.091  2.1307 -0.2658 -2.0004
   47TMC2    C1  727   3.026   4.308   9.672  0.1924 -0.0175 -0.1585
   47TMC2    C2  728   3.030   4.425   9.605 -0.3324  0.0374 -0.4205
   47TMC2    C3  729   2.944   4.445   9.502 -0.5905 -0.4739 -0.3168
   47TMC2    C4  730   2.938   4.210   9.641 -0.6736  0.1974  0.1058
   47TMC2    C5  731   2.846   4.234   9.540 -0.0908 -0.4155 -0.1309
   47TMC2    C6  732   2.851   4.351   9.472 -0.3017 -0.2049  0.7584
   47TMC2     C  733   3.154   4.248   9.718  0.2785  0.1502  0.1274
   47TMC2     O  734   3.237   4.318   9.777 -0.0580  0.0847 -0.6566
   47TMC2     H  735   3.123   4.480   9.617 -0.8271  0.9383 -0.6915
   47TMC2    H1  736   2.929   4.117   9.696 -1.7877  2.0343  3.0384
   47TMC2    H2  737   2.780   4.373   9.394  0.6103 -0.8960 -0.2578
   47TMC2    C7  738   2.791   4.116   9.487  0.4715 -0.5273 -0.4245
   47TMC2    C8  739   2.925   4.582   9.458 -0.3507  0.2448 -0.1671
   47TMC2    O1  740   2.866   4.013   9.493 -0.3393 -0.3733  0.1032
   47TMC2    O2  741   2.950   4.680   9.527  0.4558 -0.3738 -0.1293
   47TMC2    O5  742   2.924   4.586   9.327 -0.0072  0.6355 -0.2704
   47TMC2    H5  743   2.952   4.499   9.292 -0.9899 -0.2387  1.0890
   48MPD2     C  744   3.346   4.038   9.827 -0.3328  0.7411  1.0709
   48MPD2    C1  745   3.237   4.013   9.738  0.4684 -0.7276  0.2466
   48MPD2    C2  746   3.220   3.883   9.691 -0.6895  0.0893  0.1914
   48MPD2    C3  747   3.292   3.776   9.735 -0.1024 -0.1108 -0.6592
   48MPD2    C4  748   3.390   3.803   9.832 -0.4060 -0.1937  0.0546
   48MPD2    C5  749   3.416   3.933   9.872  0.5930  0.5683 -0.3523
   48MPD2     H  750   3.144   3.865   9.615 -0.8533 -0.9854  0.6186
   48MPD2    H1  751   3.449   3.724   9.877 -0.2449 -0.5773 -0.8230
   48MPD2    H2  752   3.366   4.138   9.865  1.9074  1.4201 -1.9085
   48MPD2    H3  753   3.495   3.949   9.944  1.3879  3.3961 -1.8748
   48MPD2     N  754   3.253   3.642   9.695 -0.5050 -0.4806 -0.2917
   48MPD2    H5  755   3.187   3.639   9.618 -0.5732 -2.8920 -0.1422
   48MPD2    N1  756   3.161   4.116   9.682  0.3952 -0.1611  0.3475
   48MPD2    H7  757   3.094   4.098   9.608  0.8289 -0.0762 -0.0635
   49TMC2    C1  758   3.883   0.376  10.216  0.6151  0.4415  0.2942
   49TMC2    C2  759   3.927   0.469  10.125 -0.0412  0.4908  0.3783
   49TMC2    C3  760   3.843   0.479  10.013  0.3220  0.3897 -0.8322
   49TMC2    C4  761   3.782   0.284  10.186 -0.4979 -0.1369  0.0250
   49TMC2    C5  762   3.708   0.297  10.074 -0.1179 -0.1004 -0.1862
   49TMC2    C6  763   3.729   0.400   9.991 -1.1939 -0.6960  0.4732
   49TMC2     C  764   3.943   0.357  10.347 -0.4752 -1.0014 -0.6376
   49TMC2     O  765   3.886   0.283  10.431  0.2353 -0.0741 -0.1504
   49TMC2     H  766   3.995   0.550  10.148  0.3976  0.2968 -0.2267
   49TMC2    H1  767   3.764   0.201  10.252  0.1323 -1.1763 -1.1045
   49TMC2    H2  768   3.691   0.409   9.890  0.5952 -2.5021 -0.3672
   49TMC2    C7  769   3.609   0.193  10.051 -0.4886  0.2169 -0.7838
   49TMC2    C8  770   3.862   0.576   9.911 -0.6343  0.3707  0.3981
   49TMC2    O1  771   3.606   0.091  10.121  0.1519  0.5484  0.4530
   49TMC2    O2  772   3.764   0.638   9.874 -0.2291  0.2774 -0.0192
   49TMC2    O5  773   3.990   0.613   9.907  0.0275  0.3335  0.0160
   49TMC2    H5  774   4.050   0.537   9.922  1.0040  1.0145 -0.4481
   50MPD2     C  775   4.110   0.362  10.591 -0.4900  0.7492  0.4922
   50MPD2    C1  776   4.142   0.426  10.473 -0.1294  0.1558 -0.4374
   50MPD2    C2  777   4.251   0.511  10.475  0.4537 -0.3316 -0.0969
   50MPD2    C3  778   4.312   0.539  10.596 -0.2259 -0.2817 -0.6572
   50MPD2    C4  779   4.286   0.458  10.708  0.2143  0.2963  0.4088
   50MPD2    C5  780   4.183   0.371  10.704  0.1080 -0.4771  0.0906
   50MPD2     H  781   4.264   0.571  10.386  3.4068 -1.1638 -0.2216
   50MPD2    H1  782   4.344   0.472  10.798 -0.2576 -1.3881  0.9882
   50MPD2    H2  783   4.021   0.300  10.601 -2.5395  3.2110 -2.6016
   50MPD2    H3  784   4.155   0.320  10.796 -0.1436 -1.1397 -0.3527
   50MPD2     N  785   4.419   0.628  10.614  0.4762 -0.0554  0.1022
   50MPD2    H5  786   4.457   0.633  10.709  1.4361 -1.6037 -0.2036
   50MPD2    N1  787   4.061   0.425  10.357  0.2938  0.3026 -0.3283
   50MPD2    H7  788   4.079   0.495  10.287 -1.5246 -0.4956 -1.5913
   51TMC2    C1  789   0.775   4.592   1.196 -0.6660  0.1940 -0.3940
   51TMC2    C2  790   0.653   4.611   1.264  0.3899 -0.0468  0.1363
   51TMC2    C3  791   0.586   4.727   1.239 -0.0475 -0.5747  0.2606
   51TMC2    C4  792   0.824   4.683   1.108  0.3391  0.5866  0.0649
   51TMC2    C5  793   0.754   0.069   1.093 -0.1689  0.6058 -0.1413
   51TMC2    C6  794   0.630   0.087   1.145 -0.3827 -0.2712  0.0688
   51TMC2     C  795   0.865   4.482   1.241 -0.1678 -0.3278 -0.1747
   51TMC2     O  796   0.960   4.463   1.169  0.3470  1.1566 -0.4050
   51TMC2     H  797   0.605   4.536   1.326  1.0742  0.1272  0.8780
   51TMC2    H1  798   0.916   4.654   1.059 -0.0031  0.3712 -0.4421
   51TMC2    H2  799   0.575   0.180   1.137 -0.5380 -0.1539  2.3925
   51TMC2    C7  800   0.830   0.189   1.043 -0.1310  0.5079 -0.0805
   51TMC2    C8  801   0.458   0.004   1.294  0.3022 -0.7322 -0.4311
   51TMC2    O1  802   0.946   0.166   1.031 -0.6433 -0.5044 -0.2227
   51TMC2    O2  803   0.421   4.680   1.399 -0.2096 -0.2876  0.9994
   51TMC2    O5  804   0.371   0.052   1.198  0.0734  0.9754 -0.3582
   51TMC2    H5  805   0.426   0.069   1.119  0.0014 -0.8816 -0.8111
   52MPD2     C  806   1.070   4.181   1.601  0.0902  0.6270 -0.5141
   52MPD2    C1  807   1.123   4.228   1.478  0.4497  0.1110 -0.5201
   52MPD2    C2  808   1.040   4.307   1.397 -0.5604  0.4107 -0.4239
   52MPD2    C3  809   0.907   4.327   1.428  0.0842  0.2159  0.0981
   52MPD2    C4  810   0.855   4.272   1.539 -0.0232  0.1357 -0.5540
   52MPD2    C5  811   0.936   4.203   1.626  0.5761 -0.4270  0.0662
   52MPD2     H  812   1.090   4.362   1.318  0.9452 -1.8296 -1.0409
   52MPD2    H1  813   0.754   4.295   1.571  0.0734 -1.1563  0.6806
   52MPD2    H2  814   1.119   4.115   1.672 -3.3144  0.9862  2.1560
   52MPD2    H3  815   0.897   4.165   1.720 -1.4246  1.1906 -0.1005
   52MPD2     N  816   0.823   4.414   1.356 -0.4657  0.5470 -0.0045
   52MPD2    H5  817   0.730   4.438   1.389 -0.3939 -1.3390  1.6385
   52MPD2    N1  818   1.256   4.221   1.446  0.7077  0.8948  0.6537
   52MPD2    H7  819   1.283   4.277   1.366  0.9100 -0.6383 -0.3367
   53TMC2    C1  820   1.339   3.442  11.735 -0.1439  0.0282 -0.4581
   53TMC2    C2  821   1.252   3.540  11.700 -0.2432 -0.0872 -0.4816
   53TMC2    C3  822   1.163   3.588  11.795  0.0443  1.1806 -0.0975
   53TMC2    C4  823   1.341   3.384  11.861  0.4243 -0.2648 -0.2337
   53TMC2    C5  824   1.255   3.436  11.950  0.8604  0.6749  0.6105
   53TMC2    C6  825   1.164   3.535  11.919  0.3134 -0.0927 -0.5160
   53TMC2     C  826   1.426   3.383  11.638 -0.0872  0.1661 -0.1370
   53TMC2     O  827   1.479   3.454  11.554  0.4594  0.6459  0.0790
   53TMC2     H  828   1.254   3.582  11.600 -0.1678  1.1301  0.0288
   53TMC2    H1  829   1.420   3.313  11.878  0.7333 -0.0525 -0.8016
   53TMC2    H2  830   1.092   3.565  11.994 -0.2877  0.2041 -1.2191
   53TMC2    C7  831   1.230   3.362  12.077  0.1843 -0.5362  0.6985
   53TMC2    C8  832   1.056   3.677  11.762  0.2209  0.4749 -0.3727
   53TMC2    O1  833   1.117   3.368  12.119 -0.1465 -0.0543 -0.4585
   53TMC2    O2  834   0.954   3.687  11.833  0.3178 -0.3022 -0.1997
   53TMC2    O5  835   1.079   3.749  11.650  0.3447  0.3833 -0.2421
   53TMC2    H5  836   1.171   3.752  11.615  0.4521  0.7695  0.0637
   54MPD2     C  837   1.556   3.189  11.427  0.2395 -0.6284 -1.0426
   54MPD2    C1  838   1.448   3.172  11.506  0.1175  0.1546  0.8911
   54MPD2    C2  839   1.391   3.046  11.494 -0.0648 -0.2869 -0.1703
   54MPD2    C3  840   1.436   2.944  11.408  0.0634 -0.1979 -0.1358
   54MPD2    C4  841   1.535   2.969  11.323 -0.5941 -0.5440 -0.1522
   54MPD2    C5  842   1.599   3.096  11.335  0.2434  0.0768 -0.6893
   54MPD2     H  843   1.312   3.035  11.567  1.8315 -1.7915  1.6735
   54MPD2    H1  844   1.559   2.891  11.251 -2.5685 -0.7401 -0.6011
   54MPD2    H2  845   1.617   3.279  11.434  0.8130 -1.1338  0.4891
   54MPD2    H3  846   1.680   3.126  11.270  1.6761  0.5415  1.3034
   54MPD2     N  847   1.377   2.815  11.397 -0.1403  0.1748 -0.3686
   54MPD2    H5  848   1.429   2.739  11.353  0.0997  0.1337 -0.0134
   54MPD2    N1  849   1.411   3.246  11.621  0.3824  0.0252 -0.0654
   54MPD2    H7  850   1.341   3.206  11.682  0.5160  0.5330  0.4194
   55TMC2    C1  851   2.682   1.276   0.087 -0.4593  0.2468  0.7800
   55TMC2    C2  852   2.695   1.356  17.697  0.5473  0.8445 -0.3769
   55TMC2    C3  853   2.703   1.293  17.572  0.0669 -0.2809  0.9691
   55TMC2    C4  854   2.668   1.147   0.079  0.5328  0.0316  0.2303
   55TMC2    C5  855   2.679   1.088  17.685 -1.1467 -0.8774 -0.5342
   55TMC2    C6  856   2.697   1.158  17.568 -0.4475 -0.6743  0.2325
   55TMC2     C  857   2.623   1.336   0.202 -0.0020  0.2453  0.4319
   55TMC2     O  858   2.506   1.316   0.235 -0.0608  0.5483 -0.4844
   55TMC2     H  859   2.676   1.462  17.707  0.7548  0.8169  0.3791
   55TMC2    H1  860   2.655   1.089   0.170  0.4397  0.4547  0.4880
   55TMC2    H2  861   2.705   1.104  17.474  2.4312 -0.3673  0.2870
   55TMC2    C7  862   2.642   0.952  17.667  0.5595 -0.1038  0.8717
   55TMC2    C8  863   2.633   1.364  17.459 -0.3453  0.7257  0.0964
   55TMC2    O1  864   2.693   0.891  17.573 -0.1541  0.2857 -0.1612
   55TMC2    O2  865   2.520   1.411  17.470  0.3370 -0.0288 -0.3162
   55TMC2    O5  866   2.685   1.315  17.345  0.1532 -0.3446 -0.5472
   55TMC2    H5  867   2.773   1.272  17.345 -0.4925 -1.6665 -0.8481
   56MPD2     C  868   2.807   1.531   0.449 -0.4391 -0.3898 -0.2973
   56MPD2    C1  869   2.693   1.478   0.392 -0.8333 -0.0114 -0.6219
   56MPD2    C2  870   2.574   1.504   0.449  0.0549 -0.3868 -0.1342
   56MPD2    C3  871   2.568   1.574   0.569  0.0333 -0.2841 -0.3285
   56MPD2    C4  872   2.691   1.625   0.625  0.2796 -0.8122  0.3351
   56MPD2    C5  873   2.809   1.607   0.560  0.3073 -0.4928  0.3609
   56MPD2     H  874   2.486   1.481   0.390  0.8262 -1.8461 -0.7292
   56MPD2    H1  875   2.690   1.684   0.716  0.2406  1.0442 -0.8714
   56MPD2    H2  876   2.904   1.520   0.402 -0.4374 -1.1639 -0.1054
   56MPD2    H3  877   2.905   1.642   0.596 -0.1749  0.4373  0.7443
   56MPD2     N  878   2.437   1.603   0.627  0.7922 -0.4676  0.1366
   56MPD2    H5  879   2.356   1.565   0.578  2.4567  0.4911 -3.3577
   56MPD2    N1  880   2.713   1.415   0.269  0.4945 -0.4572  0.1240
   56MPD2    H7  881   2.810   1.421   0.239 -0.4289 -0.0100 -2.8015
   57TMC2    C1  882   1.623   1.776  13.833  0.0739  0.7638 -0.6758
   57TMC2    C2  883   1.650   1.671  13.918 -0.3525  0.5791 -0.0960
   57TMC2    C3  884   1.715   1.563  13.866  0.7674  0.6349  0.6679
   57TMC2    C4  885   1.650   1.771  13.697 -0.2973 -0.4603 -0.0344
   57TMC2    C5  886   1.699   1.656  13.643 -0.0551 -0.0412 -0.0571
   57TMC2    C6  887   1.736   1.550  13.728  0.1032 -0.3043  0.9655
   57TMC2     C  888   1.497   1.842  13.854  0.3407 -0.3612 -0.7340
   57TMC2     O  889   1.415   1.825  13.771  1.0268  0.2260 -0.4415
   57TMC2     H  890   1.611   1.671  14.019  0.1702 -0.2984  0.1015
   57TMC2    H1  891   1.616   1.849  13.630 -1.2078 -1.8285 -1.1696
   57TMC2    H2  892   1.786   1.461  13.692  0.6512  1.5148 -2.6486
   57TMC2    C7  893   1.725   1.656  13.503  0.1792 -0.3883  0.2307
   57TMC2    C8  894   1.708   1.441  13.941 -0.0970 -0.5390  0.4402
   57TMC2    O1  895   1.724   1.763  13.441  0.8726  0.3449 -0.6868
   57TMC2    O2  896   1.788   1.414  14.028 -0.8119  0.1701  0.2475
   57TMC2    O5  897   1.637   1.358  13.859  0.0315 -0.5466  0.0126
   57TMC2    H5  898   1.565   1.407  13.816  0.2860  1.8311  2.3122
   58MPD2     C  899   1.168   2.080  14.172 -0.1908 -0.3388  0.3192
   58MPD2    C1  900   1.159   2.026  14.044  0.6389  0.0386 -0.6226
   58MPD2    C2  901   1.263   1.965  13.980 -0.2348 -0.6606  0.1347
   58MPD2    C3  902   1.389   1.971  14.038 -0.1902 -0.1525  0.3781
   58MPD2    C4  903   1.408   2.023  14.166 -0.5054 -0.3932  0.7028
   58MPD2    C5  904   1.296   2.090  14.228  0.6322  0.6073  0.1816
   58MPD2     H  905   1.249   1.924  13.880 -0.0695 -0.1906 -0.0820
   58MPD2    H1  906   1.507   2.023  14.210  0.0910 -1.3235 -0.6437
   58MPD2    H2  907   1.079   2.109  14.227 -1.0914 -3.1912  0.4074
   58MPD2    H3  908   1.305   2.121  14.332 -1.3560  1.3901  0.1161
   58MPD2     N  909   1.497   1.901  13.980 -0.9563 -0.0407  0.4799
   58MPD2    H5  910   1.575   1.888  14.042 -0.1525  1.8738 -0.1221
   58MPD2    N1  911   1.041   2.013  13.972  0.2068 -0.7422 -0.3357
   58MPD2    H7  912   1.043   1.967  13.882 -1.3760 -1.2054 -0.1386
   59TMC2    C1  913   3.342   2.085  12.826 -0.1497 -0.3458  0.1474
   59TMC2    C2  914   3.342   1.975  12.903 -0.4550  0.7169 -0.0748
   59TMC2    C3  915   3.263   1.876  12.856  0.2730  0.0392 -0.4809
   59TMC2    C4  916   3.261   2.111  12.717 -0.9641 -0.8888 -0.0560
   59TMC2    C5  917   3.160   2.017  12.698 -0.0636  0.2882 -0.2359
   59TMC2    C6  918   3.165   1.899  12.761 -0.0096  0.0037 -0.4315
   59TMC2     C  919   3.456   2.179  12.832  0.1100  0.5338  0.8494
   59TMC2     O  920   3.463   2.255  12.739  0.1875 -0.0179 -0.4192
   59TMC2     H  921   3.423   1.953  12.972  0.5862  1.7991 -0.9620
   59TMC2    H1  922   3.254   2.211  12.674 -1.1811 -0.4460  1.0047
   59TMC2    H2  923   3.093   1.822  12.734  0.4118 -0.6355  0.2848
   59TMC2    C7  924   3.079   2.021  12.585 -0.7873 -0.8288  0.4887
   59TMC2    C8  925   3.223   1.771  12.958 -1.1804  0.4688  0.4873
   59TMC2    O1  926   2.994   1.938  12.571 -0.5604  0.2268  0.1010
   59TMC2    O2  927   3.254   1.777  13.073 -0.1810  0.2018 -0.2399
   59TMC2    O5  928   3.193   1.664  12.881  0.0538 -0.2226  0.0957
   59TMC2    H5  929   3.214   1.666  12.785  2.0078 -0.3817  0.5244
   60MPD2     C  930   3.737   2.280  12.822  0.2568  0.1420 -0.4063
   60MPD2    C1  931   3.689   2.206  12.930 -0.4042 -0.4092 -0.4488
   60MPD2    C2  932   3.766   2.185  13.041  0.3996 -0.6413 -0.0028
   60MPD2    C3  933   3.894   2.241  13.050 -0.1364  0.2153  0.4894
   60MPD2    C4  934   3.942   2.315  12.943 -0.3698  0.7355 -1.1382
   60MPD2    C5  935   3.865   2.331  12.829  0.3697 -0.1386 -0.4457
   60MPD2     H  936   3.733   2.120  13.121 -1.4890  1.0290  0.5750
   60MPD2    H1  937   4.038   2.365  12.954  0.0933  0.2152 -2.7687
   60MPD2    H2  938   3.681   2.296  12.731  0.6204  0.1163 -0.6348
   60MPD2    H3  939   3.899   2.402  12.753  1.6840 -1.2378 -0.8813
   60MPD2     N  940   3.986   2.222  13.157 -0.2499  0.1071  0.1419
   60MPD2    H5  941   4.078   2.264  13.148 -0.2308 -0.1585 -1.0111
   60MPD2    N1  942   3.552   2.154  12.929 -0.3997  0.3138 -0.2087
   60MPD2    H7  943   3.516   2.103  13.010  2.2385 -0.1258  0.7264
   61TMC2    C1  944   2.818   3.243  15.542  0.4170 -0.1065  0.0990
   61TMC2    C2  945   2.875   3.138  15.606 -1.2969  0.0532  0.2966
   61TMC2    C3  946   2.958   3.155  15.705 -0.4349  0.6792 -0.2777
   61TMC2    C4  947   2.846   3.371  15.578  0.3026  0.2199 -0.7561
   61TMC2    C5  948   2.936   3.393  15.678 -0.2845 -0.4108 -0.5166
   61TMC2    C6  949   2.990   3.282  15.747 -0.3954  0.0126 -0.0208
   61TMC2     C  950   2.775   3.231  15.404  0.1104  1.0782 -0.0536
   61TMC2     O  951   2.713   3.321  15.351 -0.0212 -0.5624  0.0055
   61TMC2     H  952   2.859   3.033  15.584  2.2377 -0.4621  0.2587
   61TMC2    H1  953   2.809   3.451  15.515 -1.8840 -1.0449 -1.0855
   61TMC2    H2  954   3.072   3.294  15.817  0.5801  0.2308 -1.1966
   61TMC2    C7  955   2.975   3.529  15.698 -0.3391 -0.6397 -0.4438
   61TMC2    C8  956   2.994   3.042  15.780 -0.2381 -0.1489  0.4721
   61TMC2    O1  957   2.923   3.616  15.632 -0.1744 -0.5929 -0.3284
   61TMC2    O2  958   3.078   2.967  15.738  0.1082  0.3399  0.1636
   61TMC2    O5  959   2.880   2.998  15.839  0.1611 -0.5450 -0.3529
   61TMC2    H5  960   2.826   3.080  15.848  0.9710 -0.1748  1.1474
   62MPD2     C  961   2.736   3.120  15.120 -0.3029  0.0299 -0.3887
   62MPD2    C1  962   2.838   3.079  15.210  0.3383 -0.6344 -0.0292
   62MPD2    C2  963   2.931   2.991  15.172  0.4237 -0.1799 -0.2056
   62MPD2    C3  964   2.933   2.949  15.041 -0.4825 -0.0109 -0.0916
   62MPD2    C4  965   2.858   3.012  14.947 -0.3397  0.5437  0.2559
   62MPD2    C5  966   2.753   3.095  14.992  0.1926 -0.7858  0.0644
   62MPD2     H  967   3.006   2.947  15.237 -0.2957 -0.7364  0.2368
   62MPD2    H1  968   2.862   2.981  14.843 -0.0102  3.4696 -0.6104
   62MPD2    H2  969   2.650   3.179  15.149  0.4265  2.5045 -3.2231
   62MPD2    H3  970   2.689   3.145  14.921  0.1740 -1.0584 -0.1082
   62MPD2     N  971   3.030   2.866  14.974 -0.5186 -0.1057  0.3878
   62MPD2    H5  972   3.015   2.849  14.875  1.4540  0.2723  0.0155
   62MPD2    N1  973   2.845   3.125  15.345 -0.0800 -0.5317 -0.1973
   62MPD2    H7  974   2.906   3.073  15.407  1.4664 -0.4531 -1.6762
   63TMC2    C1  975   2.546   3.871  10.135  0.3746  0.1404 -0.4595
   63TMC2    C2  976   2.650   3.858  10.227 -0.2582 -0.1470 -0.3104
   63TMC2    C3  977   2.766   3.930  10.203 -0.3977  0.0739  0.2291
   63TMC2    C4  978   2.557   3.958  10.027  0.1551  0.6684  0.6763
   63TMC2    C5  979   2.673   4.034  10.014 -0.2046  0.0774  0.6936
   63TMC2    C6  980   2.780   4.012  10.092  0.4033 -0.0869 -0.0140
   63TMC2     C  981   2.425   3.786  10.147  0.0960 -0.5538 -0.0599
   63TMC2     O  982   2.353   3.774  10.044  0.2367  0.4255  0.4822
   63TMC2     H  983   2.645   3.796  10.316  0.9746 -2.6267 -1.9668
   63TMC2    H1  984   2.476   3.978   9.957 -1.0954 -2.0779  1.3337
   63TMC2    H2  985   2.872   4.066  10.071  1.2489 -1.1389  0.9863
   63TMC2    C7  986   2.664   4.131   9.913  0.3274 -0.3780  0.2129
   63TMC2    C8  987   2.873   3.936  10.298  0.0722 -0.2123 -0.3654
   63TMC2    O1  988   2.607   4.110   9.804 -0.3592 -0.1723  0.2358
   63TMC2    O2  989   2.964   4.014  10.277 -0.0023  0.0551 -0.4098
   63TMC2    O5  990   2.881   3.820  10.363 -0.4599  0.2986  0.2403
   63TMC2    H5  991   2.807   3.756  10.367  3.0091 -3.6254  0.9532
   64MPD2     C  992   2.099   3.469  10.399 -0.2445 -0.0539 -0.4552
   64MPD2    C1  993   2.211   3.490  10.477  0.1696  0.2748 -0.6241
   64MPD2    C2  994   2.313   3.578  10.438 -0.5824 -0.4361  0.0340
   64MPD2    C3  995   2.297   3.655  10.321 -0.6216  0.0473  0.5483
   64MPD2    C4  996   2.180   3.641  10.252  0.0163  1.0369  0.3194
   64MPD2    C5  997   2.084   3.553  10.292 -0.3495  0.4791 -0.2253
   64MPD2     H  998   2.406   3.593  10.493 -0.3724 -0.3314 -0.3447
   64MPD2    H1  999   2.164   3.694  10.158  1.4502  0.6107 -0.1716
   64MPD2    H2 1000   2.007   3.415  10.420 -1.6129  1.7926 -1.6228
   64MPD2    H3 1001   1.990   3.556  10.238 -1.1905 -0.0352  1.2139
   64MPD2     N 1002   2.409   3.732  10.269  0.3978  0.0986 -0.0321
   64MPD2    H5 1003   2.477   3.746  10.343  0.1864  1.2516 -0.0492
   64MPD2    N1 1004   2.244   3.423  10.592  0.1749 -0.0857 -0.1405
   64MPD2    H7 1005   2.338   3.435  10.628  0.0410 -1.0830  0.5577
   65TMC2    C1 1006   3.377   3.242  15.721  0.3813  0.0564  0.6070
   65TMC2    C2 1007   3.317   3.198  15.600  0.3177 -0.0118  0.2856
   65TMC2    C3 1008   3.300   3.298  15.502 -0.4429 -0.2356 -0.0603
   65TMC2    C4 1009   3.426   3.367  15.735 -0.8241 -0.0853  0.3231
   65TMC2    C5 1010   3.417   3.455  15.626 -0.3336 -0.4993 -0.2088
   65TMC2    C6 1011   3.346   3.427  15.507 -0.4038 -0.7630  0.2876
   65TMC2     C 1012   3.388   3.151  15.831 -0.2080  0.4775  0.2423
   65TMC2     O 1013   3.387   3.199  15.942  0.8376 -0.1239 -0.0588
   65TMC2     H 1014   3.258   3.107  15.601  1.1734 -0.5715 -0.2707
   65TMC2    H1 1015   3.501   3.388  15.812  0.9543  0.2882 -1.5163
   65TMC2    H2 1016   3.321   3.495  15.427  0.4929  0.1516  0.7841
   65TMC2    C7 1017   3.490   3.581  15.636 -0.2623  0.2385  0.2761
   65TMC2    C8 1018   3.183   3.285  15.403  0.5620  0.0127  0.5771
   65TMC2    O1 1019   3.505   3.639  15.529 -0.1767  0.4990  0.3014
   65TMC2    O2 1020   3.102   3.377  15.390 -0.3628  0.0658  0.0479
   65TMC2    O5 1021   3.159   3.150  15.401 -0.1306 -0.4570  0.0400
   65TMC2    H5 1022   3.244   3.102  15.410  0.1551 -0.2088 -1.2790
   66MPD2     C 1023   3.329   2.929  16.030 -0.6096 -0.2050 -0.0972
   66MPD2    C1 1024   3.347   2.915  15.895 -0.2737  0.1614  0.3455
   66MPD2    C2 1025   3.345   2.789  15.844 -0.1705 -0.0934  0.0223
   66MPD2    C3 1026   3.331   2.677  15.924  0.5062 -0.0221 -0.8267
   66MPD2    C4 1027   3.313   2.700  16.058  0.0927 -0.1071  0.0725
   66MPD2    C5 1028   3.304   2.825  16.113  0.2263  0.0608  0.6540
   66MPD2     H 1029   3.369   2.780  15.739  0.6866  2.9038 -0.0312
   66MPD2    H1 1030   3.305   2.621  16.131  0.8583  0.4469  0.7548
   66MPD2    H2 1031   3.327   3.029  16.071  0.3018 -0.9439  1.7176
   66MPD2    H3 1032   3.286   2.831  16.220 -0.5031 -3.9141  0.7362
   66MPD2     N 1033   3.339   2.542  15.883 -0.5276  0.0624  0.4886
   66MPD2    H5 1034   3.322   2.468  15.951  2.4201 -1.6593 -0.6315
   66MPD2    N1 1035   3.380   3.019  15.798  0.4993 -0.2388 -0.0933
   66MPD2    H7 1036   3.396   2.993  15.701  3.2692  0.1006  0.2675
   67TMC2    C1 1037   2.929   1.753  14.757  0.2005 -0.4388  0.0161
   67TMC2    C2 1038   2.905   1.746  14.894  0.1918 -1.0216  0.0987
   67TMC2    C3 1039   2.987   1.812  14.972 -0.5652  0.3268  0.1660
   67TMC2    C4 1040   3.030   1.821  14.695  0.0267  0.3635  0.2315
   67TMC2    C5 1041   3.113   1.889  14.782  1.2638 -0.1175  0.5151
   67TMC2    C6 1042   3.090   1.889  14.921 -0.2742  0.3337  0.7479
   67TMC2     C 1043   2.821   1.705  14.671  0.3888  0.0780 -0.2337
   67TMC2     O 1044   2.734   1.628  14.713 -0.6166  0.0816 -0.6325
   67TMC2     H 1045   2.826   1.679  14.926 -1.2499  0.2165 -0.8450
   67TMC2    H1 1046   3.057   1.819  14.589  0.6155 -0.2096  0.3905
   67TMC2    H2 1047   3.155   1.939  14.993 -0.2632  0.9051  0.3372
   67TMC2    C7 1048   3.206   1.986  14.729  0.1771  0.7800  0.3317
   67TMC2    C8 1049   3.006   1.755  15.103  0.4156  0.1890 -0.5363
   67TMC2    O1 1050   3.242   1.964  14.615  0.0546 -0.0304 -0.4543
   67TMC2    O2 1051   2.972   1.640  15.138  0.5542  0.1227  0.1568
   67TMC2    O5 1052   2.985   1.862  15.183  0.0770 -0.5592 -0.1611
   67TMC2    H5 1053   2.988   1.946  15.132  2.0467 -0.3643  0.2895
   68MPD2     C 1054   2.669   1.638  14.426 -0.7137 -0.1521  0.3031
   68MPD2    C1 1055   2.757   1.751  14.439 -0.0346  0.5532  0.2944
   68MPD2    C2 1056   2.772   1.839  14.336  0.3847 -0.2706 -0.0465
   68MPD2    C3 1057   2.710   1.821  14.217 -0.0518 -0.0160  0.4341
   68MPD2    C4 1058   2.629   1.706  14.201  0.4109 -0.1245  1.0447
   68MPD2    C5 1059   2.612   1.620  14.301 -0.0356 -0.2246 -0.2031
   68MPD2     H 1060   2.838   1.923  14.355  1.1486 -0.4764 -1.7184
   68MPD2    H1 1061   2.578   1.689  14.107 -1.7537 -0.3537  2.2789
   68MPD2    H2 1062   2.652   1.563  14.502  2.7687 -1.6324 -0.3707
   68MPD2    H3 1063   2.544   1.537  14.282  0.6570 -0.4098 -1.8588
   68MPD2     N 1064   2.723   1.930  14.122 -0.0780  0.3740 -0.0192
   68MPD2    H5 1065   2.770   2.014  14.155 -0.3863  0.1520  0.9968
   68MPD2    N1 1066   2.817   1.786  14.559 -0.0237  0.3801  0.4238
   68MPD2    H7 1067   2.877   1.868  14.556 -1.0092  1.1093  0.9389
   69TMC2    C1 1068   1.188   3.416  12.621 -0.5550 -0.3107  0.4937
   69TMC2    C2 1069   1.054   3.404  12.590  0.2804  0.0136  0.7389
   69TMC2    C3 1070   1.001   3.471  12.484 -0.0788 -0.6481 -0.4638
   69TMC2    C4 1071   1.264   3.498  12.539  0.0563  0.1650 -0.4441
   69TMC2    C5 1072   1.204   3.570  12.436  0.1413 -0.1741  0.4482
   69TMC2    C6 1073   1.071   3.552  12.401 -0.0907  0.9851 -0.1647
   69TMC2     C 1074   1.240   3.344  12.737  0.1014  0.1405  0.0954
   69TMC2     O 1075   1.167   3.280  12.814 -0.3046 -0.3919 -0.0923
   69TMC2     H 1076   0.992   3.338  12.650 -0.8001 -0.2157 -0.6268
   69TMC2    H1 1077   1.372   3.494  12.552  0.0266  2.9142  0.4523
   69TMC2    H2 1078   1.040   3.572  12.300  1.2979  1.1205 -0.5611
   69TMC2    C7 1079   1.291   3.636  12.343 -0.1282 -0.6254 -0.3818
   69TMC2    C8 1080   0.876   3.417  12.449  0.0873 -0.4947 -0.2758
   69TMC2    O1 1081   1.401   3.583  12.324  0.0314  0.3831  0.1592
   69TMC2    O2 1082   0.818   3.325  12.499 -0.4409 -0.5982 -0.0209
   69TMC2    O5 1083   0.814   3.522  12.386  0.2204  0.1178 -0.8434
   69TMC2    H5 1084   0.864   3.606  12.388  0.0409  0.2171 -0.5969
   70MPD2     C 1085   1.597   3.279  12.798  0.8545 -0.1661  0.1928
   70MPD2    C1 1086   1.458   3.261  12.810 -0.5419 -0.6740  0.2034
   70MPD2    C2 1087   1.413   3.149  12.886 -0.2117  0.4682 -0.2279
   70MPD2    C3 1088   1.505   3.069  12.954 -0.6103  0.5494  0.0478
   70MPD2    C4 1089   1.645   3.094  12.945 -0.0643  0.3403  0.4808
   70MPD2    C5 1090   1.687   3.189  12.857 -0.3785 -0.2123 -0.2254
   70MPD2     H 1091   1.306   3.132  12.886  0.1316 -1.7535  4.4615
   70MPD2    H1 1092   1.706   3.023  13.000 -0.8700  0.0700  1.0314
   70MPD2    H2 1093   1.644   3.338  12.720  2.0322 -1.3141  0.0216
   70MPD2    H3 1094   1.792   3.211  12.842 -0.0945 -1.0060  0.6210
   70MPD2     N 1095   1.464   2.943  13.017  0.0946 -0.6415 -0.4002
   70MPD2    H5 1096   1.541   2.882  13.042 -1.4624 -2.3695  0.1526
   70MPD2    N1 1097   1.378   3.348  12.736 -0.6045 -0.0441  0.1804
   70MPD2    H7 1098   1.433   3.412  12.680 -1.0298  0.0607 -0.1155
   71TMC2    C1 1099   3.198   4.188   1.626  0.4905 -0.1346 -0.4802
   71TMC2    C2 1100   3.313   4.247   1.669  0.8582 -0.2487  0.0423
   71TMC2    C3 1101   3.302   4.353   1.755 -0.9664 -0.3468  0.6170
   71TMC2    C4 1102   3.078   4.221   1.686  0.2786 -0.0112 -0.0937
   71TMC2    C5 1103   3.069   4.330   1.768  0.0856 -0.7547 -0.0088
   71TMC2    C6 1104   3.179   4.407   1.796 -0.1505 -0.5060 -0.2039
   71TMC2     C 1105   3.195   4.095   1.512  0.6240 -0.2596  0.0188
   71TMC2     O 1106   3.301   4.069   1.453  0.4173 -0.3150 -0.5610
   71TMC2     H 1107   3.408   4.217   1.626  0.5614 -0.6476 -0.3473
   71TMC2    H1 1108   2.990   4.158   1.680  0.5344 -0.1739 -2.4600
   71TMC2    H2 1109   3.177   4.481   1.876 -1.2859  0.1674 -0.8604
   71TMC2    C7 1110   2.957   4.364   1.856 -0.2742  0.4670  0.0107
   71TMC2    C8 1111   3.413   4.402   1.828  0.5015  0.0930 -0.1764
   71TMC2    O1 1112   2.982   4.397   1.970  0.0255 -0.1821 -0.2503
   71TMC2    O2 1113   3.446   4.522   1.830  0.4188  0.0852 -0.0843
   71TMC2    O5 1114   3.494   4.302   1.847  0.0950 -0.2113 -0.2535
   71TMC2    H5 1115   3.445   4.218   1.847  1.8529 -1.2333 -1.6074
   72MPD2     C 1116   2.956   3.780   1.180  0.0051 -0.2210 -0.4213
   72MPD2    C1 1117   3.078   3.850   1.162  1.1054  0.3524  0.2433
   72MPD2    C2 1118   3.124   3.939   1.258 -0.3400  0.2691 -0.3816
   72MPD2    C3 1119   3.044   3.969   1.368  0.3421 -0.0550  0.4213
   72MPD2    C4 1120   2.926   3.908   1.373 -0.0965  0.7943  0.1846
   72MPD2    C5 1121   2.883   3.813   1.282 -1.4397 -0.5683 -0.0586
   72MPD2     H 1122   3.216   3.991   1.236 -0.1596  1.1575  2.5602
   72MPD2    H1 1123   2.865   3.931   1.459  0.2893  1.0743  0.3835
   72MPD2    H2 1124   2.921   3.696   1.121 -1.2657  0.4320 -0.5917
   72MPD2    H3 1125   2.792   3.754   1.291 -1.1790 -0.7861  1.1599
   72MPD2     N 1126   3.070   4.058   1.473 -0.3910  0.0355 -0.2895
   72MPD2    H5 1127   2.992   4.097   1.525  1.9470  2.1535  1.6561
   72MPD2    N1 1128   3.168   3.827   1.058 -0.6239  0.3143  0.1251
   72MPD2    H7 1129   3.260   3.870   1.057  0.3146 -1.6628 -0.0595
   73TMC2    C1 1130   3.080   0.593  14.406 -0.5732  0.2607 -0.1242
   73TMC2    C2 1131   3.061   0.726  14.437  0.4707  0.2043  0.1727
   73TMC2    C3 1132   3.123   0.781  14.550 -0.1244  0.8340 -0.2567
   73TMC2    C4 1133   3.153   0.516  14.495  0.3262  0.3127 -0.0792
   73TMC2    C5 1134   3.232   0.570  14.596 -0.3254  0.0220  0.7822
   73TMC2    C6 1135   3.201   0.703  14.629  0.2139  0.5823  0.5948
   73TMC2     C 1136   3.119   0.565  14.271  0.4375 -0.0524  0.8135
   73TMC2     O 1137   3.227   0.506  14.251  0.2630  0.6855 -0.6946
   73TMC2     H 1138   3.014   0.797  14.370 -0.2516 -1.7169 -1.3448
   73TMC2    H1 1139   3.166   0.410  14.480  0.0999  0.1523  0.8619
   73TMC2    H2 1140   3.252   0.751  14.712  0.1784  0.5384  0.6429
   73TMC2    C7 1141   3.377   0.558  14.588 -0.3844  0.8810  0.0716
   73TMC2    C8 1142   3.091   0.916  14.598 -0.4700  0.1982 -0.4519
   73TMC2    O1 1143   3.445   0.625  14.665  0.2796 -0.1829 -0.0742
   73TMC2    O2 1144   3.151   0.978  14.684 -0.0283  0.6310  0.3986
   73TMC2    O5 1145   2.956   0.924  14.578  0.7317  0.5358 -0.0660
   73TMC2    H5 1146   2.912   0.855  14.525 -0.3740  0.1573  1.3410
   74MPD2     C 1147   3.049   0.567  13.776 -0.1652  0.4406 -0.4245
   74MPD2    C1 1148   3.155   0.535  13.852 -0.1706 -0.4251 -0.4072
   74MPD2    C2 1149   3.140   0.532  13.985  0.0682 -0.6226 -0.6698
   74MPD2    C3 1150   3.024   0.574  14.046 -0.5173  0.1938  0.6307
   74MPD2    C4 1151   2.908   0.587  13.967 -0.3301  0.5795 -0.3034
   74MPD2    C5 1152   2.925   0.583  13.831  0.0681  0.2358  0.6864
   74MPD2     H 1153   3.234   0.517  14.038 -0.6125  0.6521  0.8933
   74MPD2    H1 1154   2.810   0.618  14.002  0.2412  0.2760  1.5481
   74MPD2    H2 1155   3.045   0.570  13.667  0.1181 -1.8104 -0.5023
   74MPD2    H3 1156   2.832   0.590  13.775 -0.1798 -1.0073  0.9412
   74MPD2     N 1157   3.023   0.602  14.184  0.1467  0.1822  0.2083
   74MPD2    H5 1158   2.928   0.610  14.220  0.9331 -0.1045  2.3238
   74MPD2    N1 1159   3.285   0.515  13.789  0.4698  0.3440 -0.1680
   74MPD2    H7 1160   3.295   0.538  13.690  1.2157  3.1168  0.5377
   75TMC2    C1 1161   2.713   2.042  13.932 -0.8748 -0.6870 -0.4874
   75TMC2    C2 1162   2.689   2.154  14.003  0.3776  0.0756  0.4745
   75TMC2    C3 1163   2.689   2.276  13.935  0.5672  0.1134 -0.2929
   75TMC2    C4 1164   2.706   2.050  13.791  0.1145 -1.3996  0.2679
   75TMC2    C5 1165   2.695   2.170  13.728  0.1677  0.4204 -0.4746
   75TMC2    C6 1166   2.695   2.286  13.802  0.1389 -0.5291 -0.4239
   75TMC2     C 1167   2.687   1.920  13.995  0.2363  0.4239  0.0358
   75TMC2     O 1168   2.644   1.825  13.933 -0.2699  1.0253 -0.9410
   75TMC2     H 1169   2.688   2.147  14.111 -1.1510  1.5628  0.5453
   75TMC2    H1 1170   2.713   1.960  13.732  0.1353  0.3405 -2.3764
   75TMC2    H2 1171   2.688   2.390  13.770 -0.7237 -0.3028  0.4732
   75TMC2    C7 1172   2.733   2.176  13.585 -0.0224  0.0160 -0.8201
   75TMC2    C8 1173   2.694   2.394  14.016  0.5362 -0.9813  0.3038
   75TMC2    O1 1174   2.735   2.076  13.515 -0.7835 -0.2370 -0.0704
   75TMC2    O2 1175   2.758   2.492  13.980  0.7506  0.3941 -0.3520
   75TMC2    O5 1176   2.606   2.392  14.115 -0.1178 -0.2435  0.1336
   75TMC2    H5 1177   2.554   2.309  14.114 -1.0074  0.3225 -0.2567
   76TMC2    C1 1178   1.941   2.729  11.965  0.3210  0.1192  0.6290
   76TMC2    C2 1179   1.840   2.648  11.927  0.4783 -0.3070  0.4279
   76TMC2    C3 1180   1.839   2.528  11.995 -0.0736 -0.3690  0.7664
   76TMC2    C4 1181   2.045   2.699  12.055  0.1622 -0.2347  0.3918
   76TMC2    C5 1182   2.044   2.574  12.107  0.0619 -0.6273 -0.0203
   76TMC2    C6 1183   1.947   2.488  12.077  0.1782 -0.3893  0.1677
   76TMC2     C 1184   1.946   2.860  11.908  0.0253 -0.6174  0.1280
   76TMC2     O 1185   1.841   2.903  11.856 -0.0191 -0.2919  0.0038
   76TMC2     H 1186   1.755   2.686  11.871  0.7698  1.6911  1.3545
   76TMC2    H1 1187   2.111   2.772  12.098  0.5244  0.1235 -0.7623
   76TMC2    H2 1188   1.929   2.398  12.135 -2.6019 -0.2281 -0.4322
   76TMC2    C7 1189   2.130   2.534  12.212 -0.2077  0.0978  0.0591
   76TMC2    C8 1190   1.728   2.440  11.975  0.3746  0.4460 -0.6436
   76TMC2    O1 1191   2.111   2.423  12.262  0.2508 -0.2333 -0.5221
   76TMC2    O2 1192   1.611   2.468  11.962 -0.0703 -0.0133  0.1240
   76TMC2    O5 1193   1.779   2.329  11.911  0.2138 -0.5814 -0.5531
   76TMC2    H5 1194   1.877   2.333  11.899  0.4326 -0.7200  1.2648
   77MPD2     C 1195   2.184   3.283  11.765 -0.5883 -0.2931  0.1403
   77MPD2    C1 1196   2.049   3.266  11.778 -0.0848  0.0663 -0.2784
   77MPD2    C2 1197   2.011   3.145  11.833  0.5499 -0.4556  0.0808
   77MPD2    C3 1198   2.105   3.047  11.877 -0.6761  0.6502  1.0234
   77MPD2    C4 1199   2.236   3.081  11.877 -0.5935  0.1978 -0.4994
   77MPD2    C5 1200   2.278   3.198  11.820  0.0153  1.1420 -0.0843
   77MPD2     H 1201   1.905   3.123  11.835  0.5798 -0.7458 -1.2608
   77MPD2    H1 1202   2.306   3.020  11.933  0.5892 -0.6970 -2.9345
   77MPD2    H2 1203   2.216   3.376  11.720 -0.3022 -0.0205  0.9177
   77MPD2    H3 1204   2.384   3.219  11.806  0.3246 -0.9406 -1.0350
   77MPD2     N 1205   2.071   2.917  11.915 -0.1858 -0.4453  0.1368
   77MPD2    H5 1206   2.144   2.858  11.953 -0.0067 -0.8496 -0.8200
   77MPD2    N1 1207   1.954   3.357  11.734  0.3070 -0.1662 -0.0963
   77MPD2    H7 1208   1.856   3.341  11.756  0.8125  0.0026  2.1947
   78TMC2    C1 1209   2.904   3.595   1.633  0.0435 -0.3748  0.1901
   78TMC2    C2 1210   2.923   3.691   1.732  0.1864 -0.6181 -0.0988
   78TMC2    C3 1211   3.033   3.768   1.736 -0.6306  0.2817 -0.4286
   78TMC2    C4 1212   2.998   3.568   1.536 -1.3240 -0.1561  0.5818
   78TMC2    C5 1213   3.108   3.653   1.537  0.7751 -0.0867 -0.3837
   78TMC2    C6 1214   3.123   3.746   1.638  0.2150  0.3379 -0.4880
   78TMC2     C 1215   2.785   3.515   1.640  1.0669  0.1596  0.3293
   78TMC2     O 1216   2.791   3.398   1.619 -0.1320  0.5860 -0.3086
   78TMC2     H 1217   2.851   3.715   1.809  0.3380 -1.3416  0.2581
   78TMC2    H1 1218   2.973   3.501   1.455  1.6925 -1.6015  0.8664
   78TMC2    H2 1219   3.200   3.821   1.626  1.0860 -0.7202 -1.4509
   78TMC2    C7 1220   3.206   3.638   1.433  0.4883 -0.0851 -0.1360
   78TMC2    C8 1221   3.063   3.882   1.823 -0.2833 -0.3425 -0.5427
   78TMC2    O1 1222   3.306   3.707   1.437 -0.4233  0.3117 -0.2626
   78TMC2    O2 1223   3.178   3.922   1.842 -0.9931  0.1925 -0.7779
   78TMC2    O5 1224   2.953   3.960   1.830  0.3568 -0.6243 -0.4948
   78TMC2    H5 1225   2.870   3.910   1.814  0.5663 -1.9254  2.6625
   79MPD1     C 1226   2.281   3.476   1.652  0.8094 -0.2356  0.7883
   79MPD1    C1 1227   2.371   3.373   1.680  0.2352 -0.2845 -0.5458
   79MPD1    C2 1228   2.504   3.408   1.671  0.0747 -0.6811  0.1204
   79MPD1    C3 1229   2.544   3.541   1.671  0.2870  0.4517 -0.2061
   79MPD1    C4 1230   2.451   3.638   1.650 -0.7154  0.0249  0.2455
   79MPD1    C5 1231   2.320   3.604   1.637 -0.3948 -0.6226  0.2959
   79MPD1     H 1232   2.571   3.324   1.689  2.2371  1.0834  0.2131
   79MPD1    H1 1233   2.482   3.741   1.658  0.2853 -0.2661  0.1383
   79MPD1    H2 1234   2.173   3.461   1.647  0.5736  1.7101 -0.3740
   79MPD1    H3 1235   2.259   3.692   1.622  0.2553 -0.3539 -0.8050
   79MPD1     N 1236   2.675   3.592   1.669 -0.2306  0.2684  0.3275
   79MPD1    H5 1237   2.690   3.692   1.669  3.2385 -0.2215  2.0529
   79MPD1    N1 1238   2.334   3.235   1.669 -0.0704  0.6727  0.3811
   79MPD1    H6 1239   2.396   3.159   1.694  0.7314  0.8434 -1.0916
   79MPD1    H7 1240   2.241   3.223   1.708  0.9561  0.4005  2.7338
   80TMC2    C1 1241   0.848   2.150  12.260  0.2950  0.0732 -0.6492
   80TMC2    C2 1242   0.813   2.088  12.145 -0.5505 -0.1590  0.7193
   80TMC2    C3 1243   0.681   2.083  12.109  0.2079  0.5982  0.4900
   80TMC2    C4 1244   0.753   2.195  12.340  0.9255 -0.0150 -0.3343
   80TMC2    C5 1245   0.626   2.192  12.306 -0.2292  0.1768 -0.5039
   80TMC2    C6 1246   0.584   2.142  12.187  0.9313  1.0939 -0.1631
   80TMC2     C 1247   0.989   2.131  12.302  0.0127  0.2593  0.3938
   80TMC2     O 1248   1.052   2.035  12.262 -0.4208 -0.0311  0.4595
   80TMC2     H 1249   0.892   2.051  12.081 -0.2749  1.5862  0.0363
   80TMC2    H1 1250   0.787   2.253  12.425 -0.6327 -1.0139  0.9635
   80TMC2    H2 1251   0.476   2.149  12.174  0.6456  1.1860  2.1692
   80TMC2    C7 1252   0.526   2.250  12.395 -0.0521 -0.1710 -0.6179
   80TMC2    C8 1253   0.636   2.009  11.991  0.0342  0.3043 -0.1254
   80TMC2    O1 1254   0.429   2.313  12.356  0.1402 -0.4945 -0.1850
   80TMC2    O2 1255   0.520   1.983  11.978 -0.7350  0.2255  0.1795
   80TMC2    O5 1256   0.709   2.070  11.891 -0.3698 -0.2325 -0.6087
   80TMC2    H5 1257   0.804   2.088  11.906  0.1560 -2.6297 -1.0013
   81MPD2     C 1258   1.238   2.156  12.484  0.2418  0.0578  0.2720
   81MPD2    C1 1259   1.169   2.258  12.421 -0.8468 -0.0675  0.0647
   81MPD2    C2 1260   1.211   2.389  12.419  0.1900 -0.3081 -0.1318
   81MPD2    C3 1261   1.329   2.414  12.485 -0.3235 -0.5044 -0.1635
   81MPD2    C4 1262   1.406   2.311  12.539 -1.1547  0.0706 -0.2337
   81MPD2    C5 1263   1.363   2.185  12.535 -0.3174 -0.4195 -0.6938
   81MPD2     H 1264   1.168   2.464  12.353  1.6938 -0.5540 -1.3851
   81MPD2    H1 1265   1.506   2.333  12.575 -0.6326  0.3327 -1.8650
   81MPD2    H2 1266   1.195   2.056  12.489 -0.0282  0.2311  1.3359
   81MPD2    H3 1267   1.417   2.103  12.580 -4.0245 -1.8942  1.0722
   81MPD2     N 1268   1.384   2.544  12.485 -0.5926  0.6550  0.5885
   81MPD2    H5 1269   1.468   2.558  12.540 -1.4491 -1.6207  2.4993
   81MPD2    N1 1270   1.037   2.243  12.369  0.0403 -0.1558  0.4753
   81MPD2    H7 1271   0.970   2.319  12.374  1.2203  0.7899  1.5377
   82TMC2    C1 1272   4.038   1.870  11.296  0.0573  0.2138  0.2767
   82TMC2    C2 1273   4.150   1.878  11.370  0.1234  0.4024 -0.8403
   82TMC2    C3 1274   4.173   1.771  11.449  0.0462 -0.0962  0.4289
   82TMC2    C4 1275   3.954   1.762  11.291  0.8356  0.2124 -0.0338
   82TMC2    C5 1276   3.977   1.662  11.384 -0.1879  0.4236 -0.1177
   82TMC2    C6 1277   4.082   1.673  11.472 -0.2935  0.0385 -0.4220
   82TMC2     C 1278   3.986   1.989  11.228 -0.7319 -0.6319 -0.2818
   82TMC2     O 1279   3.919   1.977  11.129 -0.8520 -0.4777  0.0155
   82TMC2     H 1280   4.213   1.965  11.358  1.1093  0.3509  3.6928
   82TMC2    H1 1281   3.860   1.763  11.237  0.9408  0.9722 -0.2066
   82TMC2    H2 1282   4.106   1.598  11.547  1.5362  0.8014 -0.2554
   82TMC2    C7 1283   3.869   1.575  11.426  0.3910 -0.4181 -1.0202
   82TMC2    C8 1284   4.304   1.759  11.516 -0.1044 -0.8130  0.4918
   82TMC2    O1 1285   3.884   1.523  11.533  0.1090 -0.4696 -0.1509
   82TMC2    O2 1286   4.347   1.654  11.562 -0.2257  0.1412  0.4018
   82TMC2    O5 1287   4.321   1.877  11.574 -0.8113  0.4437 -0.1786
   82TMC2    H5 1288   4.259   1.949  11.549  0.1541  0.9629 -1.0881
   83MPD2     C 1289   3.826   2.478  11.269  0.4974  0.2111  0.1857
   83MPD2    C1 1290   3.781   2.377  11.187  1.1921  0.6222  0.1140
   83MPD2    C2 1291   3.841   2.253  11.191 -0.4910 -0.4528  0.9197
   83MPD2    C3 1292   3.944   2.225  11.280 -0.2836 -0.1298  0.1477
   83MPD2    C4 1293   3.993   2.329  11.352  0.4488 -0.6486 -0.1421
   83MPD2    C5 1294   3.931   2.452  11.349 -0.7364  0.6539  0.5576
   83MPD2     H 1295   3.803   2.174  11.128  0.9540 -1.9023  1.8715
   83MPD2    H1 1296   4.070   2.312  11.426 -1.1918  0.6417  1.8833
   83MPD2    H2 1297   3.777   2.575  11.270 -0.3589 -0.2237  0.1154
   83MPD2    H3 1298   3.978   2.532  11.405  2.6458  0.2155 -1.6144
   83MPD2     N 1299   4.006   2.100  11.305 -0.0644  0.0334 -1.1091
   83MPD2    H5 1300   4.074   2.090  11.379 -1.0389  0.0741 -0.2132
   83MPD2    N1 1301   3.669   2.404  11.106 -0.2345 -0.1645  0.3858
   83MPD2    H7 1302   3.642   2.502  11.097  1.2712  0.0634 -1.6240
   84TMC2    C1 1303   4.626   0.948  10.734  0.1664  0.0342 -0.4633
   84TMC2    C2 1304   0.012   0.980  10.666 -0.1798  0.3849  0.5344
   84TMC2    C3 1305   0.032   0.919  10.546  0.1925  0.0666  0.2585
   84TMC2    C4 1306   4.533   0.861  10.689 -0.4319  0.3845 -1.2595
   84TMC2    C5 1307   4.557   0.812  10.563  0.3068  0.5292  0.7441
   84TMC2    C6 1308   4.670   0.833  10.493  0.2377  0.1686  0.1273
   84TMC2     C 1309   4.620   0.994  10.872  0.0953  0.2497 -0.8841
   84TMC2     O 1310   4.688   1.094  10.900  0.3353  0.1383  0.1067
   84TMC2     H 1311   0.070   1.068  10.692  2.3251 -0.9152 -0.6930
   84TMC2    H1 1312   4.438   0.850  10.739 -1.6872  1.2872 -3.4747
   84TMC2    H2 1313   4.689   0.782  10.399 -1.2605 -1.5419  0.7707
   84TMC2    C7 1314   4.474   0.700  10.509  0.2643 -0.7543  0.0212
   84TMC2    C8 1315   0.128   0.957  10.445 -0.0784 -0.2975 -0.1863
   84TMC2    O1 1316   4.480   0.682  10.386  0.0784 -0.2194 -0.2476
   84TMC2    O2 1317   0.092   0.965  10.328  0.0052  0.0703  0.3802
   84TMC2    O5 1318   0.214   1.042  10.497  0.5604 -0.2539 -0.0856
   84TMC2    H5 1319   0.242   1.016  10.587  1.5974  0.3360 -0.2378
   85TMC2    C1 1320   1.594   3.928  16.256  0.0468  0.4283  0.1680
   85TMC2    C2 1321   1.473   3.888  16.203  0.5954  0.7577  0.2587
   85TMC2    C3 1322   1.420   3.977  16.110 -0.1035  0.2976  0.7994
   85TMC2    C4 1323   1.646   4.052  16.235  0.1083 -0.2123  0.7406
   85TMC2    C5 1324   1.588   4.136  16.145 -0.5244  0.0085  0.1897
   85TMC2    C6 1325   1.475   4.095  16.080  0.4214  0.0983 -0.5534
   85TMC2     C 1326   1.646   3.862  16.383 -0.3386 -0.4666 -0.3105
   85TMC2     O 1327   1.666   3.950  16.465  0.2583  0.6429  0.1049
   85TMC2     H 1328   1.422   3.801  16.243 -0.4782  1.8111  1.1929
   85TMC2    H1 1329   1.747   4.075  16.268  0.5328 -0.6550 -0.2483
   85TMC2    H2 1330   1.434   4.152  15.997 -2.2940 -2.2645 -0.8487
   85TMC2    C7 1331   1.691   4.203  16.071 -0.6208  1.0338 -0.2159
   85TMC2    C8 1332   1.282   3.959  16.079  0.4626 -0.0173  0.9410
   85TMC2    O1 1333   1.798   4.153  16.044 -0.1896  0.7689 -0.1613
   85TMC2    O2 1334   1.210   4.056  16.057 -0.3246 -0.8789  0.0933
   85TMC2    O5 1335   1.277   3.858  15.994 -0.3646  0.1704  0.1828
   85TMC2    H5 1336   1.360   3.805  15.988  0.0313  0.4473  3.2238
   86MPD2     C 1337   1.532   3.545  16.759 -0.4581  0.7578  0.1424
   86MPD2    C1 1338   1.483   3.491  16.639 -0.1388 -1.2196 -0.0067
   86MPD2    C2 1339   1.518   3.548  16.514 -0.0792  0.0778  0.2289
   86MPD2    C3 1340   1.584   3.670  16.515 -0.4396  0.1821  0.0257
   86MPD2    C4 1341   1.617   3.730  16.636  0.1014 -1.0436 -0.1181
   86MPD2    C5 1342   1.591   3.666  16.754 -0.9352 -0.1129 -0.3903
   86MPD2     H 1343   1.476   3.511  16.421  1.9671  0.4241 -0.8351
   86MPD2    H1 1344   1.655   3.831  16.641 -0.1430 -0.8813 -1.3444
   86MPD2    H2 1345   1.519   3.502  16.858 -0.7493 -1.5621 -0.8828
   86MPD2    H3 1346   1.614   3.718  16.847  0.2720  2.6134 -2.2065
   86MPD2     N 1347   1.611   3.728  16.391 -0.2579 -0.0279 -0.2317
   86MPD2    H5 1348   1.591   3.678  16.305 -0.4305 -2.2036  1.0854
   86MPD2    N1 1349   1.423   3.360  16.628 -0.4444 -0.2834 -0.2177
   86MPD2    H7 1350   1.413   3.313  16.538 -0.8430  0.2918 -0.4760
   87TMC2    C1 1351   3.449   2.418   0.607 -0.2137  0.5243 -0.3465
   87TMC2    C2 1352   3.425   2.371   0.737  0.4551 -0.1688  0.1494
   87TMC2    C3 1353   3.341   2.441   0.818  0.7159  0.2972  0.0868
   87TMC2    C4 1354   3.387   2.531   0.566 -0.6316 -0.9746  0.4161
   87TMC2    C5 1355   3.297   2.594   0.652 -0.0682 -0.2173 -0.0486
   87TMC2    C6 1356   3.274   2.552   0.778  0.6125  0.3422  0.3755
   87TMC2     C 1357   3.533   2.346   0.517 -0.1284  0.1875  0.3631
   87TMC2     O 1358   3.561   2.231   0.556  0.4192  0.1743  0.5064
   87TMC2     H 1359   3.498   2.301   0.777  0.7231 -0.3636 -0.6847
   87TMC2    H1 1360   3.408   2.573   0.468  0.0733  2.0219  1.8621
   87TMC2    H2 1361   3.189   2.594   0.829 -0.4955 -0.4888 -0.7728
   87TMC2    C7 1362   3.221   2.714   0.607 -0.6034 -0.2453  0.0960
   87TMC2    C8 1363   3.392   2.455   0.947  0.2334  0.0985  0.2748
   87TMC2    O1 1364   3.222   2.732   0.483  0.6515 -0.2011 -0.2552
   87TMC2    O2 1365   3.515   2.461   0.965  0.2532  0.2920  0.5565
   87TMC2    O5 1366   3.290   2.493   1.030 -0.4239  0.2796  0.3719
   87TMC2    H5 1367   3.204   2.470   0.989 -0.3041  0.7065 -0.1183
   88MPD2     C 1368   3.029   2.974   0.758 -0.1542  0.3223  0.2785
   88MPD2    C1 1369   3.064   2.886   0.668 -0.5024  0.2656  0.1800
   88MPD2    C2 1370   2.993   2.880   0.552 -0.0388  0.6954 -0.0477
   88MPD2    C3 1371   2.889   2.966   0.530  0.3591 -0.4812 -0.5285
   88MPD2    C4 1372   2.857   3.053   0.624  0.3548 -0.2851 -0.5143
   88MPD2    C5 1373   2.927   3.064   0.741 -0.1358  0.3449  0.5340
   88MPD2     H 1374   3.017   2.807   0.475 -0.0959 -0.6821  1.2456
   88MPD2    H1 1375   2.773   3.121   0.607  0.8065  0.3109 -0.3715
   88MPD2    H2 1376   3.072   2.977   0.858  0.7285 -0.3630 -0.0842
   88MPD2    H3 1377   2.901   3.141   0.813  0.4217  1.2177 -0.2072
   88MPD2     N 1378   2.812   2.963   0.408  0.3694  0.0460 -0.3073
   88MPD2    H5 1379   2.726   3.017   0.411  1.4098  1.6158  0.9499
   88MPD2    N1 1380   3.168   2.794   0.701  0.1861  0.0443  0.4802
   88MPD2    H7 1381   3.203   2.793   0.797 -1.7533 -1.9443  1.1555
   89TMC2    C1 1382   0.067   1.051   1.182  0.3206 -0.1498 -0.1090
   89TMC2    C2 1383   0.132   0.940   1.138  0.2662  0.0130  0.4001
   89TMC2    C3 1384   0.267   0.933   1.130 -0.2796 -0.5846  0.3266
   89TMC2    C4 1385   0.134   1.150   1.245  0.5465 -0.2892  0.4840
   89TMC2    C5 1386   0.272   1.144   1.226  0.0664 -0.0510 -0.1798
   89TMC2    C6 1387   0.341   1.037   1.171 -0.2168  0.1958  0.0124
   89TMC2     C 1388   4.647   1.054   1.194  0.3362 -0.7568 -0.1059
   89TMC2     O 1389   4.593   1.164   1.213 -0.1148  0.0057  0.1284
   89TMC2     H 1390   0.081   0.849   1.109  0.6316  0.6565 -2.3228
   89TMC2    H1 1391   0.081   1.240   1.273 -0.1312 -0.4358 -0.3296
   89TMC2    H2 1392   0.448   1.049   1.167  0.0226 -0.7964  3.1930
   89TMC2    C7 1393   0.349   1.265   1.246 -0.0497 -0.9191 -0.1598
   89TMC2    C8 1394   0.316   0.847   1.023  0.2321 -0.0779 -0.1029
   89TMC2    O1 1395   0.467   1.277   1.216  0.0538  0.0333 -0.0278
   89TMC2    O2 1396   0.256   0.805   0.927  0.0834 -0.3577 -0.2916
   89TMC2    O5 1397   0.446   0.844   1.037 -0.2489 -0.3592  0.3300
   89TMC2    H5 1398   0.487   0.867   1.123 -1.1383  2.5795 -0.0128
   90MPD2     C 1399   4.239   0.801   1.377  0.3236  0.2524 -0.1908
   90MPD2    C1 1400   4.348   0.711   1.377 -0.0404 -0.7088 -0.4385
   90MPD2    C2 1401   4.464   0.763   1.330 -0.0534  1.0406  0.2129
   90MPD2    C3 1402   4.478   0.894   1.284 -0.4961 -0.7046 -0.6941
   90MPD2    C4 1403   4.370   0.983   1.288  0.0029 -0.2685 -1.0955
   90MPD2    C5 1404   4.257   0.937   1.341  0.5561 -0.2468  0.2709
   90MPD2     H 1405   4.547   0.694   1.326 -0.8948 -0.0538  1.9236
   90MPD2    H1 1406   4.375   1.087   1.260 -0.9776  0.1475  0.3102
   90MPD2    H2 1407   4.140   0.770   1.410  0.4273  1.5204  1.3065
   90MPD2    H3 1408   4.166   0.996   1.347  0.1865 -0.6086 -1.7703
   90MPD2     N 1409   4.601   0.931   1.235 -0.3104 -0.0532 -0.4506
   90MPD2    H5 1410   4.670   0.857   1.241 -0.0287  0.1706 -0.9395
   90MPD2    N1 1411   4.328   0.577   1.414 -0.6019 -0.4615  0.4142
   90MPD2    H7 1412   4.407   0.514   1.402  1.2104  2.2171 -1.6429
   91TMC2    C1 1413   1.388   4.200  16.536 -0.2012 -0.9110 -0.5070
   91TMC2    C2 1414   1.464   4.187  16.652 -0.5130  0.2333 -0.5006
   91TMC2    C3 1415   1.464   4.071  16.719  1.0975 -0.0608 -0.2438
   91TMC2    C4 1416   1.312   4.098  16.482 -0.2108 -0.5108 -0.1912
   91TMC2    C5 1417   1.318   3.980  16.554 -0.9028  0.2452 -0.4785
   91TMC2    C6 1418   1.389   3.964  16.675 -0.6928  0.3712  0.3795
   91TMC2     C 1419   1.394   4.320  16.465  0.3287 -0.3214 -0.3912
   91TMC2     O 1420   1.310   4.340  16.382 -0.2874  0.0487  0.2969
   91TMC2     H 1421   1.520   4.272  16.689  1.5473 -1.4601  0.3005
   91TMC2    H1 1422   1.258   4.113  16.389 -1.5069 -2.1471  0.2807
   91TMC2    H2 1423   1.382   3.869  16.727  1.0460 -0.1353 -0.3455
   91TMC2    C7 1424   1.225   3.871  16.514  0.3361  0.2012 -0.2441
   91TMC2    C8 1425   1.518   4.064  16.848  0.8000  0.0995 -0.0965
   91TMC2    O1 1426   1.230   3.765  16.567 -0.2366  0.0690 -0.3945
   91TMC2    O2 1427   1.547   3.956  16.897 -0.3676  0.8585  0.0547
   91TMC2    O5 1428   1.450   4.155  16.926 -0.2668 -0.1251  0.0172
   91TMC2    H5 1429   1.420   4.243  16.893  2.0141  0.2715 -1.0016
   92MPD2     C 1430   1.473   4.559  16.309 -0.3258 -0.4293  0.4377
   92MPD2    C1 1431   1.566   4.466  16.359  0.0734  0.3080 -0.0417
   92MPD2    C2 1432   1.700   4.476  16.323 -0.3844 -0.5359 -0.8088
   92MPD2    C3 1433   1.741   4.569  16.226  0.4476  0.3723 -0.1575
   92MPD2    C4 1434   1.644   4.649  16.178  0.3287 -0.2945  0.9507
   92MPD2    C5 1435   1.517   4.651  16.222 -0.5569 -0.5436 -0.6590
   92MPD2     H 1436   1.770   4.417  16.379 -1.0881 -0.8307 -0.2377
   92MPD2    H1 1437   1.655   4.727  16.104 -0.5265 -0.4175  0.6973
   92MPD2    H2 1438   1.367   4.558  16.328 -0.3202  2.2328  0.5474
   92MPD2    H3 1439   1.440   4.704  16.168  1.6563  1.2487 -2.0264
   92MPD2     N 1440   1.875   4.581  16.182 -0.0277 -0.5665 -0.1933
   92MPD2    H5 1441   1.937   4.504  16.207  0.6337  1.1955  3.4881
   92MPD2    N1 1442   1.525   4.370  16.451 -0.4440 -0.1329 -0.2717
   92MPD2    H7 1443   1.602   4.311  16.480 -0.8667 -1.6383 -2.1415
   93TMC2    C1 1444   3.345   4.391  14.001 -0.5376 -0.1861 -0.5507
   93TMC2    C2 1445   3.302   4.414  14.125  0.4313 -0.2562  0.1885
   93TMC2    C3 1446   3.367   4.515  14.194 -0.8166 -0.4381  1.0198
   93TMC2    C4 1447   3.442   4.466  13.938 -0.2475 -0.8154  0.2517
   93TMC2    C5 1448   3.514   4.557  14.013 -0.0473 -1.1978 -0.0264
   93TMC2    C6 1449   3.475   4.581  14.147 -0.0226  0.4393 -0.3889
   93TMC2     C 1450   3.261   4.302  13.927 -0.0850  0.1834  0.0302
   93TMC2     O 1451   3.317   4.240  13.837 -0.2403  0.2029  0.1920
   93TMC2     H 1452   3.232   4.349  14.177  2.0449 -1.0305  1.4176
   93TMC2    H1 1453   3.476   4.436  13.840  0.7018  1.5441 -0.1565
   93TMC2    H2 1454   3.526   4.654  14.210 -1.0771  1.3326 -0.5700
   93TMC2    C7 1455   3.630   4.626  13.953 -0.4385 -0.0389 -0.5738
   93TMC2    C8 1456   3.357   4.523  14.339  0.6605 -0.0036  0.1278
   93TMC2    O1 1457   3.651   4.595  13.831  0.0379  0.4707 -1.0058
   93TMC2    O2 1458   3.448   4.557  14.416  0.3113  0.4753 -0.4103
   93TMC2    O5 1459   3.228   4.528  14.371  0.5625 -0.6455  0.4062
   93TMC2    H5 1460   3.161   4.517  14.299  0.8850  1.1095 -0.1636
   94MPD2     C 1461   3.053   4.104  13.860  0.2046 -0.5029  0.3478
   94MPD2    C1 1462   3.029   4.225  13.920 -0.1639 -0.5868 -0.4903
   94MPD2    C2 1463   2.895   4.262  13.941  0.5591  0.0507  0.1919
   94MPD2    C3 1464   2.788   4.183  13.915  0.0706  0.2694 -0.1560
   94MPD2    C4 1465   2.809   4.057  13.858  0.5580  0.6092 -0.1204
   94MPD2    C5 1466   2.946   4.023  13.825 -0.9858 -0.4569  0.1835
   94MPD2     H 1467   2.880   4.356  13.994  0.4803  1.2973 -2.0549
   94MPD2    H1 1468   2.731   3.985  13.835  0.3464  0.3252  1.5039
   94MPD2    H2 1469   3.156   4.072  13.844  0.7883  0.7188  1.6627
   94MPD2    H3 1470   2.961   3.936  13.762 -2.7273  0.6823 -1.8027
   94MPD2     N 1471   2.657   4.233  13.935  0.4465 -1.2768  0.7544
   94MPD2    H5 1472   2.583   4.170  13.905  0.1361  0.2418 -1.6806
   94MPD2    N1 1473   3.127   4.314  13.962 -0.2116  0.1585  0.1866
   94MPD2    H7 1474   3.098   4.388  14.025  2.0675  0.1049  1.2692
   95TMC2    C1 1475   3.331   1.840  16.534 -0.2888  0.1632 -0.2801
   95TMC2    C2 1476   3.341   1.713  16.587 -0.3217  0.3027  0.4839
   95TMC2    C3 1477   3.388   1.706  16.715 -0.7733  0.2461 -0.9085
   95TMC2    C4 1478   3.374   1.944  16.601 -0.1365 -0.0651 -0.0238
   95TMC2    C5 1479   3.409   1.935  16.737  0.2660  0.1502  0.0397
   95TMC2    C6 1480   3.424   1.813  16.796  0.0394 -0.0427  0.1032
   95TMC2     C 1481   3.299   1.864  16.393 -1.0684 -0.3547  0.6886
   95TMC2     O 1482   3.290   1.978  16.347 -0.0016 -0.1622 -0.2496
   95TMC2     H 1483   3.330   1.619  16.533 -1.5376  0.4997  0.3847
   95TMC2    H1 1484   3.371   2.037  16.545  0.8270 -0.1820 -0.2691
   95TMC2    H2 1485   3.454   1.783  16.895 -0.3550 -3.4841 -0.8280
   95TMC2    C7 1486   3.439   2.055  16.815  0.1566  0.0350  0.3932
   95TMC2    C8 1487   3.381   1.576  16.784  0.0426  0.2225  0.5117
   95TMC2    O1 1488   3.502   2.039  16.916  0.0510 -0.3836  0.2739
   95TMC2    O2 1489   3.467   1.520  16.856  0.2609  0.9772  0.3966
   95TMC2    O5 1490   3.268   1.510  16.739  0.5062 -0.0530  0.0836
   95TMC2    H5 1491   3.211   1.579  16.699 -0.6672  0.3189  2.3783
   96MPD2     C 1492   3.260   1.704  15.922  0.2376  0.3597 -0.3709
   96MPD2    C1 1493   3.290   1.830  15.972 -0.1498 -0.2707 -0.4168
   96MPD2    C2 1494   3.304   1.839  16.105 -0.2072 -0.2629  0.2962
   96MPD2    C3 1495   3.291   1.728  16.191 -0.7198  0.5655 -0.0798
   96MPD2    C4 1496   3.255   1.605  16.143 -0.5341 -0.2356  0.4389
   96MPD2    C5 1497   3.240   1.597  16.006 -0.4364  0.3741 -0.4417
   96MPD2     H 1498   3.331   1.938  16.141  2.8347 -0.6368 -0.9490
   96MPD2    H1 1499   3.258   1.523  16.214  2.1000  0.0619  0.6720
   96MPD2    H2 1500   3.258   1.679  15.816 -1.7821  1.5406 -0.6088
   96MPD2    H3 1501   3.205   1.511  15.949  1.2858 -0.8942  0.4193
   96MPD2     N 1502   3.287   1.744  16.332  0.3161  0.0507 -0.0176
   96MPD2    H5 1503   3.263   1.661  16.385  3.1835 -0.2603  0.7821
   96MPD2    N1 1504   3.324   1.935  15.881  0.2039  0.1902 -0.0558
   96MPD2    H7 1505   3.305   1.912  15.784 -0.3112  1.1886 -0.1811
   97TMC2    C1 1506   0.621   0.270   0.375  0.4072 -0.4100 -0.1136
   97TMC2    C2 1507   0.494   0.311   0.339 -0.5769  0.3232 -0.2155
   97TMC2    C3 1508   0.477   0.412   0.254  0.6897  1.3673 -0.3061
   97TMC2    C4 1509   0.726   0.309   0.292 -0.3031  0.7824 -0.0475
   97TMC2    C5 1510   0.701   0.414   0.205  0.0831  0.4744 -0.1747
   97TMC2    C6 1511   0.579   0.479   0.194 -0.3011 -0.4087  0.2533
   97TMC2     C 1512   0.618   0.137   0.442  0.3459  0.3272  0.0721
   97TMC2     O 1513   0.515   0.074   0.447  0.6204 -0.0403  0.6639
   97TMC2     H 1514   0.404   0.266   0.380 -0.5291 -0.7382 -1.3033
   97TMC2    H1 1515   0.817   0.250   0.289  1.3004  3.2962 -0.6317
   97TMC2    H2 1516   0.558   0.560   0.125  0.6516  0.6436  1.1969
   97TMC2    C7 1517   0.819   0.478   0.146  0.7216 -0.4180 -0.0493
   97TMC2    C8 1518   0.353   0.482   0.275  0.4717 -0.3157 -0.7118
   97TMC2    O1 1519   0.927   0.443   0.187 -0.5952  0.4248  0.2477
   97TMC2    O2 1520   0.251   0.429   0.320  0.0550  0.2494 -0.1314
   97TMC2    O5 1521   0.377   0.612   0.285 -0.2157  0.3044 -0.9685
   97TMC2    H5 1522   0.471   0.635   0.270  0.4876 -2.2616 -0.3875
   98MPD2     C 1523   0.845   4.451   0.611 -0.1418 -0.8203 -0.3587
   98MPD2    C1 1524   0.734   4.470   0.534 -0.2849  0.5541  0.4318
   98MPD2    C2 1525   0.703   4.598   0.504  0.2298 -0.1999  0.3955
   98MPD2    C3 1526   0.781   4.703   0.536  0.5724 -0.1590  0.0798
   98MPD2    C4 1527   0.899   4.682   0.604 -1.2213  0.0491  0.1856
   98MPD2    C5 1528   0.934   4.553   0.637  0.3920 -0.2879  0.9531
   98MPD2     H 1529   0.615   4.616   0.444  0.4667 -0.9595 -0.1858
   98MPD2    H1 1530   0.959   0.034   0.640  0.2146 -1.0504  0.3566
   98MPD2    H2 1531   0.879   4.352   0.641  0.1977 -0.5261  0.2097
   98MPD2    H3 1532   1.026   4.530   0.690  0.5209 -0.3192  0.7146
   98MPD2     N 1533   0.737   0.101   0.496 -0.1133  0.2976  0.1833
   98MPD2    H5 1534   0.806   0.175   0.493 -0.6866  0.9472  2.4925
   98MPD2    N1 1535   0.648   4.365   0.513 -0.0426 -0.4175  0.1027
   98MPD2    H7 1536   0.674   4.272   0.545 -3.8790 -0.7720  2.2070
   99TMC2    C1 1537   0.075   1.725   1.097  0.1310 -0.0129  0.5705
   99TMC2    C2 1538   0.144   1.838   1.112  0.1335  0.0731  0.0077
   99TMC2    C3 1539   0.079   1.946   1.156 -1.1369 -0.0374  0.5051
   99TMC2    C4 1540   4.668   1.709   1.126 -0.1133 -0.0249 -0.7998
   99TMC2    C5 1541   4.605   1.833   1.165 -0.1657  0.2721 -0.0893
   99TMC2    C6 1542   4.678   1.947   1.189 -0.3716 -0.2700  0.5000
   99TMC2     C 1543   0.150   1.610   1.048 -0.2961  0.5802 -0.0714
   99TMC2     O 1544   0.265   1.623   1.006 -0.0904  0.0642  0.0379
   99TMC2     H 1545   0.250   1.843   1.090  0.2384 -0.4327  0.4201
   99TMC2    H1 1546   4.610   1.622   1.098  0.6489 -0.7774 -0.0411
   99TMC2    H2 1547   4.627   2.029   1.239 -0.2785  0.6389 -0.8989
   99TMC2    C7 1548   4.455   1.840   1.155 -0.6716  0.3977  0.0786
   99TMC2    C8 1549   0.158   2.069   1.149  0.1113  0.0356 -0.3193
   99TMC2    O1 1550   4.411   1.953   1.146 -0.1010 -0.0116  0.4549
   99TMC2    O2 1551   0.281   2.074   1.153  0.7209  0.6029  0.1409
   99TMC2    O5 1552   0.080   2.170   1.124  0.2042 -0.1813  0.3423
   99TMC2    H5 1553   4.719   2.148   1.099 -0.3228  3.3921 -0.8147
  100MPD2     C 1554   0.227   1.330   0.939 -0.2150  0.6355 -0.5785
  100MPD2    C1 1555   0.100   1.372   0.966  0.0036 -0.7567 -0.0092
  100MPD2    C2 1556   4.727   1.297   0.919  0.2858  0.1305  1.1373
  100MPD2    C3 1557   0.019   1.183   0.842 -0.0316 -0.3766  0.1827
  100MPD2    C4 1558   0.150   1.147   0.816  0.2469  1.0513  0.3287
  100MPD2    C5 1559   0.252   1.217   0.873  0.2479 -0.2199 -0.4465
  100MPD2     H 1560   4.624   1.312   0.949 -0.2484 -4.1627  1.5657
  100MPD2    H1 1561   0.180   1.060   0.759 -0.9499  1.0193 -0.2668
  100MPD2    H2 1562   0.316   1.381   0.975 -0.6091 -0.3529  1.7885
  100MPD2    H3 1563   0.352   1.178   0.857  0.5402  0.2047  0.3279
  100MPD2     N 1564   4.638   1.116   0.783  0.0504 -0.0150  0.6934
  100MPD2    H5 1565   4.546   1.133   0.824 -0.7373  1.4333 -1.6652
  100MPD2    N1 1566   0.070   1.494   1.030 -0.6251 -0.4725  0.1815
  100MPD2    H7 1567   4.704   1.503   1.058 -0.7267  3.4783 -1.4017
  101TMC2    C1 1568   0.366   2.518  13.659  0.2810 -0.4484 -0.1240
  101TMC2    C2 1569   0.431   2.476  13.771  0.1674 -0.5963  0.0461
  101TMC2    C3 1570   0.566   2.500  13.778 -0.0110 -0.1628 -0.0509
  101TMC2    C4 1571   0.431   2.600  13.567 -0.1162 -0.8635 -0.8787
  101TMC2    C5 1572   0.569   2.606  13.569 -0.9407  0.7021  0.1557
  101TMC2    C6 1573   0.639   2.555  13.677 -0.1959 -0.0126  0.3644
  101TMC2     C 1574   0.221   2.488  13.634 -0.1503 -0.3459  0.1020
  101TMC2     O 1575   0.174   2.393  13.693  0.0704 -0.5318 -0.2877
  101TMC2     H 1576   0.382   2.416  13.847  0.5947 -1.4860 -0.3880
  101TMC2    H1 1577   0.373   2.639  13.484  0.2946 -0.0690 -0.7849
  101TMC2    H2 1578   0.744   2.580  13.689 -0.0377 -0.5448  0.0527
  101TMC2    C7 1579   0.631   2.635  13.443 -0.1749 -0.4431  0.3185
  101TMC2    C8 1580   0.646   2.436  13.885 -0.6127 -0.7116  0.0033
  101TMC2    O1 1581   0.571   2.713  13.371 -0.0387 -0.0625  0.7133
  101TMC2    O2 1582   0.764   2.411  13.876 -0.2259  0.6840 -0.0107
  101TMC2    O5 1583   0.564   2.423  13.991  0.9152  0.3611  0.1922
  101TMC2    H5 1584   0.487   2.483  13.986  1.5505  1.2022  0.4852
  102MPD2     C 1585   4.724   2.684  13.425  0.2177 -0.2260 -0.1820
  102MPD2    C1 1586   0.025   2.571  13.502 -0.3626 -0.1358  1.1210
  102MPD2    C2 1587   4.677   2.461  13.509  0.3036 -0.5133 -1.0042
  102MPD2    C3 1588   4.551   2.458  13.447 -0.2237  0.4117  0.5334
  102MPD2    C4 1589   4.512   2.571  13.378 -0.6954 -0.5916  0.0496
  102MPD2    C5 1590   4.600   2.684  13.370  0.1384  0.5884  0.3491
  102MPD2     H 1591   4.697   2.382  13.580  0.3033 -0.3362 -0.8066
  102MPD2    H1 1592   4.409   2.581  13.346 -1.7512 -0.9373  3.3457
  102MPD2    H2 1593   0.063   2.766  13.420 -1.0363  0.7549 -1.3809
  102MPD2    H3 1594   4.557   2.775  13.330  2.2041 -0.2924 -3.9480
  102MPD2     N 1595   4.456   2.349  13.462  0.3590 -0.2319 -0.0282
  102MPD2    H5 1596   4.485   2.269  13.518  1.7728 -0.8596 -1.6441
  102MPD2    N1 1597   0.159   2.581  13.555  0.4130 -0.0662 -0.2611
  102MPD2    H7 1598   0.214   2.664  13.540 -2.7287  1.7898 -1.4803
  103TMC2    C1 1599   2.742   3.028  12.416 -0.5556  0.3810  0.9637
  103TMC2    C2 1600   2.763   3.138  12.334  0.2643  0.1417  0.6452
  103TMC2    C3 1601   2.863   3.223  12.368  0.9347 -0.2734 -0.1348
  103TMC2    C4 1602   2.816   3.019  12.528 -0.2227  0.6351 -0.1892
  103TMC2    C5 1603   2.904   3.116  12.567 -0.4402  0.0843 -0.3517
  103TMC2    C6 1604   2.935   3.220  12.486 -0.0933 -0.4342  0.3028
  103TMC2     C 1605   2.639   2.927  12.377  0.3433  0.5163  0.2615
  103TMC2     O 1606   2.572   2.966  12.282 -0.6558 -0.1162  0.0134
  103TMC2     H 1607   2.718   3.155  12.237  1.2682 -1.9840 -0.1932
  103TMC2    H1 1608   2.781   2.945  12.599  2.7785 -1.9669 -1.3902
  103TMC2    H2 1609   3.004   3.303  12.499 -0.6206 -0.2476  1.8770
  103TMC2    C7 1610   2.941   3.125  12.714 -0.0304  0.3662 -0.2323
  103TMC2    C8 1611   2.932   3.270  12.244  0.4846 -0.4895 -0.1206
  103TMC2    O1 1612   2.862   3.066  12.784 -0.1196  0.1656 -0.2931
  103TMC2    O2 1613   2.931   3.204  12.141  0.5263 -0.0696  0.3911
  103TMC2    O5 1614   2.944   3.403  12.255 -0.3973  0.2400 -0.0623
  103TMC2    H5 1615   2.927   3.433  12.347  1.0609 -1.1012  0.6337
  104MPD2     C 1616   2.553   2.591  12.503 -0.2003 -0.1364 -0.3955
  104MPD2    C1 1617   2.538   2.703  12.428  0.1145  0.4545  0.3480
  104MPD2    C2 1618   2.436   2.705  12.333  0.2588 -0.8917 -0.5179
  104MPD2    C3 1619   2.349   2.593  12.315  0.2944  0.6588  0.2328
  104MPD2    C4 1620   2.369   2.478  12.393 -0.3272  0.1413  0.6474
  104MPD2    C5 1621   2.473   2.482  12.485  0.0678 -0.1649 -0.5220
  104MPD2     H 1622   2.414   2.792  12.273  1.6131 -0.9867 -1.1645
  104MPD2    H1 1623   2.306   2.390  12.385  0.3920 -0.1070 -2.5469
  104MPD2    H2 1624   2.621   2.593  12.588 -0.1835  0.3445 -0.4257
  104MPD2    H3 1625   2.474   2.397  12.552 -1.2260 -1.3856 -2.0413
  104MPD2     N 1626   2.238   2.621  12.236 -0.5466 -0.3109 -0.1008
  104MPD2    H5 1627   2.241   2.708  12.183  1.4844 -0.1103  0.3512
  104MPD2    N1 1628   2.634   2.804  12.448  0.1701  0.2715 -0.0242
  104MPD2    H7 1629   2.714   2.777  12.504  1.0978  1.8263 -0.6014
  105TMC2    C1 1630   3.967   1.619   0.139 -0.0121  0.1731  0.5559
  105TMC2    C2 1631   3.937   1.578   0.266  0.4437 -0.4829 -0.0462
  105TMC2    C3 1632   3.851   1.654   0.338  0.7138 -0.4373  0.4400
  105TMC2    C4 1633   3.921   1.738   0.081 -0.1763  0.6039 -0.1168
  105TMC2    C5 1634   3.847   1.820   0.159 -0.6084 -0.4657  0.0087
  105TMC2    C6 1635   3.811   1.780   0.285  0.3469  0.0447  0.2660
  105TMC2     C 1636   4.068   1.539   0.072  0.4997 -0.1156 -0.8306
  105TMC2     O 1637   4.063   1.421   0.101  0.1231 -0.1603 -0.1942
  105TMC2     H 1638   3.977   1.485   0.306 -1.7687 -0.4808  2.1868
  105TMC2    H1 1639   3.942   1.752  17.701 -2.6908  1.7179 -0.4858
  105TMC2    H2 1640   3.757   1.835   0.361 -1.5539  2.2942 -2.7298
  105TMC2    C7 1641   3.839   1.956   0.119  0.5854 -0.0973  0.4809
  105TMC2    C8 1642   3.843   1.607   0.479 -0.5868 -0.5524  0.1039
  105TMC2    O1 1643   3.909   1.981   0.023 -0.0616  0.4285 -0.1281
  105TMC2    O2 1644   3.948   1.614   0.542 -0.6595 -0.2804  0.1196
  105TMC2    O5 1645   3.728   1.654   0.526 -0.0147  0.1186  0.5223
  105TMC2    H5 1646   3.660   1.638   0.457 -1.6967  0.6138  2.0706
  106MPD2     C 1647   4.407   1.473  17.421 -0.2937  0.1693  0.1917
  106MPD2    C1 1648   4.403   1.608  17.451  0.0805 -0.1693 -0.1000
  106MPD2    C2 1649   4.303   1.647  17.543 -0.1182 -0.2494  0.3855
  106MPD2    C3 1650   4.227   1.562  17.619 -0.3951 -0.1210 -1.0606
  106MPD2    C4 1651   4.236   1.428  17.588 -0.6942  0.4347 -0.0493
  106MPD2    C5 1652   4.320   1.388  17.486  0.3634 -0.6077 -0.3423
  106MPD2     H 1653   4.281   1.748  17.575  1.3875 -0.2330  1.3373
  106MPD2    H1 1654   4.169   1.359  17.638 -0.4977  0.6834  0.5454
  106MPD2    H2 1655   4.483   1.427  17.358 -1.4481 -1.4743 -0.0016
  106MPD2    H3 1656   4.339   1.282  17.472  2.0952 -0.4804  1.0090
  106MPD2     N 1657   4.139   1.613  17.708  0.5348 -0.5028 -0.6002
  106MPD2    H5 1658   4.132   1.714  17.719 -0.8828 -0.5251 -1.2945
  106MPD2    N1 1659   4.490   1.701  17.397  0.1422  0.3172  0.1823
  106MPD2    H7 1660   4.465   1.798  17.409  0.2057  0.5459 -1.4841
  107TMC2    C1 1661   4.580   1.493  11.721 -0.5320  0.7289 -0.3852
  107TMC2    C2 1662   4.686   1.565  11.669 -0.4673  0.5405 -0.7169
  107TMC2    C3 1663   0.019   1.503  11.566  0.0600 -0.7409 -0.2573
  107TMC2    C4 1664   4.537   1.377  11.665  0.3916  0.2855 -0.1117
  107TMC2    C5 1665   4.598   1.334  11.552  0.3843 -0.1889 -0.5239
  107TMC2    C6 1666   4.713   1.387  11.511  0.0365 -0.5243  0.0180
  107TMC2     C 1667   4.498   1.546  11.830  0.1640  0.2857 -0.0142
  107TMC2     O 1668   4.431   1.464  11.895 -0.1236  0.1777  0.2522
  107TMC2     H 1669   4.730   1.649  11.720  1.3145  0.6014 -2.3806
  107TMC2    H1 1670   4.455   1.317  11.702 -0.8005  1.4007 -0.9463
  107TMC2    H2 1671   0.031   1.339  11.427 -1.1191  0.2181 -1.0790
  107TMC2    C7 1672   4.554   1.209  11.497 -0.3722 -0.5371  0.0005
  107TMC2    C8 1673   0.136   1.565  11.500  0.6106  1.1259 -0.1733
  107TMC2    O1 1674   4.514   1.138  11.590  0.1878  0.0670  0.2270
  107TMC2    O2 1675   0.214   1.506  11.422 -0.1897  0.3588  0.3519
  107TMC2    O5 1676   0.118   1.695  11.497 -0.4130  0.0080  0.0271
  107TMC2    H5 1677   0.035   1.728  11.536 -0.9828  0.2459 -1.3800
  108MPD2     C 1678   4.414   1.907  11.908 -0.0011  0.0358  0.2279
  108MPD2    C1 1679   4.437   1.771  11.928 -0.4800 -0.7899 -0.4556
  108MPD2    C2 1680   4.393   1.719  12.054  0.3042 -0.3929  0.0636
  108MPD2    C3 1681   4.320   1.794  12.142 -0.0797 -0.1976 -0.5442
  108MPD2    C4 1682   4.294   1.924  12.109 -0.0323 -0.3087  0.3959
  108MPD2    C5 1683   4.347   1.978  11.998 -0.1802  0.1722  0.1498
  108MPD2     H 1684   4.394   1.612  12.070 -0.0293 -0.2052  1.3389
  108MPD2    H1 1685   4.234   1.984  12.176  1.0695  1.9094 -0.5969
  108MPD2    H2 1686   4.458   1.957  11.822 -0.1472  0.3904  0.3593
  108MPD2    H3 1687   4.346   2.086  11.992 -1.5141  0.0588 -1.7982
  108MPD2     N 1688   4.268   1.749  12.263  0.1699 -0.4633 -0.4473
  108MPD2    H5 1689   4.202   1.811  12.308  0.0796 -1.2760  0.5390
  108MPD2    N1 1690   4.499   1.685  11.831 -0.0944  0.8388 -0.7181
  108MPD2    H7 1691   4.532   1.741  11.753  2.4334  1.6743  0.9485
  109TMC2    C1 1692   4.004   4.280   0.238 -1.0306  0.2366 -0.3327
  109TMC2    C2 1693   3.940   4.401   0.232  0.4238 -0.1555 -0.4963
  109TMC2    C3 1694   4.024   4.509   0.240  0.1423 -0.0657 -0.0937
  109TMC2    C4 1695   4.136   4.267   0.245  0.1619 -0.3500  0.5115
  109TMC2    C5 1696   4.216   4.379   0.248  0.1570  0.4083  0.3607
  109TMC2    C6 1697   4.164   4.502   0.247 -0.0915 -0.3107  0.1324
  109TMC2     C 1698   3.914   4.168   0.247  0.4349 -0.1047 -0.4754
  109TMC2     O 1699   3.817   4.186   0.176 -0.0708  0.1966  0.0203
  109TMC2     H 1700   3.832   4.410   0.227  0.2899 -3.2258 -3.3377
  109TMC2    H1 1701   4.186   4.171   0.239  0.5219 -0.1142 -0.2184
  109TMC2    H2 1702   4.228   4.587   0.267  0.2426 -0.0370 -2.0811
  109TMC2    C7 1703   4.358   4.360   0.257  0.0730 -0.4623 -0.3082
  109TMC2    C8 1704   3.963   4.606   0.327 -0.1322 -0.0598  0.6331
  109TMC2    O1 1705   4.403   4.255   0.296  0.4294  0.0546 -0.2975
  109TMC2    O2 1706   3.905   4.583   0.434 -0.2604 -0.6978 -0.1704
  109TMC2    O5 1707   4.038   4.716   0.313 -0.0722  0.0303  0.2234
  109TMC2    H5 1708   4.083   4.718   0.226 -0.5266  1.7186  0.0243
  110MPD2     C 1709   3.703   3.770   0.467  0.1339 -0.0594 -0.4507
  110MPD2    C1 1710   3.819   3.801   0.543  0.0906  0.0464  0.1463
  110MPD2    C2 1711   3.910   3.887   0.482 -0.5979  0.2388 -0.3533
  110MPD2    C3 1712   3.873   3.960   0.371 -0.9260  0.3706 -0.1702
  110MPD2    C4 1713   3.763   3.925   0.294  0.1518 -0.6294 -0.5647
  110MPD2    C5 1714   3.680   3.824   0.344  1.2081 -0.0564  0.1250
  110MPD2     H 1715   3.992   3.913   0.548 -1.2636 -0.3277  0.7114
  110MPD2    H1 1716   3.729   3.980   0.207  1.8187  1.7460  0.2794
  110MPD2    H2 1717   3.633   3.699   0.510  1.0260 -0.8842 -0.3748
  110MPD2    H3 1718   3.594   3.815   0.279  0.9769  0.6327  0.3386
  110MPD2     N 1719   3.957   4.069   0.339 -0.5093 -0.6902 -0.3525
  110MPD2    H5 1720   4.046   4.089   0.383 -1.0517 -0.7236  0.7484
  110MPD2    N1 1721   3.844   3.726   0.665  0.8045  0.0762  0.1013
  110MPD2    H7 1722   3.774   3.655   0.688 -0.1088  0.5194 -1.3530
  111TMC2    C1 1723   4.485   3.184  12.300  0.0859  0.4987 -0.0814
  111TMC2    C2 1724   4.394   3.103  12.362  0.5826  0.4441 -0.8836
  111TMC2    C3 1725   4.448   3.009  12.446 -1.3614  0.5153  0.2912
  111TMC2    C4 1726   4.623   3.179  12.319 -0.7966  0.3311 -0.8692
  111TMC2    C5 1727   4.667   3.085  12.411  0.0062 -0.1780 -0.2818
  111TMC2    C6 1728   4.582   3.003  12.479 -0.5253 -0.0554 -0.0515
  111TMC2     C 1729   4.436   3.260  12.188 -0.0359 -0.4831 -0.0408
  111TMC2     O 1730   4.519   3.282  12.096 -0.4529 -0.1484  0.0340
  111TMC2     H 1731   4.295   3.085  12.322  0.8188 -0.6321 -0.9754
  111TMC2    H1 1732   4.683   3.254  12.270 -0.9017  0.6929 -0.4371
  111TMC2    H2 1733   4.617   2.917  12.537  2.0549  0.6551 -0.5555
  111TMC2    C7 1734   0.078   3.084  12.436 -0.4675 -0.5149 -0.4898
  111TMC2    C8 1735   4.354   2.916  12.517 -0.2378  0.8575  0.4236
  111TMC2    O1 1736   0.113   3.035  12.542 -0.3473  0.1284 -0.3421
  111TMC2    O2 1737   4.384   2.864  12.623  0.4653 -0.6471  0.3103
  111TMC2    O5 1738   4.303   2.849  12.408 -0.3983 -0.3705  0.4586
  111TMC2    H5 1739   4.316   2.895  12.322 -3.0456  0.1250  0.3341
  112MPD2     C 1740   4.051   3.496  11.941  0.1789  0.4599  0.5457
  112MPD2    C1 1741   4.189   3.488  11.913 -0.9367 -0.0706 -0.0636
  112MPD2    C2 1742   4.270   3.419  12.002  0.0386 -0.2650  0.4074
  112MPD2    C3 1743   4.219   3.362  12.113 -0.6034 -0.1418  0.2738
  112MPD2    C4 1744   4.086   3.384  12.144  0.0042  0.4663 -0.2217
  112MPD2    C5 1745   4.001   3.441  12.055 -0.3696 -0.9872 -0.0038
  112MPD2     H 1746   4.372   3.397  11.975 -0.2853 -2.6221  1.1070
  112MPD2    H1 1747   4.043   3.343  12.235 -1.6680  2.0762 -0.2997
  112MPD2    H2 1748   3.980   3.542  11.874  1.1443 -0.3338 -1.0131
  112MPD2    H3 1749   3.895   3.455  12.072  0.4195  3.0333  1.5137
  112MPD2     N 1750   4.302   3.295  12.208 -0.1126  0.3252  0.8033
  112MPD2    H5 1751   4.258   3.260  12.292 -0.6221 -1.3633 -0.1812
  112MPD2    N1 1752   4.256   3.536  11.799 -0.9022  0.8360  0.0771
  112MPD2    H7 1753   4.354   3.511  11.801 -1.4593 -1.5028 -0.9673
  113TMC2    C1 1754   2.581   1.195   0.698 -0.4024  0.3747 -0.3210
  113TMC2    C2 1755   2.464   1.265   0.677 -0.3438  0.6114 -0.3323
  113TMC2    C3 1756   2.376   1.201   0.599 -0.7772 -0.4955 -1.0931
  113TMC2    C4 1757   2.604   1.068   0.651 -0.3183  0.1815 -0.1846
  113TMC2    C5 1758   2.502   1.021   0.573 -0.2117  0.8178 -0.2504
  113TMC2    C6 1759   2.391   1.087   0.540  0.0279  0.5464 -0.4660
  113TMC2     C 1760   2.665   1.255   0.790 -0.6470 -1.0676  1.5819
  113TMC2     O 1761   2.630   1.365   0.834 -0.0317  0.4136  0.2004
  113TMC2     H 1762   2.447   1.365   0.715  1.1764  0.7436 -0.0185
  113TMC2    H1 1763   2.698   1.016   0.660 -1.3938 -1.6430  0.3348
  113TMC2    H2 1764   2.315   1.047   0.474 -1.1912 -2.1613  2.6029
  113TMC2    C7 1765   2.500   0.887   0.534  0.8916  0.0207 -0.2391
  113TMC2    C8 1766   2.278   1.282   0.537 -0.1208  0.3104  0.9094
  113TMC2    O1 1767   2.432   0.845   0.439 -0.2099  0.1685  0.4707
  113TMC2    O2 1768   2.279   1.406   0.537 -0.1838 -0.1103 -0.0402
  113TMC2    O5 1769   2.158   1.218   0.562 -0.1408  0.3844  0.2627
  113TMC2    H5 1770   2.173   1.122   0.574  0.9200  0.6132  0.7742
  114MPD2     C 1771   3.168   1.350   0.860 -0.0451  0.5318 -0.1787
  114MPD2    C1 1772   3.059   1.426   0.887  0.3449  0.2851 -0.2105
  114MPD2    C2 1773   2.933   1.379   0.856 -0.5265 -0.1668 -0.0426
  114MPD2    C3 1774   2.916   1.247   0.823  0.3285 -0.5642  0.0125
  114MPD2    C4 1775   3.023   1.161   0.810  1.1597  0.1560 -0.0417
  114MPD2    C5 1776   3.149   1.219   0.824  0.3549 -0.0874 -0.6552
  114MPD2     H 1777   2.847   1.443   0.871 -1.0927 -1.5090  2.5141
  114MPD2    H1 1778   3.014   1.055   0.794  0.0510  0.1618  0.5493
  114MPD2    H2 1779   3.270   1.386   0.870  1.1658 -1.8509 -3.9540
  114MPD2    H3 1780   3.236   1.155   0.811  1.2783  0.8653  0.8914
  114MPD2     N 1781   2.786   1.186   0.796 -0.0970  0.4397 -0.1335
  114MPD2    H5 1782   2.783   1.088   0.769 -0.4766  0.1108  1.1226
  114MPD2    N1 1783   3.060   1.564   0.914 -0.4850 -0.6462  0.4484
  114MPD2    H7 1784   2.970   1.608   0.905 -0.4802 -0.8854 -0.7723
  115TMC2    C1 1785   3.960   3.535   0.100  0.7575 -0.6000 -0.3272
  115TMC2    C2 1786   4.001   3.530   0.230  0.2786  0.5419  0.2945
  115TMC2    C3 1787   4.090   3.636   0.271  0.1029 -0.8699  0.2801
  115TMC2    C4 1788   3.996   3.639   0.020 -0.6997 -0.2298 -0.1819
  115TMC2    C5 1789   4.096   3.725   0.056  0.0883  0.0685  0.3313
  115TMC2    C6 1790   4.140   3.727   0.181  0.2021  0.1450 -0.5156
  115TMC2     C 1791   3.848   3.455   0.055  0.2774  1.2225  0.3354
  115TMC2     O 1792   3.850   3.432  17.657  0.4215  0.1550  0.5196
  115TMC2     H 1793   3.975   3.451   0.299 -0.5815 -1.4584 -2.3589
  115TMC2    H1 1794   3.948   3.660  17.650 -0.9764 -0.2688 -0.0512
  115TMC2    H2 1795   4.206   3.802   0.224  1.4342  0.0903 -2.3080
  115TMC2    C7 1796   4.084   3.861  17.723 -0.3142  1.0073  0.2516
  115TMC2    C8 1797   4.171   3.624   0.389 -0.2292 -0.4332  0.1086
  115TMC2    O1 1798   3.977   3.893  17.673 -0.8333  0.0793 -0.0710
  115TMC2    O2 1799   4.294   3.638   0.386 -0.5049  0.3902  0.2316
  115TMC2    O5 1800   4.087   3.580   0.487  0.0360  0.4302  0.2929
  115TMC2    H5 1801   3.996   3.596   0.454 -0.0520  1.4326  1.0539
  116MPD2     C 1802   3.377   3.267   0.093  0.6201  0.4765  0.0702
  116MPD2    C1 1803   3.487   3.220   0.018 -0.3590  0.2654  0.4335
  116MPD2    C2 1804   3.615   3.279   0.036 -0.0260  0.3334  0.0204
  116MPD2    C3 1805   3.633   3.385   0.132  0.3000  0.0390  0.1380
  116MPD2    C4 1806   3.526   3.410   0.211 -0.7884  0.1631 -0.1242
  116MPD2    C5 1807   3.402   3.354   0.196  0.3966 -0.1872 -0.2980
  116MPD2     H 1808   3.699   3.246  17.701  0.3254  2.7357 -0.8361
  116MPD2    H1 1809   3.539   3.482   0.291  4.3217  0.8385 -1.5510
  116MPD2    H2 1810   3.274   3.240   0.075  0.3692  1.4464  0.0959
  116MPD2    H3 1811   3.320   3.394   0.255  0.8348 -1.3960  1.1012
  116MPD2     N 1812   3.749   3.443   0.154 -0.2861 -0.6751  0.5298
  116MPD2    H5 1813   3.764   3.497   0.238  1.5487 -0.2586 -0.0612
  116MPD2    N1 1814   3.467   3.125  17.640  0.2199 -0.0861  0.5725
  116MPD2    H7 1815   3.374   3.115  17.602  0.4249  0.2996 -0.0340
  117TMC2    C1 1816   2.154   0.318  14.333  0.5229 -0.3087 -0.4093
  117TMC2    C2 1817   2.211   0.242  14.432 -0.3029 -0.5507 -0.4457
  117TMC2    C3 1818   2.327   0.276  14.488  0.6282 -0.3177  0.7608
  117TMC2    C4 1819   2.202   0.441  14.310 -0.3099 -0.3847 -0.7590
  117TMC2    C5 1820   2.318   0.476  14.375 -0.3989  0.3439 -0.4880
  117TMC2    C6 1821   2.377   0.402  14.471 -0.4300  0.6160  0.4172
  117TMC2     C 1822   2.021   0.286  14.295 -0.8934 -0.7056 -0.0604
  117TMC2     O 1823   2.003   0.167  14.279 -0.5259 -0.2987  0.3097
  117TMC2     H 1824   2.153   0.153  14.453 -0.6687 -0.1691  0.1605
  117TMC2    H1 1825   2.170   0.490  14.219  0.0588  0.0059 -0.6829
  117TMC2    H2 1826   2.474   0.419  14.517 -1.1277  1.5321  1.5451
  117TMC2    C7 1827   2.384   0.599  14.345 -0.7447 -0.1524 -0.3718
  117TMC2    C8 1828   2.358   0.214  14.617  0.3996  0.1294  0.2132
  117TMC2    O1 1829   2.503   0.610  14.377  0.7930 -0.4742  0.7120
  117TMC2    O2 1830   2.374   0.282  14.713  0.1485  0.0804 -0.2438
  117TMC2    O5 1831   2.324   0.085  14.619  0.7776  0.9226 -0.7222
  117TMC2    H5 1832   2.342   0.040  14.534 -1.1021  2.3271 -1.8638
  118MPD2     C 1833   2.247   0.883  14.178 -0.0980 -0.1986 -0.2613
  118MPD2    C1 1834   2.345   0.803  14.214 -0.1020 -0.2588  0.0022
  118MPD2    C2 1835   2.474   0.840  14.187  0.5525  0.1052  0.3223
  118MPD2    C3 1836   2.497   0.963  14.120  0.0793  0.4780  0.4508
  118MPD2    C4 1837   2.392   1.039  14.087 -0.0591  0.5478  0.7053
  118MPD2    C5 1838   2.273   1.005  14.127  0.5983  0.2654 -0.4192
  118MPD2     H 1839   2.558   0.778  14.217 -0.4528 -0.4901  1.8975
  118MPD2    H1 1840   2.413   1.131  14.034 -0.1949  0.1576 -0.0232
  118MPD2    H2 1841   2.142   0.861  14.190 -0.2492  0.4761 -0.3494
  118MPD2    H3 1842   2.187   1.068  14.106 -1.3430 -1.7750  1.3999
  118MPD2     N 1843   2.617   0.997  14.058 -0.1284 -0.6838  0.2134
  118MPD2    H5 1844   2.616   1.075  13.993  0.2312  0.2202  1.2937
  118MPD2    N1 1845   2.303   0.691  14.283  0.4319 -0.0657 -0.1946
  118MPD2    H7 1846   2.207   0.660  14.271  0.7489 -1.4943  0.9537
  119TMC2    C1 1847   0.476   1.218  13.486  0.7078  0.0032  0.3436
  119TMC2    C2 1848   0.457   1.228  13.351  0.4452 -0.0413  0.0155
  119TMC2    C3 1849   0.360   1.313  13.306 -0.3508  0.9292 -0.0444
  119TMC2    C4 1850   0.372   1.259  13.566 -0.1761  0.4604  0.8592
  119TMC2    C5 1851   0.262   1.318  13.516 -0.4048 -0.3106 -0.3217
  119TMC2    C6 1852   0.260   1.354  13.381 -0.1072 -0.6543  0.3156
  119TMC2     C 1853   0.599   1.278  13.528 -0.4809 -0.5228 -0.0802
  119TMC2     O 1854   0.610   1.306  13.645 -0.0900 -0.2508 -0.2180
  119TMC2     H 1855   0.534   1.197  13.282  0.7997  0.6971  0.0773
  119TMC2    H1 1856   0.380   1.250  13.673 -0.8321 -0.6045  0.8098
  119TMC2    H2 1857   0.183   1.423  13.348  0.2755 -0.2115  0.3513
  119TMC2    C7 1858   0.210   1.426  13.596 -0.4709  0.0518  0.2343
  119TMC2    C8 1859   0.337   1.311  13.165  0.0736  0.3247 -0.6162
  119TMC2    O1 1860   0.228   1.540  13.559 -1.0896 -0.1934 -0.2036
  119TMC2    O2 1861   0.365   1.218  13.089  0.2319  0.0930  0.1053
  119TMC2    O5 1862   0.292   1.436  13.129 -0.0920 -0.3160  0.8545
  119TMC2    H5 1863   0.303   1.512  13.190 -1.7206  0.8153 -0.2959
  120MPD2     C 1864   0.985   1.594  13.467  0.4789  0.1853  0.1409
  120MPD2    C1 1865   0.872   1.599  13.546  0.1377  0.7039 -0.1464
  120MPD2    C2 1866   0.775   1.500  13.535 -0.4381  0.0704  0.2991
  120MPD2    C3 1867   0.792   1.394  13.445 -0.4338 -0.1430 -0.0043
  120MPD2    C4 1868   0.900   1.392  13.365 -0.4551  0.3669  0.2945
  120MPD2    C5 1869   1.005   1.485  13.385  0.4195 -0.0257  0.1629
  120MPD2     H 1870   0.677   1.515  13.578 -0.5729  2.4681 -0.8506
  120MPD2    H1 1871   0.913   1.311  13.294 -1.3203  0.8672 -0.4367
  120MPD2    H2 1872   1.062   1.669  13.478 -0.4944  1.3888 -1.2606
  120MPD2    H3 1873   1.089   1.480  13.316  0.2710  0.3479 -0.0478
  120MPD2     N 1874   0.699   1.292  13.430  0.1124 -0.1528 -0.2042
  120MPD2    H5 1875   0.699   1.225  13.354 -0.6374 -1.8416  1.3035
  120MPD2    N1 1876   0.849   1.725  13.609 -0.3894 -0.3522 -0.1694
  120MPD2    H7 1877   0.920   1.798  13.606 -0.5769 -0.0075  3.1496
  121TMC2    C1 1878   2.405   3.563  14.082  0.5396 -0.2229  0.3070
  121TMC2    C2 1879   2.387   3.537  14.218  0.0711  0.4107 -0.0569
  121TMC2    C3 1880   2.285   3.458  14.262  1.2590  0.5699 -0.1630
  121TMC2    C4 1881   2.322   3.504  13.990  1.0642  0.1430  0.0550
  121TMC2    C5 1882   2.210   3.433  14.035 -0.5962 -0.1000 -0.2969
  121TMC2    C6 1883   2.195   3.401  14.168  0.0460  0.6864  0.2669
  121TMC2     C 1884   2.531   3.610  14.040  0.5430 -0.3920  0.8656
  121TMC2     O 1885   2.630   3.601  14.110  0.2478  0.1507 -0.2912
  121TMC2     H 1886   2.448   3.581  14.296 -0.7404 -1.6044  1.6952
  121TMC2    H1 1887   2.343   3.501  13.883 -0.6200  3.2911 -0.3694
  121TMC2    H2 1888   2.113   3.343  14.208  1.7259 -1.8831  0.0399
  121TMC2    C7 1889   2.140   3.356  13.934 -0.1461 -0.1311  0.5958
  121TMC2    C8 1890   2.258   3.437  14.400 -0.0154  0.2269 -0.4131
  121TMC2    O1 1891   2.210   3.332  13.836 -0.1585 -0.5581  0.1103
  121TMC2    O2 1892   2.150   3.452  14.457 -0.4911  0.4627  0.6658
  121TMC2    O5 1893   2.373   3.438  14.468 -0.1570  0.7265 -0.0661
  121TMC2    H5 1894   2.447   3.431  14.403  0.4910  0.8958  0.6490
  122MPD2     C 1895   2.754   3.624  13.851 -0.0060  0.1963 -0.1453
  122MPD2    C1 1896   2.631   3.677  13.824 -1.2563  0.0575 -0.6762
  122MPD2    C2 1897   2.616   3.736  13.701  0.3977 -0.0264 -0.9355
  122MPD2    C3 1898   2.717   3.751  13.615  0.4668 -0.6361  0.3241
  122MPD2    C4 1899   2.848   3.728  13.661  0.0580 -0.2233  0.2738
  122MPD2    C5 1900   2.869   3.655  13.774 -0.4486  0.2001  0.3584
  122MPD2     H 1901   2.514   3.755  13.671  0.2480  0.6281 -0.0241
  122MPD2    H1 1902   2.930   3.750  13.593 -0.4938  1.5956  0.2017
  122MPD2    H2 1903   2.767   3.562  13.938  1.4147 -1.2546 -1.3892
  122MPD2    H3 1904   2.967   3.615  13.796 -0.3762 -1.2567 -2.6348
  122MPD2     N 1905   2.690   3.797  13.482  0.2137  0.0136  0.0363
  122MPD2    H5 1906   2.772   3.812  13.424 -0.2152 -0.3614 -0.6778
  122MPD2    N1 1907   2.519   3.659  13.915 -0.2118  0.3605 -0.1503
  122MPD2    H7 1908   2.427   3.690  13.884  1.2161  2.3250 -2.4580
  123TMC2    C1 1909   0.478   2.231  10.748 -0.0815 -0.1638  0.1855
  123TMC2    C2 1910   0.593   2.281  10.711  0.1327 -0.4297  0.4259
  123TMC2    C3 1911   0.670   2.215  10.616 -0.0979  0.0203 -0.9030
  123TMC2    C4 1912   0.433   2.107  10.707  0.9046  0.6671  0.2296
  123TMC2    C5 1913   0.510   2.035  10.622 -0.3826  0.4209 -0.0616
  123TMC2    C6 1914   0.625   2.092  10.579 -0.2033 -0.1609  0.7443
  123TMC2     C 1915   0.395   2.309  10.842 -0.2183 -0.4816 -0.4870
  123TMC2     O 1916   0.447   2.403  10.899 -0.1205 -0.1672 -0.2201
  123TMC2     H 1917   0.623   2.379  10.745 -1.2301  0.2950 -0.4489
  123TMC2    H1 1918   0.337   2.067  10.741  2.0899 -1.0132  1.6014
  123TMC2    H2 1919   0.694   2.030  10.524  0.7904  1.1873  0.4771
  123TMC2    C7 1920   0.463   1.899  10.583 -0.5567  0.6786 -0.8024
  123TMC2    C8 1921   0.809   2.243  10.596 -0.3493  0.2037  0.3975
  123TMC2    O1 1922   0.361   1.855  10.629  0.6541 -0.1911  0.5891
  123TMC2    O2 1923   0.892   2.159  10.561 -0.7367 -0.3712 -0.5180
  123TMC2    O5 1924   0.807   2.373  10.568  0.3830  0.1121  0.2480
  123TMC2    H5 1925   0.721   2.417  10.585  1.7747  2.5691  0.9371
  124MPD2     C 1926   4.653   2.360  11.033  0.3634  0.3616 -0.2177
  124MPD2    C1 1927   4.665   2.253  10.946 -0.6096 -0.4792  0.4609
  124MPD2    C2 1928   0.055   2.217  10.891 -0.1396  0.1938  0.5409
  124MPD2    C3 1929   0.164   2.295  10.918  0.9419 -0.6480  0.2676
  124MPD2    C4 1930   0.157   2.411  10.993  0.5843  0.1170 -0.2763
  124MPD2    C5 1931   0.030   2.440  11.044  0.5340  0.2831 -0.4596
  124MPD2     H 1932   0.065   2.126  10.832 -0.6682  0.7670 -0.4369
  124MPD2    H1 1933   0.230   2.489  11.009  1.3203 -0.1365 -2.4037
  124MPD2    H2 1934   4.554   2.386  11.071 -0.2579 -3.0903  0.5112
  124MPD2    H3 1935   0.012   2.530  11.102  0.5357 -0.7845  1.1798
  124MPD2     N 1936   0.271   2.251  10.849  0.1540  0.0838 -0.3483
  124MPD2    H5 1937   0.253   2.164  10.801 -1.8849  0.4815 -0.2943
  124MPD2    N1 1938   4.554   2.175  10.916 -0.1889 -0.0560  0.5636
  124MPD2    H7 1939   4.475   2.195  10.976 -0.5145 -1.2890  0.5541
  125TMC2    C1 1940   2.850   3.359   9.120  0.1082 -0.4880 -1.0879
  125TMC2    C2 1941   2.796   3.258   9.050  0.1132  0.1273  0.5557
  125TMC2    C3 1942   2.678   3.281   8.989 -0.1790  0.1021 -0.2309
  125TMC2    C4 1943   2.790   3.479   9.128 -0.0665 -0.3313 -0.5153
  125TMC2    C5 1944   2.665   3.499   9.068 -0.0128  0.3920  0.0433
  125TMC2    C6 1945   2.615   3.397   8.994 -0.3928  0.3844  0.0230
  125TMC2     C 1946   2.982   3.354   9.171 -0.0224 -0.2470 -0.0878
  125TMC2     O 1947   3.055   3.453   9.176  0.0076 -0.3204  0.3151
  125TMC2     H 1948   2.846   3.163   9.035 -3.1427 -1.3445 -0.8802
  125TMC2    H1 1949   2.831   3.554   9.194  0.0959  0.1905 -1.2030
  125TMC2    H2 1950   2.522   3.422   8.944 -0.9706  2.3120  2.0723
  125TMC2    C7 1951   2.577   3.615   9.107  0.1407 -0.4055 -0.0769
  125TMC2    C8 1952   2.645   3.195   8.879  0.1372 -0.6128 -0.0325
  125TMC2    O1 1953   2.459   3.602   9.090  0.7708  0.4518 -0.4709
  125TMC2    O2 1954   2.722   3.112   8.838 -0.3757  0.1332  0.5255
  125TMC2    O5 1955   2.508   3.182   8.894  0.5561 -0.0144 -0.0871
  125TMC2    H5 1956   2.471   3.240   8.964  2.8970  0.9335  0.3828
  126MPD1     C 1957   3.370   3.075   9.350  0.3062  0.4799  0.3874
  126MPD1    C1 1958   3.260   2.999   9.362 -0.0266  1.2388  1.9177
  126MPD1    C2 1959   3.146   3.051   9.304  0.4331  0.0270 -0.2606
  126MPD1    C3 1960   3.139   3.177   9.249  0.6713 -0.2289  0.0437
  126MPD1    C4 1961   3.244   3.255   9.241  0.7352  0.1431 -0.3235
  126MPD1    C5 1962   3.363   3.206   9.296 -0.0517  0.0963  0.4899
  126MPD1     H 1963   3.060   2.987   9.319 -0.0058  0.5405 -0.5994
  126MPD1    H1 1964   3.244   3.354   9.196  1.1472  0.4688  0.3849
  126MPD1    H2 1965   3.463   3.049   9.400 -0.9634  0.9923  2.9877
  126MPD1    H3 1966   3.451   3.265   9.275  0.2009 -0.4816 -0.0753
  126MPD1     N 1967   3.013   3.221   9.202  0.0838  0.1403 -0.1249
  126MPD1    H5 1968   2.942   3.149   9.201 -0.9316  1.1458 -0.0176
  126MPD1    N1 1969   3.257   2.881   9.439 -0.0294  0.1919 -0.4879
  126MPD1    H6 1970   3.202   2.804   9.399 -1.4993  1.9039 -1.7373
  126MPD1    H7 1971   3.353   2.850   9.456  0.0023  1.5996  1.7544
  127TMC2    C1 1972   2.545   2.608   9.542  0.0914 -0.9528 -0.3636
  127TMC2    C2 1973   2.484   2.566   9.427 -1.7648 -0.2968  0.1127
  127TMC2    C3 1974   2.442   2.432   9.421 -0.9895 -0.2728 -0.0388
  127TMC2    C4 1975   2.577   2.522   9.638 -0.1316 -0.0321 -0.2285
  127TMC2    C5 1976   2.538   2.389   9.625 -0.6925 -0.1524  0.1088
  127TMC2    C6 1977   2.469   2.344   9.519 -0.1239  0.0418  0.1436
  127TMC2     C 1978   2.588   2.744   9.566  0.5342  0.2411  0.2321
  127TMC2     O 1979   2.676   2.756   9.651  0.2772 -0.0173  0.1897
  127TMC2     H 1980   2.465   2.642   9.352 -0.0559  0.7493  0.7318
  127TMC2    H1 1981   2.644   2.554   9.717 -0.3606  0.8999 -0.4087
  127TMC2    H2 1982   2.441   2.240   9.505 -0.2034  0.3834 -2.1578
  127TMC2    C7 1983   2.514   2.329   9.756 -0.0640 -0.3455 -0.0148
  127TMC2    C8 1984   2.403   2.373   9.296  0.5512 -0.3760  0.3012
  127TMC2    O1 1985   2.563   2.378   9.854 -0.8799  0.1449 -0.1183
  127TMC2    O2 1986   2.430   2.436   9.196  0.3835  0.0940  0.1425
  127TMC2    O5 1987   2.278   2.326   9.319  0.5945 -0.0514  0.2446
  127TMC2    H5 1988   2.265   2.340   9.415 -0.7679 -0.9734  0.1833
  128MPD2     C 1989   2.513   3.063   9.392 -0.3465  0.1292  0.1547
  128MPD2    C1 1990   2.584   2.979   9.470 -0.4626  0.3297 -0.3759
  128MPD2    C2 1991   2.694   3.029   9.536  0.5107 -0.1847 -0.3707
  128MPD2    C3 1992   2.740   3.153   9.514 -0.4106 -0.1806  0.1594
  128MPD2    C4 1993   2.667   3.240   9.438 -0.5406  0.1342  0.2062
  128MPD2    C5 1994   2.556   3.195   9.377 -0.2552  0.0822  0.3945
  128MPD2     H 1995   2.756   2.964   9.597  1.6809 -0.3377 -1.7213
  128MPD2    H1 1996   2.698   3.341   9.418 -0.3220  0.4268  2.0332
  128MPD2    H2 1997   2.432   3.024   9.331 -2.0810  2.1692  1.1165
  128MPD2    H3 1998   2.499   3.264   9.316  1.0943  0.1581 -0.7850
  128MPD2     N 1999   2.872   3.187   9.558 -0.2624 -0.3919 -0.1690
  128MPD2    H5 2000   2.912   3.120   9.623 -0.2432  0.4255  0.6517
  128MPD2    N1 2001   2.536   2.843   9.481  0.1289  0.0888 -0.3801
  128MPD2    H7 2002   2.453   2.816   9.429  0.0920 -0.1815 -0.1813
  129TMC2    C1 2003   1.177   3.268   1.239  0.9507  0.7357  0.0349
  129TMC2    C2 2004   1.096   3.361   1.300  0.0756  0.1555  0.3679
  129TMC2    C3 2005   0.961   3.339   1.289 -0.0668 -0.5940  0.1510
  129TMC2    C4 2006   1.128   3.160   1.173  0.2416 -0.4383 -0.4820
  129TMC2    C5 2007   0.998   3.126   1.187 -0.1264 -0.1869  0.1715
  129TMC2    C6 2008   0.911   3.215   1.254  0.2469  0.4351  0.3697
  129TMC2     C 2009   1.312   3.302   1.212  0.5703 -0.0830  0.3859
  129TMC2     O 2010   1.394   3.213   1.189 -0.9053 -0.0730  0.7334
  129TMC2     H 2011   1.139   3.444   1.356 -1.9214  1.4377  0.0230
  129TMC2    H1 2012   1.192   3.095   1.114  1.5588 -1.2905  1.8776
  129TMC2    H2 2013   0.803   3.201   1.258  0.2962 -0.0679  0.0377
  129TMC2    C7 2014   0.945   3.001   1.124  0.3116  0.5227  0.8301
  129TMC2    C8 2015   0.855   3.435   1.329 -0.4598  0.5388 -0.1997
  129TMC2    O1 2016   0.823   2.988   1.115  0.3555 -0.0970  0.3899
  129TMC2    O2 2017   0.738   3.406   1.350 -0.0346 -0.2535 -0.2797
  129TMC2    O5 2018   0.895   3.557   1.295  0.2799  0.4719  0.4281
  129TMC2    H5 2019   0.988   3.560   1.261 -0.0862 -0.3581 -0.6637
  130MPD2     C 2020   1.589   3.430   1.253 -0.2305 -0.2356 -0.1669
  130MPD2    C1 2021   1.467   3.498   1.253  0.0455  0.2924  0.7051
  130MPD2    C2 2022   1.472   3.632   1.284 -0.3044 -0.2054 -0.1930
  130MPD2    C3 2023   1.592   3.697   1.305  0.4745 -0.4402  0.1086
  130MPD2    C4 2024   1.713   3.627   1.301 -0.3159  0.4665  0.1022
  130MPD2    C5 2025   1.706   3.494   1.266 -0.0706  0.5789  0.1896
  130MPD2     H 2026   1.383   3.694   1.278  1.3134  2.1439  0.1214
  130MPD2    H1 2027   1.812   3.666   1.319 -0.8900  0.7282  2.5957
  130MPD2    H2 2028   1.592   3.324   1.231  0.0281 -0.3118  0.2349
  130MPD2    H3 2029   1.797   3.436   1.256  1.6800  3.1098  1.3228
  130MPD2     N 2030   1.581   3.835   1.334  0.0238  0.1839 -0.2072
  130MPD2    H5 2031   1.487   3.872   1.332 -0.7379 -1.6538  1.3980
  130MPD2    N1 2032   1.341   3.434   1.235 -0.3332 -0.3429 -0.4564
  130MPD2    H7 2033   1.261   3.497   1.242  0.5461  0.6415  0.7860
  131TMC2    C1 2034   0.295   1.947  10.153 -0.2406 -0.2076  0.5074
  131TMC2    C2 2035   0.418   1.953  10.207  0.2242 -0.0266 -0.6887
  131TMC2    C3 2036   0.506   2.038  10.151  0.6334  0.4095  0.4937
  131TMC2    C4 2037   0.263   2.018  10.045 -0.2354  0.1583  1.1231
  131TMC2    C5 2038   0.346   2.114   9.997  0.4148 -0.5709 -0.5974
  131TMC2    C6 2039   0.473   2.121  10.050  0.5286 -0.4263  0.3665
  131TMC2     C 2040   0.183   1.913  10.243 -0.2690  0.2179 -0.0138
  131TMC2     O 2041   0.184   1.966  10.351  0.3225  0.1585  0.6320
  131TMC2     H 2042   0.448   1.900  10.297 -2.2218 -1.3472 -0.6550
  131TMC2    H1 2043   0.159   2.017  10.018 -0.3358 -0.1927  1.5112
  131TMC2    H2 2044   0.546   2.187  10.004  0.5455  1.2083  2.7363
  131TMC2    C7 2045   0.278   2.223   9.927 -0.3921  0.1722  0.1166
  131TMC2    C8 2046   0.636   2.051  10.217  0.1712 -0.0446 -0.4876
  131TMC2    O1 2047   0.172   2.195   9.879 -0.0940  0.8026 -0.2304
  131TMC2    O2 2048   0.696   1.956  10.264 -0.0962  0.1991 -0.8413
  131TMC2    O5 2049   0.674   2.179  10.204 -0.4047 -0.3001  0.0836
  131TMC2    H5 2050   0.599   2.232  10.169  0.6179 -0.2637 -1.9955
  132MPD2     C 2051   4.662   1.652  10.158 -0.4404 -0.3423  0.8820
  132MPD2    C1 2052   4.724   1.751  10.235 -0.4349 -0.1085 -0.4103
  132MPD2    C2 2053   4.668   1.788  10.356  0.2015 -0.4548 -0.5468
  132MPD2    C3 2054   4.553   1.719  10.397 -0.5427 -0.2431 -0.0685
  132MPD2    C4 2055   4.494   1.616  10.333 -1.0428 -1.0120 -0.3517
  132MPD2    C5 2056   4.544   1.593  10.205 -0.1416 -0.1232 -0.5598
  132MPD2     H 2057   4.706   1.872  10.413 -0.6825  0.1921 -0.9057
  132MPD2    H1 2058   4.396   1.576  10.355 -0.4676 -0.4684  3.1814
  132MPD2    H2 2059   4.703   1.620  10.063  0.0558 -0.8172  1.2481
  132MPD2    H3 2060   4.481   1.522  10.152  0.4685 -1.1535  0.0876
  132MPD2     N 2061   4.488   1.771  10.508 -0.1252  0.4178  0.1270
  132MPD2    H5 2062   4.531   1.852  10.552  3.0498 -0.8556 -0.6291
  132MPD2    N1 2063   0.111   1.816  10.179 -0.1208 -0.3709 -0.3439
  132MPD2    H7 2064   0.160   1.773  10.101 -0.9106 -0.4438 -0.7909
  133TMC2    C1 2065   0.184   3.860  10.252 -0.4939 -0.3528 -0.2852
  133TMC2    C2 2066   0.144   3.957  10.334  0.5044 -0.2316  0.2856
  133TMC2    C3 2067   0.233   4.031  10.402  0.6815  0.9292 -0.1862
  133TMC2    C4 2068   0.316   3.830  10.238  0.3764  0.7228 -0.3113
  133TMC2    C5 2069   0.405   3.906  10.309  0.1023  0.2184  0.5578
  133TMC2    C6 2070   0.364   4.004  10.392  0.3978 -0.4130  0.8243
  133TMC2     C 2071   0.095   3.803  10.158  0.0998 -0.4725 -0.3559
  133TMC2     O 2072   0.109   3.688  10.123  0.3934  0.1276 -0.1672
  133TMC2     H 2073   0.038   3.979  10.345  0.5270  0.5023 -1.0203
  133TMC2    H1 2074   0.343   3.769  10.152 -2.2794 -0.7427 -0.0932
  133TMC2    H2 2075   0.447   4.062  10.432 -0.8791  1.2138  1.1322
  133TMC2    C7 2076   0.547   3.890  10.280  0.1075 -0.2965  0.3868
  133TMC2    C8 2077   0.188   4.117  10.512 -0.3607  0.6225 -0.0466
  133TMC2    O1 2078   0.579   3.857  10.168  0.0787  0.0849 -0.0748
  133TMC2    O2 2079   0.076   4.162  10.518  0.0628  0.1584 -0.0105
  133TMC2    O5 2080   0.250   4.060  10.616 -0.3950 -0.2919 -0.0732
  133TMC2    H5 2081   0.338   4.022  10.592 -0.3944  0.3306 -1.0526
  134MPD2     C 2082   4.639   3.980   9.896 -0.4131 -0.2039  0.2410
  134MPD2    C1 2083   4.670   3.874   9.983 -0.8919  0.0763 -0.3134
  134MPD2    C2 2084   4.616   3.748   9.955 -0.3075  0.5226  0.1003
  134MPD2    C3 2085   4.548   3.725   9.830  0.4613 -0.3410  0.4556
  134MPD2    C4 2086   4.539   3.832   9.745  0.0785 -0.1732  0.2152
  134MPD2    C5 2087   4.577   3.953   9.781 -0.1753  0.4142  0.1930
  134MPD2     H 2088   4.621   3.668  10.027 -0.5772  1.8736  1.6282
  134MPD2    H1 2089   4.476   3.814   9.658  0.8049 -0.1096 -0.3207
  134MPD2    H2 2090   4.675   4.080   9.920  1.8415 -0.6162 -1.3697
  134MPD2    H3 2091   4.563   4.042   9.721  0.7786 -1.0465 -2.1966
  134MPD2     N 2092   4.477   3.607   9.793  0.6812 -0.2909 -0.5545
  134MPD2    H5 2093   4.418   3.609   9.711  0.0557  3.6911 -0.0029
  134MPD2    N1 2094   0.032   3.905  10.088 -0.2263 -0.0584 -0.0793
  134MPD2    H7 2095   0.053   4.003  10.102  1.2849 -0.5791  1.3548
  135TMC2    C1 2096   1.815   4.406   8.965 -0.1368 -0.0879  0.1925
  135TMC2    C2 2097   1.854   4.520   9.028  0.0377  0.8317  0.2133
  135TMC2    C3 2098   1.761   4.613   9.070 -0.2548  0.4705  0.0714
  135TMC2    C4 2099   1.681   4.385   8.941 -0.1479  0.0592  0.3519
  135TMC2    C5 2100   1.588   4.471   8.993 -0.6473 -0.2429 -0.5654
  135TMC2    C6 2101   1.628   4.597   9.041  0.4280 -0.1480 -0.3528
  135TMC2     C 2102   1.899   4.342   8.871 -0.4046  0.2484  0.1414
  135TMC2     O 2103   1.848   4.292   8.770  0.0196  0.4878 -0.4755
  135TMC2     H 2104   1.959   4.532   9.053  0.0802  0.2769  0.2915
  135TMC2    H1 2105   1.646   4.293   8.895  1.0891 -0.8976  1.3167
  135TMC2    H2 2106   1.553   4.656   9.091  0.1933 -0.6279 -0.1313
  135TMC2    C7 2107   1.444   4.437   9.002  0.0402  0.3197  0.1787
  135TMC2    C8 2108   1.799   4.705   9.170  0.3660  0.5118  0.3286
  135TMC2    O1 2109   1.362   4.521   9.026 -0.0093  0.1345 -0.4280
  135TMC2    O2 2110   1.714   0.028   9.238  0.3762  0.2175  1.0379
  135TMC2    O5 2111   1.913   0.030   9.123 -0.0228  0.5631 -0.4788
  135TMC2    H5 2112   1.942   0.015   9.031 -0.3193 -2.6859 -0.0281
  136MPD2     C 2113   2.114   4.221   8.694 -0.1732  0.8858  0.0072
  136MPD2    C1 2114   2.140   4.277   8.822  0.2964  0.0823 -0.1205
  136MPD2    C2 2115   2.271   4.262   8.875 -0.5850 -0.0201  0.0643
  136MPD2    C3 2116   2.369   4.193   8.806  0.0257  0.1611  0.1705
  136MPD2    C4 2117   2.340   4.146   8.678 -0.7274 -0.2594  0.3530
  136MPD2    C5 2118   2.212   4.158   8.623  0.4479  0.1547  0.1999
  136MPD2     H 2119   2.294   4.312   8.968  1.2385  0.0714 -0.4435
  136MPD2    H1 2120   2.423   4.096   8.630 -1.3157 -1.8933  1.0200
  136MPD2    H2 2121   2.012   4.228   8.656 -0.6753 -1.1696  0.9486
  136MPD2    H3 2122   2.197   4.119   8.523 -1.3665  0.7254  0.2575
  136MPD2     N 2123   2.492   4.160   8.869  0.1271  0.1770  0.4110
  136MPD2    H5 2124   2.554   4.097   8.819 -0.2665 -2.0605  2.7347
  136MPD2    N1 2125   2.036   4.346   8.895 -0.0659 -0.3915 -0.1670
  136MPD2    H7 2126   2.067   4.383   8.985 -0.2740 -0.0866 -0.2208
  137TMC2    C1 2127   1.520   3.410  10.593 -1.0704  0.3272 -0.2287
  137TMC2    C2 2128   1.551   3.432  10.730  0.4589  0.8551  0.3007
  137TMC2    C3 2129   1.536   3.333  10.820 -0.2610 -0.8730  0.3796
  137TMC2    C4 2130   1.476   3.281  10.558 -0.0942 -0.3436 -0.1385
  137TMC2    C5 2131   1.449   3.192  10.662  0.0645 -0.6074  0.0565
  137TMC2    C6 2132   1.489   3.208  10.792  0.0545  0.1185 -0.2246
  137TMC2     C 2133   1.599   3.479  10.507  0.3640  0.4773 -0.1933
  137TMC2     O 2134   1.655   3.416  10.418 -0.3362  0.4552 -0.4336
  137TMC2     H 2135   1.595   3.525  10.763  1.4705  0.3234  0.4583
  137TMC2    H1 2136   1.448   3.248  10.458  1.9860 -1.7686 -0.2431
  137TMC2    H2 2137   1.461   3.150  10.880 -0.0056 -0.0630 -0.3639
  137TMC2    C7 2138   1.365   3.070  10.648  0.3062  0.0049 -0.0046
  137TMC2    C8 2139   1.548   3.361  10.963  0.6422 -0.3065  0.2527
  137TMC2    O1 2140   1.393   2.978  10.724  0.1181  0.3771  0.2218
  137TMC2    O2 2141   1.479   3.319  11.057 -0.4289  0.6749  0.4032
  137TMC2    O5 2142   1.665   3.427  10.976  0.0363 -0.0894 -0.0733
  137TMC2    H5 2143   1.721   3.423  10.895  1.5847 -2.6428  1.1283
  138MPD2     C 2144   1.633   3.846  10.474  0.1054  0.0378 -0.6792
  138MPD2    C1 2145   1.635   3.715  10.425  0.5842  0.7376 -0.3703
  138MPD2    C2 2146   1.706   3.684  10.306 -0.2157  0.1388 -0.2755
  138MPD2    C3 2147   1.761   3.786  10.227  0.4754 -0.0790 -0.4304
  138MPD2    C4 2148   1.749   3.919  10.270 -0.0952 -0.0043  0.2816
  138MPD2    C5 2149   1.681   3.941  10.387 -0.0270 -0.7082 -0.9743
  138MPD2     H 2150   1.697   3.584  10.265  0.4171  0.5252 -1.3535
  138MPD2    H1 2151   1.791   4.006  10.220  0.1555 -1.4582 -2.0073
  138MPD2    H2 2152   1.578   3.861  10.566  0.8613  0.1799 -0.2569
  138MPD2    H3 2153   1.676   4.040  10.428 -0.0732 -1.1644  0.1118
  138MPD2     N 2154   1.799   3.750  10.095  0.2586  0.6874  0.0275
  138MPD2    H5 2155   1.776   3.660  10.054 -2.5328  1.5931 -0.4027
  138MPD2    N1 2156   1.582   3.615  10.510  0.1503 -0.2033 -0.0650
  138MPD2    H7 2157   1.533   3.647  10.592 -0.2260 -0.5074 -0.1732
  139TMC2    C1 2158   2.219   1.419  13.433  0.0772  0.5009  0.2606
  139TMC2    C2 2159   2.256   1.474  13.319 -0.6348 -0.4834 -0.2751
  139TMC2    C3 2160   2.210   1.597  13.276 -0.1828  0.5155 -0.1559
  139TMC2    C4 2161   2.154   1.500  13.526  0.3882 -0.5030  0.5528
  139TMC2    C5 2162   2.128   1.632  13.497  0.1606  0.1486  0.2006
  139TMC2    C6 2163   2.149   1.681  13.371 -0.1097 -0.2597  0.0909
  139TMC2     C 2164   2.272   1.280  13.464 -0.0222 -0.0923 -0.0665
  139TMC2     O 2165   2.376   1.245  13.406 -0.4659  0.1526  0.5641
  139TMC2     H 2166   2.304   1.412  13.244  0.5897  1.7062 -1.3209
  139TMC2    H1 2167   2.129   1.465  13.625 -0.3627 -0.0766  0.5215
  139TMC2    H2 2168   2.115   1.781  13.345  1.0255 -0.1456 -0.9970
  139TMC2    C7 2169   2.064   1.717  13.594 -0.1563  0.6722  0.7232
  139TMC2    C8 2170   2.278   1.649  13.160  0.0249  0.2191 -0.0403
  139TMC2    O1 2171   2.037   1.832  13.558 -0.0904  0.4991 -0.0246
  139TMC2    O2 2172   2.266   1.604  13.049 -0.0597  0.1519  0.1962
  139TMC2    O5 2173   2.355   1.755  13.197  0.3930  1.1597  1.0610
  139TMC2    H5 2174   2.369   1.754  13.294  0.1275 -0.5855  1.0793
  140MPD2     C 2175   2.203   1.051  13.746 -0.2005 -0.1097 -0.1245
  140MPD2    C1 2176   2.263   1.090  13.627 -0.3402 -0.4959  0.0981
  140MPD2    C2 2177   2.373   1.016  13.587  0.2356  0.4167 -0.2955
  140MPD2    C3 2178   2.413   0.901  13.657 -0.7728  0.2071 -0.7263
  140MPD2    C4 2179   2.346   0.855  13.767 -0.3939  0.3094 -0.6355
  140MPD2    C5 2180   2.240   0.930  13.805 -0.6250  0.9760 -0.2069
  140MPD2     H 2181   2.426   1.022  13.492 -0.1502 -0.1676 -0.5456
  140MPD2    H1 2182   2.378   0.774  13.831  1.5467  1.1037 -0.6025
  140MPD2    H2 2183   2.122   1.111  13.786 -0.6396 -2.3742  2.3933
  140MPD2    H3 2184   2.169   0.899  13.882  3.2335 -0.2739  2.8364
  140MPD2     N 2185   2.528   0.836  13.612  0.4751  0.1741  0.0483
  140MPD2    H5 2186   2.572   0.887  13.536  0.8846 -0.4624 -0.1486
  140MPD2    N1 2187   2.210   1.212  13.562  0.1873 -0.2100 -0.0951
  140MPD2    H7 2188   2.129   1.258  13.603  1.0244 -0.9398  2.3703
  141TMC2    C1 2189   2.286   2.626  14.129  0.2559  0.0545 -0.2563
  141TMC2    C2 2190   2.258   2.534  14.223  0.4749  0.0623 -0.0191
  141TMC2    C3 2191   2.344   2.512  14.324 -0.3825 -0.4217  0.0422
  141TMC2    C4 2192   2.389   2.712  14.155 -0.5751  0.5348  0.0867
  141TMC2    C5 2193   2.467   2.701  14.263  0.3414  0.1008 -0.3725
  141TMC2    C6 2194   2.440   2.605  14.351 -0.2591 -0.0914  0.2451
  141TMC2     C 2195   2.280   2.600  13.982  0.0382 -0.3099  0.0899
  141TMC2     O 2196   2.177   2.564  13.927 -0.4354 -0.2679 -0.0825
  141TMC2     H 2197   2.175   2.467  14.204  0.2715  0.0828  0.8000
  141TMC2    H1 2198   2.382   2.805  14.099 -0.6118  1.3251  1.4266
  141TMC2    H2 2199   2.502   2.587  14.438  1.5369 -0.0592 -1.0408
  141TMC2    C7 2200   2.605   2.746  14.235 -0.2371 -0.5934  0.6348
  141TMC2    C8 2201   2.323   2.406  14.425  0.0178  0.0088  0.8910
  141TMC2    O1 2202   2.630   2.778  14.120 -0.5614  0.8014  0.2814
  141TMC2    O2 2203   2.357   2.429  14.537  0.2271 -0.4305  0.1205
  141TMC2    O5 2204   2.226   2.321  14.379 -0.0005 -0.1015 -0.1388
  141TMC2    H5 2205   2.215   2.310  14.282 -2.5590 -0.8009  0.2232
  142TMC2    C1 2206   4.620   1.279  10.380  0.2790  0.6093 -0.3220
  142TMC2    C2 2207   4.652   1.193  10.280 -0.7713 -0.2391 -0.3098
  142TMC2    C3 2208   0.035   1.212  10.204 -0.2223  0.0895 -0.1284
  142TMC2    C4 2209   4.711   1.375  10.419 -0.2701 -0.1488 -0.7153
  142TMC2    C5 2210   0.091   1.387  10.346  0.1553 -0.4583  0.7268
  142TMC2    C6 2211   0.122   1.316  10.227 -0.3695 -0.5356 -0.6008
  142TMC2     C 2212   4.509   1.234  10.468  0.5227 -0.5012  0.5697
  142TMC2     O 2213   4.469   1.122  10.450 -0.2168  0.1299  0.5477
  142TMC2     H 2214   4.582   1.112  10.263  0.0742 -0.6474 -1.7865
  142TMC2    H1 2215   4.703   1.433  10.511  0.9522  0.3043 -0.9026
  142TMC2    H2 2216   0.204   1.332  10.157  0.0191 -0.2831 -0.0884
  142TMC2    C7 2217   0.194   1.479  10.394 -0.0050 -1.0165 -0.4749
  142TMC2    C8 2218   0.029   1.148  10.075  0.1641  0.3180  0.0785
  142TMC2    O1 2219   0.174   1.544  10.495  0.5836 -0.1377  0.3589
  142TMC2    O2 2220   0.130   1.128  10.012 -0.4927 -0.2220  0.4930
  142TMC2    O5 2221   4.639   1.168  10.012 -0.6455  0.2200  0.0607
  142TMC2    H5 2222   4.567   1.201  10.069 -0.0564  0.8481  0.4413
  143MPD2     C 2223   4.309   1.187  10.928  0.5281 -0.7487 -0.0252
  143MPD2    C1 2224   4.282   1.118  10.810  1.0721 -0.7517 -0.1078
  143MPD2    C2 2225   4.338   1.166  10.693 -0.2348  0.9891  0.7991
  143MPD2    C3 2226   4.415   1.281  10.691 -0.1985  0.1770 -0.3142
  143MPD2    C4 2227   4.435   1.351  10.808  0.4002  0.3115  0.0312
  143MPD2    C5 2228   4.391   1.300  10.928  0.0242 -0.0823 -0.5061
  143MPD2     H 2229   4.311   1.115  10.601  2.2154  1.8623 -0.3976
  143MPD2    H1 2230   4.491   1.444  10.805  0.7162  0.1104 -0.3598
  143MPD2    H2 2231   4.266   1.157  11.023 -0.5491  1.6761  0.2513
  143MPD2    H3 2232   4.424   1.345  11.021 -0.6499  0.1583 -0.3795
  143MPD2     N 2233   4.490   1.314  10.577  0.1199  0.4238 -0.5309
  143MPD2    H5 2234   4.537   1.403  10.573  0.0895  0.5254  1.4712
  143MPD2    N1 2235   4.193   1.005  10.827  0.3998 -0.2102  0.1640
  143MPD2    H7 2236   4.173   0.970  10.920  0.0035  0.4089  0.3114
  144TMC2    C1 2237   4.013   0.067   0.742 -0.0756 -0.4181  0.3086
  144TMC2    C2 2238   4.058   4.679   0.698  0.5510  0.0652  0.2217
  144TMC2    C3 2239   4.191   4.659   0.695 -0.7620  0.4584 -0.8913
  144TMC2    C4 2240   4.100   0.163   0.771  0.2845  0.4677 -0.2981
  144TMC2    C5 2241   4.237   0.146   0.746  0.3834 -0.1701 -0.4713
  144TMC2    C6 2242   4.283   0.027   0.707  0.2548 -0.6539  0.6861
  144TMC2     C 2243   3.869   0.088   0.743 -0.4731  0.6340 -0.0170
  144TMC2     O 2244   3.799   4.716   0.739  0.3786 -0.4011  0.6718
  144TMC2     H 2245   3.995   4.596   0.668  0.9238  1.1119 -3.4007
  144TMC2    H1 2246   4.067   0.251   0.824 -1.2176 -0.1513 -0.2071
  144TMC2    H2 2247   4.389   0.005   0.705 -0.1754 -2.4541 -2.8613
  144TMC2    C7 2248   4.334   0.252   0.790  0.0756 -0.3403  0.8210
  144TMC2    C8 2249   4.219   4.523   0.655 -0.7170  0.6056 -0.1753
  144TMC2    O1 2250   4.452   0.224   0.793 -0.4656  0.0159  0.1950
  144TMC2    O2 2251   4.160   4.430   0.708 -0.2458 -0.1370  0.1032
  144TMC2    O5 2252   4.324   4.517   0.575  0.5461 -0.0323 -0.7580
  144TMC2    H5 2253   4.351   4.607   0.547  0.9303 -0.9351 -3.2861
  145MPD2     C 2254   3.422   0.316   0.837  0.2752  0.1830 -0.2612
  145MPD2    C1 2255   3.453   0.217   0.748 -0.6862 -0.4428 -0.2934
  145MPD2    C2 2256   3.591   0.188   0.738 -0.0364 -0.0852  0.0545
  145MPD2    C3 2257   3.691   0.256   0.796 -0.0925  0.5182  0.6984
  145MPD2    C4 2258   3.659   0.361   0.870  0.0073 -0.1675  0.6220
  145MPD2    C5 2259   3.525   0.382   0.894 -0.1714  0.6315  0.1017
  145MPD2     H 2260   3.611   0.108   0.667  1.0289 -2.9430  3.5831
  145MPD2    H1 2261   3.728   0.427   0.922  0.8523  1.0535 -2.0990
  145MPD2    H2 2262   3.321   0.347   0.859 -0.1007 -1.1862 -0.1012
  145MPD2    H3 2263   3.502   0.468   0.956 -0.5164 -0.4498  1.4695
  145MPD2     N 2264   3.828   0.220   0.779 -0.2509 -0.5790  0.3566
  145MPD2    H5 2265   3.893   0.290   0.811 -0.2072 -0.0673 -0.8529
  145MPD2    N1 2266   3.362   0.135   0.672 -0.4266 -0.1505  0.4688
  145MPD2    H7 2267   3.394   0.059   0.613  1.5608  3.2080 -2.7632
  146TMC2    C1 2268   4.259   3.804  12.480 -0.1811 -0.5674  0.0917
  146TMC2    C2 2269   4.136   3.819  12.417  0.1456 -0.3926  0.4369
  146TMC2    C3 2270   4.132   3.762  12.289 -0.5537 -0.1754  0.1188
  146TMC2    C4 2271   4.375   3.756  12.423  0.5330  0.0875  0.3105
  146TMC2    C5 2272   4.354   3.694  12.301 -0.0900  0.2087  0.1876
  146TMC2    C6 2273   4.237   3.692  12.243  0.0646 -0.1985 -0.2388
  146TMC2     C 2274   4.276   3.880  12.601  0.0744  0.0820  0.2162
  146TMC2     O 2275   4.196   3.969  12.633  0.1754  0.1721 -0.4507
  146TMC2     H 2276   4.051   3.869  12.463  0.9782  1.9255 -0.5188
  146TMC2    H1 2277   4.474   3.780  12.461  0.8039 -0.2520 -0.1819
  146TMC2    H2 2278   4.214   3.642  12.150 -1.3085 -0.5740  0.3054
  146TMC2    C7 2279   4.462   3.644  12.224  0.1267  0.4508  0.3048
  146TMC2    C8 2280   4.007   3.780  12.209 -0.0370  0.4882  0.1110
  146TMC2    O1 2281   4.454   3.638  12.102 -0.0909  0.0699 -0.2708
  146TMC2    O2 2282   3.899   3.818  12.249  0.3195  0.5498  0.5603
  146TMC2    O5 2283   4.060   3.798  12.087  0.0121  0.1708  0.3330
  146TMC2    H5 2284   4.158   3.805  12.095  0.1446 -1.2862  0.0283
  147MPD2     C 2285   0.227   3.517  12.198 -0.1606 -0.2242 -0.0368
  147MPD2    C1 2286   0.187   3.524  12.328  0.6301  0.0637 -0.1770
  147MPD2    C2 2287   0.063   3.561  12.362 -0.4191  0.0848  0.6462
  147MPD2    C3 2288   4.702   3.581  12.261 -0.8401  0.2672  0.3103
  147MPD2    C4 2289   0.005   3.586  12.134  0.1425 -0.5274  0.1737
  147MPD2    C5 2290   0.139   3.556  12.100 -0.5154  0.0198  0.9510
  147MPD2     H 2291   0.038   3.582  12.465 -2.2787 -0.1284  0.2299
  147MPD2    H1 2292   4.670   3.615  12.053 -0.9041  0.4261  1.3934
  147MPD2    H2 2293   0.323   3.475  12.170  0.9748  0.9517  2.1314
  147MPD2    H3 2294   0.172   3.563  11.996 -2.9920 -0.3621  0.1498
  147MPD2     N 2295   4.568   3.620  12.304  0.2507  0.1259 -0.1521
  147MPD2    H5 2296   4.550   3.614  12.404  0.4255  2.1236 -0.0147
  147MPD2    N1 2297   0.294   3.495  12.426 -0.2090  0.0235 -0.0985
  147MPD2    H7 2298   0.386   3.485  12.384 -1.0088 -0.4575 -1.7417
  148TMC2    C1 2299   4.379   2.689  10.725 -0.1309  0.4041  0.5126
  148TMC2    C2 2300   4.499   2.731  10.766  0.2614 -0.2268 -0.5379
  148TMC2    C3 2301   4.611   2.646  10.758 -0.1989  0.0404 -0.3044
  148TMC2    C4 2302   4.359   2.557  10.688 -0.1477 -0.4553  0.6432
  148TMC2    C5 2303   4.468   2.473  10.685 -0.1867 -0.2113  0.5372
  148TMC2    C6 2304   4.596   2.517  10.717 -0.3340 -0.5080 -0.1915
  148TMC2     C 2305   4.300   2.806  10.676  0.0406  0.4773  0.0256
  148TMC2     O 2306   4.332   2.920  10.703  0.4842  0.2310 -0.0928
  148TMC2     H 2307   4.519   2.832  10.802 -1.8290 -0.6747  1.8372
  148TMC2    H1 2308   4.258   2.525  10.669 -0.2997  0.0084  0.6594
  148TMC2    H2 2309   4.690   2.465  10.703 -0.5259 -1.4959  2.2735
  148TMC2    C7 2310   4.454   2.364  10.600 -0.0940 -0.3808 -0.1927
  148TMC2    C8 2311   0.016   2.693  10.776 -0.1130 -0.0312 -0.1436
  148TMC2    O1 2312   4.340   2.328  10.583 -0.0146  0.3503 -0.2523
  148TMC2    O2 2313   0.040   2.784  10.852  0.2372 -0.1602 -0.4792
  148TMC2    O5 2314   0.065   2.692  10.647 -0.4313 -0.2671  0.3152
  148TMC2    H5 2315   0.018   2.635  10.583 -2.1672  1.6111 -0.0950
  149MPD2     C 2316   4.084   2.976  10.561 -0.1891 -0.7489 -0.7561
  149MPD2    C1 2317   4.122   2.846  10.522 -0.4731  0.4735  0.1765
  149MPD2    C2 2318   4.051   2.785  10.417 -0.6463  0.3314  0.3497
  149MPD2    C3 2319   3.954   2.860  10.348  0.0058  0.0346 -0.0565
  149MPD2    C4 2320   3.925   2.991  10.380  0.8304 -0.0997  0.3718
  149MPD2    C5 2321   3.987   3.043  10.491  0.3171  0.0311  0.5018
  149MPD2     H 2322   4.074   2.681  10.397 -3.2333 -0.8445  3.5052
  149MPD2    H1 2323   3.849   3.055  10.336 -0.2312 -0.3539  1.8383
  149MPD2    H2 2324   4.135   3.033  10.638 -1.2002  0.0250 -0.6560
  149MPD2    H3 2325   3.974   3.149  10.509 -0.0927 -0.3049  2.1462
  149MPD2     N 2326   3.879   2.799  10.244  0.3834  0.2940 -0.1336
  149MPD2    H5 2327   3.817   2.855  10.186 -0.0346  0.7175  0.7158
  149MPD2    N1 2328   4.215   2.760  10.583  0.0425 -0.4562 -0.2397
  149MPD2    H7 2329   4.214   2.664  10.549  2.8979 -0.3181 -0.6956
  150TMC2    C1 2330   1.389   2.028  12.153 -0.1369 -0.3088  0.1045
  150TMC2    C2 2331   1.324   2.145  12.120  0.1734  0.5004 -0.2422
  150TMC2    C3 2332   1.391   2.267  12.141  0.0064  0.6959  0.1138
  150TMC2    C4 2333   1.515   2.034  12.202  0.0816  0.7333 -0.3694
  150TMC2    C5 2334   1.576   2.155  12.230  0.2896  0.1024  0.0051
  150TMC2    C6 2335   1.507   2.274  12.204  0.3534  0.2491  0.8144
  150TMC2     C 2336   1.340   1.902  12.094  0.1444 -0.6011 -0.7858
  150TMC2     O 2337   1.419   1.815  12.068  0.0657 -0.5658 -0.1569
  150TMC2     H 2338   1.230   2.143  12.068 -0.6538  1.0011  1.2290
  150TMC2    H1 2339   1.556   1.936  12.220  0.4232  0.9138 -0.1552
  150TMC2    H2 2340   1.556   2.371  12.202 -0.2888  0.5791  1.0525
  150TMC2    C7 2341   1.714   2.161  12.277 -0.0357  0.6510 -0.5761
  150TMC2    C8 2342   1.330   2.387  12.080  0.2876  0.3510 -0.0973
  150TMC2    O1 2343   1.769   2.269  12.282 -0.4480  0.1828 -0.4791
  150TMC2    O2 2344   1.313   2.496  12.136  0.0192 -0.1664 -0.1476
  150TMC2    O5 2345   1.291   2.356  11.957  0.3236 -0.1944 -0.4073
  150TMC2    H5 2346   1.346   2.282  11.922  0.8620  0.4557 -0.9142
  151MPD2     C 2347   0.992   1.565  11.923 -0.0421 -0.2889 -0.4590
  151MPD2    C1 2348   0.933   1.657  12.011  0.7836  0.5804 -0.8133
  151MPD2    C2 2349   1.003   1.766  12.066 -0.8664  0.1036 -0.1180
  151MPD2    C3 2350   1.136   1.781  12.041 -0.0061 -0.2472  0.9005
  151MPD2    C4 2351   1.200   1.686  11.962 -0.5430 -0.3059 -0.4230
  151MPD2    C5 2352   1.127   1.580  11.907  0.1004  0.1638 -0.2467
  151MPD2     H 2353   0.960   1.834  12.138  2.1986  0.8644  0.9847
  151MPD2    H1 2354   1.306   1.690  11.943 -0.6008  1.6262 -0.3667
  151MPD2    H2 2355   0.934   1.487  11.874 -0.2943  0.7392 -1.8001
  151MPD2    H3 2356   1.183   1.496  11.867  0.9482  0.0160  1.2552
  151MPD2     N 2357   1.206   1.890  12.100 -0.1574 -0.3365 -0.0285
  151MPD2    H5 2358   1.158   1.956  12.160  0.1476 -0.2713  0.1395
  151MPD2    N1 2359   0.794   1.639  12.044  0.2497 -0.1262  0.3108
  151MPD2    H7 2360   0.760   1.554  12.000 -0.3807  0.3933 -0.1863
  152TMC2    C1 2361   1.453   1.678  12.851 -0.1347  0.4203  0.4093
  152TMC2    C2 2362   1.431   1.716  12.717  0.1586  0.1349  0.3937
  152TMC2    C3 2363   1.544   1.778  12.651  0.6435  0.1432  0.2084
  152TMC2    C4 2364   1.569   1.706  12.918 -0.3030  0.2259 -0.2580
  152TMC2    C5 2365   1.675   1.759  12.844  0.3312  0.7996  0.2283
  152TMC2    C6 2366   1.667   1.800  12.716 -0.1771 -0.3442 -0.3432
  152TMC2     C 2367   1.338   1.654  12.937 -0.1077  0.0577  0.0806
  152TMC2     O 2368   1.334   1.703  13.049  0.6145 -0.0140  0.1334
  152TMC2     H 2369   1.334   1.704  12.669 -0.9606  0.4047  2.6163
  152TMC2    H1 2370   1.602   1.653  13.007  0.7204 -1.1316 -1.4520
  152TMC2    H2 2371   1.749   1.849  12.664 -1.4943  1.5279 -0.6475
  152TMC2    C7 2372   1.773   1.810  12.936  0.5925 -0.0199 -0.3626
  152TMC2    C8 2373   1.526   1.832  12.521  0.2281  0.8220 -0.4253
  152TMC2    O1 2374   1.724   1.846  13.041  0.9160  0.0658  0.6220
  152TMC2    O2 2375   1.619   1.862  12.450  0.1458 -0.1851 -0.5754
  152TMC2    O5 2376   1.396   1.875  12.518 -0.2693 -0.4227 -0.4070
  152TMC2    H5 2377   1.337   1.855  12.593 -0.1959  0.0973 -0.2112
  153MPD2     C 2378   1.052   1.428  12.873 -0.1163  0.4844 -0.3945
  153MPD2    C1 2379   1.115   1.535  12.929  0.6214 -0.5740  0.2813
  153MPD2    C2 2380   1.053   1.611  13.021  0.3848  0.4337  0.6164
  153MPD2    C3 2381   0.926   1.569  13.060 -0.2283 -0.3092  0.2378
  153MPD2    C4 2382   0.868   1.451  13.017 -0.3647 -0.8454  0.1965
  153MPD2    C5 2383   0.930   1.387  12.916  0.2275  0.3340  0.3990
  153MPD2     H 2384   1.089   1.711  13.046  1.2717  0.4259 -0.6424
  153MPD2    H1 2385   0.768   1.418  13.041 -0.0562 -1.4633  0.6136
  153MPD2    H2 2386   1.094   1.372  12.790  0.5678 -2.0732  1.6597
  153MPD2    H3 2387   0.894   1.299  12.865  1.3969  0.0260  0.1106
  153MPD2     N 2388   0.848   1.663  13.135  0.0758  0.1604 -0.2729
  153MPD2    H5 2389   0.886   1.753  13.160 -1.4349  0.0289  2.4192
  153MPD2    N1 2390   1.246   1.561  12.880 -0.5442 -0.3289 -0.2994
  153MPD2    H7 2391   1.273   1.517  12.793 -0.2272 -2.2437  0.7594
  154TMC2    C1 2392   3.490   1.127   0.215  0.2291  0.6158 -0.1389
  154TMC2    C2 2393   3.434   1.009   0.188 -0.6489 -1.0417 -0.5109
  154TMC2    C3 2394   3.481   0.893   0.245  0.1921 -0.6877  0.6865
  154TMC2    C4 2395   3.608   1.141   0.290 -0.3051 -0.3235 -1.0601
  154TMC2    C5 2396   3.654   1.027   0.347 -0.9114  0.5194  0.2425
  154TMC2    C6 2397   3.598   0.902   0.323 -0.2471  0.2393 -1.1142
  154TMC2     C 2398   3.449   1.240   0.132 -0.2312  0.9810 -0.2677
  154TMC2     O 2399   3.464   1.350   0.183 -0.1004  0.0983  0.4918
  154TMC2     H 2400   3.345   1.002   0.125 -0.9902  3.2820 -0.4522
  154TMC2    H1 2401   3.664   1.234   0.287 -0.1673 -0.3601  0.3887
  154TMC2    H2 2402   3.642   0.816   0.373 -0.2453  1.5132  1.0834
  154TMC2    C7 2403   3.802   1.023   0.356  0.2629 -0.6101  0.9226
  154TMC2    C8 2404   3.391   0.787   0.263 -0.0653  0.3117  0.0960
  154TMC2    O1 2405   3.866   0.929   0.310 -0.0402  0.5774  0.2272
  154TMC2    O2 2406   3.272   0.797   0.265 -0.2442  0.3834 -0.2484
  154TMC2    O5 2407   3.467   0.688   0.305  0.0237 -0.0342 -0.6111
  154TMC2    H5 2408   3.557   0.693   0.268 -0.4779 -0.0940 -1.8542
  155MPD2     C 2409   3.377   1.241  17.499  0.2805 -0.3833  0.1663
  155MPD2    C1 2410   3.406   1.297  17.620 -0.2426  0.3796  0.1163
  155MPD2    C2 2411   3.374   1.435  17.639  0.4997  0.9874 -0.3815
  155MPD2    C3 2412   3.317   1.509  17.542 -0.0441  0.5902  0.5630
  155MPD2    C4 2413   3.288   1.456  17.425 -0.1656 -0.1080  0.4806
  155MPD2    C5 2414   3.314   1.321  17.403 -0.4080 -0.2688  0.1150
  155MPD2     H 2415   3.387   1.479   0.012  0.1751  0.2912 -0.0236
  155MPD2    H1 2416   3.253   1.516  17.342 -1.0347 -1.5910 -0.2395
  155MPD2    H2 2417   3.394   1.135  17.486  3.0493 -0.1762  1.9325
  155MPD2    H3 2418   3.297   1.278  17.305  0.4020 -0.6573  0.1404
  155MPD2     N 2419   3.295   1.650  17.570 -0.1403  0.7859 -0.3805
  155MPD2    H5 2420   3.312   1.685  17.663 -0.9425  1.0949 -0.3549
  155MPD2    N1 2421   3.436   1.206  17.721 -0.4916  0.1095 -0.6458
  155MPD2    H7 2422   3.452   1.110  17.692 -0.5219 -0.1874  0.3078
  156TMC2    C1 2423   1.756   4.076  11.153  0.0001 -0.0048 -0.0715
  156TMC2    C2 2424   1.846   4.086  11.051  0.2926 -0.6184 -0.5195
  156TMC2    C3 2425   1.810   4.155  10.938  0.1871  0.2587 -0.5415
  156TMC2    C4 2426   1.641   4.143  11.137  0.2346 -0.0078  0.1548
  156TMC2    C5 2427   1.618   4.231  11.030  0.2168  0.4100 -0.0682
  156TMC2    C6 2428   1.696   4.230  10.918  0.0877 -0.3110 -0.2926
  156TMC2     C 2429   1.805   4.096  11.294 -0.0538  0.3898 -0.0843
  156TMC2     O 2430   1.762   4.201  11.344  0.1498 -0.6020  0.2893
  156TMC2     H 2431   1.929   4.017  11.056 -0.2049 -1.0446  2.0250
  156TMC2    H1 2432   1.566   4.143  11.216  1.6372  1.1948  1.5002
  156TMC2    H2 2433   1.677   4.308  10.844  0.4316  1.6663  1.7148
  156TMC2    C7 2434   1.582   4.365  11.068 -0.1982 -0.0296 -0.0651
  156TMC2    C8 2435   1.874   4.116  10.811 -0.2083 -0.3428  0.3076
  156TMC2    O1 2436   1.549   4.445  10.979 -0.1786  0.2233 -0.2852
  156TMC2    O2 2437   1.836   4.163  10.707 -0.5976 -0.1001 -0.2589
  156TMC2    O5 2438   1.945   4.001  10.815 -0.3270  0.1978  0.2539
  156TMC2    H5 2439   1.995   3.979  10.896 -0.1345  1.2266  0.4108
  157MPD2     C 2440   2.118   3.953  11.453  0.0770  0.2693 -0.1282
  157MPD2    C1 2441   2.015   4.045  11.429  0.1324 -0.3163 -0.3657
  157MPD2    C2 2442   2.019   4.153  11.522  0.7703 -0.4872 -0.1229
  157MPD2    C3 2443   2.126   4.168  11.611  0.1222  0.3248  0.2012
  157MPD2    C4 2444   2.231   4.077  11.620 -0.2333 -0.0062  0.2019
  157MPD2    C5 2445   2.224   3.964  11.539  0.3675  0.1138 -0.3826
  157MPD2     H 2446   1.955   4.239  11.505  0.8062 -0.6079 -0.8756
  157MPD2    H1 2447   2.317   4.091  11.685  0.8464 -1.0207 -1.0021
  157MPD2    H2 2448   2.122   3.864  11.392  2.0645  0.3488 -0.1131
  157MPD2    H3 2449   2.290   3.879  11.547  0.1314 -0.0521 -0.1860
  157MPD2     N 2450   2.123   4.292  11.677  0.3252  0.3128 -0.4837
  157MPD2    H5 2451   2.041   4.349  11.661  0.1890 -0.2524 -1.8051
  157MPD2    N1 2452   1.925   4.026  11.318 -0.1971 -0.4898  0.4847
  157MPD2    H7 2453   1.951   3.956  11.249 -0.4886  0.7508 -0.8900
  158TMC2    C1 2454   2.363   3.069  13.687 -0.4136  0.1785  0.5248
  158TMC2    C2 2455   2.453   3.084  13.584  0.1538  0.3698  0.2901
  158TMC2    C3 2456   2.419   3.063  13.457  0.2877  0.4611 -0.2688
  158TMC2    C4 2457   2.235   3.034  13.654 -0.0891 -0.1661  0.7332
  158TMC2    C5 2458   2.199   3.035  13.521  0.7320 -0.0500  0.0793
  158TMC2    C6 2459   2.285   3.062  13.416  0.3616 -0.2236 -0.3706
  158TMC2     C 2460   2.424   3.071  13.819 -0.3732  0.2807  0.2574
  158TMC2     O 2461   2.546   3.061  13.831  0.0336 -0.2705  0.3543
  158TMC2     H 2462   2.558   3.095  13.605  0.0931 -0.1587  0.8748
  158TMC2    H1 2463   2.160   3.031  13.732 -0.5550  1.2045  0.3378
  158TMC2    H2 2464   2.247   3.050  13.316 -0.8685 -0.2058  0.0963
  158TMC2    C7 2465   2.068   2.996  13.483 -0.4000 -0.4725  0.0427
  158TMC2    C8 2466   2.509   3.082  13.346 -0.0921  0.5075  0.3521
  158TMC2    O1 2467   2.021   3.054  13.385  0.3783  0.3404 -0.4254
  158TMC2    O2 2468   2.608   3.151  13.354 -0.2207  0.0881 -0.0528
  158TMC2    O5 2469   2.472   3.016  13.232 -0.4455 -0.4371  0.8773
  158TMC2    H5 2470   2.405   2.947  13.252 -0.8693 -1.5380 -4.2874
  159MPD2     C 2471   2.425   3.089  14.325  0.8721  0.1449 -0.2873
  159MPD2    C1 2472   2.295   3.082  14.285 -0.0548 -0.3848 -0.4608
  159MPD2    C2 2473   2.268   3.090  14.147 -0.0001  0.2939 -0.0247
  159MPD2    C3 2474   2.364   3.097  14.056 -0.4890  0.0791  0.6612
  159MPD2    C4 2475   2.492   3.131  14.101  0.1654  0.4744  1.0152
  159MPD2    C5 2476   2.526   3.122  14.234 -0.2197 -0.3799  0.5030
  159MPD2     H 2477   2.165   3.084  14.115  0.2553  0.6000 -0.9142
  159MPD2    H1 2478   2.574   3.159  14.037  1.8048  0.1603  2.9828
  159MPD2    H2 2479   2.455   3.078  14.429  0.2239  1.9927  0.1067
  159MPD2    H3 2480   2.630   3.132  14.262 -0.5655  0.0830  1.6547
  159MPD2     N 2481   2.333   3.077  13.921  0.1035  0.2399 -0.0422
  159MPD2    H5 2482   2.236   3.072  13.892 -0.6713  1.0117  2.4395
  159MPD2    N1 2483   2.202   3.077  14.390  0.2238 -0.2295 -0.0649
  159MPD2    H7 2484   2.237   3.079  14.486 -0.9303 -1.0817  0.3808
  160TMC2    C1 2485   1.877   1.147   1.141 -0.6512  0.3800  0.8804
  160TMC2    C2 2486   1.840   1.116   1.012 -0.3215 -0.3497 -0.0128
  160TMC2    C3 2487   1.873   0.995   0.969 -0.8299 -0.2841 -0.0641
  160TMC2    C4 2488   1.951   1.058   1.215 -0.2176  0.0975  0.1461
  160TMC2    C5 2489   1.986   0.938   1.156 -0.1661  0.1095 -0.1330
  160TMC2    C6 2490   1.942   0.900   1.035  0.0280  1.3133  0.0017
  160TMC2     C 2491   1.873   1.282   1.191  0.2373  0.1874 -0.4940
  160TMC2     O 2492   1.928   1.314   1.296  0.2115 -0.1644 -0.2014
  160TMC2     H 2493   1.777   1.175   0.947 -0.9235 -1.1489 -0.1538
  160TMC2    H1 2494   1.983   1.089   1.314 -2.6608 -0.6727  1.1716
  160TMC2    H2 2495   1.989   0.812   0.993 -1.1318  1.3612 -1.4139
  160TMC2    C7 2496   2.081   0.857   1.232  0.7841  0.1751  0.2929
  160TMC2    C8 2497   1.865   0.966   0.828 -0.1220  0.2825  0.2744
  160TMC2    O1 2498   2.075   0.735   1.209 -0.5200  0.3361 -0.1542
  160TMC2    O2 2499   1.865   0.853   0.782 -0.5156  0.0983 -0.1872
  160TMC2    O5 2500   1.915   1.073   0.757 -0.1983  0.9283 -0.4354
  160TMC2    H5 2501   1.936   1.143   0.823  0.6449 -0.4627  0.7837
  161MPD2     C 2502   1.941   1.572   1.170 -0.6017  0.4095 -0.0775
  161MPD2    C1 2503   1.849   1.505   1.096 -0.6021  1.1126  0.4728
  161MPD2    C2 2504   1.794   1.580   0.994  0.1988  0.3639  0.2652
  161MPD2    C3 2505   1.832   1.715   0.964 -0.7560  0.1420  0.1055
  161MPD2    C4 2506   1.916   1.781   1.053 -0.7391  0.3655  1.1054
  161MPD2    C5 2507   1.982   1.703   1.146  0.1697  0.2608  0.2058
  161MPD2     H 2508   1.714   1.527   0.944  2.5157 -2.4985 -0.4484
  161MPD2    H1 2509   1.946   1.886   1.059  1.3944 -0.3414  2.7521
  161MPD2    H2 2510   1.997   1.514   1.242 -1.9383 -0.8456 -0.0669
  161MPD2    H3 2511   2.064   1.752   1.197  0.2112 -0.4191  0.7931
  161MPD2     N 2512   1.761   1.795   0.876  0.3571 -0.3393  0.0417
  161MPD2    H5 2513   1.761   1.894   0.898  0.8615 -0.1575 -0.7701
  161MPD2    N1 2514   1.823   1.366   1.095  0.3723 -0.1925 -0.1644
  161MPD2    H7 2515   1.763   1.333   1.020 -2.7093  0.1686  2.1487
  162TMC2    C1 2516   4.343   3.158   1.016 -1.2179 -0.4770  0.5942
  162TMC2    C2 2517   4.244   3.225   1.089 -0.6785 -0.4544  0.5641
  162TMC2    C3 2518   4.280   3.249   1.222  0.1678 -0.4227 -0.3951
  162TMC2    C4 2519   4.460   3.116   1.069 -0.3145  0.1103  0.4216
  162TMC2    C5 2520   4.481   3.138   1.199  0.2320 -0.4318 -0.3702
  162TMC2    C6 2521   4.394   3.204   1.281 -0.2776 -0.5298 -0.9252
  162TMC2     C 2522   4.303   3.102   0.884  0.1786  0.1760  0.9772
  162TMC2     O 2523   4.395   3.075   0.814 -0.4389  0.2101  0.3557
  162TMC2     H 2524   4.153   3.263   1.044 -0.8017 -0.6648  0.6349
  162TMC2    H1 2525   4.528   3.057   1.008 -1.4575 -1.0484  0.2894
  162TMC2    H2 2526   4.411   3.227   1.386 -0.1382 -0.2953 -0.9989
  162TMC2    C7 2527   4.612   3.107   1.253  0.3860  0.8616 -0.3907
  162TMC2    C8 2528   4.187   3.325   1.310 -0.6359 -0.4573 -0.1414
  162TMC2    O1 2529   4.631   3.148   1.365 -0.2830  0.0335  0.5873
  162TMC2    O2 2530   4.219   3.368   1.421 -0.6642 -0.3046  0.1650
  162TMC2    O5 2531   4.057   3.301   1.275 -0.4276  0.3232 -0.2693
  162TMC2    H5 2532   4.058   3.238   1.200 -3.3347  0.4297 -0.4126
  163MPD2     C 2533   3.996   2.887   0.531  0.4209  0.0229 -0.1187
  163MPD2    C1 2534   4.137   2.904   0.534  0.1013 -0.1978 -0.8136
  163MPD2    C2 2535   4.195   2.966   0.644  0.0287 -0.4015 -0.7887
  163MPD2    C3 2536   4.111   3.024   0.746  0.1961 -0.6115  0.8542
  163MPD2    C4 2537   3.977   3.007   0.737  0.6468  0.3311 -0.1257
  163MPD2    C5 2538   3.919   2.936   0.632 -0.0091 -0.4182  0.4755
  163MPD2     H 2539   4.303   2.964   0.653 -0.0303  1.4041  0.2731
  163MPD2    H1 2540   3.907   3.049   0.809  1.4633  2.3261 -0.4909
  163MPD2    H2 2541   3.943   2.840   0.449 -0.8954 -1.5989  1.6555
  163MPD2    H3 2542   3.811   2.937   0.624  0.0582 -1.3846 -0.6351
  163MPD2     N 2543   4.168   3.091   0.866 -0.6185 -1.3096 -0.1520
  163MPD2    H5 2544   4.104   3.111   0.943 -0.7335 -1.5023 -0.1963
  163MPD2    N1 2545   4.207   2.864   0.423 -0.5907 -0.2573 -0.0765
  163MPD2    H7 2546   4.150   2.821   0.351 -0.4458  1.3717 -1.1777
  164TMC2    C1 2547   0.368   2.275  11.336  0.2260 -0.2025 -0.5955
  164TMC2    C2 2548   0.354   2.250  11.471 -0.2014 -0.2087 -0.0750
  164TMC2    C3 2549   0.316   2.346  11.559  0.3567  0.0368  0.7250
  164TMC2    C4 2550   0.338   2.392  11.280 -0.1521  0.3221  0.1826
  164TMC2    C5 2551   0.304   2.494  11.372 -0.2381 -0.2275  0.1917
  164TMC2    C6 2552   0.288   2.469  11.510  0.1997  0.1375 -0.5505
  164TMC2     C 2553   0.422   2.167  11.267 -0.2657 -0.0311  0.8729
  164TMC2     O 2554   0.364   2.064  11.286 -0.1543 -0.0620 -0.2454
  164TMC2     H 2555   0.355   2.149  11.510 -1.7120 -0.0253  0.4255
  164TMC2    H1 2556   0.356   2.409  11.175  2.5489  0.3556  0.6579
  164TMC2    H2 2557   0.262   2.540  11.588 -1.4006 -2.1174  0.9970
  164TMC2    C7 2558   0.243   2.615  11.311 -0.1747  0.3700  0.4671
  164TMC2    C8 2559   0.277   2.305  11.694 -0.0800 -0.2238  0.0029
  164TMC2    O1 2560   0.224   2.633  11.189  0.6696  0.1159  0.1671
  164TMC2    O2 2561   0.187   2.372  11.745 -0.0068 -0.3098 -0.2059
  164TMC2    O5 2562   0.386   2.258  11.755  0.2298  0.5552  0.0465
  164TMC2    H5 2563   0.465   2.242  11.699 -0.5492 -1.1619 -0.5559
  165TMC2    C1 2564   1.385   0.589   0.926 -0.0106 -0.0525 -0.0122
  165TMC2    C2 2565   1.395   0.717   0.891 -0.3210 -0.0529 -0.0536
  165TMC2    C3 2566   1.513   0.785   0.920 -0.4217  0.3374  0.3076
  165TMC2    C4 2567   1.494   0.523   0.989  0.3196  0.7406 -0.2254
  165TMC2    C5 2568   1.609   0.595   1.014 -0.1770  0.8054  0.1266
  165TMC2    C6 2569   1.614   0.724   0.982  0.0982 -0.1172 -0.3286
  165TMC2     C 2570   1.252   0.529   0.946 -0.9567 -0.0377 -0.0885
  165TMC2     O 2571   1.240   0.411   0.973 -0.3032  0.2436  0.0779
  165TMC2     H 2572   1.316   0.772   0.840  0.4142  0.8798 -0.1791
  165TMC2    H1 2573   1.492   0.424   1.031 -3.0541  0.5442 -0.8935
  165TMC2    H2 2574   1.703   0.781   1.005  2.0525 -3.1403 -0.3448
  165TMC2    C7 2575   1.723   0.532   1.070  0.3023 -0.1787 -0.0201
  165TMC2    C8 2576   1.502   0.926   0.939  0.4648  1.0391 -0.2590
  165TMC2    O1 2577   1.830   0.584   1.048  0.1314 -0.1247 -0.1559
  165TMC2    O2 2578   1.428   0.992   0.869  0.2008 -0.0163  0.0054
  165TMC2    O5 2579   1.527   0.949   1.070 -0.1010 -0.7043  0.3785
  165TMC2    H5 2580   1.548   0.866   1.119 -0.4178 -1.4496 -0.7701
  166MPD2     C 2581   0.731   0.534   0.981  1.0222 -0.6069  0.3501
  166MPD2    C1 2582   0.814   0.428   0.988 -0.0834 -0.0977 -0.5149
  166MPD2    C2 2583   0.952   0.456   0.967  0.6062  0.6461 -0.5351
  166MPD2    C3 2584   1.003   0.580   0.950 -0.0886 -0.3220  0.4633
  166MPD2    C4 2585   0.915   0.684   0.949  0.3978 -0.3900 -0.1328
  166MPD2    C5 2586   0.782   0.658   0.964  0.2729  0.8013  0.9674
  166MPD2     H 2587   1.013   0.366   0.963 -1.0330 -0.4290 -1.3016
  166MPD2    H1 2588   0.956   0.783   0.936  0.4579 -0.5913 -1.4526
  166MPD2    H2 2589   0.624   0.520   0.986  0.7258  2.1720  1.7312
  166MPD2    H3 2590   0.710   0.736   0.949  1.1204  1.4342  0.2007
  166MPD2     N 2591   1.144   0.616   0.943  0.0930 -0.2093  0.3701
  166MPD2    H5 2592   1.169   0.714   0.935 -2.0922  0.2704 -0.6045
  166MPD2    N1 2593   0.754   0.301   1.012 -0.1172 -0.5187  0.1157
  166MPD2    H7 2594   0.658   0.302   1.043 -0.6112 -1.0290 -1.3895
  167TMC2    C1 2595   3.686   1.868  12.748 -0.3965 -0.7747  0.4388
  167TMC2    C2 2596   3.609   1.784  12.826 -0.2006  0.3142  0.6411
  167TMC2    C3 2597   3.650   1.747  12.953 -0.2485 -0.6794  1.0577
  167TMC2    C4 2598   3.804   1.912  12.795  0.4465 -0.8595 -0.1939
  167TMC2    C5 2599   3.846   1.868  12.921 -0.2058 -0.7051 -1.4292
  167TMC2    C6 2600   3.774   1.786  12.994  0.6439 -0.4446 -0.0318
  167TMC2     C 2601   3.642   1.903  12.614 -1.0139  0.6173  0.6046
  167TMC2     O 2602   3.535   1.862  12.572  0.0602  0.2071 -0.0969
  167TMC2     H 2603   3.515   1.742  12.795  0.1790  1.0039 -1.4390
  167TMC2    H1 2604   3.845   2.003  12.754  0.1266 -1.2037 -1.2729
  167TMC2    H2 2605   3.808   1.735  13.083 -3.8932 -1.3526  1.2196
  167TMC2    C7 2606   3.988   1.871  12.955 -0.9060  0.5754 -0.2117
  167TMC2    C8 2607   3.581   1.640  13.011  0.2794 -0.1518 -0.1177
  167TMC2    O1 2608   4.018   1.815  13.061  0.1098 -0.8271 -0.2611
  167TMC2    O2 2609   3.513   1.554  12.948  0.0207 -0.2610 -0.1130
  167TMC2    O5 2610   3.610   1.640  13.143 -0.3389 -0.4353  0.4412
  167TMC2    H5 2611   3.644   1.724  13.182  1.3776 -1.1886  0.5638
  168MPD2     C 2612   3.549   2.111  12.425  0.0593  0.1226  0.1530
  168MPD2    C1 2613   3.680   2.082  12.441  0.2462 -0.5604  0.1182
  168MPD2    C2 2614   3.777   2.140  12.359  0.1964  0.9155  0.3277
  168MPD2    C3 2615   3.736   2.231  12.260 -0.6154 -0.3088  0.4189
  168MPD2    C4 2616   3.602   2.252  12.237 -0.0997  0.9054  0.5184
  168MPD2    C5 2617   3.516   2.193  12.324  0.1011 -0.3990 -0.5650
  168MPD2     H 2618   3.883   2.120  12.367 -0.3461 -1.7657  0.9440
  168MPD2    H1 2619   3.560   2.315  12.160 -1.3177  2.0611  2.1301
  168MPD2    H2 2620   3.477   2.063  12.490 -0.4405  1.4389  0.5488
  168MPD2    H3 2621   3.411   2.213  12.306  0.6970  1.7161 -1.6150
  168MPD2     N 2622   3.835   2.291  12.174 -0.1172  0.2318  0.5370
  168MPD2    H5 2623   3.806   2.372  12.120  2.4105  0.7988  0.0376
  168MPD2    N1 2624   3.724   2.001  12.549  0.6874  0.2984  0.2089
  168MPD2    H7 2625   3.823   1.999  12.568  0.4395 -0.3169  1.4606
  169MPD1     C 2626   2.772   1.189   9.773  0.2581 -0.3956 -0.6094
  169MPD1    C1 2627   2.652   1.263   9.780  0.1317 -0.1647  0.4462
  169MPD1    C2 2628   2.659   1.397   9.812 -0.1784  0.0951 -0.3022
  169MPD1    C3 2629   2.779   1.461   9.834 -0.2763 -0.7149  0.2143
  169MPD1    C4 2630   2.896   1.380   9.837  0.7156 -0.0984 -0.2958
  169MPD1    C5 2631   2.890   1.246   9.803 -0.1325 -0.2067 -1.0448
  169MPD1     H 2632   2.570   1.459   9.820 -0.4652 -0.8010  3.2622
  169MPD1    H1 2633   2.998   1.407   9.861 -0.4371  3.6938  0.3325
  169MPD1    H2 2634   2.768   1.084   9.748  0.1283 -0.5066 -0.1238
  169MPD1    H3 2635   2.972   1.176   9.811  1.5321  1.7605 -0.7821
  169MPD1     N 2636   2.781   1.600   9.860 -0.4178 -0.6745 -0.8092
  169MPD1    H5 2637   2.690   1.644   9.872  0.1193 -0.4035  2.3208
  169MPD1    N1 2638   2.535   1.201   9.735 -0.9966 -0.4121 -0.0269
  169MPD1    H6 2639   2.451   1.244   9.773  0.2099  1.3228  0.7205
  169MPD1    H7 2640   2.535   1.105   9.767 -1.1193 -0.8616 -1.3936
  170MPD1     C 2641   0.339   4.333  12.908 -0.1260  0.4678  0.7305
  170MPD1    C1 2642   0.285   4.435  12.981 -0.0854 -0.1668  0.0611
  170MPD1    C2 2643   0.330   4.470  13.106 -0.2835 -0.4370  0.7028
  170MPD1    C3 2644   0.438   4.402  13.159  0.3249  0.4708  0.3604
  170MPD1    C4 2645   0.487   4.295  13.086 -0.7169 -0.2627 -0.6291
  170MPD1    C5 2646   0.444   4.264  12.960 -0.0734 -1.0367 -0.2122
  170MPD1     H 2647   0.287   4.552  13.162 -1.5405  0.4180 -1.5422
  170MPD1    H1 2648   0.575   4.237  13.112 -2.0581 -2.0625 -0.0056
  170MPD1    H2 2649   0.289   4.298  12.818  0.7254 -0.0884  0.4685
  170MPD1    H3 2650   0.497   4.192  12.899  2.0533 -0.1229  0.5628
  170MPD1     N 2651   0.485   4.437  13.289 -0.2112  0.8107  0.0520
  170MPD1    H5 2652   0.438   4.522  13.319 -0.7428 -0.0638  1.6767
  170MPD1    N1 2653   0.160   4.478  12.930  0.0288  0.1439 -0.3595
  170MPD1    H6 2654   0.137   4.573  12.959  0.9951  0.3361 -0.2074
  170MPD1    H7 2655   0.147   4.472  12.829  0.3863 -2.2483 -0.2516
  171MPD1     C 2656   4.269   1.312  15.293 -0.2357  0.9169  0.5282
  171MPD1    C1 2657   4.189   1.206  15.241 -0.3572  0.2833  0.1687
  171MPD1    C2 2658   4.208   1.081  15.309  0.5609 -0.5655  0.7067
  171MPD1    C3 2659   4.307   1.064  15.405  0.4466 -0.2152 -0.9439
  171MPD1    C4 2660   4.398   1.166  15.430  0.1473  0.0695 -0.2135
  171MPD1    C5 2661   4.377   1.287  15.370  0.7706 -0.3620  0.0268
  171MPD1     H 2662   4.148   0.996  15.277 -1.0069  1.0801 -0.7231
  171MPD1    H1 2663   4.491   1.150  15.483  0.7120  2.2807 -0.5541
  171MPD1    H2 2664   4.259   1.413  15.255 -2.3345 -0.5291 -2.8590
  171MPD1    H3 2665   4.450   1.367  15.378  1.5283 -1.1084  0.5416
  171MPD1     N 2666   4.341   0.940  15.458  0.1926 -0.2367 -0.4302
  171MPD1    H5 2667   4.416   0.938  15.526 -0.8879 -3.1835  0.6815
  171MPD1    N1 2668   4.081   1.234  15.150  0.2374  0.1391  0.3304
  171MPD1    H6 2669   4.107   1.306  15.082  0.1274  1.6226  1.8518
  171MPD1    H7 2670   4.049   1.154  15.096 -3.1185  0.6102  1.6713
  172MPD1     C 2671   3.036   0.512  17.628  0.8490  0.5487  0.6236
  172MPD1    C1 2672   3.001   0.468   0.028 -0.2213  0.2336 -0.5696
  172MPD1    C2 2673   3.100   0.434   0.107  0.2031 -0.3004 -0.5439
  172MPD1    C3 2674   3.226   0.468   0.090  0.4392  0.1563 -0.0106
  172MPD1    C4 2675   3.263   0.529  17.700  0.3058 -0.3188 -0.1604
  172MPD1    C5 2676   3.164   0.552  17.604 -0.5852  0.4831 -0.0760
  172MPD1     H 2677   3.071   0.381   0.197 -1.2942 -2.1946 -2.1355
  172MPD1    H1 2678   3.365   0.563  17.684  0.3597  0.8959  2.7377
  172MPD1    H2 2679   2.955   0.522  17.556  0.4839 -2.3067  0.6103
  172MPD1    H3 2680   3.185   0.596  17.507 -0.6875 -0.4360 -0.5139
  172MPD1     N 2681   3.330   0.416   0.174 -1.1368  0.7221 -0.8490
  172MPD1    H5 2682   3.423   0.431   0.137 -0.3775 -0.1052  0.7275
  172MPD1    N1 2683   2.872   0.414   0.047  0.0159  0.0778 -0.0427
  172MPD1    H6 2684   2.843   0.409   0.144  2.8385 -0.8960  0.7566
  172MPD1    H7 2685   2.804   0.458  17.711  0.3821  1.6005  0.6672
  173MPD1     C 2686   4.677   0.541  14.265 -0.5888 -0.3384 -0.0124
  173MPD1    C1 2687   4.707   0.442  14.171 -0.0557  0.1534 -0.3762
  173MPD1    C2 2688   4.663   0.316  14.205  0.1942  0.0456  1.3548
  173MPD1    C3 2689   4.603   0.286  14.324 -0.0414  0.5606  0.6378
  173MPD1    C4 2690   4.573   0.396  14.413  0.4577  0.2326  0.9327
  173MPD1    C5 2691   4.605   0.526  14.377  0.2058 -0.0928 -0.3276
  173MPD1     H 2692   4.685   0.232  14.139  1.6657  1.0273  0.5795
  173MPD1    H1 2693   4.519   0.376  14.505  1.2672  0.6730  1.4998
  173MPD1    H2 2694   4.717   0.642  14.261 -0.0728 -0.5848 -1.2031
  173MPD1    H3 2695   4.582   0.610  14.442  1.9900 -0.1971  0.4256
  173MPD1     N 2696   4.562   0.153  14.349  0.0613 -0.0167  0.0440
  173MPD1    H5 2697   4.581   0.090  14.272 -1.9676 -0.1949 -0.3177
  173MPD1    N1 2698   0.017   0.470  14.040 -0.5999  0.8857  0.1216
  173MPD1    H6 2699   0.072   0.555  14.037  0.3167  0.2956 -0.0088
  173MPD1    H7 2700   0.083   0.399  14.008  0.5341  1.6102  0.8567
  174MPD1     C 2701   4.356   4.030  13.914  0.0689 -0.2884  0.0962
  174MPD1    C1 2702   4.303   4.154  13.885 -0.3520  0.1456 -0.8600
  174MPD1    C2 2703   4.314   4.253  13.983 -0.3431  0.1730  0.3388
  174MPD1    C3 2704   4.364   4.220  14.109  0.4263 -0.8558 -0.5987
  174MPD1    C4 2705   4.419   4.101  14.131 -0.0224  0.4895 -0.3695
  174MPD1    C5 2706   4.408   4.007  14.037 -0.0328  0.0295 -0.2029
  174MPD1     H 2707   4.279   4.352  13.957  0.1069 -0.3436 -2.1931
  174MPD1    H1 2708   4.465   4.074  14.225  1.4107  0.3006 -1.1306
  174MPD1    H2 2709   4.370   3.952  13.840  2.2568 -2.1752  2.4815
  174MPD1    H3 2710   4.457   3.915  14.067 -0.4772  0.1101  0.7612
  174MPD1     N 2711   4.385   4.308  14.215  0.2251  0.6178 -0.0116
  174MPD1    H5 2712   4.422   4.266  14.299  0.7830  1.4782  0.1722
  174MPD1    N1 2713   4.273   4.196  13.753  0.7906  0.3658 -0.0225
  174MPD1    H6 2714   4.218   4.118  13.718  1.3279  0.1730 -0.4426
  174MPD1    H7 2715   4.214   4.278  13.745  1.0790  0.4099 -1.6582
  175MPD1     C 2716   2.951   2.024  15.672 -0.2798 -0.5625  0.2066
  175MPD1    C1 2717   2.968   1.901  15.615  0.0069 -0.0867 -0.4376
  175MPD1    C2 2718   2.946   1.789  15.694  0.3077  0.1145 -0.0012
  175MPD1    C3 2719   2.935   1.800  15.836  0.7556 -0.3433  0.7493
  175MPD1    C4 2720   2.912   1.928  15.888  0.0650 -0.1361 -0.0153
  175MPD1    C5 2721   2.919   2.038  15.806  0.2277 -0.1662  0.3625
  175MPD1     H 2722   2.961   1.695  15.641 -1.6060 -0.5094  0.5857
  175MPD1    H1 2723   2.907   1.930  15.996 -1.3126 -1.8211 -0.0400
  175MPD1    H2 2724   2.962   2.116  15.615 -0.6240 -0.9784 -0.5237
  175MPD1    H3 2725   2.907   2.135  15.852 -1.3344 -0.0766 -0.2653
  175MPD1     N 2726   2.919   1.688  15.925 -0.3645  0.0007  0.0939
  175MPD1    H5 2727   2.924   1.716  16.023  0.0371 -0.1885  0.1236
  175MPD1    N1 2728   3.016   1.875  15.484  0.7030  0.2790 -0.0715
  175MPD1    H6 2729   3.012   1.965  15.435 -0.9395  1.5846  2.4430
  175MPD1    H7 2730   2.971   1.798  15.435  0.7644  0.0102  0.3041
  176MPD1     C 2731   0.438   2.102  16.330 -0.4355 -0.5875 -0.4328
  176MPD1    C1 2732   0.499   2.147  16.444  0.0801 -0.1393 -0.2583
  176MPD1    C2 2733   0.429   2.243  16.518  0.5963 -0.2429 -0.3988
  176MPD1    C3 2734   0.294   2.275  16.491 -0.3434 -0.1085  0.5026
  176MPD1    C4 2735   0.239   2.222  16.381  0.3387 -0.1959 -0.0709
  176MPD1    C5 2736   0.313   2.130  16.302 -0.3480  0.2981 -0.1655
  176MPD1     H 2737   0.475   2.289  16.605 -0.0609  0.7961 -0.6009
  176MPD1    H1 2738   0.135   2.231  16.353 -0.0867 -2.1094  0.8800
  176MPD1    H2 2739   0.494   2.054  16.250 -0.2030 -0.4606 -0.3445
  176MPD1    H3 2740   0.267   2.082  16.217  1.1194  0.4843 -1.0672
  176MPD1     N 2741   0.227   2.368  16.571 -0.7759 -0.4465 -0.3957
  176MPD1    H5 2742   0.280   2.407  16.648 -0.2438 -2.6038  0.3369
  176MPD1    N1 2743   0.634   2.141  16.461 -0.9537 -0.3276 -0.9761
  176MPD1    H6 2744   0.670   2.054  16.423  0.6764 -0.7308  1.4815
  176MPD1    H7 2745   0.661   2.135  16.559 -1.8157  0.5261 -0.6784
  177MPD1     C 2746   3.332   2.581   9.946 -0.5529 -0.4690  0.5506
  177MPD1    C1 2747   3.299   2.569   9.811 -0.3023  0.1220  0.0915
  177MPD1    C2 2748   3.289   2.686   9.740 -0.1878  0.3688  0.1464
  177MPD1    C3 2749   3.301   2.811   9.796 -0.3684 -0.7891  0.4650
  177MPD1    C4 2750   3.337   2.814   9.928  0.0240 -0.3554 -0.5052
  177MPD1    C5 2751   3.348   2.703  10.002 -0.5441 -0.1677 -0.2432
  177MPD1     H 2752   3.262   2.677   9.635 -2.0721 -0.4807  0.7054
  177MPD1    H1 2753   3.355   2.909   9.978 -1.2806 -0.6527  0.5149
  177MPD1    H2 2754   3.343   2.494  10.010 -0.4170 -2.1251 -1.7301
  177MPD1    H3 2755   3.363   2.709  10.109 -0.5144  2.2863 -0.3961
  177MPD1     N 2756   3.287   2.931   9.723  0.2320 -0.2755  0.7495
  177MPD1    H5 2757   3.258   2.912   9.628  0.7335  0.7745  0.3853
  177MPD1    N1 2758   3.285   2.446   9.751  0.0973 -0.2481  0.2386
  177MPD1    H6 2759   3.195   2.443   9.705 -0.2908 -0.9368  1.0436
  177MPD1    H7 2760   3.296   2.366   9.813  3.3008 -0.6023 -0.7383
  178MPD1     C 2761   0.260   3.985  17.586 -0.6431  0.7989  0.7539
  178MPD1    C1 2762   0.326   4.102  17.619 -0.1691  0.8306  1.2660
  178MPD1    C2 2763   0.462   4.094  17.624 -0.0688  0.9519 -0.0483
  178MPD1    C3 2764   0.534   3.972  17.622  0.6406 -0.1211 -0.5510
  178MPD1    C4 2765   0.457   3.858  17.610 -0.8211 -0.1031 -0.6078
  178MPD1    C5 2766   0.323   3.864  17.588  0.1118 -0.2931 -0.2871
  178MPD1     H 2767   0.519   4.186  17.618  0.7453  0.4947  0.6457
  178MPD1    H1 2768   0.500   3.758  17.607 -2.1709 -0.6759 -0.7974
  178MPD1    H2 2769   0.159   3.994  17.547 -0.1258 -1.5124 -1.1510
  178MPD1    H3 2770   0.263   3.775  17.575 -0.1267 -0.2361  0.4551
  178MPD1     N 2771   0.676   3.963  17.625  0.3343  0.2501  0.0832
  178MPD1    H5 2772   0.718   3.873  17.646 -1.9040 -0.5956  0.8362
  178MPD1    N1 2773   0.260   4.224  17.598  0.3621 -0.7517 -0.1426
  178MPD1    H6 2774   0.162   4.225  17.624  0.2074 -1.0219 -0.7097
  178MPD1    H7 2775   0.306   4.304  17.641 -1.4491 -0.0613  0.4782
  179MPD1     C 2776   0.569   1.460  14.908 -0.1408 -0.3656 -0.1049
  179MPD1    C1 2777   0.675   1.466  14.992 -0.3772 -0.0420  0.1711
  179MPD1    C2 2778   0.653   1.488  15.126  0.7432 -0.2375 -0.0179
  179MPD1    C3 2779   0.527   1.477  15.178 -0.0332 -0.0327 -0.1043
  179MPD1    C4 2780   0.422   1.455  15.089 -0.5380  0.1109 -0.6050
  179MPD1    C5 2781   0.445   1.451  14.955 -0.4840 -0.1194  0.1085
  179MPD1     H 2782   0.738   1.529  15.180  1.7242 -1.1360 -0.8908
  179MPD1    H1 2783   0.319   1.453  15.124 -0.2459 -3.0790  0.0722
  179MPD1    H2 2784   0.579   1.456  14.800 -1.7252  3.5289 -0.3945
  179MPD1    H3 2785   0.361   1.441  14.888 -0.3951  1.0235 -0.1711
  179MPD1     N 2786   0.502   1.505  15.317  0.7005  0.1142  0.2164
  179MPD1    H5 2787   0.406   1.520  15.347  0.8855 -1.2330  1.4792
  179MPD1    N1 2788   0.804   1.491  14.944  0.1676 -0.7312  0.1279
  179MPD1    H6 2789   0.823   1.459  14.849  2.1070 -1.4343  0.7558
  179MPD1    H7 2790   0.861   1.437  15.008  1.1757  0.6674  0.4116
  180MPD1     C 2791   3.898   2.063  14.501 -0.4596  0.7175  0.2732
  180MPD1    C1 2792   3.923   2.071  14.369 -0.0969 -0.1162 -0.4047
  180MPD1    C2 2793   4.015   2.160  14.331 -0.5228  0.5698 -0.4014
  180MPD1    C3 2794   4.108   2.205  14.423  0.2018  0.4350 -0.0168
  180MPD1    C4 2795   4.089   2.184  14.560 -0.3593 -0.9540 -0.1180
  180MPD1    C5 2796   3.977   2.120  14.601  0.0490  0.9935  0.2571
  180MPD1     H 2797   4.035   2.185  14.228 -2.3264 -1.3939 -1.2280
  180MPD1    H1 2798   4.157   2.206  14.642  1.2737  0.2292 -1.8027
  180MPD1    H2 2799   3.812   2.011  14.542 -0.2030  0.0714 -0.0122
  180MPD1    H3 2800   3.960   2.105  14.707 -0.2401  1.5121  0.2837
  180MPD1     N 2801   4.214   2.279  14.376 -0.6080  0.4117 -0.2106
  180MPD1    H5 2802   4.215   2.309  14.279  0.0675 -1.1785 -0.7082
  180MPD1    N1 2803   3.815   2.033  14.282  0.2624 -0.7388 -0.3026
  180MPD1    H6 2804   3.828   2.021  14.182 -0.8645  0.9024 -0.6342
  180MPD1    H7 2805   3.778   1.944  14.315  1.1036 -1.5223 -1.4521
  181MPD1     C 2806   1.348   0.881  10.033 -0.1995  0.7673  0.3342
  181MPD1    C1 2807   1.407   1.000  10.089  0.3027 -0.3989 -0.4101
  181MPD1    C2 2808   1.533   0.989  10.145 -0.5767  0.4804 -0.0189
  181MPD1    C3 2809   1.595   0.866  10.148 -0.0925 -0.1275  0.1131
  181MPD1    C4 2810   1.538   0.755  10.091  0.0280 -0.0976 -0.9973
  181MPD1    C5 2811   1.414   0.764  10.035  0.9133 -0.4543 -0.9586
  181MPD1     H 2812   1.582   1.070  10.198  1.3420  0.3389 -1.5616
  181MPD1    H1 2813   1.587   0.658  10.090  0.7310  0.2312  2.6200
  181MPD1    H2 2814   1.247   0.870   9.995 -0.5609  3.9512  0.3645
  181MPD1    H3 2815   1.370   0.683   9.978  1.5503 -1.0311 -0.6272
  181MPD1     N 2816   1.726   0.852  10.198 -0.9468 -0.2628  1.2609
  181MPD1    H5 2817   1.772   0.763  10.184  0.6706  0.7476  0.0133
  181MPD1    N1 2818   1.342   1.121  10.075 -0.0811  0.3116  0.1547
  181MPD1    H6 2819   1.244   1.104  10.098  0.3120  0.8915  2.2177
  181MPD1    H7 2820   1.385   1.183  10.143 -0.3081  1.3591 -0.6513
  182MPD1     C 2821   2.053   4.695   1.869  0.1405 -0.4779 -0.0892
  182MPD1    C1 2822   2.185   4.650   1.870  0.5586  0.5588  0.3289
  182MPD1    C2 2823   2.231   4.603   1.750 -0.2407  0.0308 -0.2248
  182MPD1    C3 2824   2.165   4.617   1.629  0.2258  0.5809 -0.0655
  182MPD1    C4 2825   2.034   4.665   1.636  0.0229 -0.2220  0.6953
  182MPD1    C5 2826   1.976   4.711   1.753  0.0426 -0.8338 -0.0556
  182MPD1     H 2827   2.330   4.558   1.747  0.6472  1.9649  0.2317
  182MPD1    H1 2828   1.962   4.664   1.555  0.1024  0.1177  0.6185
  182MPD1    H2 2829   2.007   0.000   1.960 -0.4581 -2.8044  0.5458
  182MPD1    H3 2830   1.879   0.025   1.739 -0.5785 -2.0783  0.1556
  182MPD1     N 2831   2.222   4.595   1.499 -0.0400  0.0861 -1.0183
  182MPD1    H5 2832   2.163   4.617   1.420  0.1883 -0.3112 -1.2956
  182MPD1    N1 2833   2.263   4.632   1.984  0.4969 -0.0638 -0.0591
  182MPD1    H6 2834   2.231   4.691   2.061 -0.2658 -3.1774  2.0060
  182MPD1    H7 2835   2.364   4.637   1.973  0.2035  3.3622 -1.2037
  183MPD1     C 2836   3.635   3.621   9.498 -0.1101 -0.4451  0.2995
  183MPD1    C1 2837   3.531   3.637   9.416  0.2702 -0.9069 -0.9208
  183MPD1    C2 2838   3.513   3.742   9.329  0.3051 -0.0677  0.5088
  183MPD1    C3 2839   3.617   3.831   9.318  0.0001 -0.1248  0.2460
  183MPD1    C4 2840   3.714   3.827   9.418 -0.7426  0.5067  0.7346
  183MPD1    C5 2841   3.725   3.725   9.501  0.0104  0.6443  0.3257
  183MPD1     H 2842   3.428   3.755   9.263  2.1354  1.4161 -1.5336
  183MPD1    H1 2843   3.785   3.906   9.442  1.0043 -0.7205 -0.3826
  183MPD1    H2 2844   3.644   3.548   9.578  2.2491 -0.9512 -0.4564
  183MPD1    H3 2845   3.805   3.728   9.574  0.6489 -2.5982 -0.2401
  183MPD1     N 2846   3.597   3.942   9.230  0.7185 -0.1762 -0.6128
  183MPD1    H5 2847   3.518   3.938   9.166  0.0542 -0.7843  0.2495
  183MPD1    N1 2848   3.442   3.530   9.389 -0.2628 -0.1304 -0.3144
  183MPD1    H6 2849   3.350   3.558   9.356 -0.6114  2.2676  2.7931
  183MPD1    H7 2850   3.411   3.478   9.471  0.3865  1.4533  0.9193
  184MPD1     C 2851   2.170   2.785  10.207  0.8613 -0.2449 -0.6734
  184MPD1    C1 2852   2.278   2.754  10.130 -0.5466 -0.5467 -0.0591
  184MPD1    C2 2853   2.327   2.848  10.043  0.1005  0.3403 -0.3910
  184MPD1    C3 2854   2.270   2.976  10.045 -0.0151  0.1649  0.1387
  184MPD1    C4 2855   2.161   3.001  10.122 -0.1958 -0.2573 -0.5466
  184MPD1    C5 2856   2.109   2.903  10.197  0.0804 -0.8898  0.6280
  184MPD1     H 2857   2.416   2.831   9.984  0.1377 -3.3448  0.7381
  184MPD1    H1 2858   2.132   3.106  10.125  0.2889 -0.1367 -0.1191
  184MPD1    H2 2859   2.129   2.714  10.278 -0.1129  0.8435 -0.1618
  184MPD1    H3 2860   2.029   2.928  10.266 -0.5519 -1.7648  0.2142
  184MPD1     N 2861   2.312   3.082   9.962 -0.0009  0.3925  0.1685
  184MPD1    H5 2862   2.261   3.170   9.963 -0.9110 -0.1531  0.9089
  184MPD1    N1 2863   2.339   2.628  10.134  0.2139 -0.2220  0.3584
  184MPD1    H6 2864   2.322   2.578  10.221 -0.0544 -0.4606  0.1648
  184MPD1    H7 2865   2.440   2.637  10.121  0.4865 -0.4452  2.3441
  185MPD1     C 2866   1.924   3.323   9.079  0.1249  0.9701  0.4446
  185MPD1    C1 2867   1.888   3.273   9.202 -0.0642  0.3738 -0.0847
  185MPD1    C2 2868   1.976   3.270   9.303 -0.5739 -0.0229 -0.5175
  185MPD1    C3 2869   2.095   3.343   9.301 -0.4110  0.1375  0.1171
  185MPD1    C4 2870   2.127   3.412   9.185 -0.0832 -0.9072 -0.2639
  185MPD1    C5 2871   2.050   3.386   9.073  0.0469 -0.0912 -0.6872
  185MPD1     H 2872   1.945   3.219   9.393 -3.0035 -0.8967 -1.8732
  185MPD1    H1 2873   2.222   3.463   9.171 -0.2892 -0.6180 -0.6188
  185MPD1    H2 2874   1.855   3.305   8.998 -0.1293  2.5191  0.3108
  185MPD1    H3 2875   2.083   3.407   8.972 -0.0484 -1.9647 -1.0963
  185MPD1     N 2876   2.186   3.339   9.409  0.4962 -0.1144  0.0803
  185MPD1    H5 2877   2.264   3.402   9.414  1.0360 -0.7930  0.2115
  185MPD1    N1 2878   1.778   3.188   9.212  0.0968 -0.9266 -0.8008
  185MPD1    H6 2879   1.705   3.210   9.145 -1.4033  0.8591  1.4471
  185MPD1    H7 2880   1.737   3.187   9.305  1.1048 -0.5310 -0.3448
  186MPD1     C 2881   1.482   1.997  16.173 -0.0533 -0.7081 -0.1252
  186MPD1    C1 2882   1.487   1.927  16.291  0.4481 -0.6659 -0.2148
  186MPD1    C2 2883   1.471   1.992  16.408 -0.4969 -0.2502 -0.0468
  186MPD1    C3 2884   1.473   2.133  16.409 -0.1243 -0.5516  0.1016
  186MPD1    C4 2885   1.482   2.201  16.287  0.0987 -0.3093  0.0552
  186MPD1    C5 2886   1.477   2.130  16.172 -0.3101 -0.0613 -0.5160
  186MPD1     H 2887   1.461   1.946  16.505  0.8738  2.1118  1.2190
  186MPD1    H1 2888   1.480   2.309  16.285  2.0889 -0.2566  1.0394
  186MPD1    H2 2889   1.448   1.945  16.084 -0.5123 -0.5495 -0.0405
  186MPD1    H3 2890   1.469   2.175  16.073  0.8905  0.3307 -0.4321
  186MPD1     N 2891   1.461   2.210  16.532 -0.2020 -0.1670  0.6140
  186MPD1    H5 2892   1.472   2.311  16.525  0.5222 -0.1548  1.9604
  186MPD1    N1 2893   1.488   1.780  16.285  0.0390 -0.8001  0.2917
  186MPD1    H6 2894   1.533   1.736  16.206  1.6152  2.4446 -0.6278
  186MPD1    H7 2895   1.522   1.736  16.371 -2.8036  0.1888  1.9470
  187MPD1     C 2896   1.008   3.750  17.406 -0.7074  0.7470  0.4850
  187MPD1    C1 2897   0.918   3.651  17.383  0.3446 -0.4936  0.0522
  187MPD1    C2 2898   0.794   3.696  17.328  0.3604  0.1084  0.4092
  187MPD1    C3 2899   0.760   3.830  17.300  0.0177 -0.5887 -0.6157
  187MPD1    C4 2900   0.863   3.914  17.299 -0.2387  0.5172 -0.7339
  187MPD1    C5 2901   0.986   3.872  17.351  0.0726  0.2028 -0.0889
  187MPD1     H 2902   0.718   3.620  17.316  0.6179 -0.0973  0.1192
  187MPD1    H1 2903   0.859   4.017  17.264 -1.2831  0.0104 -2.0989
  187MPD1    H2 2904   1.106   3.731  17.448 -0.8286  1.8949  1.2932
  187MPD1    H3 2905   1.066   3.942  17.369  0.9892 -1.5967  2.9035
  187MPD1     N 2906   0.633   3.871  17.256  0.2622  0.3311 -0.1586
  187MPD1    H5 2907   0.619   3.969  17.231  1.5163  0.5114 -0.2007
  187MPD1    N1 2908   0.931   3.522  17.441  0.5939  0.5457  0.6579
  187MPD1    H6 2909   1.030   3.503  17.457  1.1947  3.4830  0.3238
  187MPD1    H7 2910   0.878   3.446  17.399  0.8526 -0.3941  1.9941
  188MPD1     C 2911   0.234   4.256  11.169  0.0101 -0.1691 -0.0608
  188MPD1    C1 2912   0.217   4.122  11.201  0.0052 -0.3777  0.3102
  188MPD1    C2 2913   0.186   4.028  11.102 -0.2950  0.3618  0.0004
  188MPD1    C3 2914   0.169   4.068  10.970 -0.3975  0.4974 -0.2450
  188MPD1    C4 2915   0.184   4.200  10.933 -0.4909 -0.5260 -0.0604
  188MPD1    C5 2916   0.211   4.296  11.038  0.0103 -0.2241 -0.1756
  188MPD1     H 2917   0.179   3.925  11.136 -3.9594  1.0239  1.3160
  188MPD1    H1 2918   0.182   4.226  10.827  0.8806  2.5470  0.6498
  188MPD1    H2 2919   0.239   4.335  11.243 -1.6279  0.5544 -0.7186
  188MPD1    H3 2920   0.227   4.399  11.009  0.4058  0.0800  1.1111
  188MPD1     N 2921   0.136   3.979  10.863  0.0603  0.4735  0.0848
  188MPD1    H5 2922   0.132   4.024  10.772 -1.2462 -0.7158 -0.4478
  188MPD1    N1 2923   0.239   4.081  11.335  1.1251  0.3140 -0.1187
  188MPD1    H6 2924   0.299   3.999  11.346 -0.8556 -1.3110 -1.2580
  188MPD1    H7 2925   0.273   4.157  11.393 -0.4290 -0.1509  1.4016
  189MPD1     C 2926   1.890   0.164   0.300 -0.0511 -0.1605 -1.0430
  189MPD1    C1 2927   1.775   0.188   0.373 -0.4752 -0.6000  0.0975
  189MPD1    C2 2928   1.710   0.305   0.364 -0.3662 -0.0185  0.4230
  189MPD1    C3 2929   1.764   0.411   0.290 -0.0836  0.1681  0.1683
  189MPD1    C4 2930   1.872   0.394   0.212  0.0600 -0.5523 -0.6911
  189MPD1    C5 2931   1.932   0.267   0.222  0.5565  0.4293 -0.1122
  189MPD1     H 2932   1.621   0.313   0.425 -0.5928 -1.3313  0.2609
  189MPD1    H1 2933   1.911   0.480   0.160 -2.2621  1.9156  1.6450
  189MPD1    H2 2934   1.940   0.068   0.304  2.4114  1.1839  0.3835
  189MPD1    H3 2935   2.027   0.251   0.173  0.9466 -0.9272  1.0828
  189MPD1     N 2936   1.707   0.535   0.299  0.1263 -0.0542  0.1155
  189MPD1    H5 2937   1.624   0.543   0.357 -1.0017 -2.8547 -1.0796
  189MPD1    N1 2938   1.739   0.102   0.479  0.0783 -0.3794  0.1782
  189MPD1    H6 2939   1.646   0.120   0.516 -0.5380 -0.7698 -1.1759
  189MPD1    H7 2940   1.739   0.006   0.445 -2.3819 -0.5748  0.7003
  190MPD1     C 2941   1.455   2.431  15.828  0.0790 -0.4373  0.1464
  190MPD1    C1 2942   1.479   2.556  15.877 -0.9942  1.2900 -0.0465
  190MPD1    C2 2943   1.361   2.623  15.919 -0.3091 -0.1985 -0.7148
  190MPD1    C3 2944   1.237   2.569  15.930  0.2032  0.2475  0.4020
  190MPD1    C4 2945   1.214   2.442  15.885  0.8578 -0.1846  1.2255
  190MPD1    C5 2946   1.330   2.371  15.843 -0.0936  0.2661  0.0488
  190MPD1     H 2947   1.366   2.726  15.952  4.1709 -0.1540 -1.4915
  190MPD1    H1 2948   1.117   2.396  15.872  1.2799 -0.8817  0.5603
  190MPD1    H2 2949   1.537   2.376  15.785  0.2827  0.1065 -0.1578
  190MPD1    H3 2950   1.313   2.269  15.810 -0.9608  1.0080 -1.8079
  190MPD1     N 2951   1.132   2.645  15.973  0.6333  0.5579 -1.0735
  190MPD1    H5 2952   1.156   2.736  16.012  0.1452 -0.2097  1.0197
  190MPD1    N1 2953   1.600   2.623  15.839 -0.8861 -0.2283  0.1983
  190MPD1    H6 2954   1.680   2.561  15.826  0.9965  2.7661 -2.3179
  190MPD1    H7 2955   1.624   2.699  15.902 -1.6291  0.2070 -0.0418
  191MPD1     C 2956   3.997   0.288  13.361  0.4948 -0.4120 -0.7981
  191MPD1    C1 2957   4.004   0.412  13.328 -0.2090  0.2354 -0.4716
  191MPD1    C2 2958   4.047   0.443  13.203 -0.0854  0.6385 -0.5297
  191MPD1    C3 2959   4.083   0.344  13.116  0.0376  0.2494 -0.1810
  191MPD1    C4 2960   4.078   0.209  13.150 -0.6752  0.1987 -0.3430
  191MPD1    C5 2961   4.030   0.188  13.274 -0.1993 -0.3724 -0.0203
  191MPD1     H 2962   4.045   0.546  13.167  0.2271  0.8250 -0.0178
  191MPD1    H1 2963   4.107   0.129  13.083  1.8512  0.0420  0.9423
  191MPD1    H2 2964   3.954   0.256  13.456  0.9254 -0.8884 -0.7674
  191MPD1    H3 2965   4.031   0.089  13.319 -0.4981 -0.5627 -0.4286
  191MPD1     N 2966   4.113   0.390  12.986  0.3183 -0.0614 -0.3501
  191MPD1    H5 2967   4.127   0.489  12.969 -0.1064 -0.0144 -0.4126
  191MPD1    N1 2968   3.943   0.512  13.405  0.3650  0.4037 -0.1758
  191MPD1    H6 2969   3.984   0.602  13.379 -1.6381  1.5763  0.7485
  191MPD1    H7 2970   3.951   0.499  13.505 -0.8689  0.5251 -0.0639
  192MPD1     C 2971   4.599   0.295  12.045  0.3064 -0.1520 -0.2737
  192MPD1    C1 2972   4.555   0.189  12.121  0.3449  0.1315  0.0086
  192MPD1    C2 2973   4.456   0.216  12.219  0.7750 -0.7609  0.4705
  192MPD1    C3 2974   4.413   0.343  12.241 -0.1673 -0.1506 -1.3747
  192MPD1    C4 2975   4.468   0.437  12.168 -1.0031  0.7488  1.1103
  192MPD1    C5 2976   4.565   0.416  12.077 -0.5024 -0.3018  0.0152
  192MPD1     H 2977   4.410   0.132  12.270  1.2827 -0.3477  1.5999
  192MPD1    H1 2978   4.424   0.534  12.189 -0.4295  0.7995  2.0429
  192MPD1    H2 2979   4.674   0.282  11.967  0.0328  0.7265 -0.6823
  192MPD1    H3 2980   4.605   0.504  12.028  0.1955  0.7815  2.4941
  192MPD1     N 2981   4.317   0.379  12.328  0.5957  0.3056 -0.6960
  192MPD1    H5 2982   4.308   0.480  12.332 -0.7062  0.1548  0.0027
  192MPD1    N1 2983   4.585   0.059  12.077  0.2276  0.8035 -0.0121
  192MPD1    H6 2984   4.581   4.730  12.160  1.0899 -1.0947 -1.3479
  192MPD1    H7 2985   4.678   0.056  12.036  0.8319  1.2799  1.3364
  193MPD1     C 2986   4.106   0.315  16.201 -0.0126  0.0927  0.6100
  193MPD1    C1 2987   4.150   0.421  16.127  0.5087 -0.4856 -0.7150
  193MPD1    C2 2988   4.262   0.488  16.172  0.0762 -0.5879 -0.3873
  193MPD1    C3 2989   4.311   0.463  16.301 -0.1141 -1.3930 -0.0074
  193MPD1    C4 2990   4.270   0.351  16.368 -0.1260  0.0090 -0.5278
  193MPD1    C5 2991   4.170   0.277  16.318  0.4853  0.1920  0.0366
  193MPD1     H 2992   4.308   0.555  16.100 -0.3188 -0.8254 -0.8604
  193MPD1    H1 2993   4.313   0.322  16.463 -1.4907 -2.2677 -0.6216
  193MPD1    H2 2994   4.027   0.251  16.165  0.5968 -1.7220  2.4973
  193MPD1    H3 2995   4.127   0.189  16.365  2.5054 -0.2066  1.1372
  193MPD1     N 2996   4.412   0.539  16.361 -0.0125 -0.2782 -0.5152
  193MPD1    H5 2997   4.441   0.497  16.449  0.1214  0.1949 -0.3339
  193MPD1    N1 2998   4.110   0.426  15.995  0.3522 -0.6203 -0.1638
  193MPD1    H6 2999   4.015   0.395  15.975 -0.8676  2.2934  1.1871
  193MPD1    H7 3000   4.127   0.523  15.968  0.6042  0.0590  2.3579
  194MPD1     C 3001   2.319   3.304  17.398  0.2394  0.2951  0.2634
  194MPD1    C1 3002   2.278   3.256  17.526  0.4789 -0.0188 -0.6992
  194MPD1    C2 3003   2.334   3.133  17.570  0.0171  0.1911  0.5870
  194MPD1    C3 3004   2.409   3.054  17.482 -0.1785 -0.2141 -0.1536
  194MPD1    C4 3005   2.457   3.111  17.365  0.1124 -0.1493 -0.0404
  194MPD1    C5 3006   2.413   3.243  17.327  0.9391  0.2331 -0.2916
  194MPD1     H 3007   2.318   3.109  17.674  0.0654  3.7157  1.4218
  194MPD1    H1 3008   2.532   3.061  17.305  0.2264  2.3319 -2.0119
  194MPD1    H2 3009   2.305   3.404  17.360 -2.9772 -0.2652  0.0328
  194MPD1    H3 3010   2.437   3.273  17.226 -0.7231  1.7421 -0.2281
  194MPD1     N 3011   2.455   2.929  17.518  0.4680  0.7754 -0.1288
  194MPD1    H5 3012   2.522   2.894  17.450  1.8891  2.6431  0.3082
  194MPD1    N1 3013   2.208   3.332  17.618 -0.5723  0.3968  0.4000
  194MPD1    H6 3014   2.175   3.279  17.698  2.6916  3.0504  3.5324
  194MPD1    H7 3015   2.135   3.378  17.565 -0.2788 -0.4628 -0.7603
  195MPD1     C 3016   4.015   3.944  17.323 -0.0129 -0.4846 -0.0424
  195MPD1    C1 3017   4.138   3.909  17.380 -0.4340 -0.5950  0.0694
  195MPD1    C2 3018   4.162   3.776  17.395 -0.2650 -0.4259 -0.2922
  195MPD1    C3 3019   4.063   3.683  17.369 -0.2078 -0.0966  0.5907
  195MPD1    C4 3020   3.939   3.723  17.315  0.3525  0.6232  0.0321
  195MPD1    C5 3021   3.917   3.857  17.296  0.2018 -0.3439  0.5416
  195MPD1     H 3022   4.259   3.757  17.440 -0.1831  2.1791  0.6799
  195MPD1    H1 3023   3.858   3.655  17.291  0.7109 -0.5717  2.2434
  195MPD1    H2 3024   4.001   4.049  17.299 -1.3159 -1.3973 -3.3302
  195MPD1    H3 3025   3.812   3.880  17.280  0.8495  0.9830 -1.7770
  195MPD1     N 3026   4.078   3.541  17.375 -0.0688  0.7667  0.0153
  195MPD1    H5 3027   4.005   3.475  17.354  0.4121  0.4579 -0.6965
  195MPD1    N1 3028   4.247   3.998  17.379  0.0172  0.0057  0.1032
  195MPD1    H6 3029   4.214   4.093  17.393 -0.3669 -0.2233  0.7389
  195MPD1    H7 3030   4.313   3.968  17.450  0.0556  0.9477  0.4586
  196MPD1     C 3031   3.264   3.749  17.685 -0.5829 -0.1015  0.8194
  196MPD1    C1 3032   3.210   3.654   0.048  0.1015  0.0593  0.5060
  196MPD1    C2 3033   3.226   3.664   0.181 -0.3225 -0.6689  0.2381
  196MPD1    C3 3034   3.287   3.774   0.233 -0.0304 -0.6528 -0.2345
  196MPD1    C4 3035   3.354   3.859   0.151 -1.0872  0.1487 -0.4007
  196MPD1    C5 3036   3.346   3.840   0.017  0.1045  0.0632 -0.2370
  196MPD1     H 3037   3.163   3.598   0.241 -1.9294  0.3272 -0.3451
  196MPD1    H1 3038   3.413   3.936   0.199 -1.9131 -0.3655  1.4233
  196MPD1    H2 3039   3.266   3.727  17.579  0.2933  2.0674  0.4040
  196MPD1    H3 3040   3.405   3.907  17.681 -1.1628 -0.5824 -2.1493
  196MPD1     N 3041   3.288   3.813   0.369 -0.3699  0.2850 -0.2801
  196MPD1    H5 3042   3.345   3.893   0.393  2.1737 -0.7926 -2.6623
  196MPD1    N1 3043   3.135   3.556  17.715 -0.3745  0.3508 -0.7133
  196MPD1    H6 3044   3.159   3.472   0.043 -1.9855 -0.7868 -1.7812
  196MPD1    H7 3045   3.172   3.546  17.621  1.1622 -1.7444  0.1034
  197MPD1     C 3046   3.044   0.851  17.419  0.4427  0.6764  1.1732
  197MPD1    C1 3047   3.172   0.876  17.474 -0.0682 -0.2810 -0.2822
  197MPD1    C2 3048   3.271   0.919  17.379  0.2199 -0.3509 -0.5764
  197MPD1    C3 3049   3.250   0.917  17.242  0.0607 -0.4089 -0.0634
  197MPD1    C4 3050   3.125   0.893  17.194  0.2353 -0.0720 -0.4162
  197MPD1    C5 3051   3.025   0.859  17.284 -0.3994  0.3695  0.1674
  197MPD1     H 3052   3.365   0.951  17.422 -0.7794  0.8027  0.7298
  197MPD1    H1 3053   3.097   0.908  17.090  0.2718 -0.8228 -0.5410
  197MPD1    H2 3054   2.965   0.824  17.488  0.4167  0.4727  1.0634
  197MPD1    H3 3055   2.922   0.854  17.253  0.1611 -1.1294 -1.4259
  197MPD1     N 3056   3.342   0.964  17.148  0.6719  0.9272 -0.2285
  197MPD1    H5 3057   3.306   0.981  17.055  1.1433 -0.8666 -0.7474
  197MPD1    N1 3058   3.191   0.900  17.606  0.4755 -0.0469 -0.1609
  197MPD1    H6 3059   3.289   0.888  17.628  0.2981 -1.1204  0.0656
  197MPD1    H7 3060   3.133   0.834  17.658 -0.0238  0.2142 -0.3854
  198MPD1     C 3061   0.478   3.168  15.725  0.1575 -0.2821  0.9168
  198MPD1    C1 3062   0.550   3.213  15.832  0.7760 -0.3717 -0.1677
  198MPD1    C2 3063   0.580   3.350  15.834  0.3026  0.1296  0.3075
  198MPD1    C3 3064   0.532   3.441  15.730  0.6120  0.3167  0.3850
  198MPD1    C4 3065   0.468   3.384  15.625  0.1968 -0.0487 -0.2929
  198MPD1    C5 3066   0.439   3.250  15.624 -0.4751  0.1939  0.4458
  198MPD1     H 3067   0.629   3.389  15.923  1.6057 -0.0563 -0.3236
  198MPD1    H1 3068   0.446   3.452  15.544  0.4055 -0.0424 -0.3466
  198MPD1    H2 3069   0.455   3.064  15.701  2.5935 -1.1283  2.2675
  198MPD1    H3 3070   0.386   3.190  15.551  0.8297 -0.6122  0.1550
  198MPD1     N 3071   0.529   3.578  15.762  0.3591 -0.0816 -0.0509
  198MPD1    H5 3072   0.560   3.603  15.856 -0.9940  0.2556  0.2999
  198MPD1    N1 3073   0.583   3.123  15.939 -0.1188 -0.7425 -0.4694
  198MPD1    H6 3074   0.662   3.161  15.990  0.9805 -1.7548 -1.4040
  198MPD1    H7 3075   0.614   3.035  15.898 -2.0655 -0.9272 -1.5794
  199MPD1     C 3076   1.705   0.848   9.776 -0.0412 -0.3863  0.0410
  199MPD1    C1 3077   1.821   0.839   9.850 -0.4426 -1.1356  0.4965
  199MPD1    C2 3078   1.865   0.959   9.907 -0.0154  0.2106 -0.3185
  199MPD1    C3 3079   1.782   1.066   9.913  0.1305 -0.9562  0.2169
  199MPD1    C4 3080   1.663   1.077   9.844  0.2079 -0.4870  0.6103
  199MPD1    C5 3081   1.630   0.965   9.772  0.1441 -0.0483 -0.1984
  199MPD1     H 3082   1.961   0.961   9.958 -0.1788  0.5806 -0.0252
  199MPD1    H1 3083   1.601   1.165   9.828  0.1536 -0.4705  0.9118
  199MPD1    H2 3084   1.658   0.759   9.735  0.2560 -0.1947 -0.7122
  199MPD1    H3 3085   1.537   0.977   9.718  0.5283 -0.8182 -1.0368
  199MPD1     N 3086   1.814   1.165  10.008 -0.7703 -0.4689 -0.2839
  199MPD1    H5 3087   1.733   1.219  10.035  0.1470  1.0563 -0.5925
  199MPD1    N1 3088   1.895   0.723   9.840  0.3714  0.2275  0.2431
  199MPD1    H6 3089   1.958   0.721   9.920  1.0271  1.1289 -0.2450
  199MPD1    H7 3090   1.837   0.642   9.822 -0.1521  0.6932 -0.1292
  200MPD1     C 3091   0.604   0.526  15.287  0.6990 -0.4649  0.1263
  200MPD1    C1 3092   0.661   0.466  15.178 -0.3636 -0.2381 -0.0955
  200MPD1    C2 3093   0.778   0.521  15.127  0.5155 -0.2812 -0.0579
  200MPD1    C3 3094   0.846   0.613  15.199  0.5373 -0.2646  0.2596
  200MPD1    C4 3095   0.794   0.665  15.316  0.1855  0.0005 -0.4011
  200MPD1    C5 3096   0.676   0.613  15.363 -0.9209  0.3654 -0.1706
  200MPD1     H 3097   0.822   0.480  15.037  0.4537 -1.4620  0.4573
  200MPD1    H1 3098   0.842   0.744  15.374 -0.5714 -0.9093  1.4476
  200MPD1    H2 3099   0.513   0.490  15.333  1.4353 -1.6348  0.6646
  200MPD1    H3 3100   0.649   0.640  15.465  2.1909 -1.7997  1.2237
  200MPD1     N 3101   0.975   0.645  15.152  0.6955  0.2036 -0.4989
  200MPD1    H5 3102   0.998   0.589  15.071 -0.1417 -2.2077  0.9299
  200MPD1    N1 3103   0.575   0.373  15.110 -0.3000  0.6978  0.3277
  200MPD1    H6 3104   0.616   0.323  15.032  0.0079  1.2630  0.1297
  200MPD1    H7 3105   0.534   0.317  15.185 -1.8622  2.1286  0.5504
  201MPD1     C 3106   3.386   4.687  13.033 -0.1255 -0.5932  0.4082
  201MPD1    C1 3107   3.409   4.603  13.143 -0.1050 -0.3147  0.1363
  201MPD1    C2 3108   3.508   4.507  13.129 -0.1294 -0.3225 -0.2580
  201MPD1    C3 3109   3.582   4.495  13.012  0.4934 -0.2408 -0.6024
  201MPD1    C4 3110   3.553   4.578  12.906 -0.6771 -0.0124  0.0127
  201MPD1    C5 3111   3.452   4.664  12.918  1.3169  0.5837  0.2772
  201MPD1     H 3112   3.527   4.443  13.214  0.1069 -0.0033 -0.0715
  201MPD1    H1 3113   3.604   4.570  12.810  0.5059  0.5222  0.6028
  201MPD1    H2 3114   3.323   0.044  13.033 -0.6458 -0.9704  0.9862
  201MPD1    H3 3115   3.433   4.731  12.835 -0.3360 -1.2633 -0.8278
  201MPD1     N 3116   3.678   4.393  13.004  0.2921  0.5625  0.8539
  201MPD1    H5 3117   3.697   4.326  13.078 -0.9357  1.8888  2.3812
  201MPD1    N1 3118   3.340   4.626  13.268  0.4536 -0.2063 -0.0598
  201MPD1    H6 3119   3.352   4.569  13.351 -0.9348 -2.0907 -1.1358
  201MPD1    H7 3120   3.277   4.705  13.275 -1.5412 -1.7367 -0.7179
  202MPD1     C 3121   0.293   0.344   9.583  0.3691 -0.4019 -0.6756
  202MPD1    C1 3122   0.299   0.212   9.609 -0.2183  0.5624  0.0773
  202MPD1    C2 3123   0.173   0.174   9.651 -0.3557 -0.2350  0.2939
  202MPD1    C3 3124   0.052   0.240   9.630  0.2994 -0.2130  0.2459
  202MPD1    C4 3125   0.058   0.364   9.567  0.4170 -0.4388 -0.1147
  202MPD1    C5 3126   0.183   0.415   9.562  0.1610 -0.8138  0.2086
  202MPD1     H 3127   0.172   0.069   9.679  0.7138 -0.3084  0.0438
  202MPD1    H1 3128   4.700   0.425   9.555  0.7171  0.5938  2.9774
  202MPD1    H2 3129   0.386   0.393   9.558 -0.5237  0.7420 -1.7764
  202MPD1    H3 3130   0.199   0.519   9.537 -0.3792 -1.1205 -1.3905
  202MPD1     N 3131   4.655   0.196   9.671 -0.5478  0.2301 -0.2242
  202MPD1    H5 3132   4.576   0.254   9.645  0.7224  0.8383 -2.7684
  202MPD1    N1 3133   0.415   0.148   9.664 -0.2003 -0.5128  0.0001
  202MPD1    H6 3134   0.403   0.049   9.642  1.2197 -0.4302 -1.1765
  202MPD1    H7 3135   0.491   0.179   9.604 -1.8707  1.0433 -1.3270
  203MPD1     C 3136   1.650   0.433  12.384  0.3090 -0.4657  0.2062
  203MPD1    C1 3137   1.674   0.326  12.302  0.8345  0.0370  0.5805
  203MPD1    C2 3138   1.785   0.251  12.316  0.2901  0.3381  1.0385
  203MPD1    C3 3139   1.874   0.267  12.421  0.1063 -0.0044 -0.4217
  203MPD1    C4 3140   1.847   0.378  12.503  0.4332  0.3136  0.3121
  203MPD1    C5 3141   1.739   0.460  12.482 -0.2794 -0.2635  0.3325
  203MPD1     H 3142   1.799   0.163  12.253  1.4863  0.2244  1.4529
  203MPD1    H1 3143   1.903   0.422  12.585 -1.8791  3.3272  0.2841
  203MPD1    H2 3144   1.562   0.494  12.369  2.4218  2.6172  0.3688
  203MPD1    H3 3145   1.729   0.557  12.529 -0.7563 -1.1761  2.1086
  203MPD1     N 3146   1.975   0.168  12.450  0.6992 -0.2129  0.1227
  203MPD1    H5 3147   1.980   0.096  12.379 -0.1961 -2.1099  1.9624
  203MPD1    N1 3148   1.579   0.293  12.203  0.1807 -0.0201 -0.3439
  203MPD1    H6 3149   1.555   0.381  12.158 -1.2690 -1.1415 -1.7343
  203MPD1    H7 3150   1.597   0.224  12.130  0.5153  1.9125 -2.0635
  204MPD1     C 3151   2.253   1.570   0.269 -0.0882 -1.2137 -0.1549
  204MPD1    C1 3152   2.307   1.616   0.156  0.1211  0.4348 -0.0127
  204MPD1    C2 3153   2.303   1.542   0.041 -0.1775 -0.8320  0.5889
  204MPD1    C3 3154   2.244   1.422   0.036  0.0603 -0.3521 -0.1961
  204MPD1    C4 3155   2.161   1.385   0.146  0.2479 -0.1100 -0.0348
  204MPD1    C5 3156   2.169   1.460   0.257 -0.1179  0.6494  0.0549
  204MPD1     H 3157   2.359   1.573  17.679 -1.5482 -0.3748 -0.1377
  204MPD1    H1 3158   2.111   1.289   0.155 -0.2292  0.0620 -0.8443
  204MPD1    H2 3159   2.255   1.623   0.363 -2.1619  0.6505 -1.1706
  204MPD1    H3 3160   2.107   1.435   0.343  1.7396 -3.1490  0.2881
  204MPD1     N 3161   2.261   1.339  17.645 -0.1075 -0.1058  0.2078
  204MPD1    H5 3162   2.320   1.370  17.569  1.4714 -0.3650  1.3264
  204MPD1    N1 3163   2.354   1.752   0.151  0.1613  0.3997  0.0491
  204MPD1    H6 3164   2.424   1.766   0.078  0.8091  1.9314  0.9732
  204MPD1    H7 3165   2.395   1.785   0.238 -0.1230 -0.5868  0.5608
  205MPD1     C 3166   2.829   0.115  16.361 -0.4945  0.5145 -0.2234
  205MPD1    C1 3167   2.834   0.228  16.438 -0.1312 -0.2847 -0.0817
  205MPD1    C2 3168   2.827   0.214  16.573 -0.4657  0.3670 -0.5344
  205MPD1    C3 3169   2.811   0.093  16.641  0.3526  0.2108  0.6432
  205MPD1    C4 3170   2.801   4.717  16.553  0.3650 -0.0885  0.6944
  205MPD1    C5 3171   2.808   4.728  16.420 -0.2979 -0.3716  0.1922
  205MPD1     H 3172   2.843   0.307  16.626 -0.8232 -0.6958  1.4396
  205MPD1    H1 3173   2.767   4.624  16.596  0.0070  0.4593  1.6093
  205MPD1    H2 3174   2.825   0.124  16.253  0.4646 -1.7754 -0.4437
  205MPD1    H3 3175   2.810   4.642  16.355  0.4242  0.6631 -1.1444
  205MPD1     N 3176   2.789   0.082  16.785 -0.7128  0.1231 -0.8863
  205MPD1    H5 3177   2.765   4.719  16.813 -0.2780 -0.5232 -2.6509
  205MPD1    N1 3178   2.873   0.358  16.389  0.2720 -0.6943 -0.1127
  205MPD1    H6 3179   2.826   0.376  16.300 -1.5814 -0.3188  0.9480
  205MPD1    H7 3180   2.846   0.431  16.454  1.3640  0.5937 -1.0965
  206MPD1     C 3181   2.808   3.507  17.306 -0.7359 -0.4930 -0.0442
  206MPD1    C1 3182   2.808   3.373  17.270 -0.6366  0.3527 -0.5214
  206MPD1    C2 3183   2.718   3.335  17.170  0.2921  0.5213  0.0211
  206MPD1    C3 3184   2.622   3.422  17.119  0.1895 -0.4807  0.4753
  206MPD1    C4 3185   2.613   3.544  17.170  0.0938 -0.1330  0.4079
  206MPD1    C5 3186   2.708   3.585  17.265  0.8216  0.5321  0.1291
  206MPD1     H 3187   2.737   3.238  17.126 -2.8750  0.9420 -2.2864
  206MPD1    H1 3188   2.535   3.611  17.136  1.1517  0.9742  0.1512
  206MPD1    H2 3189   2.875   3.551  17.378 -1.3768  1.5518 -0.6921
  206MPD1    H3 3190   2.707   3.686  17.303 -1.1398  1.2565 -1.8645
  206MPD1     N 3191   2.531   3.380  17.016 -0.4911 -0.2988 -0.1013
  206MPD1    H5 3192   2.453   3.442  16.997 -0.9840 -0.2687  2.0138
  206MPD1    N1 3193   2.919   3.294  17.312  0.1384  0.1340  0.0787
  206MPD1    H6 3194   2.900   3.194  17.301 -0.2373  0.3566 -1.3783
  206MPD1    H7 3195   2.962   3.321  17.400  0.0432  0.6026 -0.0195
  207MPD1     C 3196   3.501   0.612  10.224  0.0017 -0.0389  0.7039
  207MPD1    C1 3197   3.485   0.550  10.348  0.3961 -0.5176  0.4384
  207MPD1    C2 3198   3.584   0.556  10.440 -0.1620 -0.3994  0.5733
  207MPD1    C3 3199   3.703   0.627  10.429 -1.0610  0.2957 -0.6119
  207MPD1    C4 3200   3.717   0.681  10.304  0.0865 -0.4182 -0.2440
  207MPD1    C5 3201   3.618   0.680  10.209  0.1016  0.3158  0.1406
  207MPD1     H 3202   3.570   0.498  10.530  0.8684  0.3053  1.1893
  207MPD1    H1 3203   3.809   0.734  10.283  0.1419 -0.6153 -0.5036
  207MPD1    H2 3204   3.430   0.618  10.143  0.2305 -1.0734  0.4346
  207MPD1    H3 3205   3.613   0.734  10.116 -0.6405  1.3387  0.7676
  207MPD1     N 3206   3.806   0.644  10.523  0.1237 -0.1083  0.1463
  207MPD1    H5 3207   3.897   0.685  10.505 -0.2689 -0.8803 -3.3809
  207MPD1    N1 3208   3.367   0.477  10.376  0.7482  0.1201 -0.0187
  207MPD1    H6 3209   3.295   0.481  10.304  0.3055  0.6794  0.4558
  207MPD1    H7 3210   3.332   0.518  10.462 -1.8307  2.0552 -1.9724
  208MPD1     C 3211   3.524   4.495   0.445 -0.6240  0.0559  0.6267
  208MPD1    C1 3212   3.438   4.517   0.548  0.0228  0.0024 -0.6269
  208MPD1    C2 3213   3.307   4.491   0.525 -0.7741 -0.3786  0.4870
  208MPD1    C3 3214   3.261   4.394   0.433  0.3288 -1.2610 -0.3102
  208MPD1    C4 3215   3.354   4.368   0.335  0.4265  0.5570  0.7403
  208MPD1    C5 3216   3.476   4.428   0.337  0.3481 -0.0512 -0.5873
  208MPD1     H 3217   3.233   4.522   0.598 -0.0425 -1.1709  1.5691
  208MPD1    H1 3218   3.334   4.318   0.241  0.1102 -0.4524  1.3516
  208MPD1    H2 3219   3.628   4.526   0.436 -0.5123 -0.3416  0.5429
  208MPD1    H3 3220   3.539   4.422   0.249 -0.0160  0.6709 -0.8940
  208MPD1     N 3221   3.126   4.356   0.439  0.3547  0.1452 -0.0101
  208MPD1    H5 3222   3.070   4.396   0.514 -2.0623 -0.6713 -1.3750
  208MPD1    N1 3223   3.490   4.611   0.633  0.4566  0.8245 -0.1148
  208MPD1    H6 3224   3.590   4.601   0.646  0.3276 -0.9346 -0.3519
  208MPD1    H7 3225   3.437   4.614   0.719  2.9954 -0.1643  1.4811
  209MPD1     C 3226   0.090   4.598  11.203  0.6791 -0.3332  0.1325
  209MPD1    C1 3227   0.173   4.705  11.220 -0.1740 -0.5248 -0.1063
  209MPD1    C2 3228   0.141   0.065  11.323 -0.2572 -0.3774  0.4066
  209MPD1    C3 3229   0.051   0.038  11.420 -1.1738  0.0792  0.4594
  209MPD1    C4 3230   4.704   4.654  11.407  0.0901 -0.0049 -0.2023
  209MPD1    C5 3231   0.001   4.567  11.303 -0.2854  0.1178  0.4267
  209MPD1     H 3232   0.198   0.156  11.340  1.7820 -1.5093 -0.3246
  209MPD1    H1 3233   4.622   4.631  11.474 -0.5384  0.1526 -0.9170
  209MPD1    H2 3234   0.096   4.537  11.114 -2.0674  0.4858 -0.6336
  209MPD1    H3 3235   4.676   4.475  11.299  2.5057 -1.5712  0.0901
  209MPD1     N 3236   0.013   0.142  11.502 -0.4431  0.5861 -0.1907
  209MPD1    H5 3237   0.068   0.225  11.480  1.0884  0.7114  4.0538
  209MPD1    N1 3238   0.259   0.010  11.113 -0.0268 -0.1482  0.3010
  209MPD1    H6 3239   0.342   0.047  11.159  1.8189 -2.3792 -1.2733
  209MPD1    H7 3240   0.281   4.671  11.044 -2.4707  0.2476 -0.8646
  210MPD1     C 3241   0.271   0.963  11.326  0.1071 -0.3821 -0.4657
  210MPD1    C1 3242   0.333   0.842  11.361  0.3300 -0.0120 -0.3939
  210MPD1    C2 3243   0.250   0.750  11.424 -0.6026 -0.0006  0.8623
  210MPD1    C3 3244   0.122   0.793  11.472 -0.0251  0.0677 -0.0247
  210MPD1    C4 3245   0.072   0.922  11.447 -0.1431  0.2327 -0.5633
  210MPD1    C5 3246   0.151   1.002  11.373  0.9562 -0.7147  0.0960
  210MPD1     H 3247   0.274   0.645  11.430 -0.7487 -0.0559  0.4815
  210MPD1    H1 3248   4.712   0.963  11.489  0.2986 -1.1008  1.6891
  210MPD1    H2 3249   0.330   1.033  11.267 -0.4774 -0.2968 -0.9496
  210MPD1    H3 3250   0.107   1.100  11.357 -0.8903 -1.1166  2.6963
  210MPD1     N 3251   0.036   0.714  11.559  0.1208  0.1238 -0.2330
  210MPD1    H5 3252   4.678   0.757  11.580  1.1051  0.9678  2.1889
  210MPD1    N1 3253   0.449   0.795  11.293 -0.1856  0.6461 -0.2142
  210MPD1    H6 3254   0.519   0.869  11.292  0.7192 -0.2237 -0.7193
  210MPD1    H7 3255   0.482   0.711  11.341  1.7248  1.3272 -0.3366
  211MPD1     C 3256   2.583   4.028  15.786 -0.0697  0.5853  0.2677
  211MPD1    C1 3257   2.585   4.142  15.714  0.0608 -0.2606  0.0403
  211MPD1    C2 3258   2.536   4.267  15.764  0.0808  0.3509  0.3900
  211MPD1    C3 3259   2.483   4.272  15.886 -0.1582  0.4585  0.6881
  211MPD1    C4 3260   2.471   4.155  15.953 -0.2624  0.4432 -0.4908
  211MPD1    C5 3261   2.521   4.036  15.908 -0.1797  0.1304 -0.6677
  211MPD1     H 3262   2.541   4.359  15.707 -1.4786 -0.4685 -1.0553
  211MPD1    H1 3263   2.419   4.137  16.046  2.2017  1.2125  1.0370
  211MPD1    H2 3264   2.635   3.937  15.761  3.1012  2.3127  0.4959
  211MPD1    H3 3265   2.518   3.953  15.977  0.3724 -0.9075 -1.8996
  211MPD1     N 3266   2.434   4.399  15.929 -0.2235  0.7223 -0.0983
  211MPD1    H5 3267   2.473   4.477  15.877  1.1536  0.1820  0.1093
  211MPD1    N1 3268   2.629   4.131  15.584  0.2241 -0.3363 -0.5982
  211MPD1    H6 3269   2.623   4.218  15.531 -1.6985 -0.3800 -0.4415
  211MPD1    H7 3270   2.720   4.088  15.571  2.1153  3.6003 -0.5259
  212MPD1     C 3271   2.109   3.184  17.053 -0.0606 -0.2548 -0.7397
  212MPD1    C1 3272   1.976   3.207  17.076 -0.1642 -0.0508 -0.0039
  212MPD1    C2 3273   1.904   3.110  17.148  0.3669  0.1694 -0.0087
  212MPD1    C3 3274   1.967   2.999  17.200 -0.5073 -0.0987 -0.4407
  212MPD1    C4 3275   2.103   2.985  17.184 -0.7057  0.4391 -0.4637
  212MPD1    C5 3276   2.172   3.078  17.111  0.2784 -1.4001  0.0679
  212MPD1     H 3277   1.797   3.122  17.165  0.3011 -0.1051 -0.2348
  212MPD1    H1 3278   2.165   2.902  17.217 -0.6393  0.2952 -0.9436
  212MPD1    H2 3279   2.170   3.264  17.013  1.3683 -0.9421  0.0782
  212MPD1    H3 3280   2.278   3.063  17.096  0.2405 -1.7588  0.1787
  212MPD1     N 3281   1.897   2.896  17.270  0.4119 -0.4303  0.4410
  212MPD1    H5 3282   1.953   2.812  17.283  0.0052 -0.8557 -0.4871
  212MPD1    N1 3283   1.918   3.319  17.025  0.0703 -0.2833 -0.2388
  212MPD1    H6 3284   1.978   3.394  16.993  0.6109 -0.9098 -0.7116
  212MPD1    H7 3285   1.828   3.351  17.061  0.9963  4.2832 -2.1302
  213MPD1     C 3286   4.637   4.355  15.895  0.8617  0.1057 -0.1161
  213MPD1    C1 3287   4.597   4.371  15.772 -0.2152  0.2020 -0.4826
  213MPD1    C2 3288   4.587   4.249  15.706 -0.2715  0.0036  0.5950
  213MPD1    C3 3289   4.641   4.125  15.741  0.6499  0.8791 -0.4691
  213MPD1    C4 3290   4.698   4.123  15.868 -0.6391  0.1145 -0.0621
  213MPD1    C5 3291   4.686   4.242  15.940  0.0077  0.2765  0.0275
  213MPD1     H 3292   4.552   4.258  15.604  1.7895  2.4960  0.1196
  213MPD1    H1 3293   0.014   4.036  15.911 -1.3603 -0.6262 -0.7673
  213MPD1    H2 3294   4.630   4.438  15.964  2.6904  1.7590 -1.9242
  213MPD1    H3 3295   4.726   4.235  16.041  2.9837  0.8376 -1.1145
  213MPD1     N 3296   4.630   4.004  15.659  0.3443  0.5235  0.0613
  213MPD1    H5 3297   4.586   4.025  15.570  0.2081  0.8391  0.2025
  213MPD1    N1 3298   4.500   4.466  15.741 -0.8878  0.2622 -0.7961
  213MPD1    H6 3299   4.511   4.548  15.800  0.5258  1.7044 -3.0825
  213MPD1    H7 3300   4.508   4.493  15.643  0.8076  0.4958 -0.5965
  214MPD1     C 3301   0.013   2.941  15.471 -0.0793  0.2016 -0.2851
  214MPD1    C1 3302   0.064   3.016  15.574 -0.1985 -0.3339 -0.2362
  214MPD1    C2 3303   0.049   3.153  15.570 -0.0181 -0.1495  0.5730
  214MPD1    C3 3304   0.002   3.215  15.458 -0.1360  0.3552  0.1502
  214MPD1    C4 3305   4.695   3.141  15.350 -0.3441 -0.4510 -0.7884
  214MPD1    C5 3306   4.693   3.007  15.361 -0.0405  0.2250 -0.4171
  214MPD1     H 3307   0.084   3.218  15.649 -1.5154  0.5684  0.6402
  214MPD1    H1 3308   4.670   3.191  15.258 -0.9013  1.3251  0.3384
  214MPD1    H2 3309   0.016   2.833  15.469 -2.3021  0.1366  0.0676
  214MPD1    H3 3310   4.648   2.949  15.281 -0.2675 -0.0193 -0.1119
  214MPD1     N 3311   4.723   3.353  15.451 -0.1453 -0.2120 -0.1586
  214MPD1    H5 3312   4.690   3.393  15.363  1.5944  0.8828 -0.3183
  214MPD1    N1 3313   0.085   2.954  15.697 -0.0530 -0.0023 -0.1121
  214MPD1    H6 3314   0.112   2.856  15.692 -2.5744 -0.6755 -0.5703
  214MPD1    H7 3315   0.149   2.994  15.766  0.9967 -1.4232 -0.2526
  215MPD1     C 3316   3.518   4.540  11.453 -0.6252 -0.4795  0.1952
  215MPD1    C1 3317   3.459   4.613  11.552 -0.0423  0.3143 -0.2932
  215MPD1    C2 3318   3.450   0.019  11.533 -0.2705  0.2788 -0.0250
  215MPD1    C3 3319   3.514   0.083  11.433  0.4927 -0.7306  0.2391
  215MPD1    C4 3320   3.589   0.010  11.340 -0.2488 -0.1074  0.6681
  215MPD1    C5 3321   3.582   4.610  11.349  0.3682 -0.0217  0.0912
  215MPD1     H 3322   3.390   0.076  11.603 -1.0414  0.8544 -1.1545
  215MPD1    H1 3323   3.658   0.051  11.266  1.1212  0.6801  2.3654
  215MPD1    H2 3324   3.518   4.432  11.454 -0.1134 -0.4784  0.1818
  215MPD1    H3 3325   3.630   4.552  11.271  1.1261 -2.0844  2.0817
  215MPD1     N 3326   3.512   0.222  11.444 -0.4104  0.2265 -0.5902
  215MPD1    H5 3327   3.470   0.263  11.526  0.7590 -1.1511  0.6828
  215MPD1    N1 3328   3.387   4.545  11.653 -1.4242  0.1132  0.2018
  215MPD1    H6 3329   3.443   4.471  11.693 -1.0080  1.0412  1.3196
  215MPD1    H7 3330   3.337   4.584  11.732  0.8064  2.5719  0.3809
  216MPD1     C 3331   1.956   2.980  17.677 -0.3588  0.1733 -0.0943
  216MPD1    C1 3332   1.914   2.882   0.041 -0.1264 -0.3304 -0.6435
  216MPD1    C2 3333   1.978   2.759   0.041 -0.0738 -0.2624 -0.6550
  216MPD1    C3 3334   2.080   2.727  17.672 -0.0453  0.3483 -0.0281
  216MPD1    C4 3335   2.109   2.816  17.582  0.4961 -0.2131 -0.2993
  216MPD1    C5 3336   2.055   2.939  17.586 -0.1575  0.2864  0.7432
  216MPD1     H 3337   1.939   2.673   0.096 -0.1990 -0.1945 -0.6378
  216MPD1    H1 3338   2.175   2.801  17.497  2.4712 -0.4964  1.2787
  216MPD1    H2 3339   1.920   3.081  17.659  0.5794  0.3892 -0.7745
  216MPD1    H3 3340   2.095   3.007  17.512 -0.9050 -1.4066 -1.2007
  216MPD1     N 3341   2.130   2.599  17.672 -0.0994  0.1154  0.3164
  216MPD1    H5 3342   2.102   2.532   0.018  0.0846  0.1916  0.4599
  216MPD1    N1 3343   1.801   2.908   0.111  0.6563 -0.1044  0.0357
  216MPD1    H6 3344   1.788   2.844   0.188  1.8299 -1.1816 -0.6608
  216MPD1    H7 3345   1.798   3.006   0.141 -0.9017 -0.1141 -0.1012
  217MPD1     C 3346   2.779   3.395   8.658 -0.0058 -0.1058  0.1808
  217MPD1    C1 3347   2.887   3.438   8.734  0.5116  0.9338  0.1882
  217MPD1    C2 3348   2.881   3.559   8.799 -0.1460 -0.2818 -0.5229
  217MPD1    C3 3349   2.772   3.642   8.782 -0.2600 -0.2185  1.2060
  217MPD1    C4 3350   2.669   3.599   8.704  0.9697  0.4521 -0.3222
  217MPD1    C5 3351   2.672   3.474   8.644 -0.3833 -0.2335  0.4300
  217MPD1     H 3352   2.963   3.592   8.863 -1.5850  0.0300  1.1630
  217MPD1    H1 3353   2.587   3.668   8.686 -1.0003 -1.1926  2.3094
  217MPD1    H2 3354   2.787   3.301   8.604 -0.6189 -0.8596  1.3981
  217MPD1    H3 3355   2.585   3.442   8.588 -0.2412 -0.4622  0.3432
  217MPD1     N 3356   2.760   3.768   8.851  0.1846 -0.2762 -0.0576
  217MPD1    H5 3357   2.692   3.830   8.808 -2.0474 -1.4388  1.8190
  217MPD1    N1 3358   3.006   3.373   8.724  0.2155  0.1615 -0.0324
  217MPD1    H6 3359   3.062   3.389   8.808  1.5334 -0.6608 -0.7534
  217MPD1    H7 3360   2.990   3.274   8.703 -2.0076  0.4165  0.3929
  218MPD1     C 3361   3.302   0.184  13.724  0.3555  0.2672  0.5668
  218MPD1    C1 3362   3.269   0.241  13.602 -0.4457 -0.0727 -0.2485
  218MPD1    C2 3363   3.355   0.219  13.500  0.3225  0.6597 -0.0676
  218MPD1    C3 3364   3.480   0.157  13.513 -0.3147  0.3727  0.2203
  218MPD1    C4 3365   3.517   0.114  13.636 -0.1728 -0.2286 -0.2842
  218MPD1    C5 3366   3.423   0.120  13.741 -0.3976  0.0600 -0.5041
  218MPD1     H 3367   3.323   0.246  13.400  1.8746  0.2143 -0.6865
  218MPD1    H1 3368   3.618   0.081  13.655  0.3587  1.8576  0.4779
  218MPD1    H2 3369   3.228   0.195  13.802  0.4167  2.1152  0.3470
  218MPD1    H3 3370   3.457   0.092  13.840 -2.4507 -0.8199 -0.0422
  218MPD1     N 3371   3.554   0.147  13.401 -0.3535  0.3011  0.2348
  218MPD1    H5 3372   3.520   0.207  13.326 -1.0707 -0.4651 -0.0556
  218MPD1    N1 3373   3.134   0.283  13.586 -0.1152  0.5504  0.2081
  218MPD1    H6 3374   3.132   0.369  13.531 -0.0137  0.7043  0.4417
  218MPD1    H7 3375   3.082   0.310  13.669 -0.0648 -0.3056  0.5151
  219MPD1     C 3376   3.860   0.548  12.544  0.1253 -0.2047 -0.0314
  219MPD1    C1 3377   3.829   0.591  12.673  0.7569  0.0855 -0.1350
  219MPD1    C2 3378   3.783   0.503  12.772  1.0594  0.5607  0.7998
  219MPD1    C3 3379   3.775   0.371  12.738  0.5516 -0.1713  0.2930
  219MPD1    C4 3380   3.801   0.332  12.610  0.5587  0.3375 -0.2166
  219MPD1    C5 3381   3.844   0.415  12.514 -0.2046 -0.2956 -0.1668
  219MPD1     H 3382   3.784   0.536  12.875  1.1539 -3.8925  2.2264
  219MPD1    H1 3383   3.775   0.229  12.589 -2.0085  1.1232 -0.9961
  219MPD1    H2 3384   3.884   0.622  12.468  0.1744  0.5843  0.7460
  219MPD1    H3 3385   3.862   0.365  12.419 -1.1997  1.3486 -1.2226
  219MPD1     N 3386   3.764   0.272  12.842 -0.5455 -0.6267  0.2068
  219MPD1    H5 3387   3.773   0.174  12.815 -2.7110 -1.1850  1.5679
  219MPD1    N1 3388   3.840   0.731  12.697 -0.3363 -0.9849 -0.3747
  219MPD1    H6 3389   3.901   0.772  12.626 -1.0284  0.1579 -0.3078
  219MPD1    H7 3390   3.750   0.778  12.683  0.1291  0.3668  1.2201
  220MPD1     C 3391   3.241   1.380   9.752 -0.2029  0.4433 -0.0907
  220MPD1    C1 3392   3.224   1.249   9.728 -0.3439 -0.2769  0.0044
  220MPD1    C2 3393   3.269   1.169   9.827 -0.1729 -0.0948  0.6017
  220MPD1    C3 3394   3.321   1.212   9.943 -0.3819 -0.1431  0.1921
  220MPD1    C4 3395   3.326   1.341   9.970 -0.2612 -0.3540 -0.0202
  220MPD1    C5 3396   3.287   1.426   9.876  0.4223  0.0553 -0.1874
  220MPD1     H 3397   3.254   1.062   9.815  0.1656 -0.1917  1.0357
  220MPD1    H1 3398   3.352   1.396  10.059 -0.1403 -1.9438  0.9307
  220MPD1    H2 3399   3.206   1.457   9.684 -0.7351  0.3828  0.1140
  220MPD1    H3 3400   3.290   1.534   9.883  1.5972 -0.1317  2.2964
  220MPD1     N 3401   3.368   1.121  10.034  0.6731  0.0843  0.0700
  220MPD1    H5 3402   3.338   1.025  10.020  0.4933  0.1068  0.3034
  220MPD1    N1 3403   3.190   1.207   9.602  0.2983  0.1084  0.2074
  220MPD1    H6 3404   3.109   1.257   9.565  1.0865  1.5603  0.4778
  220MPD1    H7 3405   3.153   1.112   9.608  2.3804 -0.6967  0.2806
  221MPD1     C 3406   1.940   4.123  16.718  0.1532 -0.1948  0.7939
  221MPD1    C1 3407   2.065   4.168  16.707  0.0040  0.2542  0.1746
  221MPD1    C2 3408   2.168   4.079  16.677  0.2392 -0.6938  0.2868
  221MPD1    C3 3409   2.147   3.945  16.663 -0.2024  0.3490  0.2758
  221MPD1    C4 3410   2.017   3.894  16.692  0.1284  0.6322 -0.4812
  221MPD1    C5 3411   1.916   3.986  16.706  0.1641 -0.2194  0.1732
  221MPD1     H 3412   2.264   4.124  16.653  1.1555 -1.2209  2.9288
  221MPD1    H1 3413   2.000   3.788  16.706 -1.9338  0.8704 -1.0511
  221MPD1    H2 3414   1.860   4.194  16.734 -0.4090  0.1108 -3.1777
  221MPD1    H3 3415   1.815   3.954  16.727 -0.3351  0.3101 -1.4929
  221MPD1     N 3416   2.250   3.854  16.630  0.1970 -0.3344 -0.4661
  221MPD1    H5 3417   2.224   3.758  16.609 -2.4903  0.3685 -0.3581
  221MPD1    N1 3418   2.091   4.300  16.704  0.3584 -0.6574 -0.5614
  221MPD1    H6 3419   2.027   4.351  16.765 -0.9616 -2.4248 -0.4632
  221MPD1    H7 3420   2.184   4.333  16.730 -0.9837 -0.4329  3.8902
  222MPD1     C 3421   0.162   3.596   0.794  0.5166  0.2815 -0.6829
  222MPD1    C1 3422   0.196   3.527   0.680  0.0615 -0.2204  0.0645
  222MPD1    C2 3423   0.329   3.525   0.646 -0.3068 -0.1289 -0.1988
  222MPD1    C3 3424   0.426   3.588   0.723 -0.0872  0.5495  0.1471
  222MPD1    C4 3425   0.390   3.652   0.841  0.5052 -0.2684  0.4239
  222MPD1    C5 3426   0.258   3.652   0.880 -0.0742 -0.4455 -0.1315
  222MPD1     H 3427   0.367   3.486   0.552 -1.0579  2.8808 -1.7452
  222MPD1    H1 3428   0.454   3.697   0.917  1.4267 -2.8192  1.1814
  222MPD1    H2 3429   0.057   3.614   0.815  0.4246  0.0343 -0.9300
  222MPD1    H3 3430   0.218   3.696   0.970  2.3663  0.4543  0.5151
  222MPD1     N 3431   0.567   3.585   0.689 -0.0324  0.3444 -0.6940
  222MPD1    H5 3432   0.624   3.656   0.734 -0.5330 -0.1855  0.7740
  222MPD1    N1 3433   0.099   3.485   0.589  0.0690  0.0970  0.2212
  222MPD1    H6 3434   0.136   3.415   0.526 -1.0665  0.1710 -0.5356
  222MPD1    H7 3435   0.009   3.456   0.628 -0.7781  0.6878 -1.2591
  223MPD1     C 3436   1.584   3.278   0.597  0.0830 -0.0578 -0.0016
  223MPD1    C1 3437   1.563   3.416   0.606  0.7425 -0.4653  0.1377
  223MPD1    C2 3438   1.436   3.466   0.593  0.0811  0.4240 -0.6502
  223MPD1    C3 3439   1.332   3.394   0.550  0.3795  0.5442  0.8877
  223MPD1    C4 3440   1.353   3.261   0.535 -0.1337  0.0776  0.2366
  223MPD1    C5 3441   1.478   3.205   0.552 -0.4698 -0.1087 -0.7281
  223MPD1     H 3442   1.423   3.570   0.622 -1.2266  0.1362 -0.2115
  223MPD1    H1 3443   1.274   3.193   0.507 -0.2763 -0.2727  1.4786
  223MPD1    H2 3444   1.682   3.233   0.608 -0.3746 -1.1645 -0.4483
  223MPD1    H3 3445   1.488   3.097   0.546 -2.9914 -0.5106  2.4080
  223MPD1     N 3446   1.203   3.456   0.537 -0.1483 -0.3472 -0.5255
  223MPD1    H5 3447   1.194   3.556   0.550 -0.8492 -0.5136  0.3463
  223MPD1    N1 3448   1.668   3.501   0.659  0.1426 -0.2559  0.0332
  223MPD1    H6 3449   1.661   3.590   0.611  1.9165 -0.3041 -0.3203
  223MPD1    H7 3450   1.761   3.464   0.637  0.9564  1.4543  0.5422
  224MPD1     C 3451   2.238   4.654   8.889  0.1256 -0.8623 -0.0052
  224MPD1    C1 3452   2.157   0.033   8.920 -0.0146 -0.0687 -0.0738
  224MPD1    C2 3453   2.197   0.119   9.021 -0.5036  0.1673  0.0715
  224MPD1    C3 3454   2.325   0.105   9.068  0.3373  0.7648  0.2923
  224MPD1    C4 3455   2.408   0.005   9.023 -0.1542 -0.3209 -0.0323
  224MPD1    C5 3456   2.360   4.643   8.935  0.7762 -0.6921  0.8682
  224MPD1     H 3457   2.126   0.190   9.061  0.7036  0.4395  1.7159
  224MPD1    H1 3458   2.499   4.715   9.078  1.0819  0.4869 -1.7633
  224MPD1    H2 3459   2.203   4.581   8.817 -2.1647 -0.3369  0.5548
  224MPD1    H3 3460   2.426   4.560   8.910  3.2592  1.4896  0.1925
  224MPD1     N 3461   2.388   0.192   9.162  0.0602 -0.1576  0.2149
  224MPD1    H5 3462   2.481   0.172   9.196 -0.0428  0.6889  0.9963
  224MPD1    N1 3463   2.022   0.037   8.878  0.2777 -0.1229  0.1712
  224MPD1    H6 3464   1.979   0.128   8.865  1.4233  0.3273 -0.5011
  224MPD1    H7 3465   2.018   4.715   8.791 -1.9640  1.1430 -0.5121
  225MPD1     C 3466   3.964   1.271  12.742 -0.3752  0.3555  0.2840
  225MPD1    C1 3467   3.937   1.154  12.672 -0.0862 -0.0302  0.5474
  225MPD1    C2 3468   3.800   1.117  12.658 -0.0177 -0.6469 -0.1704
  225MPD1    C3 3469   3.700   1.182  12.736  0.5753  0.0346 -0.5681
  225MPD1    C4 3470   3.732   1.283  12.820 -0.5111 -0.5500 -0.0325
  225MPD1    C5 3471   3.865   1.330  12.817  0.1295 -0.1427 -0.0327
  225MPD1     H 3472   3.770   1.044  12.583 -2.1516  0.4204 -0.3685
  225MPD1    H1 3473   3.662   1.333  12.886 -1.2695  0.7312 -1.7841
  225MPD1    H2 3474   4.060   1.319  12.728  0.0127 -0.6714 -0.5742
  225MPD1    H3 3475   3.878   1.415  12.883 -0.1355  0.8496 -1.2730
  225MPD1     N 3476   3.564   1.149  12.719 -0.0469 -0.2123  0.3234
  225MPD1    H5 3477   3.502   1.220  12.759 -1.5776 -0.4919 -1.5787
  225MPD1    N1 3478   4.032   1.113  12.577  0.1573 -0.1541 -0.1724
  225MPD1    H6 3479   4.036   1.011  12.567  4.4607 -0.2886  3.2380
  225MPD1    H7 3480   4.124   1.149  12.599 -0.1834  0.6948 -0.1350
  226MPD1     C 3481   1.857   0.001   8.593  0.5730  0.3464 -0.2690
  226MPD1    C1 3482   1.903   4.598   8.586 -0.7084 -0.3293  0.5187
  226MPD1    C2 3483   2.034   4.579   8.555 -0.1132  0.6123 -0.2349
  226MPD1    C3 3484   2.123   4.691   8.554  1.0484 -0.7034 -0.1342
  226MPD1    C4 3485   2.068   0.085   8.549 -0.7581  0.6467  0.6273
  226MPD1    C5 3486   1.939   0.106   8.570 -0.3755 -1.1698 -0.1602
  226MPD1     H 3487   2.072   4.478   8.555 -2.5837 -0.2904  1.7333
  226MPD1    H1 3488   2.138   0.167   8.539 -1.9002  1.4892 -0.4307
  226MPD1    H2 3489   1.753   0.028   8.608  0.0879 -2.0791  0.7085
  226MPD1    H3 3490   1.895   0.205   8.573  0.7583 -0.6979  1.1452
  226MPD1     N 3491   2.265   4.684   8.545 -0.0346  0.2148 -0.1007
  226MPD1    H5 3492   2.315   0.041   8.545 -0.1522  0.2861 -2.0158
  226MPD1    N1 3493   1.808   4.495   8.576  0.3657 -0.5085  0.4026
  226MPD1    H6 3494   1.715   4.527   8.605  0.1576 -0.9983  0.2663
  226MPD1    H7 3495   1.831   4.419   8.640 -2.0712 -1.6009 -0.0260
  227MPD1     C 3496   2.756   0.490   9.000  0.0078  0.2221 -0.1866
  227MPD1    C1 3497   2.621   0.456   8.992  0.5627 -0.4750 -0.1335
  227MPD1    C2 3498   2.591   0.338   8.930  0.1907  0.1788  0.3326
  227MPD1    C3 3499   2.693   0.268   8.864 -0.2629 -0.3514 -0.0542
  227MPD1    C4 3500   2.817   0.323   8.868 -0.0328 -0.6525 -0.3481
  227MPD1    C5 3501   2.855   0.427   8.941  0.3583  0.3333  0.1734
  227MPD1     H 3502   2.493   0.291   8.939  0.0631  0.2069 -0.9019
  227MPD1    H1 3503   2.899   0.274   8.816  0.4611  0.0765 -0.2570
  227MPD1    H2 3504   2.782   0.579   9.056  3.1608 -0.2114 -0.9487
  227MPD1    H3 3505   2.958   0.452   8.964  0.1242  1.5863 -0.1692
  227MPD1     N 3506   2.646   0.149   8.797 -0.0880 -0.1314 -0.3490
  227MPD1    H5 3507   2.546   0.136   8.788 -0.4646 -0.0259  3.5081
  227MPD1    N1 3508   2.531   0.545   9.040 -0.2320 -0.0199  0.1883
  227MPD1    H6 3509   2.561   0.594   9.124  1.3507  0.7773 -0.8390
  227MPD1    H7 3510   2.433   0.519   9.035 -0.4447  0.9160 -0.3829
  228MPD1     C 3511   1.192   3.774  12.741 -0.1558 -0.0453  0.0214
  228MPD1    C1 3512   1.171   3.666  12.827  0.4428 -0.4655  0.9274
  228MPD1    C2 3513   1.047   3.608  12.839 -0.2560  0.4601  0.6818
  228MPD1    C3 3514   0.937   3.657  12.762  0.3555 -0.4881 -0.2485
  228MPD1    C4 3515   0.964   3.752  12.670 -0.4787  0.0493 -0.5557
  228MPD1    C5 3516   1.089   3.808  12.666 -0.0883 -0.2090  0.2459
  228MPD1     H 3517   1.026   3.520  12.899  1.6136  1.3208  2.6031
  228MPD1    H1 3518   0.888   3.795  12.606  0.0184  1.9312  0.1433
  228MPD1    H2 3519   1.285   3.829  12.740 -0.3703  0.3245  0.3075
  228MPD1    H3 3520   1.102   3.884  12.591  2.0644 -1.0763 -0.2578
  228MPD1     N 3521   0.816   3.583  12.777  0.1596  0.3513 -0.3686
  228MPD1    H5 3522   0.831   3.503  12.837 -1.9374  1.1018  1.1477
  228MPD1    N1 3523   1.274   3.626  12.912 -0.1037 -0.6881 -0.0807
  228MPD1    H6 3524   1.359   3.628  12.856  0.0448  0.5123  0.2018
  228MPD1    H7 3525   1.275   3.530  12.947 -1.7912 -1.7198 -2.9056
  229MPD1     C 3526   0.688   1.425  14.192 -0.0367  0.2133 -0.7363
  229MPD1    C1 3527   0.564   1.477  14.238 -0.2930 -0.0277 -1.0675
  229MPD1    C2 3528   0.559   1.522  14.369  0.2881  0.1258 -0.4203
  229MPD1    C3 3529   0.676   1.551  14.435  0.2477  1.0785 -0.7620
  229MPD1    C4 3530   0.794   1.515  14.382 -0.5999  0.0669 -0.0002
  229MPD1    C5 3531   0.796   1.443  14.267  0.2079  0.1408 -1.1493
  229MPD1     H 3532   0.465   1.539  14.421  0.3305 -0.8092 -0.0450
  229MPD1    H1 3533   0.889   1.535  14.430 -0.4027 -1.0240  0.0466
  229MPD1    H2 3534   0.702   1.356  14.110  0.7392 -0.9741  0.3904
  229MPD1    H3 3535   0.892   1.401  14.238 -0.8785 -1.1688 -2.8493
  229MPD1     N 3536   0.680   1.625  14.555  0.2886  0.1841  0.0279
  229MPD1    H5 3537   0.773   1.644  14.590  0.1087  0.6126  0.2794
  229MPD1    N1 3538   0.450   1.436  14.168 -0.0163 -0.0779 -0.3688
  229MPD1    H6 3539   0.374   1.503  14.173  1.4217  1.4937  0.3175
  229MPD1    H7 3540   0.470   1.431  14.068  0.0460  2.1060 -0.4545
  230MPD1     C 3541   0.312   1.949  15.519  0.6007 -0.6182  0.2180
  230MPD1    C1 3542   0.443   1.920  15.519  0.3061 -0.3748 -0.7554
  230MPD1    C2 3543   0.500   1.865  15.405  0.1296 -0.0923 -0.0759
  230MPD1    C3 3544   0.440   1.870  15.284  0.0843  0.3790 -0.4647
  230MPD1    C4 3545   0.312   1.925  15.284  0.1876 -0.0996  0.7187
  230MPD1    C5 3546   0.250   1.949  15.403  0.4374 -0.3227  0.0889
  230MPD1     H 3547   0.601   1.828  15.411  0.4711  0.7097 -0.9958
  230MPD1    H1 3548   0.249   1.924  15.196  1.6135  1.1186 -0.3231
  230MPD1    H2 3549   0.258   1.990  15.604 -0.2176 -1.1457 -0.0496
  230MPD1    H3 3550   0.145   1.971  15.393  0.8495  1.3052 -0.5701
  230MPD1     N 3551   0.509   1.832  15.173 -0.0657  0.1402  0.7074
  230MPD1    H5 3552   0.601   1.791  15.189 -0.7933 -2.2334 -1.1957
  230MPD1    N1 3553   0.510   1.901  15.639 -0.1106  0.5075  0.1080
  230MPD1    H6 3554   0.611   1.894  15.627 -0.3597  0.1152 -1.7524
  230MPD1    H7 3555   0.492   1.972  15.709 -2.4089 -0.5064  0.5470
  231MPD1     C 3556   3.154   3.621  14.790 -0.0987  0.2029 -0.0090
  231MPD1    C1 3557   3.213   3.497  14.779  0.7378  0.1492  0.0969
  231MPD1    C2 3558   3.348   3.491  14.803 -0.2736 -0.0460  0.2651
  231MPD1    C3 3559   3.425   3.598  14.836 -0.3167 -0.3420  0.3838
  231MPD1    C4 3560   3.362   3.715  14.856  0.5261 -0.1245 -0.3119
  231MPD1    C5 3561   3.228   3.728  14.836  0.5817  0.1268 -0.6400
  231MPD1     H 3562   3.393   3.393  14.794 -1.3052 -0.5047  0.0298
  231MPD1    H1 3563   3.423   3.804  14.868  1.0766 -0.5566  0.0542
  231MPD1    H2 3564   3.055   3.649  14.755  0.1965 -0.7732 -1.5725
  231MPD1    H3 3565   3.184   3.827  14.829  1.1460  0.3554 -0.9361
  231MPD1     N 3566   3.564   3.575  14.841 -0.0498 -0.8043 -0.0882
  231MPD1    H5 3567   3.596   3.480  14.826  0.3604 -0.5785 -0.6659
  231MPD1    N1 3568   3.156   3.398  14.699 -0.2962  0.6002  0.3280
  231MPD1    H6 3569   3.057   3.383  14.718 -0.6644  1.4107 -0.9505
  231MPD1    H7 3570   3.201   3.307  14.708  0.2895  0.6214 -2.2105
  232MPD1     C 3571   1.129   1.920  17.322 -0.0153  0.1401  0.2165
  232MPD1    C1 3572   1.013   1.913  17.248  0.4211  0.3702 -0.3771
  232MPD1    C2 3573   0.909   1.828  17.289 -0.2066 -0.3499 -0.2576
  232MPD1    C3 3574   0.924   1.756  17.406 -0.3755  0.5696 -0.0771
  232MPD1    C4 3575   1.036   1.769  17.477 -0.7768  0.6445  0.0609
  232MPD1    C5 3576   1.135   1.852  17.437 -0.6226  0.4248  0.0736
  232MPD1     H 3577   0.817   1.830  17.233 -0.1876  1.1506 -0.2515
  232MPD1    H1 3578   1.049   1.707  17.565  1.2077  0.9080 -0.0564
  232MPD1    H2 3579   1.210   1.985  17.294 -0.4133 -0.6823 -2.9116
  232MPD1    H3 3580   1.230   1.850  17.490  1.0833  1.2148 -2.9243
  232MPD1     N 3581   0.821   1.671  17.450  0.4274 -0.6582 -0.6286
  232MPD1    H5 3582   0.749   1.640  17.385  0.7803 -1.3735 -0.6769
  232MPD1    N1 3583   0.986   2.012  17.153 -0.4196  0.1793  1.1450
  232MPD1    H6 3584   1.057   2.083  17.135 -0.5309 -0.0236 -0.1306
  232MPD1    H7 3585   0.896   2.060  17.159  0.1652  1.4088  0.0612
  233MPD1     C 3586   1.021   0.340   0.497  0.2273 -0.1826 -0.6291
  233MPD1    C1 3587   1.142   0.297   0.451  0.1422 -0.6131 -0.4613
  233MPD1    C2 3588   1.232   0.228   0.537  0.2064  0.4065  0.2390
  233MPD1    C3 3589   1.208   0.212   0.674 -0.5256 -0.3066  1.3468
  233MPD1    C4 3590   1.087   0.258   0.722  0.1422  0.1665  0.2113
  233MPD1    C5 3591   0.992   0.327   0.638 -0.4881 -0.6745  0.3805
  233MPD1     H 3592   1.317   0.177   0.493 -1.4012 -0.1551 -2.1705
  233MPD1    H1 3593   1.068   0.235   0.826  0.3336 -1.9919 -0.2276
  233MPD1    H2 3594   0.948   0.391   0.435 -0.4913 -2.3705 -1.5672
  233MPD1    H3 3595   0.899   0.371   0.672  1.0202  2.2967  0.6754
  233MPD1     N 3596   1.310   0.167   0.763 -0.1061 -0.1012 -0.5942
  233MPD1    H5 3597   1.281   0.149   0.859  0.8174 -1.2103 -0.5191
  233MPD1    N1 3598   1.174   0.305   0.314  0.2733 -0.0223 -0.2881
  233MPD1    H6 3599   1.118   0.379   0.272 -0.9991 -0.3315  0.8785
  233MPD1    H7 3600   1.271   0.321   0.287  0.7802  2.3386  3.0026
  234MPD1     C 3601   4.115   0.196   9.987 -0.3696  0.2645  0.4125
  234MPD1    C1 3602   4.103   0.275   9.876 -0.1958 -0.8595  0.5514
  234MPD1    C2 3603   4.000   0.238   9.789  0.3677 -0.2057 -0.8743
  234MPD1    C3 3604   3.921   0.121   9.812 -0.1088  0.2816 -0.5038
  234MPD1    C4 3605   3.958   0.033   9.917  0.2347 -0.0018 -0.0072
  234MPD1    C5 3606   4.059   0.070   9.998 -0.0763  0.5941 -0.0643
  234MPD1     H 3607   3.974   0.291   9.698 -1.3184  2.3688  1.1149
  234MPD1    H1 3608   3.909   4.669   9.929 -1.3774  0.8353  0.0595
  234MPD1    H2 3609   4.174   0.231  10.071  1.3985  1.3333 -1.2723
  234MPD1    H3 3610   4.076   0.011  10.088 -3.9044 -1.4711 -0.6844
  234MPD1     N 3611   3.812   0.118   9.718  0.3452  0.4550 -0.2973
  234MPD1    H5 3612   3.791   0.204   9.667  1.4453  0.5770 -0.5510
  234MPD1    N1 3613   4.157   0.406   9.877  0.1324 -0.1250  1.1200
  234MPD1    H6 3614   4.249   0.397   9.920  1.5182  1.2839 -1.5307
  234MPD1    H7 3615   4.164   0.455   9.788  1.7226 -0.3766  1.1069
  235MPD1     C 3616   4.204   1.323  11.279 -0.4935  0.3511 -0.4085
  235MPD1    C1 3617   4.113   1.344  11.177 -0.0983  0.6554 -0.1153
  235MPD1    C2 3618   4.123   1.462  11.105  0.1640  0.6016  0.1426
  235MPD1    C3 3619   4.230   1.547  11.125  0.4718  0.1908 -1.1028
  235MPD1    C4 3620   4.313   1.534  11.231  0.4054 -0.5757 -0.3830
  235MPD1    C5 3621   4.298   1.413  11.302  0.1394  0.7845 -0.5399
  235MPD1     H 3622   4.066   1.479  11.014  2.7481  0.3227 -1.5312
  235MPD1    H1 3623   4.385   1.608  11.266  1.8980 -2.7706  1.2196
  235MPD1    H2 3624   4.204   1.237  11.345 -3.0717  0.5378 -0.1487
  235MPD1    H3 3625   4.358   1.407  11.392  1.5915 -0.0355 -1.5847
  235MPD1     N 3626   4.240   1.659  11.045 -0.3798 -0.3408  0.0422
  235MPD1    H5 3627   4.176   1.679  10.969  1.0673  0.6865 -0.9036
  235MPD1    N1 3628   4.005   1.255  11.161 -0.5127 -0.2398  0.4217
  235MPD1    H6 3629   3.964   1.271  11.069 -0.7747 -1.0436  0.3915
  235MPD1    H7 3630   4.026   1.157  11.178 -1.7288 -0.5402  0.2658
  236MPD1     C 3631   3.689   3.236   9.576  1.0028  0.3597 -0.6338
  236MPD1    C1 3632   3.697   3.113   9.515  0.0586 -0.3695  0.1374
  236MPD1    C2 3633   3.698   2.991   9.581 -0.3682 -0.1029  0.3179
  236MPD1    C3 3634   3.685   2.991   9.723 -0.4697  0.2977  0.1770
  236MPD1    C4 3635   3.669   3.115   9.783  0.1581 -0.5261 -0.0851
  236MPD1    C5 3636   3.672   3.234   9.707 -0.6714 -0.1406 -0.2283
  236MPD1     H 3637   3.691   2.901   9.521  1.9198 -0.6010  0.8350
  236MPD1    H1 3638   3.650   3.129   9.889  0.3478 -0.8614 -0.0076
  236MPD1    H2 3639   3.679   3.328   9.519  1.4728  1.1792  0.6118
  236MPD1    H3 3640   3.652   3.330   9.753 -0.0111 -0.5956  1.0303
  236MPD1     N 3641   3.683   2.880   9.811 -0.6499  0.2313  0.6069
  236MPD1    H5 3642   3.659   2.892   9.909  0.8039  2.2341  0.7008
  236MPD1    N1 3643   3.717   3.118   9.372  0.3655  0.5750  0.7684
  236MPD1    H6 3644   3.667   3.051   9.314 -0.8516  0.3356  2.0996
  236MPD1    H7 3645   3.700   3.209   9.329  0.1721 -0.2998 -1.0382
  237MPD1     C 3646   3.732   1.112  15.408 -0.0539 -0.4335 -0.9914
  237MPD1    C1 3647   3.817   1.100  15.514 -0.7106  0.1121  0.1743
  237MPD1    C2 3648   3.879   0.979  15.538 -0.4387 -0.0955 -1.0604
  237MPD1    C3 3649   3.854   0.873  15.451 -0.5824 -0.4242  0.1768
  237MPD1    C4 3650   3.776   0.888  15.344 -0.7577  0.1882  0.3190
  237MPD1    C5 3651   3.718   1.010  15.320 -0.0222  0.1748 -0.2691
  237MPD1     H 3652   3.948   0.972  15.622 -0.4087 -0.4219 -1.1117
  237MPD1    H1 3653   3.769   0.818  15.261  0.9636  1.3428 -0.8175
  237MPD1    H2 3654   3.682   1.206  15.390  1.6820  0.4084 -1.4418
  237MPD1    H3 3655   3.646   1.015  15.239  0.8080 -1.0467 -1.0883
  237MPD1     N 3656   3.914   0.748  15.472 -0.5089 -0.4439 -0.7930
  237MPD1    H5 3657   3.890   0.682  15.399  2.8159 -1.8145 -0.6652
  237MPD1    N1 3658   3.821   1.202  15.610  0.1643 -0.8102 -0.0246
  237MPD1    H6 3659   3.894   1.202  15.680  1.4167 -2.9208 -1.3181
  237MPD1    H7 3660   3.794   1.296  15.582  1.0288 -0.8270 -0.9246
  238MPD1     C 3661   1.002   3.764  15.832  0.8566 -0.0658  0.4245
  238MPD1    C1 3662   1.013   3.871  15.747 -0.2344  0.5145 -0.2119
  238MPD1    C2 3663   0.956   3.873  15.621 -0.2048 -0.2938  0.5383
  238MPD1    C3 3664   0.880   3.764  15.580  0.5488  0.1853  0.0797
  238MPD1    C4 3665   0.864   3.655  15.664 -0.3929  0.0370 -0.0284
  238MPD1    C5 3666   0.934   3.653  15.782 -0.5842  0.0169  0.1669
  238MPD1     H 3667   0.946   3.967  15.569 -2.7521 -0.7760  0.1516
  238MPD1    H1 3668   0.803   3.568  15.640  2.9629 -2.2560 -0.2618
  238MPD1    H2 3669   1.028   3.765  15.937  1.4293  0.3074  0.2819
  238MPD1    H3 3670   0.907   3.577  15.854 -3.0434  2.4435  1.8092
  238MPD1     N 3671   0.807   3.748  15.456  0.7740 -0.3434 -0.2670
  238MPD1    H5 3672   0.769   3.657  15.433 -0.3323 -0.4416  1.9225
  238MPD1    N1 3673   1.054   3.987  15.815  0.5755 -0.5281 -0.3836
  238MPD1    H6 3674   1.127   3.965  15.883 -0.1370  0.5877  0.7455
  238MPD1    H7 3675   1.080   4.063  15.752  0.0422  0.7903  0.9706
  239MPD1     C 3676   1.041   4.226  14.709 -0.2799 -0.2045  0.1952
  239MPD1    C1 3677   1.066   4.359  14.721 -0.0310  0.3667  0.3142
  239MPD1    C2 3678   1.033   4.437  14.614  0.4935  0.2662 -0.9008
  239MPD1    C3 3679   0.935   4.400  14.524  0.7091  0.0146 -0.4105
  239MPD1    C4 3680   0.896   4.265  14.523  0.3876  0.0026  0.2682
  239MPD1    C5 3681   0.959   4.185  14.615  0.4285 -0.2206 -0.4707
  239MPD1     H 3682   1.070   4.537  14.600 -0.1607  0.3184 -2.2682
  239MPD1    H1 3683   0.829   4.220  14.450 -0.1166  0.6723  0.3243
  239MPD1    H2 3684   1.079   4.157  14.784 -0.7661 -1.5801 -0.8227
  239MPD1    H3 3685   0.945   4.078  14.612  1.6091 -0.3701 -0.3131
  239MPD1     N 3686   0.896   4.480  14.417 -0.2632 -0.0721  0.0764
  239MPD1    H5 3687   0.825   4.448  14.352  1.8489 -0.5075 -2.0210
  239MPD1    N1 3688   1.162   4.406  14.816 -0.0805 -0.0110  0.8090
  239MPD1    H6 3689   1.157   4.507  14.825 -0.4876 -0.0425  0.8998
  239MPD1    H7 3690   1.152   4.368  14.909  2.2217 -1.6478  0.3935
  240MPD1     C 3691   0.046   4.268  14.100 -0.5779  0.1980 -0.1273
  240MPD1    C1 3692   0.082   4.136  14.090  0.4528  0.4939 -0.1845
  240MPD1    C2 3693   0.139   4.064  14.196  0.4810  0.1819  0.0962
  240MPD1    C3 3694   0.134   4.119  14.325  0.3823  0.4475  1.3396
  240MPD1    C4 3695   0.083   4.250  14.337 -0.1135 -0.6453  0.0687
  240MPD1    C5 3696   0.043   4.320  14.227 -0.1566 -0.0726  1.1679
  240MPD1     H 3697   0.177   3.963  14.188 -1.7662 -0.6139 -0.5781
  240MPD1    H1 3698   0.071   4.314  14.424 -1.4139 -1.2086  0.3018
  240MPD1    H2 3699   4.731   4.319  14.016 -1.3163 -1.6994 -0.8646
  240MPD1    H3 3700   4.719   4.413  14.235 -0.3241  0.2187 -3.0080
  240MPD1     N 3701   0.179   4.045  14.441  0.1127 -0.3024 -0.2049
  240MPD1    H5 3702   0.179   3.944  14.428  0.5732 -0.2690 -0.4681
  240MPD1    N1 3703   0.087   4.083  13.961  0.3923  0.0512 -0.0105
  240MPD1    H6 3704   0.006   4.108  13.905 -0.6726 -0.4933  1.3095
  240MPD1    H7 3705   0.103   3.983  13.955  2.1522  0.2991  0.5567
  241MPD1     C 3706   0.227   4.038  15.535 -0.4888 -0.3392  0.4800
  241MPD1    C1 3707   0.233   4.146  15.445  0.2216  0.3840 -0.2568
  241MPD1    C2 3708   0.236   4.120  15.310 -0.7028  0.4733 -0.8266
  241MPD1    C3 3709   0.276   3.993  15.264 -0.8228  0.2906 -0.3893
  241MPD1    C4 3710   0.287   3.891  15.354 -0.1798 -0.0738 -0.1951
  241MPD1    C5 3711   0.261   3.913  15.490 -0.1688 -0.2584 -0.3018
  241MPD1     H 3712   0.235   4.204  15.242 -2.7809  0.8266 -0.3477
  241MPD1    H1 3713   0.321   3.792  15.326  1.0362  0.0191  0.9143
  241MPD1    H2 3714   0.208   4.064  15.638  3.3570  0.5963  0.9323
  241MPD1    H3 3715   0.268   3.824  15.551 -1.9622  0.7113  1.2936
  241MPD1     N 3716   0.293   3.963  15.133  0.0963  0.0120  0.0277
  241MPD1    H5 3717   0.305   3.863  15.116 -1.4993 -0.9111  4.1435
  241MPD1    N1 3718   0.184   4.265  15.490 -0.0377 -0.1388  0.0465
  241MPD1    H6 3719   0.200   4.289  15.587 -1.3612  1.9795 -0.2681
  241MPD1    H7 3720   0.206   4.348  15.435 -0.7694 -0.5623 -0.8873
  242MPD1     C 3721   4.599   1.903  16.209 -0.8133 -0.1546 -0.0094
  242MPD1    C1 3722   4.483   1.898  16.131 -0.3254  0.2918 -0.2786
  242MPD1    C2 3723   4.489   1.943  16.003  0.7503  0.7734 -0.2889
  242MPD1    C3 3724   4.596   2.014  15.947 -0.0756 -0.3805  0.2619
  242MPD1    C4 3725   4.703   2.028  16.035  0.0282  0.5577  0.2505
  242MPD1    C5 3726   4.704   1.975  16.161 -0.9488  0.6861 -0.8614
  242MPD1     H 3727   4.401   1.928  15.942  0.7120  3.1243 -0.8385
  242MPD1    H1 3728   0.064   2.076  16.001 -0.2635 -1.0325 -2.7417
  242MPD1    H2 3729   4.597   1.859  16.308 -2.0232 -1.4665 -0.6064
  242MPD1    H3 3730   0.059   1.982  16.226 -0.3987 -2.2294 -1.2517
  242MPD1     N 3731   4.598   2.080  15.821  0.3012 -0.1052  0.7011
  242MPD1    H5 3732   4.683   2.133  15.801  0.2988 -0.5832 -0.6035
  242MPD1    N1 3733   4.381   1.816  16.181 -0.0439  0.4293  0.1482
  242MPD1    H6 3734   4.289   1.817  16.138 -0.3998 -2.1285  0.8424
  242MPD1    H7 3735   4.376   1.821  16.282  0.0786  3.6297  0.0028
  243MPD1     C 3736   1.823   0.847  17.586  0.0843  0.1754 -0.2618
  243MPD1    C1 3737   1.855   0.718  17.542  0.1680 -0.1821 -0.0379
  243MPD1    C2 3738   1.922   0.698  17.426 -0.8776  0.1438  0.0641
  243MPD1    C3 3739   1.979   0.808  17.356  0.0183 -0.1888  0.0012
  243MPD1    C4 3740   1.949   0.936  17.398  0.7289  0.2539 -0.0815
  243MPD1    C5 3741   1.882   0.954  17.521 -0.1406 -0.3302 -0.4633
  243MPD1     H 3742   1.944   0.597  17.395 -0.3441  0.5498 -0.8944
  243MPD1    H1 3743   1.995   1.018  17.344  0.7847  0.2527 -0.0360
  243MPD1    H2 3744   1.768   0.863  17.677 -0.4940 -0.3875 -0.5156
  243MPD1    H3 3745   1.874   1.058  17.553 -0.8360 -0.0615 -1.4941
  243MPD1     N 3746   2.063   0.785  17.243 -0.4764  0.4923  0.6046
  243MPD1    H5 3747   2.082   0.688  17.219  0.4532  0.4410  1.5525
  243MPD1    N1 3748   1.793   0.607  17.611  0.6371 -0.2502 -0.2625
  243MPD1    H6 3749   1.806   0.614  17.712 -1.6083  0.8543 -0.0374
  243MPD1    H7 3750   1.812   0.510  17.585 -2.0401 -0.4038 -1.6784
  244MPD1     C 3751   2.353   0.031  16.715 -0.3844 -0.1394  0.0492
  244MPD1    C1 3752   2.416   0.128  16.643 -0.4608  0.3213  0.3483
  244MPD1    C2 3753   2.426   0.256  16.700  0.2369 -0.4225 -0.2692
  244MPD1    C3 3754   2.372   0.285  16.822  0.2896 -0.9200  0.7378
  244MPD1    C4 3755   2.304   0.184  16.892  1.0682  0.3977  0.5617
  244MPD1    C5 3756   2.297   0.058  16.842 -0.6126 -0.1981  0.5271
  244MPD1     H 3757   2.472   0.338  16.647  0.1089  0.5043  1.0683
  244MPD1    H1 3758   2.247   0.214  16.979  0.9093  1.2377  0.1689
  244MPD1    H2 3759   2.346   4.664  16.670  1.2732 -0.8243  1.3171
  244MPD1    H3 3760   2.239   4.716  16.896  0.0435 -1.3001 -0.2591
  244MPD1     N 3761   2.369   0.425  16.853 -0.0740 -0.0701 -0.1821
  244MPD1    H5 3762   2.428   0.486  16.798 -0.2691 -0.3216 -0.6705
  244MPD1    N1 3763   2.435   0.103  16.508 -0.8402 -0.3623  0.0089
  244MPD1    H6 3764   2.456   0.004  16.494 -0.5713 -0.4007  0.6772
  244MPD1    H7 3765   2.518   0.158  16.486 -0.2390 -0.6444  1.5086
  245MPD1     C 3766   2.785   1.819  12.950  0.7401 -1.1715  0.2575
  245MPD1    C1 3767   2.816   1.820  13.089  0.3560  0.0883  0.5001
  245MPD1    C2 3768   2.916   1.907  13.136 -0.1974  0.2603 -0.7188
  245MPD1    C3 3769   2.964   2.008  13.050 -0.3588  0.2774  0.7503
  245MPD1    C4 3770   2.913   2.018  12.922 -0.8634 -0.0958  0.2206
  245MPD1    C5 3771   2.827   1.923  12.869 -0.1406  0.6633  0.1462
  245MPD1     H 3772   2.958   1.900  13.236 -0.5116 -0.2261 -0.6189
  245MPD1    H1 3773   2.958   2.090  12.855  0.6599 -0.7107  0.5759
  245MPD1    H2 3774   2.727   1.745  12.897  0.7168 -1.3525  0.5335
  245MPD1    H3 3775   2.794   1.931  12.766 -2.0573 -0.9570  0.6177
  245MPD1     N 3776   3.062   2.099  13.101 -0.3366 -0.2230  0.4070
  245MPD1    H5 3777   3.109   2.069  13.185 -0.4602  2.8303  1.5525
  245MPD1    N1 3778   2.762   1.719  13.167  0.3932  0.2726 -0.6646
  245MPD1    H6 3779   2.681   1.677  13.122  1.6838 -2.3249 -0.5918
  245MPD1    H7 3780   2.753   1.733  13.267 -1.0772 -0.4023 -0.7013
  246MPD1     C 3781   1.052   3.967  10.379 -0.0107  0.6026  0.3866
  246MPD1    C1 3782   0.981   3.983  10.497  0.2674 -0.3761 -0.4064
  246MPD1    C2 3783   0.841   3.974  10.489  0.1556  0.0877  0.1613
  246MPD1    C3 3784   0.774   3.942  10.370  0.1412  0.4196  0.7973
  246MPD1    C4 3785   0.856   3.909  10.258  0.7197  0.8370 -0.9485
  246MPD1    C5 3786   0.995   3.914  10.262  0.5467 -0.6208  0.5890
  246MPD1     H 3787   0.778   3.991  10.576  1.9243 -1.7090  1.7951
  246MPD1    H1 3788   0.818   3.855  10.173 -0.3595  0.0356  0.0416
  246MPD1    H2 3789   1.160   3.975  10.380  0.1282 -1.0522 -0.0932
  246MPD1    H3 3790   1.049   3.905  10.169  0.8218  0.2348  0.6664
  246MPD1     N 3791   0.629   3.933  10.380 -0.1517  0.2150  0.7837
  246MPD1    H5 3792   0.576   3.960  10.462  2.1754  1.4764  1.8885
  246MPD1    N1 3793   1.044   3.984  10.623  0.3831 -0.2004  0.3930
  246MPD1    H6 3794   0.986   4.020  10.699  0.0696  2.9410 -1.3618
  246MPD1    H7 3795   1.123   4.048  10.625  1.2347 -1.3033  2.4235
  247MPD1     C 3796   3.410   2.575  16.858  0.2276 -0.7479  0.3403
  247MPD1    C1 3797   3.471   2.482  16.937 -0.3738 -0.0911 -0.4413
  247MPD1    C2 3798   3.477   2.347  16.909  0.0701  0.7178 -0.5806
  247MPD1    C3 3799   3.428   2.304  16.783 -0.4166  0.6321  0.8840
  247MPD1    C4 3800   3.381   2.402  16.697  0.4429 -0.2854 -0.5205
  247MPD1    C5 3801   3.367   2.535  16.736  0.9330  0.4946 -0.9761
  247MPD1     H 3802   3.517   2.271  16.974  0.6851  1.5567  0.0284
  247MPD1    H1 3803   3.343   2.361  16.604  0.4793 -0.7205 -0.3458
  247MPD1    H2 3804   3.408   2.680  16.882 -0.8185 -0.4323 -1.1524
  247MPD1    H3 3805   3.324   2.607  16.667 -0.3775  1.0329  0.3876
  247MPD1     N 3806   3.414   2.170  16.743 -0.6163 -0.0374 -0.3328
  247MPD1    H5 3807   3.378   2.151  16.650  2.0175  0.8954 -1.5353
  247MPD1    N1 3808   3.514   2.523  17.066 -0.3362  0.0715  0.1995
  247MPD1    H6 3809   3.588   2.475  17.117 -1.0771 -1.2491  0.0474
  247MPD1    H7 3810   3.539   2.621  17.080  2.2634 -0.6462  0.5806
  248MPD1     C 3811   4.254   1.266   0.470 -0.4228 -0.4892 -0.3900
  248MPD1    C1 3812   4.142   1.338   0.507  0.3912 -0.6254 -0.7149
  248MPD1    C2 3813   4.014   1.283   0.493 -0.3268 -0.1803  0.3006
  248MPD1    C3 3814   3.988   1.173   0.419 -0.3665  0.3561  0.6952
  248MPD1    C4 3815   4.097   1.111   0.360  0.2332 -0.4989  0.3948
  248MPD1    C5 3816   4.223   1.153   0.393 -0.3832  0.4661  0.7597
  248MPD1     H 3817   3.930   1.337   0.536 -1.9291 -3.2843  1.0173
  248MPD1    H1 3818   4.077   1.023   0.300  0.0004  0.3488 -0.7621
  248MPD1    H2 3819   4.352   1.299   0.503 -0.1560  0.3786 -2.0266
  248MPD1    H3 3820   4.303   1.089   0.359  0.4570  0.8838  1.9583
  248MPD1     N 3821   3.855   1.139   0.412  0.6847  0.2601 -0.4779
  248MPD1    H5 3822   3.798   1.204   0.464  3.5593  1.9864  0.5149
  248MPD1    N1 3823   4.157   1.440   0.597 -0.3525 -0.2628 -0.0437
  248MPD1    H6 3824   4.245   1.488   0.579 -0.6835  0.6978  0.9129
  248MPD1    H7 3825   4.081   1.506   0.582  0.3837 -0.0148 -2.7567
  249MPD1     C 3826   3.240   4.706   9.790 -0.2412  0.3800  0.7925
  249MPD1    C1 3827   3.217   0.108   9.771  0.4087  0.1741  0.2404
  249MPD1    C2 3828   3.318   0.193   9.817  0.5263  0.2679  0.1363
  249MPD1    C3 3829   3.425   0.139   9.893 -0.2417 -0.2717  0.4217
  249MPD1    C4 3830   3.419   0.007   9.929  0.0261 -0.3472 -1.0759
  249MPD1    C5 3831   3.329   4.653   9.874  0.7009 -0.0843  0.1591
  249MPD1     H 3832   3.324   0.296   9.786  1.3220  0.0456 -0.4486
  249MPD1    H1 3833   3.485   4.695  10.003  2.2469  0.8619 -2.3340
  249MPD1    H2 3834   3.175   4.635   9.740  0.1271  1.1150 -0.7110
  249MPD1    H3 3835   3.332   4.549   9.905 -1.7364  0.0722  0.9369
  249MPD1     N 3836   3.531   0.222   9.940  0.6318  1.0996 -0.3330
  249MPD1    H5 3837   3.516   0.322   9.931  1.1558  1.0854 -1.3176
  249MPD1    N1 3838   3.121   0.146   9.676 -0.2411  0.0088  0.2662
  249MPD1    H6 3839   3.044   0.084   9.651 -0.7140  0.5593  0.3448
  249MPD1    H7 3840   3.069   0.232   9.692  2.3941  1.5590  0.4477
  250MPD2     C 3841   1.992   0.255  13.290  0.1931 -0.9215  0.0896
  250MPD2    C1 3842   1.943   0.358  13.207 -0.3119 -0.3010 -1.1984
  250MPD2    C2 3843   1.850   0.325  13.109  0.8084 -0.3048 -0.2728
  250MPD2    C3 3844   1.795   0.197  13.096  0.1384  0.4059 -0.2062
  250MPD2    C4 3845   1.844   0.101  13.176 -0.3362 -0.4361 -0.6448
  250MPD2    C5 3846   1.941   0.130  13.271 -0.1079 -0.6031  0.1401
  250MPD2     H 3847   1.807   0.405  13.050  2.1134  1.0487  0.6232
  250MPD2    H1 3848   1.831   4.726  13.156  0.2200 -0.7098  0.4544
  250MPD2    H2 3849   2.056   0.283  13.373 -0.5001  1.2872 -0.1345
  250MPD2    H3 3850   1.983   0.049  13.328  2.7674  0.2978 -0.7214
  250MPD2     N 3851   1.717   0.162  12.980 -0.2639 -0.4025  0.3402
  250MPD2    H5 3852   1.684   0.067  12.968  0.7495 -1.0281  2.3755
  250MPD2    N1 3853   1.986   0.492  13.220 -0.0390 -0.1653 -0.3636
  250MPD2    H7 3854   2.062   0.511  13.284  0.1194 -0.5715 -0.4321
  251TMC3    C1 3855   1.994   0.724  13.231 -0.0740 -0.0099 -0.4378
  251TMC3    C2 3856   1.918   0.837  13.232 -0.1668  0.2050  0.4171
  251TMC3    C3 3857   1.988   0.957  13.248 -0.1819 -0.8743 -0.2030
  251TMC3    C4 3858   2.136   0.722  13.242  0.5052 -0.7143 -0.3866
  251TMC3    C5 3859   2.195   0.844  13.248 -0.2254 -0.5475  0.2463
  251TMC3    C6 3860   2.124   0.963  13.273 -0.4047  0.1123 -0.1712
  251TMC3     C 3861   1.923   0.607  13.180 -0.0680 -0.1436  0.0500
  251TMC3     O 3862   1.811   0.624  13.131  0.3977  0.3109 -0.6842
  251TMC3     H 3863   1.810   0.839  13.216  0.1348 -0.3941 -1.6748
  251TMC3    H1 3864   2.195   0.632  13.224 -2.4320 -2.7432  0.0294
  251TMC3    H2 3865   2.164   1.061  13.292  0.9119 -0.0428 -2.1865
  251TMC3    C7 3866   2.341   0.850  13.236 -0.4916  0.0436  0.5256
  251TMC3    C8 3867   1.913   1.079  13.267 -0.1395  0.2369 -0.5555
  251TMC3    O1 3868   2.404   0.747  13.253 -0.3558 -0.1705 -0.2751
  251TMC3    O2 3869   1.836   1.069  13.363  0.7637  0.2049  0.0481
  252TMC3    C1 3870   2.866   1.819   9.888 -0.0378 -0.8846 -0.8392
  252TMC3    C2 3871   2.935   1.919   9.829 -0.0994 -0.3805 -0.4018
  252TMC3    C3 3872   2.896   2.048   9.851  0.5228 -0.2941  0.1820
  252TMC3    C4 3873   2.766   1.851   9.980 -0.4341 -0.2581 -0.5964
  252TMC3    C5 3874   2.750   1.981  10.019 -0.7712 -0.6089 -0.2219
  252TMC3    C6 3875   2.806   2.082   9.948 -0.1507 -0.4913 -0.1765
  252TMC3     C 3876   2.894   1.681   9.865  0.4311  0.3365 -0.7445
  252TMC3     O 3877   3.008   1.646   9.848 -0.2958 -0.1196 -0.1711
  252TMC3     H 3878   3.002   1.901   9.746  0.0663 -4.3021  0.6034
  252TMC3    H1 3879   2.716   1.768  10.028  0.2245 -1.6746 -2.3986
  252TMC3    H2 3880   2.763   2.181   9.954 -1.2839 -0.8790 -2.1575
  252TMC3    C7 3881   2.648   2.018  10.110 -0.0887  0.6958 -0.4638
  252TMC3    C8 3882   2.953   2.157   9.766  0.6289  0.3536 -0.4058
  252TMC3    O1 3883   2.670   2.121  10.178 -0.4672  0.0118 -0.4336
  252TMC3    O2 3884   2.970   2.126   9.651  0.2658 -0.7433 -0.2649
  253MPD2     C 3885   3.371   0.254  15.253  0.5078  0.0913  0.1060
  253MPD2    C1 3886   3.234   0.257  15.280 -0.3563  0.0808 -0.2922
  253MPD2    C2 3887   3.190   0.300  15.403  0.4808 -0.3541 -0.2607
  253MPD2    C3 3888   3.280   0.350  15.499  0.6375  0.2891 -0.2329
  253MPD2    C4 3889   3.414   0.347  15.469 -0.5841  0.1154  0.4205
  253MPD2    C5 3890   3.460   0.304  15.339 -0.5138  0.7242 -0.1913
  253MPD2     H 3891   3.082   0.296  15.403  0.4010  1.7051  1.2589
  253MPD2    H1 3892   3.477   0.375  15.553  0.9745 -1.8147 -0.1223
  253MPD2    H2 3893   3.413   0.227  15.157 -1.4544  0.3683 -0.8255
  253MPD2    H3 3894   3.566   0.308  15.314 -0.0710 -1.2583  1.3239
  253MPD2     N 3895   3.233   0.412  15.620 -0.0503 -1.0446  0.4392
  253MPD2    H5 3896   3.303   0.448  15.685 -0.6816 -1.4880  1.3731
  253MPD2    N1 3897   3.140   0.213  15.183 -0.3885  0.2164  0.5911
  253MPD2    H7 3898   3.044   0.237  15.204 -0.9716  0.1176 -1.8892
  254TMC3    C1 3899   3.107   0.496  15.787  0.8141 -0.3599 -0.4829
  254TMC3    C2 3900   2.992   0.556  15.827  0.2207  0.0662  0.3396
  254TMC3    C3 3901   2.976   0.588  15.960  0.3990  0.2787 -0.2423
  254TMC3    C4 3902   3.204   0.470  15.883  0.5121 -0.4279 -0.1658
  254TMC3    C5 3903   3.175   0.493  16.018  0.6694 -0.5727  0.7950
  254TMC3    C6 3904   3.069   0.569  16.057  0.5838 -0.3622 -0.2766
  254TMC3     C 3905   3.105   0.433  15.655 -0.6638  0.1821  0.7148
  254TMC3     O 3906   3.001   0.419  15.588  0.4199  0.1469  0.5721
  254TMC3     H 3907   2.909   0.563  15.758  0.0160  0.0377  0.5793
  254TMC3    H1 3908   3.289   0.408  15.859 -0.0556 -1.0475 -0.5710
  254TMC3    H2 3909   3.062   0.605  16.159  1.8707  0.5449 -0.5123
  254TMC3    C7 3910   3.287   0.502  16.110  0.1507  0.6547  0.4755
  254TMC3    C8 3911   2.892   0.706  15.986 -0.9777  0.1105 -0.4723
  254TMC3    O1 3912   3.255   0.518  16.225 -0.3427  0.1033  0.2726
  254TMC3    O2 3913   2.874   0.727  16.107  0.0950  0.4153  0.2512
  255MPD2     C 3914   1.508   3.173   9.489 -0.3978  0.9035  0.1235
  255MPD2    C1 3915   1.512   3.304   9.453 -0.2619 -0.9312  0.4994
  255MPD2    C2 3916   1.611   3.386   9.510  0.8076 -0.1817  0.7532
  255MPD2    C3 3917   1.688   3.341   9.615  0.8197 -0.5754  0.2103
  255MPD2    C4 3918   1.680   3.209   9.656  0.0969  0.5546  0.2155
  255MPD2    C5 3919   1.594   3.126   9.587 -0.3317 -0.1555  0.0693
  255MPD2     H 3920   1.625   3.489   9.480  3.2732 -1.0946 -1.2476
  255MPD2    H1 3921   1.744   3.168   9.732 -0.7532  3.5802  2.5654
  255MPD2    H2 3922   1.441   3.101   9.443 -0.3367  1.0001 -0.1131
  255MPD2    H3 3923   1.590   3.022   9.616 -0.8233 -0.1115  0.1548
  255MPD2     N 3924   1.779   3.441   9.666  0.3940 -0.0532  0.3611
  255MPD2    H5 3925   1.775   3.531   9.621  0.1258 -0.1600  0.1731
  255MPD2    N1 3926   1.418   3.350   9.362  0.1239  0.3379  0.6156
  255MPD2    H7 3927   1.345   3.282   9.340  1.2436 -1.1366  1.4343
  256TMC3    C1 3928   1.271   3.502   9.247 -0.3833 -0.0269  0.1808
  256TMC3    C2 3929   1.258   3.624   9.188 -0.4951  0.2823  0.4054
  256TMC3    C3 3930   1.124   3.660   9.166  0.2166  0.0351  0.0271
  256TMC3    C4 3931   1.167   3.432   9.304 -0.0656 -1.0199 -0.2337
  256TMC3    C5 3932   1.042   3.472   9.283  0.3834 -0.0901 -0.3485
  256TMC3    C6 3933   1.016   3.588   9.206  0.0180 -0.4958  0.0138
  256TMC3     C 3934   1.403   3.477   9.301 -0.2015 -0.1229 -0.3406
  256TMC3     O 3935   1.478   3.575   9.299 -0.8066  0.1442 -0.3870
  256TMC3     H 3936   1.334   3.666   9.122 -0.8250 -0.5251 -0.4822
  256TMC3    H1 3937   1.185   3.352   9.375 -0.3719  0.8851  2.0257
  256TMC3    H2 3938   0.913   3.623   9.197  0.0143 -0.3721  0.5525
  256TMC3    C7 3939   0.941   3.413   9.366  0.3895  0.1524  0.0695
  256TMC3    C8 3940   1.091   3.796   9.109  0.2150  0.2053 -0.4266
  256TMC3    O1 3941   0.981   3.332   9.447 -0.1825 -0.9715  0.3836
  256TMC3    O2 3942   0.976   3.812   9.075  0.4648  0.3828 -0.2001
  257MPD2     C 3943   0.563   0.478  13.628  0.5795  0.4777  0.2227
  257MPD2    C1 3944   0.521   0.409  13.512 -0.5871 -0.1939  1.4167
  257MPD2    C2 3945   0.496   0.272  13.513 -0.1308 -0.5853  0.4653
  257MPD2    C3 3946   0.530   0.202  13.623  0.3880 -0.2920  0.0396
  257MPD2    C4 3947   0.572   0.271  13.740  0.1738 -0.3527  0.2952
  257MPD2    C5 3948   0.583   0.409  13.745  0.0058  0.5700  0.7691
  257MPD2     H 3949   0.466   0.217  13.425 -2.3909  0.0157  0.8513
  257MPD2    H1 3950   0.605   0.217  13.828 -0.3900 -1.0119  0.0984
  257MPD2    H2 3951   0.580   0.585  13.635  1.3570  0.2041  2.5977
  257MPD2    H3 3952   0.616   0.453  13.838  0.9321  2.4701 -0.4432
  257MPD2     N 3953   0.525   0.059  13.619  0.1583  0.6435  0.1454
  257MPD2    H5 3954   0.489   0.027  13.530 -1.6444  0.7827  0.8174
  257MPD2    N1 3955   0.501   0.485  13.394 -0.1403  0.3833 -0.1296
  257MPD2    H7 3956   0.526   0.582  13.408 -0.0382  0.4770 -0.9417
  258TMC3    C1 3957   0.570   4.568  13.676 -0.5461 -0.2958  0.1260
  258TMC3    C2 3958   0.560   4.537  13.534  1.2502  0.4720  0.3562
  258TMC3    C3 3959   0.594   4.409  13.500  0.3508  0.2865  0.1670
  258TMC3    C4 3960   0.622   4.481  13.773 -0.1953  0.0284 -0.2773
  258TMC3    C5 3961   0.662   4.361  13.725  0.3027  0.4593 -0.2666
  258TMC3    C6 3962   0.647   4.321  13.594  0.3075  0.1462  0.4179
  258TMC3     C 3963   0.565   4.704  13.718 -0.2241  0.0412 -0.0135
  258TMC3     O 3964   0.573   4.730  13.837 -0.4096 -0.3285 -0.1525
  258TMC3     H 3965   0.547   4.614  13.459  0.7663 -1.6046 -1.6826
  258TMC3    H1 3966   0.637   4.501  13.879  0.9327 -2.6551  0.0653
  258TMC3    H2 3967   0.688   4.225  13.569 -2.0486 -0.6116 -0.5686
  258TMC3    C7 3968   0.703   4.258  13.816  0.0514 -0.0396 -0.5957
  258TMC3    C8 3969   0.568   4.360  13.365  0.1004  0.2168 -0.5723
  258TMC3    O1 3970   0.669   4.147  13.785  0.1712 -1.0013  0.2209
  258TMC3    O2 3971   0.604   4.241  13.341  0.1938 -0.2783 -0.3740
  259MPD2     C 3972   4.140   2.091   0.199  0.3174  0.2217 -0.4052
  259MPD2    C1 3973   4.195   1.977   0.260 -0.4667 -0.2057  0.5828
  259MPD2    C2 3974   4.313   1.936   0.204  0.0493 -0.5125 -0.0517
  259MPD2    C3 3975   4.384   2.006   0.111 -0.2690  0.0920  0.4969
  259MPD2    C4 3976   4.327   2.119   0.056  0.0060  0.4603  0.0032
  259MPD2    C5 3977   4.198   2.165   0.096  0.7165 -0.3354 -0.5130
  259MPD2     H 3978   4.371   1.859   0.255 -0.4294 -0.0925  1.0987
  259MPD2    H1 3979   4.377   2.187  17.712  0.0714 -0.8653 -1.2666
  259MPD2    H2 3980   4.048   2.131   0.241  0.2041 -1.3264  0.8083
  259MPD2    H3 3981   4.148   2.252   0.055  0.0580  0.0537  1.1157
  259MPD2     N 3982   4.513   1.966   0.073 -0.0601 -0.0045  0.2075
  259MPD2    H5 3983   4.547   1.878   0.111  0.1235  0.6272  1.5359
  259MPD2    N1 3984   4.137   1.928   0.379 -0.2864 -0.5041 -0.4142
  259MPD2    H7 3985   4.088   2.001   0.430  1.5199  1.6558 -1.7727
  260TMC3    C1 3986   0.020   1.998   0.011 -0.8793  0.1834 -0.6319
  260TMC3    C2 3987   0.089   2.023  17.617 -0.0565 -0.2620 -0.2466
  260TMC3    C3 3988   0.204   1.959  17.595  0.3507  0.1189 -0.2256
  260TMC3    C4 3989   0.060   1.909   0.105 -0.2254 -0.4242  0.1822
  260TMC3    C5 3990   0.181   1.847   0.084  0.3190 -0.1447  0.2208
  260TMC3    C6 3991   0.253   1.877  17.691 -0.3951  1.0792 -0.1660
  260TMC3     C 3992   4.606   2.047   0.012 -0.3550  0.6563 -0.2408
  260TMC3     O 3993   4.593   2.147  17.664  0.0376  0.2623  0.0170
  260TMC3     H 3994   0.045   2.076  17.534  0.1812  0.1807 -0.0865
  260TMC3    H1 3995   4.719   1.882   0.181 -0.6272 -0.2801 -0.1484
  260TMC3    H2 3996   0.354   1.839  17.688 -0.3132  1.2368  0.5932
  260TMC3    C7 3997   0.201   1.709   0.141  0.2522  0.0080 -0.2026
  260TMC3    C8 3998   0.230   1.913  17.453  0.3812 -0.1051  0.2549
  260TMC3    O1 3999   0.253   1.627   0.064  0.1160  0.6052 -0.2614
  260TMC3    O2 4000   0.189   1.975  17.356  0.3769  0.3399  0.3639
  261MPD2     C 4001   1.123   0.217  12.390 -0.0597  0.2421 -0.1971
  261MPD2    C1 4002   1.236   0.272  12.340 -0.3740 -0.6701  1.0872
  261MPD2    C2 4003   1.230   0.342  12.215 -0.6991 -0.5878  0.1691
  261MPD2    C3 4004   1.110   0.353  12.144 -0.3403  0.1593  0.2509
  261MPD2    C4 4005   1.003   0.280  12.193 -0.5278  0.4054 -0.3845
  261MPD2    C5 4006   1.013   0.206  12.312 -0.4515  0.8453 -0.3935
  261MPD2     H 4007   1.319   0.383  12.170 -1.3060 -0.0321 -0.5050
  261MPD2    H1 4008   0.907   0.267  12.144 -0.1738 -0.0943 -0.9343
  261MPD2    H2 4009   1.120   0.165  12.485 -2.6468 -0.6494 -0.7545
  261MPD2    H3 4010   0.923   0.155  12.343 -1.9913  2.3446 -2.4521
  261MPD2     N 4011   1.104   0.434  12.028 -0.2262 -0.1462 -0.2817
  261MPD2    H5 4012   1.184   0.486  11.994  0.9359 -0.5327  1.8437
  261MPD2    N1 4013   1.359   0.257  12.400 -0.1617  0.0297  0.1499
  261MPD2    H7 4014   1.446   0.264  12.347  0.0520  0.2592  0.5300
  262TMC3    C1 4015   0.989   0.592  11.894 -0.6085  0.0428  0.2844
  262TMC3    C2 4016   0.880   0.673  11.918  0.9448  0.0821 -0.1754
  262TMC3    C3 4017   0.874   0.796  11.851 -0.1165  0.7940  0.2504
  262TMC3    C4 4018   1.079   0.623  11.786 -0.2754 -0.0348 -0.0810
  262TMC3    C5 4019   1.068   0.749  11.724 -0.1155 -0.2136  0.1371
  262TMC3    C6 4020   0.974   0.835  11.763 -0.6278  0.1158  0.1252
  262TMC3     C 4021   0.983   0.459  11.959  0.2281 -0.1919  0.0869
  262TMC3     O 4022   0.872   0.408  11.972 -0.3092 -0.2415  0.1926
  262TMC3     H 4023   0.811   0.650  11.999  1.0868 -1.3749 -0.4696
  262TMC3    H1 4024   1.153   0.549  11.758 -0.0536 -0.8277  2.5842
  262TMC3    H2 4025   0.975   0.938  11.730 -0.1956 -0.0076 -0.2438
  262TMC3    C7 4026   1.126   0.770  11.594 -0.1314  0.3622  0.1860
  262TMC3    C8 4027   0.786   0.905  11.891  0.5720 -0.0940  0.0070
  262TMC3    O1 4028   1.191   0.675  11.558  0.1165  0.6125  0.1722
  262TMC3    O2 4029   0.807   1.014  11.838 -0.3127  0.0803  0.2076
  263MPD2     C 4030   2.116   4.503  11.370  0.1803 -0.4924  0.3212
  263MPD2    C1 4031   2.200   4.606  11.338  0.1408  0.8300  0.0839
  263MPD2    C2 4032   2.154   4.707  11.259 -0.1453 -0.2617  0.3197
  263MPD2    C3 4033   2.034   4.692  11.196  0.0880 -0.3975 -0.1259
  263MPD2    C4 4034   1.960   4.580  11.217  0.3748  0.2111 -0.2633
  263MPD2    C5 4035   2.002   4.480  11.298  0.0463 -0.7768 -0.2994
  263MPD2     H 4036   2.223   0.059  11.246 -0.2994 -0.4696 -1.7382
  263MPD2    H1 4037   1.868   4.563  11.161 -1.0406  1.5350  1.6500
  263MPD2    H2 4038   2.153   4.419  11.428  1.7563 -0.1586 -0.1942
  263MPD2    H3 4039   1.939   4.395  11.320  0.4912 -1.2345 -0.7603
  263MPD2     N 4040   1.990   0.078  11.129  0.4199 -0.3888 -0.3435
  263MPD2    H5 4041   2.058   0.153  11.125  2.1355 -1.9267 -0.2380
  263MPD2    N1 4042   2.324   4.607  11.398 -1.1681 -0.1801 -0.2601
  263MPD2    H7 4043   2.340   4.533  11.466  1.0540  3.9852  3.7764
  264TMC3    C1 4044   1.868   0.225  11.002  0.1358 -0.1494  0.2665
  264TMC3    C2 4045   1.900   0.328  11.081  0.0215 -0.2043 -0.1028
  264TMC3    C3 4046   1.942   0.442  11.019 -0.8082  0.4485  0.1882
  264TMC3    C4 4047   1.891   0.228  10.868  0.6612  0.2631 -0.0824
  264TMC3    C5 4048   1.941   0.338  10.809  0.1899 -0.5048  0.5964
  264TMC3    C6 4049   1.958   0.454  10.882 -0.1345 -1.1225 -0.1657
  264TMC3     C 4050   1.867   0.096  11.064 -0.0577 -0.5858 -0.3261
  264TMC3     O 4051   1.804   0.008  11.010 -0.5594 -0.5388 -0.6171
  264TMC3     H 4052   1.898   0.334  11.190  0.6142  0.7637 -0.1438
  264TMC3    H1 4053   1.881   0.132  10.817  2.1623 -1.9481  3.8108
  264TMC3    H2 4054   1.993   0.545  10.836  1.0242 -1.4825 -0.0023
  264TMC3    C7 4055   2.007   0.344  10.682 -0.3390  0.2990 -0.4274
  264TMC3    C8 4056   1.987   0.560  11.093  0.1533  0.4340  0.0261
  264TMC3    O1 4057   2.094   0.427  10.669  0.6688  0.3125 -0.3700
  264TMC3    O2 4058   2.006   0.654  11.017 -0.7509 -0.1640 -0.0279
  265MPD2     C 4059   4.224   0.098  15.280 -0.0503 -0.0879 -0.7827
  265MPD2    C1 4060   4.341   0.177  15.262 -0.2054  0.5159 -0.4734
  265MPD2    C2 4061   4.427   0.146  15.148 -0.5406  0.2754  0.6084
  265MPD2    C3 4062   4.403   0.024  15.082  0.3235 -0.2550  0.0518
  265MPD2    C4 4063   4.300   4.676  15.115  0.2021 -0.1074 -0.9972
  265MPD2    C5 4064   4.210   4.708  15.212 -0.1786 -0.4035  0.3227
  265MPD2     H 4065   4.512   0.209  15.126  0.0251 -0.5535  0.4265
  265MPD2    H1 4066   4.277   4.579  15.072 -0.3753  0.4796 -2.0108
  265MPD2    H2 4067   4.147   0.120  15.352  1.0442 -0.6012  0.5514
  265MPD2    H3 4068   4.119   4.654  15.231  1.6328 -2.6440  2.6816
  265MPD2     N 4069   4.493   4.710  14.980  0.0511 -0.2612 -0.9043
  265MPD2    H5 4070   4.473   4.612  14.959  0.1913 -0.6379  0.7724
  265MPD2    N1 4071   4.356   0.303  15.331  0.7697 -0.0844  0.5088
  265MPD2    H7 4072   4.429   0.369  15.307  1.5718 -0.9117  0.6733
  266TMC3    C1 4073   4.326   0.469  15.502 -0.1247 -0.3400  0.9906
  266TMC3    C2 4074   4.330   0.480  15.634 -0.0144 -0.1964 -0.0200
  266TMC3    C3 4075   4.350   0.601  15.694 -0.1638 -0.1042 -0.6950
  266TMC3    C4 4076   4.325   0.585  15.420 -0.5417 -0.2038  0.4242
  266TMC3    C5 4077   4.349   0.704  15.483 -0.6465 -0.4459  0.7812
  266TMC3    C6 4078   4.351   0.712  15.615  0.3135  0.0984  0.2229
  266TMC3     C 4079   4.291   0.332  15.450 -0.2034 -0.3032  0.6656
  266TMC3     O 4080   4.220   0.254  15.515 -0.9624 -0.1476  0.0563
  266TMC3     H 4081   4.338   0.387  15.689 -1.3287  0.7361  1.7500
  266TMC3    H1 4082   4.328   0.578  15.312  0.9587  0.0648  0.4468
  266TMC3    H2 4083   4.366   0.814  15.650  1.6210 -1.1661  3.3746
  266TMC3    C7 4084   4.298   0.818  15.408  0.2037  0.2886 -0.2945
  266TMC3    C8 4085   4.446   0.585  15.805  0.0442  0.1845  0.0234
  266TMC3    O1 4086   4.218   0.786  15.319  0.4143  0.0398 -0.0056
  266TMC3    O2 4087   4.486   0.472  15.832 -0.4344  0.7712  0.4774
  267MPD2     C 4088   2.575   1.930   0.546 -0.0129 -0.5142 -0.6382
  267MPD2    C1 4089   2.505   2.048   0.560  0.8149  0.5659 -0.1810
  267MPD2    C2 4090   2.465   2.120   0.450  0.1047 -0.1207 -0.0141
  267MPD2    C3 4091   2.479   2.058   0.328  0.3816 -0.1153 -0.3078
  267MPD2    C4 4092   2.549   1.941   0.311 -0.3429 -0.1255  0.9529
  267MPD2    C5 4093   2.603   1.877   0.423  0.1254  0.2979 -0.0283
  267MPD2     H 4094   2.396   2.203   0.460  0.0126 -0.1252 -0.5588
  267MPD2    H1 4095   2.567   1.902   0.211  1.5400 -1.9017  2.0005
  267MPD2    H2 4096   2.615   1.868   0.625 -0.9555 -0.2555  0.0328
  267MPD2    H3 4097   2.661   1.787   0.404 -1.2448 -0.5017 -0.4526
  267MPD2     N 4098   2.435   2.119   0.206 -0.5995 -0.1675 -0.0912
  267MPD2    H5 4099   2.439   2.049   0.133  0.0101 -0.3220  0.0936
  267MPD2    N1 4100   2.483   2.088   0.693 -0.2081  0.1954 -0.0614
  267MPD2    H7 4101   2.518   2.017   0.757 -1.9649 -2.4601 -2.0167
  268TMC3    C1 4102   2.427   2.208   0.887 -0.0923  0.2133 -0.3280
  268TMC3    C2 4103   2.471   2.334   0.908  0.2316  1.2685  0.5308
  268TMC3    C3 4104   2.599   2.360   0.957 -0.7079  0.2303 -0.2714
  268TMC3    C4 4105   2.495   2.104   0.952  0.0359  0.1902  0.3002
  268TMC3    C5 4106   2.615   2.128   1.013 -0.5803 -0.4116 -0.4073
  268TMC3    C6 4107   2.667   2.252   1.002 -0.3281  0.2720 -0.5518
  268TMC3     C 4108   2.418   2.197   0.743 -0.7579  0.4688  0.1215
  268TMC3     O 4109   2.382   2.296   0.683 -0.6440  0.3684 -0.1755
  268TMC3     H 4110   2.411   2.419   0.879 -0.7497 -0.1784 -1.7379
  268TMC3    H1 4111   2.440   2.010   0.954  1.6575 -0.7347  1.6475
  268TMC3    H2 4112   2.772   2.268   1.025 -0.3519  0.3732 -0.5129
  268TMC3    C7 4113   2.686   2.006   1.066  0.3988 -0.5263  0.4296
  268TMC3    C8 4114   2.675   2.451   0.880  0.5907  1.1324 -0.3767
  268TMC3    O1 4115   2.659   1.900   1.012  0.4955 -0.3457  0.4574
  268TMC3    O2 4116   2.791   2.469   0.919  0.1218 -0.3311 -0.5324
  269MPD2     C 4117   2.565   1.039  15.455  0.9467 -0.0625  0.3900
  269MPD2    C1 4118   2.512   1.075  15.579  0.2873  0.2807  0.2412
  269MPD2    C2 4119   2.511   1.204  15.619 -0.1435 -0.2025 -0.2124
  269MPD2    C3 4120   2.560   1.307  15.532  0.3338  0.8321 -0.2398
  269MPD2    C4 4121   2.613   1.274  15.408  0.3581 -0.5667 -0.4894
  269MPD2    C5 4122   2.612   1.141  15.375  0.3707  0.3195  1.3891
  269MPD2     H 4123   2.467   1.227  15.716 -0.3082 -1.1572 -0.0633
  269MPD2    H1 4124   2.659   1.350  15.346 -0.9688  0.8984  0.3374
  269MPD2    H2 4125   2.571   0.938  15.415  1.0546 -0.4684  1.4470
  269MPD2    H3 4126   2.649   1.110  15.278 -2.6890  1.1304 -0.0270
  269MPD2     N 4127   2.559   1.444  15.577  0.3160  0.6722  0.1479
  269MPD2    H5 4128   2.520   1.470  15.666  0.5179 -0.0654  0.4568
  269MPD2    N1 4129   2.469   0.963  15.659  0.7641  0.6135 -0.0673
  269MPD2    H7 4130   2.496   0.869  15.631  1.3363  0.2619  1.6352
  270TMC3    C1 4131   2.355   0.847  15.834 -0.2937  0.0528 -0.2446
  270TMC3    C2 4132   2.226   0.841  15.882  0.7396 -0.1659 -0.0933
  270TMC3    C3 4133   2.178   0.719  15.930 -0.2444 -0.3337  0.2147
  270TMC3    C4 4134   2.435   0.736  15.835 -0.2806  0.8599 -0.0178
  270TMC3    C5 4135   2.381   0.624  15.881  0.2450 -0.1678 -0.5382
  270TMC3    C6 4136   2.255   0.612  15.934 -0.2567  0.0290  0.0605
  270TMC3     C 4137   2.385   0.974  15.768 -0.6624  0.1710  0.4219
  270TMC3     O 4138   2.325   1.071  15.803 -0.5095 -0.4713 -0.0120
  270TMC3     H 4139   2.157   0.924  15.870  0.2352 -0.7228 -0.9978
  270TMC3    H1 4140   2.528   0.729  15.780  0.3412  1.1375  0.9931
  270TMC3    H2 4141   2.223   0.523  15.987 -1.3283  1.0751  1.1445
  270TMC3    C7 4142   2.455   0.502  15.874 -0.0379 -0.2834  0.3734
  270TMC3    C8 4143   2.060   0.689  15.852  0.1222  0.2707 -0.0744
  270TMC3    O1 4144   2.576   0.507  15.854 -0.2810  0.0938 -0.0439
  270TMC3    O2 4145   1.970   0.775  15.856  0.1392  0.7877 -0.0453
  271MPD2     C 4146   1.259   0.122  14.193  0.5867  0.3561  0.4773
  271MPD2    C1 4147   1.296   0.212  14.289  0.3907  0.3766  0.0843
  271MPD2    C2 4148   1.264   0.346  14.271  0.0786 -0.5868  0.2648
  271MPD2    C3 4149   1.188   0.389  14.162 -0.6902 -0.0616  0.3223
  271MPD2    C4 4150   1.161   0.299  14.063 -0.8865 -0.3173  0.5536
  271MPD2    C5 4151   1.195   0.169  14.080  0.6650  0.6233  0.6459
  271MPD2     H 4152   1.295   0.420  14.344 -0.3817 -0.7167  0.5907
  271MPD2    H1 4153   1.109   0.322  13.971  0.8661  2.2237  0.1956
  271MPD2    H2 4154   1.294   0.020  14.184 -0.1222  0.1921 -0.4719
  271MPD2    H3 4155   1.168   0.102  13.999  1.7987  0.8557  0.0718
  271MPD2     N 4156   1.144   0.524  14.142 -0.0489  0.1057  0.5120
  271MPD2    H5 4157   1.098   0.546  14.055  0.1647  0.0748  0.3906
  271MPD2    N1 4158   1.378   0.182  14.400 -0.2032 -1.1626 -0.1544
  271MPD2    H7 4159   1.382   0.260  14.465  1.8513 -1.4876  0.1063
  272TMC3    C1 4160   1.516   0.066  14.540  0.1703  0.1372  0.2407
  272TMC3    C2 4161   1.643   0.014  14.530 -0.0569 -0.6176  0.0401
  272TMC3    C3 4162   1.717   0.028  14.638 -0.7323  0.6411 -0.4376
  272TMC3    C4 4163   1.469   0.130  14.652 -0.0625 -0.0088  0.3078
  272TMC3    C5 4164   1.555   0.138  14.760  0.0823  1.2421 -0.3303
  272TMC3    C6 4165   1.677   0.085  14.757 -0.3470 -0.1171 -0.3942
  272TMC3     C 4166   1.435   0.062  14.420 -0.5513 -0.3592  0.3965
  272TMC3     O 4167   1.449   4.705  14.340 -0.1468 -0.3080 -0.4934
  272TMC3     H 4168   1.674   4.680  14.449 -0.1421 -1.5129  0.7339
  272TMC3    H1 4169   1.369   0.171  14.655  0.1960  0.8090 -2.5300
  272TMC3    H2 4170   1.739   0.069  14.845 -0.4042 -0.3107 -0.3895
  272TMC3    C7 4171   1.502   0.171  14.894  0.4932 -0.2346 -1.2121
  272TMC3    C8 4172   1.846   4.683  14.630  0.2487  0.3386  0.1693
  272TMC3    O1 4173   1.386   0.138  14.918  0.7499  0.0967 -0.3056
  272TMC3    O2 4174   1.866   4.616  14.525 -0.0022 -0.2514 -0.4564
  273MPD2     C 4175   2.827   3.670  11.311 -0.7668  0.3173  0.7826
  273MPD2    C1 4176   2.949   3.738  11.314 -0.2047 -0.8327  0.0748
  273MPD2    C2 4177   2.997   3.783  11.191  1.0797  0.0051  0.8536
  273MPD2    C3 4178   2.922   3.777  11.077 -0.0932  0.4988  0.1675
  273MPD2    C4 4179   2.805   3.709  11.077  0.1516  0.5137  0.0587
  273MPD2    C5 4180   2.755   3.650  11.192  0.8013  0.1411 -0.5316
  273MPD2     H 4181   3.091   3.835  11.172  1.8118 -1.5975  0.0532
  273MPD2    H1 4182   2.748   3.694  10.986  0.4946  0.0009 -0.0720
  273MPD2    H2 4183   2.782   3.637  11.404 -0.6893 -0.4552  0.5536
  273MPD2    H3 4184   2.665   3.590  11.181 -0.1766  1.6239 -0.6697
  273MPD2     N 4185   2.945   3.855  10.960 -0.4097 -0.0445 -0.8400
  273MPD2    H5 4186   2.882   3.844  10.881 -2.4109 -2.2248  1.0742
  273MPD2    N1 4187   3.009   3.774  11.431  0.0043  0.4870 -0.0201
  273MPD2    H7 4188   2.959   3.750  11.516  3.1752  0.5250  1.8353
  274TMC3    C1 4189   3.034   4.034  10.826  0.3789 -0.5515 -0.9840
  274TMC3    C2 4190   2.937   4.014  10.730 -0.3281 -0.8162 -0.3405
  274TMC3    C3 4191   2.859   4.125  10.709  0.5577 -0.0306  0.2764
  274TMC3    C4 4192   3.054   4.168  10.864 -0.4742 -0.1604 -0.3067
  274TMC3    C5 4193   2.980   4.277  10.819 -0.3689 -0.6485  0.0220
  274TMC3    C6 4194   2.871   4.254  10.740  0.5480 -0.3113  0.1244
  274TMC3     C 4195   3.055   3.939  10.934 -0.3832 -0.7249 -0.2214
  274TMC3     O 4196   3.152   3.959  11.009  0.0261 -0.4853 -0.0332
  274TMC3     H 4197   2.917   3.922  10.677  0.4453 -1.8984  1.2591
  274TMC3    H1 4198   3.123   4.179  10.948 -3.0029  0.2384  1.7212
  274TMC3    H2 4199   2.801   4.337  10.731 -0.1161 -0.7072  1.6945
  274TMC3    C7 4200   2.969   4.388  10.905  0.1601  0.1796 -0.4012
  274TMC3    C8 4201   2.765   4.100  10.601  0.3597  0.4557 -0.0000
  274TMC3    O1 4202   2.863   4.443  10.899  0.3165  0.4071  0.2775
  274TMC3    O2 4203   2.723   3.988  10.584  0.1091  0.5133 -0.0419
  275MPD2     C 4204   2.931   1.407  14.465  0.1435 -0.5448 -0.1311
  275MPD2    C1 4205   2.907   1.311  14.567  0.0486  0.7280 -0.5425
  275MPD2    C2 4206   2.795   1.235  14.556 -0.2988  0.5985 -0.1324
  275MPD2    C3 4207   2.706   1.248  14.454 -0.3262  0.2886  0.2665
  275MPD2    C4 4208   2.746   1.333  14.346 -0.0212 -0.4535  0.1593
  275MPD2    C5 4209   2.855   1.420  14.351 -0.3954  0.7886 -0.0269
  275MPD2     H 4210   2.767   1.170  14.638 -1.2339  1.6710  0.3966
  275MPD2    H1 4211   2.681   1.344  14.260 -0.1050  0.2635  0.3166
  275MPD2    H2 4212   3.015   1.473  14.483 -0.5806 -0.3925  2.8039
  275MPD2    H3 4213   2.865   1.497  14.275 -0.8437  0.4268 -0.4536
  275MPD2     N 4214   2.574   1.191  14.450  0.3432 -0.2422  0.5614
  275MPD2    H5 4215   2.506   1.231  14.386  1.6491 -0.9364 -1.2714
  275MPD2    N1 4216   2.988   1.304  14.691 -0.4234  0.0597  0.4465
  275MPD2    H7 4217   2.977   1.229  14.758 -1.7277 -1.2828 -1.2803
  276TMC3    C1 4218   3.129   1.365  14.866  0.1867 -0.6164 -0.2063
  276TMC3    C2 4219   3.147   1.239  14.914  0.2566 -0.1971  0.4634
  276TMC3    C3 4220   3.190   1.217  15.044 -0.4243 -0.1797 -1.0991
  276TMC3    C4 4221   3.173   1.468  14.941 -0.0985  0.4644  0.1928
  276TMC3    C5 4222   3.221   1.446  15.068 -0.2060  0.4938  0.1033
  276TMC3    C6 4223   3.215   1.326  15.125 -0.4114 -0.2349 -0.7090
  276TMC3     C 4224   3.083   1.395  14.728 -0.0896  0.5693  0.0261
  276TMC3     O 4225   3.125   1.497  14.667 -0.1332 -0.0684  0.1192
  276TMC3     H 4226   3.128   1.161  14.842  0.7539  1.1534 -1.1414
  276TMC3    H1 4227   3.167   1.568  14.900  1.6162 -0.6779 -2.8961
  276TMC3    H2 4228   3.255   1.303  15.223  1.2091 -0.7561 -1.5009
  276TMC3    C7 4229   3.275   1.555  15.150  0.1639  0.1851 -0.3172
  276TMC3    C8 4230   3.273   1.098  15.062 -0.3895 -0.9765 -0.2079
  276TMC3    O1 4231   3.283   1.542  15.272  0.0893  0.4941 -0.0963
  276TMC3    O2 4232   3.347   1.107  15.161 -0.3393 -0.0809  0.4099
  277MPD2     C 4233   0.094   0.612  13.339 -0.3109 -0.4390 -0.1750
  277MPD2    C1 4234   4.696   0.598  13.300 -0.1283 -0.7391  0.5536
  277MPD2    C2 4235   4.623   0.496  13.354 -0.2938 -0.0417  0.0583
  277MPD2    C3 4236   4.675   0.403  13.444  0.1195  0.3074 -0.2389
  277MPD2    C4 4237   0.074   0.423  13.488 -0.1085 -0.4414 -0.2435
  277MPD2    C5 4238   0.142   0.535  13.437 -0.0444  0.7876  0.8264
  277MPD2     H 4239   4.522   0.477  13.322 -0.2008  0.1192 -0.3274
  277MPD2    H1 4240   0.123   0.359  13.560 -2.2814 -0.9509  0.7557
  277MPD2    H2 4241   0.152   0.694  13.298  1.2455 -1.2688  0.3853
  277MPD2    H3 4242   0.245   0.551  13.466  1.0244 -0.6091 -2.1820
  277MPD2     N 4243   4.587   0.300  13.486 -0.0792  0.4023  0.0274
  277MPD2    H5 4244   4.488   0.309  13.466 -0.1024 -0.6752 -0.3081
  277MPD2    N1 4245   4.638   0.680  13.203  0.3424 -0.3464 -0.3416
  277MPD2    H7 4246   4.690   0.758  13.166 -2.1001  0.6412 -1.6548
  278TMC3    C1 4247   4.506   0.110  13.591  0.5089 -0.7962  0.3529
  278TMC3    C2 4248   4.528   4.711  13.628 -0.1162 -0.4566 -0.5711
  278TMC3    C3 4249   4.422   4.630  13.650  0.2705 -0.0060  0.4014
  278TMC3    C4 4250   4.382   0.169  13.605  0.2973  0.3009 -0.0946
  278TMC3    C5 4251   4.275   0.088  13.632  0.1631  0.0651  0.0944
  278TMC3    C6 4252   4.294   4.684  13.640  0.1950 -0.5500 -1.0033
  278TMC3     C 4253   4.620   0.188  13.549 -0.1746  0.4868  0.8666
  278TMC3     O 4254   0.001   0.149  13.571 -0.0299  0.3447  0.2097
  278TMC3     H 4255   4.626   4.676  13.599  0.1354 -0.2065 -0.0241
  278TMC3    H1 4256   4.366   0.275  13.587  1.0869  0.3726 -0.3832
  278TMC3    H2 4257   4.210   4.616  13.644  0.2709 -0.6091 -0.4454
  278TMC3    C7 4258   4.169   0.151  13.708 -0.1797  0.1938  0.5930
  278TMC3    C8 4259   4.437   4.493  13.616  0.4258  0.4244 -0.2228
  278TMC3    O1 4260   4.163   0.272  13.706 -0.9532 -0.3672  0.2235
  278TMC3    O2 4261   4.521   4.424  13.667  0.6070 -0.1370 -0.1226
  279MPD2     C 4262   3.697   4.632   0.100  0.3839  0.1682  0.4425
  279MPD2    C1 4263   3.770   0.014   0.126  0.7611 -0.5673 -0.1138
  279MPD2    C2 4264   3.881   0.035   0.057 -0.3490  0.0540 -0.8320
  279MPD2    C3 4265   3.923   4.673  17.690 -0.0268  0.0200  0.4569
  279MPD2    C4 4266   3.840   4.568  17.654 -0.8735  0.6814  0.3618
  279MPD2    C5 4267   3.724   4.543   0.001 -0.6040 -0.6898  0.2864
  279MPD2     H 4268   3.930   0.128   0.083 -0.6058  0.1381 -0.6538
  279MPD2    H1 4269   3.867   4.497  17.577  1.2615  1.4862  0.3543
  279MPD2    H2 4270   3.606   4.609   0.155 -0.2129  2.7718  0.5316
  279MPD2    H3 4271   3.667   4.451  17.719 -1.2492 -0.2064 -0.9323
  279MPD2     N 4272   4.052   4.695  17.622 -0.1245  0.1956  0.2013
  279MPD2    H5 4273   4.067   4.657  17.529  1.3190 -1.6440  1.1848
  279MPD2    N1 4274   3.712   0.100   0.214  0.3687  0.0667 -0.6245
  279MPD2    H7 4275   3.614   0.074   0.221  0.3812 -0.5527 -2.7885
  280TMC3    C1 4276   3.661   0.274   0.356 -0.1537  0.1270 -0.2185
  280TMC3    C2 4277   3.535   0.279   0.299  0.1279 -0.0483 -0.4886
  280TMC3    C3 4278   3.446   0.357   0.367 -0.4394  0.1875 -0.0104
  280TMC3    C4 4279   3.706   0.342   0.464 -0.8971  0.7923 -0.3247
  280TMC3    C5 4280   3.609   0.420   0.525 -0.4396 -0.1545  0.5955
  280TMC3    C6 4281   3.483   0.430   0.475 -0.2868  0.2818 -0.3370
  280TMC3     C 4282   3.764   0.208   0.283  0.2220  0.6733 -0.5913
  280TMC3     O 4283   3.877   0.256   0.290  0.0576 -0.0439 -0.1171
  280TMC3     H 4284   3.509   0.238   0.202 -2.7869  0.6106  0.0185
  280TMC3    H1 4285   3.813   0.349   0.480 -1.2065  1.6891  1.3826
  280TMC3    H2 4286   3.407   0.506   0.489  1.1287  1.8411 -1.1771
  280TMC3    C7 4287   3.662   0.543   0.589  0.2490  0.4688  0.2799
  280TMC3    C8 4288   3.316   0.387   0.306 -0.2261 -0.1904  0.3903
  280TMC3    O1 4289   3.784   0.556   0.580  0.4388 -0.0023 -0.1510
  280TMC3    O2 4290   3.215   0.377   0.375 -0.0554 -0.0558  0.3765
  281TMC3    C1 4291   2.649   0.652  13.532 -0.0302  0.4391 -0.7086
  281TMC3    C2 4292   2.711   0.729  13.441  0.0864 -0.6841 -0.0662
  281TMC3    C3 4293   2.762   0.674  13.321  0.0060 -0.8407  0.2173
  281TMC3    C4 4294   2.623   0.515  13.507  0.1022 -0.0676  0.3328
  281TMC3    C5 4295   2.669   0.461  13.390 -0.0198  0.6146  0.5104
  281TMC3    C6 4296   2.744   0.540  13.302  0.3801 -0.5699 -0.3616
  281TMC3     C 4297   2.580   0.711  13.643 -0.0424 -0.1746 -0.0405
  281TMC3     O 4298   2.541   0.627  13.724  0.1106 -0.6920  0.5702
  281TMC3     H 4299   2.748   0.828  13.465 -0.5369 -1.0316  2.4143
  281TMC3    H1 4300   2.558   0.458  13.572  0.8222 -0.9795  0.2619
  281TMC3    H2 4301   2.788   0.494  13.214 -1.9280 -0.0246 -1.7935
  281TMC3    C7 4302   2.604   0.340  13.339 -0.8688 -0.5108 -0.2447
  281TMC3    C8 4303   2.872   0.748  13.252 -0.0318 -0.2091  0.2638
  281TMC3    O1 4304   2.606   0.324  13.218  0.1722 -0.3233 -0.1637
  281TMC3    O2 4305   2.973   0.685  13.226 -0.4180 -0.0435  0.3668
  282MPD2     C 4306   3.499   2.396  14.764  0.0342 -0.2998  0.2030
  282MPD2    C1 4307   3.453   2.361  14.888 -0.4540  0.0677  0.1911
  282MPD2    C2 4308   3.351   2.268  14.902  0.2279  0.5526 -0.1071
  282MPD2    C3 4309   3.311   2.198  14.789  0.5845  0.2199  0.5786
  282MPD2    C4 4310   3.361   2.224  14.663  0.3836  0.3439 -0.2294
  282MPD2    C5 4311   3.453   2.328  14.650  0.3518 -0.7203  0.5826
  282MPD2     H 4312   3.308   2.245  14.999  1.1806 -1.3679 -0.1408
  282MPD2    H1 4313   3.324   2.176  14.573  3.6331 -1.0326 -0.7907
  282MPD2    H2 4314   3.579   2.464  14.739 -0.0679 -0.3567 -0.2869
  282MPD2    H3 4315   3.511   2.347  14.561  0.4934  0.1598  0.8654
  282MPD2     N 4316   3.229   2.086  14.817  0.4867  0.1245 -1.0933
  282MPD2    H5 4317   3.182   2.088  14.907  1.4297 -1.7655 -0.5644
  282MPD2    N1 4318   3.517   2.403  15.012  0.4064 -0.5321  0.2432
  282MPD2    H7 4319   3.474   2.383  15.101 -1.7379 -0.4410 -0.7781
  283TMC3    C1 4320   3.688   2.495  15.137  0.2252 -0.6624 -0.1750
  283TMC3    C2 4321   3.745   2.618  15.163 -0.5664  0.5061  0.1923
  283TMC3    C3 4322   3.804   2.629  15.287 -0.4125 -0.6424 -0.2981
  283TMC3    C4 4323   3.681   2.383  15.223 -0.4766 -0.3316 -0.0753
  283TMC3    C5 4324   3.755   2.403  15.339 -0.2687 -0.0771 -0.3738
  283TMC3    C6 4325   3.804   2.522  15.373 -0.1780  0.0240  0.9250
  283TMC3     C 4326   3.629   2.483  15.008 -0.5572 -0.6579  0.1973
  283TMC3     O 4327   3.687   2.547  14.920 -0.1570  0.0250  0.4017
  283TMC3     H 4328   3.753   2.699  15.092  0.5112 -0.1491 -0.4364
  283TMC3    H1 4329   3.628   2.294  15.191  0.4115 -0.3535 -1.4676
  283TMC3    H2 4330   3.866   2.524  15.461 -0.5134  1.2496  1.1340
  283TMC3    C7 4331   3.780   2.297  15.432  0.5646 -0.5567  0.1153
  283TMC3    C8 4332   3.869   2.755  15.323 -0.0519  0.6501 -0.1974
  283TMC3    O1 4333   3.818   2.319  15.544  0.1855 -0.8035 -0.0155
  283TMC3    O2 4334   3.874   2.778  15.437 -0.2064 -0.3401  0.3421
  284MPD2     C 4335   1.756   1.802  12.083 -0.4780 -0.5257 -0.1535
  284MPD2    C1 4336   1.874   1.820  12.007  0.2241  0.4900  1.3278
  284MPD2    C2 4337   1.977   1.743  12.048  0.0767 -1.0288 -0.5971
  284MPD2    C3 4338   1.974   1.655  12.156 -0.3182 -0.0252  0.0736
  284MPD2    C4 4339   1.856   1.638  12.225  0.0525  0.0716 -0.6927
  284MPD2    C5 4340   1.749   1.714  12.188 -0.1846 -0.0047 -0.3821
  284MPD2     H 4341   2.069   1.752  11.992 -0.8604  0.2191 -1.9399
  284MPD2    H1 4342   1.848   1.567  12.305 -1.3285 -0.2057 -1.0770
  284MPD2    H2 4343   1.672   1.865  12.055 -0.7905  0.5057  3.0949
  284MPD2    H3 4344   1.666   1.714  12.258  0.7114  1.0442  0.6796
  284MPD2     N 4345   2.079   1.567  12.182 -0.0142  0.0988 -0.0662
  284MPD2    H5 4346   2.064   1.493  12.250 -0.2329 -0.4580 -0.7104
  284MPD2    N1 4347   1.878   1.893  11.884 -0.3021 -0.3450 -0.4599
  284MPD2    H7 4348   1.965   1.902  11.833 -0.8436  0.9575 -1.1640
  285TMC3    C1 4349   1.811   1.991  11.687  1.0442 -0.9271 -0.6597
  285TMC3    C2 4350   1.904   1.915  11.630 -1.3555 -0.0433  0.0644
  285TMC3    C3 4351   1.964   1.962  11.512 -0.7781  0.0653 -0.6889
  285TMC3    C4 4352   1.785   2.118  11.642 -0.3922 -0.1474 -0.4094
  285TMC3    C5 4353   1.861   2.164  11.544  0.5963  0.1046  0.4121
  285TMC3    C6 4354   1.956   2.091  11.478 -0.3761  0.1607  0.3887
  285TMC3     C 4355   1.766   1.951  11.820  0.0870 -0.1896  0.6261
  285TMC3     O 4356   1.653   1.971  11.861 -0.0426  0.3092 -0.1336
  285TMC3     H 4357   1.922   1.812  11.659 -0.3869  0.6720  2.0075
  285TMC3    H1 4358   1.724   2.185  11.702  0.6731  0.9509 -0.5621
  285TMC3    H2 4359   1.998   2.143  11.393 -3.5405 -0.9197 -1.8119
  285TMC3    C7 4360   1.890   2.308  11.556 -0.7119 -0.8401 -0.4299
  285TMC3    C8 4361   2.061   1.877  11.450 -0.3591 -0.2356  0.5315
  285TMC3    O1 4362   2.001   2.342  11.508 -0.1760 -0.7932 -0.7354
  285TMC3    O2 4363   2.033   1.758  11.445 -0.6876  0.4732  0.2715
  286MPD2     C 4364   3.047   0.400   1.570  0.5329 -0.2239 -0.0356
  286MPD2    C1 4365   2.960   0.309   1.519 -0.6659  0.1272 -0.4330
  286MPD2    C2 4366   2.998   0.176   1.520 -0.0661 -0.3786 -0.8363
  286MPD2    C3 4367   3.134   0.142   1.547 -0.1952 -0.1975 -0.5682
  286MPD2    C4 4368   3.219   0.241   1.585 -0.1317 -0.7776  0.3657
  286MPD2    C5 4369   3.173   0.364   1.607  0.3729  0.3248  1.0747
  286MPD2     H 4370   2.936   0.107   1.465 -3.1025  1.1020  0.7268
  286MPD2    H1 4371   3.327   0.235   1.595  0.0106 -0.0530 -0.7529
  286MPD2    H2 4372   3.042   0.508   1.566  0.5401 -0.2686 -1.1712
  286MPD2    H3 4373   3.238   0.440   1.648  2.1117 -1.2600  1.2473
  286MPD2     N 4374   3.193   0.016   1.515  0.0649  0.3115 -0.7143
  286MPD2    H5 4375   3.294   0.019   1.507  0.2194 -0.3549  0.9637
  286MPD2    N1 4376   2.838   0.347   1.467 -0.4560 -0.5404 -0.4696
  286MPD2    H7 4377   2.826   0.445   1.443 -3.4299 -0.1641  2.5503
  287TMC3    C1 4378   3.222   4.522   1.428  0.2592  0.1851  0.8501
  287TMC3    C2 4379   3.182   4.438   1.329  0.0546 -0.3455 -0.7725
  287TMC3    C3 4380   3.274   4.363   1.265 -0.1407 -0.4792  0.2629
  287TMC3    C4 4381   3.357   4.536   1.452 -0.1291  0.6990  0.6581
  287TMC3    C5 4382   3.446   4.458   1.382 -0.6643  0.4499  0.5755
  287TMC3    C6 4383   3.407   4.376   1.281 -0.2852  0.6356 -0.1456
  287TMC3     C 4384   3.133   4.634   1.474  0.1307 -0.0546  0.2153
  287TMC3     O 4385   3.016   4.610   1.450  0.5113 -0.1094  0.5799
  287TMC3     H 4386   3.078   4.450   1.299  0.4865  0.2863 -2.0194
  287TMC3    H1 4387   3.395   4.596   1.534  0.6625  0.2632  0.6078
  287TMC3    H2 4388   3.479   4.315   1.227 -0.9034 -0.7105  0.5304
  287TMC3    C7 4389   3.585   4.496   1.391 -0.1774 -0.2311 -0.1200
  287TMC3    C8 4390   3.211   4.284   1.160 -0.7667 -0.0814  0.3334
  287TMC3    O1 4391   3.608   4.606   1.446  0.2177  0.4909 -0.3459
  287TMC3    O2 4392   3.089   4.260   1.172 -0.1887 -0.4918  0.1161
  288TMC3    C1 4393   4.404   4.508  14.341  0.2818  0.6826  0.3487
  288TMC3    C2 4394   4.359   4.444  14.453  0.3843  0.3032  0.5318
  288TMC3    C3 4395   4.368   4.513  14.573 -0.3774  0.0577  0.4731
  288TMC3    C4 4396   4.433   4.642  14.343  0.6319 -0.1145  0.3105
  288TMC3    C5 4397   4.453   4.701  14.462 -0.3839  0.1395 -0.6695
  288TMC3    C6 4398   4.422   4.642  14.584  0.7346 -0.6620  0.3275
  288TMC3     C 4399   4.377   4.444  14.213  0.5651 -0.1915  0.7446
  288TMC3     O 4400   4.347   4.511  14.116 -0.5506  0.2866 -0.0637
  288TMC3     H 4401   4.318   4.344  14.447 -1.4681  1.1256 -0.3773
  288TMC3    H1 4402   4.451   4.685  14.245  1.6999 -2.0684 -0.3714
  288TMC3    H2 4403   4.452   4.689  14.677  0.2936 -2.6310  1.4578
  288TMC3    C7 4404   4.504   0.109  14.465  0.1711 -0.3863 -0.0918
  288TMC3    C8 4405   4.344   4.447  14.701  0.1320  0.4194 -0.1838
  288TMC3    O1 4406   4.524   0.156  14.574 -0.1787 -0.2990 -0.0700
  288TMC3    O2 4407   4.369   4.508  14.803  0.1280 -1.0423  0.4095
  289MPD2     C 4408   4.637   3.460  14.667  0.0345  0.2813  0.0668
  289MPD2    C1 4409   4.621   3.593  14.636  0.8537 -0.0762 -0.3795
  289MPD2    C2 4410   4.514   3.628  14.554  0.4203 -0.0506  0.5416
  289MPD2    C3 4411   4.436   3.540  14.488 -0.0873 -0.1198 -0.7250
  289MPD2    C4 4412   4.446   3.405  14.510 -0.4557 -0.0801 -0.5804
  289MPD2    C5 4413   4.542   3.372  14.610  0.0050  0.0983 -0.1480
  289MPD2     H 4414   4.500   3.734  14.542 -0.7333 -0.3081 -0.3585
  289MPD2    H1 4415   4.390   3.327  14.459  0.9908 -1.6530  0.2458
  289MPD2    H2 4416   4.717   3.423  14.730  0.5061  1.2118  0.0071
  289MPD2    H3 4417   4.557   3.266  14.630  1.4774 -0.1318 -2.4934
  289MPD2     N 4418   4.348   3.580  14.390  0.3167 -0.3198 -0.4597
  289MPD2    H5 4419   4.295   3.506  14.344  0.8034 -0.9229 -0.0536
  289MPD2    N1 4420   4.705   3.697  14.673 -0.4393  0.1092 -0.2334
  289MPD2    H7 4421   4.692   3.792  14.640 -0.2227 -0.5158 -2.1525
  290TMC3    C1 4422   4.255   3.730  14.229  0.5691 -0.0757 -1.0863
  290TMC3    C2 4423   4.187   3.845  14.209 -0.5780 -0.1886  0.5317
  290TMC3    C3 4424   4.132   3.862  14.087  1.2973 -0.7209 -0.4185
  290TMC3    C4 4425   4.289   3.643  14.128 -0.0874 -0.2979  0.1100
  290TMC3    C5 4426   4.235   3.673  14.005 -0.0949 -0.1339 -0.3827
  290TMC3    C6 4427   4.146   3.777  13.985 -0.6320  0.4865 -0.2065
  290TMC3     C 4428   4.316   3.708  14.359 -0.1590  0.0967  0.1858
  290TMC3     O 4429   4.338   3.810  14.427  0.2981 -0.1859  0.7388
  290TMC3     H 4430   4.172   3.913  14.292 -0.8208  0.4641 -0.0494
  290TMC3    H1 4431   4.362   3.563  14.135 -0.2802 -0.6347 -1.7158
  290TMC3    H2 4432   4.124   3.804  13.882  2.0629  0.2779 -0.8393
  290TMC3    C7 4433   4.250   3.565  13.909 -0.5234  0.3584 -0.0321
  290TMC3    C8 4434   4.030   3.968  14.071 -0.4392 -0.4522  0.4973
  290TMC3    O1 4435   4.236   3.599  13.789 -0.0013 -0.0533  0.0014
  290TMC3    O2 4436   3.963   3.955  13.970  0.2134 -0.0481 -0.1103
  291MPD2     C 4437   3.997   3.187   0.404 -0.0884  0.1616  0.2171
  291MPD2    C1 4438   3.937   3.126   0.302  0.9642 -0.3263 -1.1412
  291MPD2    C2 4439   4.002   3.117   0.182  0.1515 -0.3302 -0.1465
  291MPD2    C3 4440   4.139   3.150   0.176  0.0527 -0.3752  0.0658
  291MPD2    C4 4441   4.204   3.211   0.281 -0.3442  0.8407 -0.4942
  291MPD2    C5 4442   4.125   3.224   0.399  0.3873 -0.3386  0.8359
  291MPD2     H 4443   3.950   3.089   0.092 -0.0086 -1.0116  0.1574
  291MPD2    H1 4444   4.305   3.249   0.288  0.6839 -1.9644 -0.2388
  291MPD2    H2 4445   3.952   3.196   0.502 -0.1922 -2.6738  0.4251
  291MPD2    H3 4446   4.169   3.270   0.487  0.5109  0.3155  0.4337
  291MPD2     N 4447   4.215   3.136   0.054 -0.3871  1.0724  0.1749
  291MPD2    H5 4448   4.298   3.194   0.058  0.0651  0.6167 -2.6160
  291MPD2    N1 4449   3.797   3.089   0.310  0.1224 -0.5252 -0.2491
  291MPD2    H7 4450   3.763   3.048   0.223 -1.1432  2.3912 -1.1190
  292TMC3    C1 4451   3.567   3.067   0.367 -0.2559  0.2297 -0.7633
  292TMC3    C2 4452   3.462   3.135   0.424  0.1496  0.1535 -0.1818
  292TMC3    C3 4453   3.336   3.092   0.390 -0.0616  0.0059  0.0142
  292TMC3    C4 4454   3.558   2.962   0.280  0.2947 -0.7282 -0.1687
  292TMC3    C5 4455   3.435   2.921   0.253 -0.3162 -0.0175  0.3788
  292TMC3    C6 4456   3.322   2.974   0.311  0.2536  0.0753  0.9666
  292TMC3     C 4457   3.702   3.109   0.409 -0.1856  0.3329  0.0710
  292TMC3     O 4458   3.710   3.163   0.517  0.0156 -0.1922  0.2326
  292TMC3     H 4459   3.470   3.216   0.495  3.8617 -2.7024  2.6648
  292TMC3    H1 4460   3.639   2.893   0.260  1.4864  0.6143  0.0235
  292TMC3    H2 4461   3.222   2.938   0.292  1.0177 -2.4981  1.9030
  292TMC3    C7 4462   3.440   2.794   0.183  0.4577  0.9277  0.8127
  292TMC3    C8 4463   3.220   3.164   0.444  0.5978 -0.1999 -0.1024
  292TMC3    O1 4464   3.507   2.770   0.085  0.3375 -0.2994  0.5894
  292TMC3    O2 4465   3.237   3.226   0.549 -0.1106  0.4350  0.3466
  293MPD2     C 4466   0.558   0.686  12.565 -0.3200 -0.3146  0.3419
  293MPD2    C1 4467   0.508   0.590  12.641  0.0939 -1.0295 -0.1508
  293MPD2    C2 4468   0.577   0.535  12.740  0.5520 -0.1809 -0.5462
  293MPD2    C3 4469   0.712   0.571  12.767  0.0054 -0.6170  0.2624
  293MPD2    C4 4470   0.763   0.670  12.685  0.1528  0.4202  0.0258
  293MPD2    C5 4471   0.685   0.732  12.589  0.2640 -0.4555 -0.2148
  293MPD2     H 4472   0.528   0.463  12.804 -0.6529 -0.7027 -2.0394
  293MPD2    H1 4473   0.860   0.714  12.709 -1.1795  3.2384  0.2506
  293MPD2    H2 4474   0.507   0.720  12.476 -0.9143 -1.7151  0.1446
  293MPD2    H3 4475   0.719   0.815  12.528 -0.8300 -0.6723 -1.1074
  293MPD2     N 4476   0.785   0.519  12.877  0.9838 -0.6427 -0.0417
  293MPD2    H5 4477   0.729   0.467  12.944 -0.0993  0.0628 -0.3958
  293MPD2    N1 4478   0.376   0.542  12.612  0.9926  0.7149 -0.9092
  293MPD2    H7 4479   0.330   0.601  12.543  0.5161  0.8438 -0.4826
  294TMC3    C1 4480   0.186   0.400  12.601 -0.5900  0.7156 -0.3715
  294TMC3    C2 4481   0.146   0.270  12.613  0.6671 -0.0767  0.6765
  294TMC3    C3 4482   0.019   0.238  12.579 -1.0796  0.2992  0.5046
  294TMC3    C4 4483   0.097   0.510  12.580 -0.0142  0.6915 -0.4102
  294TMC3    C5 4484   4.703   0.470  12.552 -0.1261  0.1573 -0.1765
  294TMC3    C6 4485   4.668   0.340  12.550  0.4826 -0.1926  0.1257
  294TMC3     C 4486   0.325   0.423  12.642 -0.7721  0.4651  0.1663
  294TMC3     O 4487   0.380   0.325  12.694  0.0572  0.2292 -0.1100
  294TMC3     H 4488   0.214   0.186  12.620  0.0734 -0.7692 -2.2526
  294TMC3    H1 4489   0.119   0.615  12.590 -1.3260  1.1435 -2.1449
  294TMC3    H2 4490   4.570   0.328  12.504  0.6557 -3.2902  0.5808
  294TMC3    C7 4491   4.630   0.557  12.463 -0.5369 -0.8391 -0.1135
  294TMC3    C8 4492   0.001   0.116  12.495 -0.2684  0.3460 -0.4173
  294TMC3    O1 4493   4.513   0.559  12.477  0.4444 -0.4243  0.6699
  294TMC3    O2 4494   0.102   0.059  12.457 -0.4857 -0.1729 -0.0741
  295MPD2     C 4495   1.782   4.554   0.742  0.6720 -0.1158  0.3109
  295MPD2    C1 4496   1.655   4.522   0.784 -0.1261  0.2078 -0.3148
  295MPD2    C2 4497   1.637   4.469   0.911  0.1680 -0.2739 -0.0349
  295MPD2    C3 4498   1.746   4.448   1.002  0.1610  1.0841 -0.6413
  295MPD2    C4 4499   1.875   4.490   0.965 -0.3510 -0.3264  0.6850
  295MPD2    C5 4500   1.885   4.536   0.837  0.3906  0.3711  0.1030
  295MPD2     H 4501   1.535   4.447   0.942  0.0078 -0.2386 -0.5472
  295MPD2    H1 4502   1.966   4.488   1.024 -1.2558  0.2285  2.0923
  295MPD2    H2 4503   1.810   4.600   0.648  0.0276  2.2249  1.2671
  295MPD2    H3 4504   1.987   4.536   0.800 -0.1764 -0.2289 -1.4583
  295MPD2     N 4505   1.722   4.381   1.123  0.4350  0.4392  0.6225
  295MPD2    H5 4506   1.804   4.354   1.177  0.0926  0.2897  1.0647
  295MPD2    N1 4507   1.545   4.522   0.701 -0.7119 -0.5156  0.4145
  295MPD2    H7 4508   1.451   4.523   0.740 -1.4260 -2.6168 -1.1979
  296TMC3    C1 4509   1.606   4.264   1.290 -0.6240  0.3533  0.7072
  296TMC3    C2 4510   1.505   4.279   1.382 -0.3867 -0.0489 -0.3868
  296TMC3    C3 4511   1.487   4.175   1.466  0.0878 -0.4149  0.0309
  296TMC3    C4 4512   1.678   4.151   1.272  0.8714 -0.0500 -0.5068
  296TMC3    C5 4513   1.651   4.052   1.367  1.1694 -0.8173 -0.3505
  296TMC3    C6 4514   1.556   4.058   1.466 -0.0279  0.4953 -0.1819
  296TMC3     C 4515   1.600   4.354   1.175 -0.5317  0.3600  0.2019
  296TMC3     O 4516   1.491   4.393   1.148  0.1728 -0.0546  0.0236
  296TMC3     H 4517   1.459   4.376   1.390  0.5087  0.2524  1.1447
  296TMC3    H1 4518   1.757   4.130   1.201  0.3238  0.9161 -1.4080
  296TMC3    H2 4519   1.542   3.978   1.537  1.7169 -0.0887 -0.4870
  296TMC3    C7 4520   1.691   3.918   1.334  0.7339 -0.3357 -0.4940
  296TMC3    C8 4521   1.357   4.161   1.524  0.4957 -0.2756  0.4268
  296TMC3    O1 4522   1.805   3.900   1.296  0.0203  0.6223 -0.0206
  296TMC3    O2 4523   1.346   4.108   1.635  0.8517 -0.1016  0.8399
  297MPD2     C 4524   3.291   0.926  16.077 -0.5701  0.5013 -0.0613
  297MPD2    C1 4525   3.306   1.053  16.024  0.8243 -0.9647  0.1563
  297MPD2    C2 4526   3.432   1.083  15.972  0.1778  0.6286  0.3046
  297MPD2    C3 4527   3.546   1.003  15.991  0.1473 -0.7891  0.2505
  297MPD2    C4 4528   3.528   0.878  16.046  0.1105  0.6455  0.4655
  297MPD2    C5 4529   3.405   0.844  16.095 -0.0782 -0.3211 -0.0988
  297MPD2     H 4530   3.436   1.181  15.926  0.9030  0.5194  0.1369
  297MPD2    H1 4531   3.616   0.818  16.063 -0.3626 -0.3133 -0.5076
  297MPD2    H2 4532   3.196   0.884  16.109  0.6959 -0.8095  1.9468
  297MPD2    H3 4533   3.397   0.745  16.138  2.0695 -0.8158 -0.8183
  297MPD2     N 4534   3.671   1.060  15.957 -0.1410 -0.0859  0.4112
  297MPD2    H5 4535   3.664   1.158  15.933 -0.5654 -0.4960 -1.1650
  297MPD2    N1 4536   3.194   1.149  16.019 -0.0974 -0.2037  0.0080
  297MPD2    H7 4537   3.197   1.235  15.966 -0.7035 -1.2567 -1.7166
  298TMC3    C1 4538   3.004   1.266  16.105  0.3917 -0.4292  0.2271
  298TMC3    C2 4539   2.999   1.353  15.995  0.5723  0.3978 -0.2776
  298TMC3    C3 4540   2.945   1.476  16.007  0.1195  0.8213 -0.0976
  298TMC3    C4 4541   2.944   1.302  16.226 -0.1657 -0.4847  0.8428
  298TMC3    C5 4542   2.887   1.427  16.225 -0.1531  0.0584  0.2034
  298TMC3    C6 4543   2.879   1.513  16.117 -0.7337 -0.3885  0.3597
  298TMC3     C 4544   3.080   1.141  16.096  0.5629  0.0958  0.0251
  298TMC3     O 4545   3.057   1.059  16.190  0.1454 -0.0562 -0.2527
  298TMC3     H 4546   3.040   1.317  15.901 -0.3337 -0.6230 -0.2775
  298TMC3    H1 4547   2.932   1.235  16.311 -1.9063 -0.4523  0.6288
  298TMC3    H2 4548   2.827   1.608  16.119  0.2223  0.1504 -0.3314
  298TMC3    C7 4549   2.833   1.466  16.358  0.1085 -0.0295 -0.1097
  298TMC3    C8 4550   2.936   1.559  15.892  0.6827 -0.2131 -0.2716
  298TMC3    O1 4551   2.885   1.421  16.458  0.1189 -0.9401  0.0700
  298TMC3    O2 4552   2.950   1.509  15.781 -0.0566 -0.2161 -0.2249
  299MPD2     C 4553   3.133   0.991  10.837 -0.8465 -0.0877  0.0301
  299MPD2    C1 4554   3.216   1.065  10.763 -0.4076 -0.1969 -0.2481
  299MPD2    C2 4555   3.204   1.082  10.624 -0.2246  0.4161  0.2127
  299MPD2    C3 4556   3.090   1.042  10.566  0.1665  0.0354 -0.3650
  299MPD2    C4 4557   2.994   0.971  10.639  0.5267  0.0292 -0.1516
  299MPD2    C5 4558   3.011   0.950  10.777  0.4675 -0.0457 -0.2634
  299MPD2     H 4559   3.283   1.129  10.567  1.6892  0.5318  2.9648
  299MPD2    H1 4560   2.904   0.932  10.591  0.9227 -1.4671  0.2999
  299MPD2    H2 4561   3.150   0.976  10.943 -0.6549 -1.5486 -0.1994
  299MPD2    H3 4562   2.940   0.892  10.837 -1.3985  1.5886 -0.8880
  299MPD2     N 4563   3.073   1.064  10.427 -0.0833  0.0410 -0.1879
  299MPD2    H5 4564   2.989   1.019  10.392 -0.1138 -1.1023  1.3955
  299MPD2    N1 4565   3.319   1.120  10.834  0.3427  0.1726  0.2981
  299MPD2    H7 4566   3.309   1.114  10.935 -1.4873  1.1199  0.1769
  300TMC3    C1 4567   3.063   1.161  10.219  0.1465  0.1749 -0.6057
  300TMC3    C2 4568   3.066   1.291  10.169 -0.6083 -0.4449  0.6397
  300TMC3    C3 4569   2.948   1.346  10.145 -0.0229 -1.1288  0.8148
  300TMC3    C4 4570   2.958   1.080  10.211 -1.3758  0.1085 -0.0406
  300TMC3    C5 4571   2.840   1.133  10.168 -0.5166 -1.1770 -0.3481
  300TMC3    C6 4572   2.829   1.268  10.155 -0.4399 -0.5615 -0.1878
  300TMC3     C 4573   3.134   1.152  10.342 -0.2110 -0.7603  0.3314
  300TMC3     O 4574   3.217   1.239  10.371 -0.2677 -0.8651  0.0145
  300TMC3     H 4575   3.156   1.351  10.176 -1.1006  0.3152  0.4253
  300TMC3    H1 4576   2.968   0.973  10.227  1.3923  0.3476 -0.1625
  300TMC3    H2 4577   2.730   1.305  10.130  0.1619  0.2710 -1.3949
  300TMC3    C7 4578   2.723   1.059  10.213 -0.2149  0.3229  0.0422
  300TMC3    C8 4579   2.932   1.490  10.154  0.3248 -0.1228  0.3204
  300TMC3    O1 4580   2.720   0.944  10.171  0.2831  0.1843  0.4906
  300TMC3    O2 4581   3.033   1.561  10.148  0.2067 -0.1113 -0.0617
  301MPD2     C 4582   1.533   2.587   1.017  0.3846  0.0944  0.2093
  301MPD2    C1 4583   1.438   2.545   0.925 -0.1016 -0.7797  0.6243
  301MPD2    C2 4584   1.432   2.416   0.896 -0.0258 -0.1268 -0.0236
  301MPD2    C3 4585   1.519   2.322   0.948  0.9688  0.3442 -0.0255
  301MPD2    C4 4586   1.614   2.370   1.033  0.4014 -0.3490 -0.0917
  301MPD2    C5 4587   1.615   2.502   1.073 -0.2184  0.6170  0.0474
  301MPD2     H 4588   1.359   2.386   0.821 -0.5473  0.6224  0.1851
  301MPD2    H1 4589   1.685   2.297   1.071 -1.2775 -1.9397 -0.0466
  301MPD2    H2 4590   1.539   2.691   1.050 -1.1074 -0.4014  2.0799
  301MPD2    H3 4591   1.690   2.542   1.141 -1.9416 -0.3209  2.4919
  301MPD2     N 4592   1.507   2.188   0.907 -0.1541 -0.3823  0.0285
  301MPD2    H5 4593   1.589   2.131   0.922  0.5767  0.4986 -0.6430
  301MPD2    N1 4594   1.350   2.626   0.852  0.8501 -0.0752  0.4368
  301MPD2    H7 4595   1.294   2.581   0.779  0.4753  0.3532  0.4587
  302TMC3    C1 4596   1.433   2.015   0.770 -0.0986  0.3811  0.5819
  302TMC3    C2 4597   1.537   1.940   0.814 -0.1645 -0.4849  0.0910
  302TMC3    C3 4598   1.571   1.830   0.738  0.4005  0.0506  0.6511
  302TMC3    C4 4599   1.358   1.985   0.656 -0.1959  0.1434  0.5170
  302TMC3    C5 4600   1.386   1.869   0.601 -0.5941  0.4378 -1.0595
  302TMC3    C6 4601   1.495   1.792   0.637 -0.4772 -0.2105  0.3388
  302TMC3     C 4602   1.398   2.136   0.838 -0.2281 -0.6247 -0.5463
  302TMC3     O 4603   1.279   2.175   0.837 -0.2788 -0.0204 -0.1421
  302TMC3     H 4604   1.578   1.958   0.913 -0.0215 -0.2556 -0.0095
  302TMC3    H1 4605   1.276   2.049   0.624  0.0234  0.1082 -0.1154
  302TMC3    H2 4606   1.517   1.701   0.582 -2.0624 -0.7420  0.5756
  302TMC3    C7 4607   1.281   1.810   0.513  0.0934 -0.2086 -0.0558
  302TMC3    C8 4608   1.666   1.743   0.789 -0.3063  0.2313  0.1255
  302TMC3    O1 4609   1.325   1.722   0.443  0.0006  0.6390 -0.1685
  302TMC3    O2 4610   1.663   1.634   0.737 -0.1267  0.1781 -0.3349
  303MPD2     C 4611   1.185   0.272  11.407  0.0831 -0.0002 -0.0927
  303MPD2    C1 4612   1.178   0.217  11.280  0.0597 -0.0238  0.5417
  303MPD2    C2 4613   1.170   0.305  11.174 -0.1470 -0.1888  0.3443
  303MPD2    C3 4614   1.200   0.439  11.184  0.6567  0.1549  0.3716
  303MPD2    C4 4615   1.221   0.489  11.311 -0.0212  0.9023 -0.7826
  303MPD2    C5 4616   1.213   0.406  11.424 -0.4391 -0.7423 -0.1636
  303MPD2     H 4617   1.144   0.263  11.077 -1.5317  2.6924 -0.5194
  303MPD2    H1 4618   1.229   0.597  11.313 -2.0851  1.0277  0.5723
  303MPD2    H2 4619   1.185   0.204  11.492 -0.9795 -0.0437 -0.1303
  303MPD2    H3 4620   1.227   0.453  11.521 -0.6239  0.7175 -0.8451
  303MPD2     N 4621   1.211   0.524  11.071  0.1186 -0.0587  0.2443
  303MPD2    H5 4622   1.204   0.624  11.086 -3.2682 -0.3937  0.7910
  303MPD2    N1 4623   1.168   0.075  11.267  0.4206 -0.7320 -0.2291
  303MPD2    H7 4624   1.167   0.022  11.354 -0.8224 -1.3770 -0.6369
  304TMC3    C1 4625   1.094   4.606  11.176  0.1113  0.5733 -0.2083
  304TMC3    C2 4626   0.974   4.607  11.112 -0.1376  0.1517  0.0673
  304TMC3    C3 4627   0.933   4.491  11.059 -0.4063  0.1315 -0.3321
  304TMC3    C4 4628   1.174   4.502  11.190 -0.2323 -0.2288 -0.0086
  304TMC3    C5 4629   1.126   4.384  11.146 -0.2941 -0.0614 -0.5571
  304TMC3    C6 4630   1.004   4.379  11.083  0.1350 -0.1156  0.4632
  304TMC3     C 4631   1.163   0.000  11.150 -0.2110 -0.1446 -0.5431
  304TMC3     O 4632   1.166   0.029  11.031  0.2885 -0.3639 -0.3017
  304TMC3     H 4633   0.922   4.701  11.098 -0.2349 -0.4083 -3.2931
  304TMC3    H1 4634   1.281   4.510  11.201  0.0268 -2.1950 -1.1483
  304TMC3    H2 4635   0.965   4.289  11.035  1.9173 -0.1887 -0.8586
  304TMC3    C7 4636   1.218   4.294  11.077  1.0479 -0.0359 -0.7888
  304TMC3    C8 4637   0.904   4.499  10.916  0.5769 -0.3978  0.3860
  304TMC3    O1 4638   1.320   4.260  11.135  0.1033  0.4583 -0.6126
  304TMC3    O2 4639   0.970   4.418  10.847 -0.4209  0.8479 -0.2980
  305MPD2     C 4640   4.011   1.716  14.065 -0.3434 -0.0539 -0.4563
  305MPD2    C1 4641   4.073   1.833  14.083 -0.3037  0.0137 -0.0016
  305MPD2    C2 4642   4.090   1.919  13.980  0.2491  0.1534  0.2023
  305MPD2    C3 4643   4.039   1.894  13.846 -0.5680 -0.1636 -0.1454
  305MPD2    C4 4644   3.965   1.779  13.835 -0.4864 -0.0824 -0.2708
  305MPD2    C5 4645   3.956   1.693  13.943  0.4097 -0.2909 -0.2316
  305MPD2     H 4646   4.149   2.008  13.995  3.0004 -1.5716 -0.5160
  305MPD2    H1 4647   3.921   1.742  13.744  1.3116  0.3428 -1.3101
  305MPD2    H2 4648   4.005   1.648  14.149  1.2391  1.6839  1.0691
  305MPD2    H3 4649   3.896   1.605  13.923 -0.8964  1.1796 -2.8077
  305MPD2     N 4650   4.065   1.961  13.723 -0.0277 -0.3975 -0.2579
  305MPD2    H5 4651   4.023   1.914  13.644 -2.6956  3.0081 -0.8911
  305MPD2    N1 4652   4.142   1.844  14.207  0.5840 -0.5424  0.1260
  305MPD2    H7 4653   4.117   1.780  14.281  0.4890 -3.0843 -2.0991
  306TMC3    C1 4654   4.297   1.919  14.367  0.3945 -0.3696  0.5815
  306TMC3    C2 4655   4.424   1.951  14.384  0.1629  0.3215  0.4789
  306TMC3    C3 4656   4.468   1.956  14.517 -0.6198  0.5174 -0.1081
  306TMC3    C4 4657   4.212   1.899  14.475  0.0991 -0.2477  0.7239
  306TMC3    C5 4658   4.264   1.902  14.604  0.0787 -0.5258 -0.3908
  306TMC3    C6 4659   4.395   1.932  14.626 -0.1597 -0.2035 -0.7180
  306TMC3     C 4660   4.254   1.921  14.225 -0.5191 -0.0894 -0.4567
  306TMC3     O 4661   4.329   1.963  14.139  0.2556  0.2475  1.2628
  306TMC3     H 4662   4.488   1.977  14.301 -0.3065 -1.7939 -0.5565
  306TMC3    H1 4663   4.109   1.867  14.467  0.3432 -1.1356  1.1084
  306TMC3    H2 4664   4.435   1.913  14.725 -3.3132 -1.0345  0.3796
  306TMC3    C7 4665   4.173   1.887  14.717 -0.3916 -0.0421 -0.0508
  306TMC3    C8 4666   4.612   1.977  14.525  0.1533  0.1596 -0.1579
  306TMC3    O1 4667   4.070   1.823  14.697 -0.3266  0.3956  0.7675
  306TMC3    O2 4668   4.674   1.915  14.440  0.6606  0.2558 -0.0636
  307MPD2     C 4669   2.548   0.669   0.006  0.5307  0.1088 -0.5731
  307MPD2    C1 4670   2.497   0.783   0.056  0.3513 -0.4225 -0.2123
  307MPD2    C2 4671   2.388   0.773   0.142 -0.0198 -0.1286 -0.0414
  307MPD2    C3 4672   2.343   0.648   0.175  0.1398 -0.6505 -0.4882
  307MPD2    C4 4673   2.404   0.534   0.118 -0.6841  0.1463 -0.6194
  307MPD2    C5 4674   2.510   0.543   0.037  0.7005  0.2593 -0.1867
  307MPD2     H 4675   2.334   0.860   0.177  0.1054  0.5579 -1.5525
  307MPD2    H1 4676   2.372   0.434   0.144  0.1887  0.3221  1.1708
  307MPD2    H2 4677   2.620   0.677  17.650  0.8599  1.1649 -0.1695
  307MPD2    H3 4678   2.558   0.456  17.718  0.1115  0.1546 -0.6125
  307MPD2     N 4679   2.252   0.651   0.274  0.0524 -0.4944  0.0832
  307MPD2    H5 4680   2.240   0.744   0.313  1.5003 -1.2327  2.2655
  307MPD2    N1 4681   2.547   0.914   0.035 -0.2071  0.1226  0.3551
  307MPD2    H7 4682   2.518   0.988   0.098  0.5637  1.5490 -0.9585
  308TMC3    C1 4683   1.990   0.518   0.641  0.5038  0.4166 -1.0314
  308TMC3    C2 4684   2.028   0.639   0.703  0.2216  0.1951  0.2648
  308TMC3    C3 4685   2.099   0.729   0.630 -0.6844  0.2624  0.2932
  308TMC3    C4 4686   2.025   0.499   0.508  0.6749 -0.1243  0.5926
  308TMC3    C5 4687   2.095   0.597   0.439 -1.0626 -0.3276 -0.2215
  308TMC3    C6 4688   2.129   0.718   0.499  0.5904  0.3413  0.1888
  308TMC3     C 4689   1.853   0.488   0.663 -0.2350 -0.4291 -0.4539
  308TMC3     O 4690   1.821   0.373   0.651 -0.0155 -0.8478 -0.0220
  308TMC3     H 4691   2.008   0.657   0.808  0.7708  0.9329  0.2403
  308TMC3    H1 4692   2.000   0.411   0.451  0.0335  0.5597 -0.1806
  308TMC3    H2 4693   2.181   0.800   0.451 -2.8647  3.3666  1.6408
  308TMC3    C7 4694   2.184   0.549   0.327 -0.8024 -0.3405  0.0448
  308TMC3    C8 4695   2.160   0.841   0.694 -0.6509  0.2957 -1.0318
  308TMC3    O1 4696   2.208   0.426   0.322 -0.3464  0.5361 -0.4466
  308TMC3    O2 4697   2.157   0.943   0.629  0.0608  0.1177  0.4655
  309MPD2     C 4698   1.750   0.819  16.990 -0.0135  0.1572 -0.1697
  309MPD2    C1 4699   1.663   0.857  16.882 -0.3974 -0.2782  0.2539
  309MPD2    C2 4700   1.545   0.921  16.912 -0.0386 -0.1036  0.0368
  309MPD2    C3 4701   1.513   0.967  17.034  0.2667 -0.2598  0.3112
  309MPD2    C4 4702   1.599   0.934  17.142 -0.0089  0.4240 -0.3895
  309MPD2    C5 4703   1.711   0.853  17.120 -0.1193 -0.4759  0.3970
  309MPD2     H 4704   1.480   0.946  16.828  0.0184  0.3000  0.1141
  309MPD2    H1 4705   1.585   0.970  17.243  1.5862  1.8604 -0.6797
  309MPD2    H2 4706   1.850   0.778  16.975  0.5294  1.4998 -0.1971
  309MPD2    H3 4707   1.776   0.826  17.202  0.2419  2.1741  0.9786
  309MPD2     N 4708   1.395   1.054  17.049 -0.0976  0.3278 -0.6564
  309MPD2    H5 4709   1.335   1.070  16.969 -2.7476 -0.5531  1.1869
  309MPD2    N1 4710   1.713   0.859  16.754  0.0050  0.1397  0.0232
  309MPD2    H7 4711   1.649   0.896  16.686 -0.8621 -2.0616 -0.3573
  310TMC3    C1 4712   1.841   0.822  16.555  0.0553 -0.9890  0.1163
  310TMC3    C2 4713   1.741   0.883  16.483  0.1202  0.9055  0.4666
  310TMC3    C3 4714   1.757   0.881  16.348 -0.1522  0.2130 -0.3556
  310TMC3    C4 4715   1.953   0.767  16.502 -0.5497 -0.7535  0.0905
  310TMC3    C5 4716   1.952   0.767  16.362 -0.4379 -0.0083 -0.1538
  310TMC3    C6 4717   1.858   0.817  16.278 -0.5399 -0.5584  0.1258
  310TMC3     C 4718   1.819   0.791  16.698 -0.5978 -0.2854 -0.3963
  310TMC3     O 4719   1.906   0.724  16.752 -0.2756  0.2363  0.2074
  310TMC3     H 4720   1.645   0.903  16.528 -0.3112  0.1586 -0.1154
  310TMC3    H1 4721   2.036   0.727  16.559  0.5002  0.4943 -0.5595
  310TMC3    H2 4722   1.870   0.818  16.171  0.5922 -0.9134  0.2518
  310TMC3    C7 4723   2.051   0.691  16.298 -0.0483 -0.3789 -0.5936
  310TMC3    C8 4724   1.641   0.925  16.268  0.5044  0.2421 -0.4565
  310TMC3    O1 4725   2.024   0.650  16.184  0.2385  0.0781 -0.0539
  310TMC3    O2 4726   1.624   0.871  16.160 -0.2846 -0.2483  0.1918
  311MPD2     C 4727   2.814   2.624  12.190  0.0444 -0.1434 -0.4819
  311MPD2    C1 4728   2.886   2.621  12.305  0.4988  0.5194 -0.6776
  311MPD2    C2 4729   2.865   2.517  12.392  0.5373  0.2160  0.1596
  311MPD2    C3 4730   2.781   2.417  12.356  0.2993 -0.0302  0.2522
  311MPD2    C4 4731   2.714   2.411  12.243 -0.7793 -0.2198  0.0938
  311MPD2    C5 4732   2.737   2.513  12.157 -0.1114 -0.1592  0.9596
  311MPD2     H 4733   2.905   2.526  12.492  2.0350 -1.9778 -0.2447
  311MPD2    H1 4734   2.644   2.330  12.227 -1.7580  0.3156  1.6300
  311MPD2    H2 4735   2.808   2.708  12.121  1.6568 -0.7853 -1.4026
  311MPD2    H3 4736   2.701   2.527  12.056 -1.9614 -2.5703  1.2808
  311MPD2     N 4737   2.754   2.324  12.459  0.2577 -0.0523 -0.3211
  311MPD2    H5 4738   2.809   2.336  12.543 -3.4866 -1.8785  2.3769
  311MPD2    N1 4739   2.974   2.722  12.344  0.5394  0.7046  0.1542
  311MPD2    H7 4740   3.015   2.708  12.436 -0.9729 -2.9576  0.2743
  312TMC3    C1 4741   2.645   2.185  12.600 -0.4113  0.2861  0.2420
  312TMC3    C2 4742   2.523   2.124  12.625  0.0519 -0.1893  0.0967
  312TMC3    C3 4743   2.476   2.123  12.757  0.1838  0.1161 -0.4909
  312TMC3    C4 4744   2.731   2.236  12.696  0.1584  0.0428  0.4867
  312TMC3    C5 4745   2.682   2.242  12.822  0.1731 -0.1853 -0.8004
  312TMC3    C6 4746   2.558   2.184  12.853 -0.0833 -1.6012  0.3376
  312TMC3     C 4747   2.671   2.215  12.460  0.4496  0.8656  1.1264
  312TMC3     O 4748   2.610   2.153  12.370 -0.2009  0.6741  0.0477
  312TMC3     H 4749   2.468   2.089  12.539  2.2394 -1.2289 -0.8971
  312TMC3    H1 4750   2.835   2.262  12.680  0.0500  0.6002  0.6840
  312TMC3    H2 4751   2.519   2.200  12.953  1.1989 -0.1412  0.6120
  312TMC3    C7 4752   2.739   2.327  12.928  0.3974 -0.0497  0.4332
  312TMC3    C8 4753   2.350   2.061  12.786 -0.3971  0.1383  0.6608
  312TMC3    O1 4754   2.785   2.426  12.875  0.1111  0.0494  0.1886
  312TMC3    O2 4755   2.276   2.034  12.692 -0.4383 -0.1545 -0.9819
  313MPD2     C 4756   1.898   2.494  10.953 -0.5583 -0.4687  0.7191
  313MPD2    C1 4757   2.029   2.456  10.924  0.7284 -0.1129 -0.3258
  313MPD2    C2 4758   2.070   2.332  10.961  0.3211 -0.0350  0.0812
  313MPD2    C3 4759   1.978   2.239  11.017 -0.1317  0.4386 -0.4721
  313MPD2    C4 4760   1.851   2.279  11.058 -0.0249 -0.1845  0.2012
  313MPD2    C5 4761   1.812   2.398  11.007 -0.3837  0.1969 -0.6620
  313MPD2     H 4762   2.169   2.305  10.924  0.5811  0.9594  0.0585
  313MPD2    H1 4763   1.780   2.219  11.113 -0.9846  0.6143 -0.1692
  313MPD2    H2 4764   1.856   2.594  10.947 -0.5148 -0.5158 -0.4493
  313MPD2    H3 4765   1.708   2.426  11.011 -0.5079 -0.0968 -1.6760
  313MPD2     N 4766   2.021   2.106  11.037 -0.0584  0.7063  0.1500
  313MPD2    H5 4767   2.108   2.079  10.993 -0.2907  0.0959  0.0579
  313MPD2    N1 4768   2.115   2.538  10.856 -0.0425 -0.5301 -0.2914
  313MPD2    H7 4769   2.210   2.505  10.844 -0.4363 -2.2079  1.1351
  314TMC3    C1 4770   2.196   2.730  10.737  0.6069  0.6210 -0.2567
  314TMC3    C2 4771   2.318   2.713  10.798  0.5782  0.3909  0.7014
  314TMC3    C3 4772   2.414   2.809  10.772  0.3782  0.4099  0.0413
  314TMC3    C4 4773   2.167   2.835  10.650 -0.4792  0.1833 -0.1147
  314TMC3    C5 4774   2.265   2.920  10.621 -0.0015 -0.5229 -0.6858
  314TMC3    C6 4775   2.387   2.911  10.687 -0.1006  0.4664 -0.0453
  314TMC3     C 4776   2.081   2.662  10.799  0.5757  0.3459 -0.6256
  314TMC3     O 4777   1.971   2.707  10.769  0.2913 -0.1288  0.1718
  314TMC3     H 4778   2.343   2.657  10.887  2.0505 -0.0976 -0.0141
  314TMC3    H1 4779   2.069   2.854  10.609 -0.3605  1.4359  0.1791
  314TMC3    H2 4780   2.465   2.987  10.680  0.6643 -0.4902 -1.8044
  314TMC3    C7 4781   2.256   3.016  10.508  0.2945  0.6402  0.4837
  314TMC3    C8 4782   2.550   2.791  10.817  0.0974  0.1139 -0.1827
  314TMC3    O1 4783   2.148   3.054  10.467 -0.9873 -0.4505 -0.1092
  314TMC3    O2 4784   2.633   2.882  10.807 -0.0734  0.6893 -0.6457
  315MPD2     C 4785   2.725   0.509   0.377  0.0871 -0.0784 -0.1264
  315MPD2    C1 4786   2.861   0.487   0.380  0.3845  0.3754  0.4032
  315MPD2    C2 4787   2.941   0.599   0.374 -0.1656 -0.2354  0.3986
  315MPD2    C3 4788   2.893   0.718   0.331  0.5768  0.0679 -0.7495
  315MPD2    C4 4789   2.757   0.731   0.316 -0.4370  0.2175  0.6664
  315MPD2    C5 4790   2.670   0.629   0.331  0.5794 -0.1267 -0.3960
  315MPD2     H 4791   3.049   0.598   0.379 -0.1747  0.1973  0.7392
  315MPD2    H1 4792   2.712   0.827   0.293  2.2308  1.2309 -0.3449
  315MPD2    H2 4793   2.654   0.428   0.389  1.7126 -1.5611 -0.5366
  315MPD2    H3 4794   2.562   0.642   0.326  0.5512  0.6192  2.1827
  315MPD2     N 4795   2.982   0.822   0.306  0.7594 -0.4174  0.0707
  315MPD2    H5 4796   3.081   0.798   0.309  0.8548  0.0515  0.7507
  315MPD2    N1 4797   2.923   0.357   0.405 -0.8047  0.1815  0.4274
  315MPD2    H7 4798   3.020   0.362   0.433  0.0439  0.5823 -2.6095
  316TMC3    C1 4799   3.053   1.053   0.311 -0.2781 -0.0410 -0.5800
  316TMC3    C2 4800   3.134   1.040   0.419  0.3112  0.2116  0.0866
  316TMC3    C3 4801   3.223   1.147   0.445 -0.0936 -0.6614  0.9602
  316TMC3    C4 4802   3.043   1.169   0.234  0.2600 -0.7282  0.1768
  316TMC3    C5 4803   3.132   1.268   0.266 -0.0931 -0.3083  0.4693
  316TMC3    C6 4804   3.222   1.262   0.374  0.3395  0.1057  0.0836
  316TMC3     C 4805   2.950   0.957   0.285  0.0776  0.4744  0.0802
  316TMC3     O 4806   2.837   1.006   0.279 -0.1077 -0.3651  0.5132
  316TMC3     H 4807   3.162   0.942   0.457 -0.1496 -0.4306 -1.2200
  316TMC3    H1 4808   2.973   1.181   0.152 -0.6139  1.3364  1.2295
  316TMC3    H2 4809   3.277   1.348   0.411  1.8213 -0.5361 -0.6122
  316TMC3    C7 4810   3.113   1.405   0.210  0.0417  0.0362  0.1591
  316TMC3    C8 4811   3.335   1.134   0.536 -0.3523 -0.5145  0.2356
  316TMC3    O1 4812   3.152   1.496   0.281 -0.2906 -0.1879  0.5195
  316TMC3    O2 4813   3.418   1.223   0.534  0.0249  0.5669  0.1053
  317MPD2     C 4814   4.330   3.943  12.887 -0.8854  0.1009 -0.2523
  317MPD2    C1 4815   4.417   3.864  12.805 -0.4490  0.2006 -0.5384
  317MPD2    C2 4816   4.528   3.803  12.865  0.2672 -0.3429 -0.2673
  317MPD2    C3 4817   4.552   3.811  13.002 -0.4360 -0.2822  0.4942
  317MPD2    C4 4818   4.465   3.889  13.075  0.1195 -0.1792  0.4161
  317MPD2    C5 4819   4.364   3.963  13.018  0.2186  0.0863 -0.2085
  317MPD2     H 4820   4.577   3.736  12.795 -0.4765  1.8457 -2.8459
  317MPD2    H1 4821   4.489   3.918  13.177 -4.3189 -0.5521  1.5742
  317MPD2    H2 4822   4.258   4.012  12.845  0.1112  1.6400  0.5747
  317MPD2    H3 4823   4.312   4.033  13.082  0.7704 -0.3047  0.6706
  317MPD2     N 4824   4.659   3.747  13.069 -0.0907 -0.9705  0.0346
  317MPD2    H5 4825   4.657   3.770  13.168  1.2725  1.7106 -0.5469
  317MPD2    N1 4826   4.380   3.829  12.676  0.2236  0.1983 -0.3594
  317MPD2    H7 4827   4.440   3.757  12.637 -0.9881 -0.1936 -1.5097
  318TMC3    C1 4828   0.140   3.659  13.109  0.8102  0.2116 -0.0223
  318TMC3    C2 4829   0.103   3.586  13.214 -0.6607 -0.4374  0.0687
  318TMC3    C3 4830   0.203   3.494  13.263 -0.5812  0.4192  0.8180
  318TMC3    C4 4831   0.264   3.656  13.060 -0.2814 -0.0161  0.2909
  318TMC3    C5 4832   0.364   3.590  13.124  0.4360 -0.4199 -0.1722
  318TMC3    C6 4833   0.334   3.506  13.228 -0.1152 -0.6194 -0.1782
  318TMC3     C 4834   0.042   3.688  13.011 -0.2711  0.5954  0.0497
  318TMC3     O 4835   0.061   3.652  12.892 -0.0713  0.0568  0.0153
  318TMC3     H 4836   4.728   3.577  13.236 -0.6680 -0.8098 -0.1176
  318TMC3    H1 4837   0.300   3.723  12.982 -1.1899 -0.9279 -0.9194
  318TMC3    H2 4838   0.409   3.438  13.267 -0.2018  0.6091  2.1150
  318TMC3    C7 4839   0.494   3.648  13.114 -0.5053 -0.3877  0.0706
  318TMC3    C8 4840   0.169   3.386  13.346 -0.7356  0.3602 -0.5179
  318TMC3    O1 4841   0.502   3.762  13.061  0.0757  0.1278 -0.0211
  318TMC3    O2 4842   0.249   3.304  13.386 -0.4805  0.2311  0.4544
  319MPD2     C 4843   0.978   0.396  15.975  0.2200  0.0221  0.1339
  319MPD2    C1 4844   0.893   0.321  16.063 -0.4193  0.0749  0.1734
  319MPD2    C2 4845   0.858   0.197  16.015  0.2635  0.2129  0.3049
  319MPD2    C3 4846   0.905   0.143  15.894 -0.4243  0.7112 -0.3197
  319MPD2    C4 4847   0.995   0.211  15.821 -0.1752  0.3054  0.0765
  319MPD2    C5 4848   1.028   0.339  15.858 -0.1993 -0.2612 -0.4712
  319MPD2     H 4849   0.795   0.137  16.079 -0.9541  0.1117 -1.0017
  319MPD2    H1 4850   1.032   0.169  15.728  2.1082  0.6240  0.8371
  319MPD2    H2 4851   1.007   0.497  16.001  3.0479 -0.6036 -0.6225
  319MPD2    H3 4852   1.092   0.389  15.787  0.2084  0.8661  0.6892
  319MPD2     N 4853   0.868   0.020  15.842 -0.2076  0.6186 -0.1018
  319MPD2    H5 4854   0.904   4.728  15.750 -0.4272 -1.2086  0.2771
  319MPD2    N1 4855   0.844   0.361  16.192 -0.1969  0.1476 -0.2448
  319MPD2    H7 4856   0.793   0.297  16.253  2.5651 -1.2945  0.5727
  320TMC3    C1 4857   0.733   4.550  15.830  0.7372 -0.2598  0.1790
  320TMC3    C2 4858   0.666   4.595  15.712  0.1032 -0.5198 -0.1704
  320TMC3    C3 4859   0.550   4.544  15.666  0.0577 -0.7298 -0.4431
  320TMC3    C4 4860   0.675   4.442  15.901  0.2975  0.0450  0.1510
  320TMC3    C5 4861   0.565   4.384  15.845 -0.5498  0.2357  0.5611
  320TMC3    C6 4862   0.503   4.435  15.735 -0.1860 -0.3129  0.0343
  320TMC3     C 4863   0.802   4.652  15.910  0.2213 -0.1411 -0.4641
  320TMC3     O 4864   0.774   4.651  16.031 -0.9041  0.2192  0.0183
  320TMC3     H 4865   0.704   4.686  15.667  0.5605  0.0204  1.3078
  320TMC3    H1 4866   0.719   4.402  15.992 -0.2533 -3.5695 -1.1934
  320TMC3    H2 4867   0.421   4.380  15.692 -0.0692  0.3043 -0.9725
  320TMC3    C7 4868   0.498   4.281  15.919 -0.1138 -0.2416  0.2769
  320TMC3    C8 4869   0.454   4.641  15.623 -0.6334 -0.1325  0.9887
  320TMC3    O1 4870   0.424   4.210  15.857  0.0506  1.0218 -0.4512
  320TMC3    O2 4871   0.494   0.010  15.571  0.3966  0.3431 -0.0850
  321TMC3    C1 4872   0.806   0.525  16.356  0.1559 -0.2086  0.0256
  321TMC3    C2 4873   0.766   0.427  16.442  0.1110  0.1129  0.3707
  321TMC3    C3 4874   0.694   0.457  16.546  0.1205 -0.5622 -0.0749
  321TMC3    C4 4875   0.784   0.655  16.382 -0.5630  0.4059  0.2399
  321TMC3    C5 4876   0.711   0.688  16.489 -0.0035 -0.2405 -0.3739
  321TMC3    C6 4877   0.658   0.588  16.569 -0.3217  0.2537  0.0298
  321TMC3     C 4878   0.845   0.492  16.222  0.1354 -0.3086  0.3063
  321TMC3     O 4879   0.850   0.584  16.139  0.8067 -0.0788  0.4586
  321TMC3     H 4880   0.800   0.326  16.425  1.8529  0.6185  0.8194
  321TMC3    H1 4881   0.812   0.730  16.308  2.1141  0.7912  1.6359
  321TMC3    H2 4882   0.594   0.610  16.653  2.3066 -0.0162  2.1216
  321TMC3    C7 4883   0.753   0.800  16.561  0.2082  0.4079  0.1230
  321TMC3    C8 4884   0.751   0.408  16.664 -0.3207 -0.3502  0.8028
  321TMC3    O1 4885   0.787   0.906  16.504 -0.3771 -0.3524  0.2366
  321TMC3    O2 4886   0.799   0.496  16.732 -0.0684  0.1044 -0.2114
  322MPD2     C 4887   4.572   1.568  13.535 -0.5308  0.1802  0.0715
  322MPD2    C1 4888   4.558   1.499  13.646  0.0954  0.3239  0.2004
  322MPD2    C2 4889   4.584   1.366  13.644  0.1325 -0.3869  0.5468
  322MPD2    C3 4890   4.631   1.299  13.528  0.3446 -0.2866 -0.2309
  322MPD2    C4 4891   4.650   1.378  13.411 -0.1483  0.2802 -0.0191
  322MPD2    C5 4892   4.616   1.509  13.424  0.1077 -0.5214  1.2350
  322MPD2     H 4893   4.567   1.299  13.728 -2.9025  2.4873  2.2042
  322MPD2    H1 4894   4.677   1.334  13.316  2.0896  0.1935  0.6639
  322MPD2    H2 4895   4.533   1.669  13.528 -1.8990 -0.3991 -0.7218
  322MPD2    H3 4896   4.616   1.577  13.340 -0.5481 -2.5420 -0.3988
  322MPD2     N 4897   4.668   1.163  13.542 -0.7555 -0.0998  0.2634
  322MPD2    H5 4898   4.651   1.112  13.628 -0.9687 -0.7067 -0.1429
  322MPD2    N1 4899   4.524   1.574  13.759 -0.3715  0.2841 -0.0715
  322MPD2    H7 4900   4.520   1.673  13.734  0.6035  0.6170  1.1009
  323TMC3    C1 4901   4.483   1.628  13.989  0.5491 -0.3739 -0.4250
  323TMC3    C2 4902   4.549   1.743  13.965 -0.0654 -0.5747 -0.5063
  323TMC3    C3 4903   4.623   1.797  14.067 -0.3034  0.1675 -0.2894
  323TMC3    C4 4904   4.452   1.587  14.116  0.3247  0.1845 -0.3972
  323TMC3    C5 4905   4.519   1.651  14.218  0.7438  0.2909 -0.3125
  323TMC3    C6 4906   4.613   1.746  14.191 -0.2338  0.6211 -0.0435
  323TMC3     C 4907   4.503   1.524  13.887 -0.8507 -0.0051 -0.1276
  323TMC3     O 4908   4.487   1.408  13.924 -0.3998 -0.3132 -0.5071
  323TMC3     H 4909   4.575   1.781  13.867  1.6257  0.8481  0.5025
  323TMC3    H1 4910   4.398   1.495  14.139 -1.2620  1.2063 -0.0035
  323TMC3    H2 4911   4.697   1.766  14.256  0.2627  2.1492 -1.1701
  323TMC3    C7 4912   4.553   1.568  14.334  0.6227  0.3230 -0.1214
  323TMC3    C8 4913   4.714   1.903  14.042  0.3454  0.0609  0.0945
  323TMC3    O1 4914   4.523   1.449  14.332 -0.2066  0.3964  0.2775
  323TMC3    O2 4915   0.020   1.923  13.927 -0.4158 -0.8238  0.2330
  324MPD2     C 4916   1.184   3.189  15.261  0.5829 -0.6036  0.4576
  324MPD2    C1 4917   1.153   3.207  15.128 -0.4000 -0.1815  0.1784
  324MPD2    C2 4918   1.026   3.163  15.086  0.8425 -0.1970 -0.0592
  324MPD2    C3 4919   0.931   3.121  15.177 -0.2838 -0.0007 -1.1017
  324MPD2    C4 4920   0.971   3.096  15.306  0.0622  0.1494 -0.1264
  324MPD2    C5 4921   1.092   3.136  15.347 -0.0171 -0.4121  0.1772
  324MPD2     H 4922   0.997   3.172  14.981  0.3618  0.3782  0.1180
  324MPD2    H1 4923   0.905   3.044  15.374  2.8711 -2.4002  0.6085
  324MPD2    H2 4924   1.283   3.220  15.293 -0.7598  0.7057  3.4182
  324MPD2    H3 4925   1.111   3.122  15.453  0.3534 -0.0122  0.1601
  324MPD2     N 4926   0.801   3.087  15.134 -0.2775  0.6932 -0.2950
  324MPD2    H5 4927   0.751   3.022  15.193 -1.3373 -0.0087 -1.9590
  324MPD2    N1 4928   1.245   3.254  15.030 -0.4545 -0.4831 -0.1897
  324MPD2    H7 4929   1.227   3.233  14.933  2.4175  1.4369 -1.1394
  325TMC3    C1 4930   0.617   3.051  14.999  0.2637 -0.4750 -0.5675
  325TMC3    C2 4931   0.602   2.921  15.054  0.1042 -0.3677 -0.0695
  325TMC3    C3 4932   0.496   2.850  15.019  0.2669 -0.2245 -0.1293
  325TMC3    C4 4933   0.524   3.104  14.913  0.1949 -0.4551 -0.5937
  325TMC3    C5 4934   0.412   3.021  14.888  0.2916 -0.3282  0.3629
  325TMC3    C6 4935   0.397   2.895  14.938  0.1488  0.2877  0.3535
  325TMC3     C 4936   0.733   3.133  15.025  0.5041  0.1536 -0.3448
  325TMC3     O 4937   0.762   3.212  14.936 -0.5710 -0.2361 -0.6335
  325TMC3     H 4938   0.681   2.872  15.110  0.0504 -2.2728 -1.6519
  325TMC3    H1 4939   0.515   3.210  14.888 -2.9705 -0.6199 -0.1381
  325TMC3    H2 4940   0.312   2.832  14.918  1.3132 -0.7164 -1.4492
  325TMC3    C7 4941   0.316   3.065  14.788 -0.5530  0.6165  1.0174
  325TMC3    C8 4942   0.534   2.715  14.994  0.4119  0.0039  0.1308
  325TMC3    O1 4943   0.323   3.182  14.750  0.5579 -0.5275 -0.4999
  325TMC3    O2 4944   0.466   2.622  15.039 -0.0267 -0.2853  0.3792
  326MPD2     C 4945   2.410   4.090  10.790  0.1636  0.8134 -0.0179
  326MPD2    C1 4946   2.346   4.190  10.717  0.1221 -0.6165  0.1471
  326MPD2    C2 4947   2.396   4.316  10.739  0.4181  0.4119 -0.4033
  326MPD2    C3 4948   2.500   4.347  10.818  0.2897  0.0233 -0.6658
  326MPD2    C4 4949   2.560   4.249  10.889 -0.2548  0.7796  0.3952
  326MPD2    C5 4950   2.514   4.119  10.874 -0.3418 -0.1812 -0.3977
  326MPD2     H 4951   2.350   4.396  10.682 -0.1943  0.1216 -0.3150
  326MPD2    H1 4952   2.638   4.265  10.962  0.9450 -2.3523 -0.1915
  326MPD2    H2 4953   2.384   3.985  10.777 -1.7527  1.2710  0.1131
  326MPD2    H3 4954   2.571   4.044  10.927 -2.6972  0.1594  2.6495
  326MPD2     N 4955   2.564   4.474  10.818 -0.0186  0.1406 -0.1431
  326MPD2    H5 4956   2.641   4.497  10.879  2.0090 -0.8951 -2.3295
  326MPD2    N1 4957   2.236   4.166  10.630  0.1335 -0.5351  0.2104
  326MPD2    H7 4958   2.183   4.245  10.594 -0.4298 -0.0860  2.0051
  327TMC3    C1 4959   2.106   4.043  10.478  0.0138  0.1069 -0.0580
  327TMC3    C2 4960   2.036   4.156  10.471  0.2272  0.6213  0.8243
  327TMC3    C3 4961   2.000   4.196  10.344  0.0047  0.0945 -0.4418
  327TMC3    C4 4962   2.151   3.984  10.360 -0.1099  0.1861  0.4747
  327TMC3    C5 4963   2.125   4.035  10.238  0.4933 -0.2439 -0.1255
  327TMC3    C6 4964   2.040   4.136  10.227  0.2264 -0.3416 -0.1750
  327TMC3     C 4965   2.202   4.043  10.588  0.3471  0.2106 -0.0016
  327TMC3     O 4966   2.261   3.933  10.582  0.2271  0.5577  0.4154
  327TMC3     H 4967   2.001   4.204  10.562 -2.4557 -0.2861  0.2757
  327TMC3    H1 4968   2.209   3.893  10.369 -2.2252 -1.2622 -0.6167
  327TMC3    H2 4969   2.037   4.191  10.133 -0.4503 -1.3765 -0.7637
  327TMC3    C7 4970   2.254   4.090  10.191 -0.2364 -0.5315 -0.9672
  327TMC3    C8 4971   1.884   4.280  10.329  0.3052  0.3113  0.0704
  327TMC3    O1 4972   2.265   4.149  10.086  0.2982  0.2226 -0.5334
  327TMC3    O2 4973   1.856   4.311  10.215  0.2273  0.0259  0.3448
  328MPD2     C 4974   0.191   3.070  16.961 -0.3160  0.0756  0.5719
  328MPD2    C1 4975   0.089   3.048  16.868  0.1525  0.6229  0.0250
  328MPD2    C2 4976   0.021   3.162  16.817  0.3378  0.5568 -0.5085
  328MPD2    C3 4977   0.043   3.297  16.856 -0.2785  0.1108 -0.3335
  328MPD2    C4 4978   0.133   3.312  16.955 -0.3967 -0.5327  0.0706
  328MPD2    C5 4979   0.217   3.202  16.997 -0.1664 -0.4277 -0.3613
  328MPD2     H 4980   4.676   3.143  16.743 -0.9461 -0.5753  1.0996
  328MPD2    H1 4981   0.152   3.414  16.986 -1.4500 -0.6469  1.1074
  328MPD2    H2 4982   0.242   2.992  17.016  0.7440 -0.7648 -1.6007
  328MPD2    H3 4983   0.288   3.220  17.077  0.2097  3.0547 -1.4843
  328MPD2     N 4984   4.694   3.409  16.823  0.0577 -0.2452 -0.1480
  328MPD2    H5 4985   4.701   3.496  16.874  0.6369 -0.1240 -0.4370
  328MPD2    N1 4986   0.055   2.917  16.826 -0.5192 -0.3248  0.1877
  328MPD2    H7 4987   4.707   2.905  16.763 -0.0500 -0.0344 -0.4636
  329TMC3    C1 4988   0.083   2.679  16.804 -0.1475 -0.3403 -0.2206
  329TMC3    C2 4989   4.681   2.672  16.837  1.0951  0.9926 -0.5467
  329TMC3    C3 4990   4.596   2.590  16.764 -0.6240 -0.2428 -0.1606
  329TMC3    C4 4991   0.141   2.594  16.715 -0.8001  0.2321  0.6044
  329TMC3    C5 4992   0.055   2.504  16.663  0.6358 -0.3836  0.1596
  329TMC3    C6 4993   4.651   2.505  16.675  0.0844 -0.2898  0.4645
  329TMC3     C 4994   0.141   2.804  16.836  0.0781  0.1334  0.2448
  329TMC3     O 4995   0.258   2.811  16.853 -0.2052 -0.6843  0.1149
  329TMC3     H 4996   4.646   2.723  16.926 -0.1642  0.4534 -0.7342
  329TMC3    H1 4997   0.236   2.624  16.671  1.6054 -3.6123  3.0622
  329TMC3    H2 4998   4.599   2.419  16.634 -0.3592  0.0084  0.4067
  329TMC3    C7 4999   0.100   2.424  16.549 -0.6529 -0.0500 -0.6791
  329TMC3    C8 5000   4.457   2.615  16.761 -0.2970  0.0795 -0.4262
  329TMC3    O1 5001   0.017   2.386  16.469 -0.3296 -0.8186 -0.8407
  329TMC3    O2 5002   4.398   2.592  16.662 -0.3395  0.4071  0.0002
  330TMC3    C1 5003   3.257   3.410   9.677 -0.1922  0.2443  0.3838
  330TMC3    C2 5004   3.130   3.412   9.630 -0.9138  0.2550 -0.6606
  330TMC3    C3 5005   3.070   3.287   9.607  0.0414 -0.2066  0.3003
  330TMC3    C4 5006   3.315   3.287   9.710  0.3953  0.2464 -0.3671
  330TMC3    C5 5007   3.257   3.169   9.685  0.4695 -0.1314 -0.4325
  330TMC3    C6 5008   3.127   3.162   9.628 -0.2260  0.3161 -0.4903
  330TMC3     C 5009   3.315   3.527   9.739  0.4419 -0.9891  0.5527
  330TMC3     O 5010   3.405   3.499   9.818  0.0748  0.7786 -0.0891
  330TMC3     H 5011   3.078   3.503   9.600 -1.6048  0.3059  0.7113
  330TMC3    H1 5012   3.418   3.286   9.745 -0.0100  0.9318  0.8419
  330TMC3    H2 5013   3.082   3.068   9.598  1.3364 -0.2144 -1.1706
  330TMC3    C7 5014   3.300   3.061   9.770  0.0438  0.3699  0.0053
  330TMC3    C8 5015   2.942   3.304   9.545 -0.9333 -0.5750 -0.0465
  330TMC3    O1 5016   3.361   3.101   9.865  0.1154 -0.2536 -0.1035
  330TMC3    O2 5017   2.904   3.414   9.501 -0.6129 -0.1866 -0.1122
  331MPD2     C 5018   1.225   2.227  12.870 -0.4234  1.2306 -0.1707
  331MPD2    C1 5019   1.111   2.303  12.859 -0.8797 -0.3562 -0.0813
  331MPD2    C2 5020   1.004   2.261  12.946 -0.0510  0.7179  0.4150
  331MPD2    C3 5021   1.020   2.164  13.038 -0.5938 -0.0330  0.3075
  331MPD2    C4 5022   1.140   2.101  13.048 -0.3921  0.1992 -0.2974
  331MPD2    C5 5023   1.235   2.130  12.962 -0.6217  0.9031 -0.8675
  331MPD2     H 5024   0.909   2.312  12.937 -0.9394 -0.9133  0.5181
  331MPD2    H1 5025   1.157   2.041  13.137 -2.2073  0.5103  0.2674
  331MPD2    H2 5026   1.314   2.230  12.809 -0.3747  1.3870 -0.0910
  331MPD2    H3 5027   1.329   2.076  12.964 -1.0182  0.2036 -0.9500
  331MPD2     N 5028   0.901   2.132  13.114 -0.1137  0.1888 -0.6952
  331MPD2    H5 5029   0.819   2.190  13.098 -1.2630 -0.2193  3.5057
  331MPD2    N1 5030   1.112   2.413  12.765  0.2801  0.0663  0.4620
  331MPD2    H7 5031   1.201   2.447  12.729  0.8367 -0.9928  0.8180
  332TMC3    C1 5032   0.758   1.990  13.254  0.8898  0.1022  0.6209
  332TMC3    C2 5033   0.652   2.047  13.190  0.4755  0.0615 -0.2722
  332TMC3    C3 5034   0.557   1.966  13.134 -0.5469  0.2731 -0.5461
  332TMC3    C4 5035   0.760   1.853  13.284 -0.0717 -0.4820  0.1792
  332TMC3    C5 5036   0.665   1.767  13.231 -0.2088  1.6039 -0.5678
  332TMC3    C6 5037   0.570   1.829  13.157  0.5305 -0.1469  0.6107
  332TMC3     C 5038   0.895   2.025  13.198  0.2617 -0.2897 -0.2456
  332TMC3     O 5039   0.970   1.929  13.210  0.3614  0.3560  0.0230
  332TMC3     H 5040   0.653   2.154  13.170 -0.5532  0.0729 -0.2774
  332TMC3    H1 5041   0.841   1.809  13.340  1.0338  1.2210 -0.0820
  332TMC3    H2 5042   0.508   1.766  13.095  1.4241 -0.4543  0.0333
  332TMC3    C7 5043   0.713   1.649  13.168  0.2109  0.8648 -0.2518
  332TMC3    C8 5044   0.521   2.002  13.001  0.0588 -0.3019 -0.5417
  332TMC3    O1 5045   0.633   1.566  13.133 -0.1677  0.5751  0.1252
  332TMC3    O2 5046   0.542   1.911  12.924  0.0402  0.5139  0.0190
  333MPD2     C 5047   0.799   2.643  11.402  0.2329  0.2599  0.6395
  333MPD2    C1 5048   0.863   2.556  11.315 -0.1466  0.0518  0.4320
  333MPD2    C2 5049   0.864   2.424  11.346  0.0371  0.4533 -0.3074
  333MPD2    C3 5050   0.768   2.370  11.434  0.8264 -0.5788  0.2871
  333MPD2    C4 5051   0.693   2.448  11.510 -0.4019 -0.1233  0.7779
  333MPD2    C5 5052   0.708   2.588  11.488  0.3605  0.0304 -0.0153
  333MPD2     H 5053   0.907   2.347  11.284  1.4362  2.5266 -1.8946
  333MPD2    H1 5054   0.626   2.418  11.591 -1.5978 -1.4243 -0.6830
  333MPD2    H2 5055   0.813   2.750  11.398 -1.4578  0.4390 -0.3490
  333MPD2    H3 5056   0.656   2.659  11.551  1.3092 -1.1757  2.1463
  333MPD2     N 5057   0.782   2.231  11.449 -0.3300  0.6237  0.1591
  333MPD2    H5 5058   0.862   2.187  11.406 -1.8690  0.0837 -2.1270
  333MPD2    N1 5059   0.959   2.603  11.224  0.1071 -0.2185 -0.5062
  333MPD2    H7 5060   0.968   2.704  11.213  0.4731 -0.0974  0.9497
  334TMC3    C1 5061   1.120   2.597  11.062  0.4405 -0.3000 -0.8986
  334TMC3    C2 5062   1.256   2.558  11.073  0.0244 -0.1598 -0.5181
  334TMC3    C3 5063   1.345   2.657  11.036 -0.4769 -0.1655  0.4540
  334TMC3    C4 5064   1.081   2.715  11.012  0.1243 -0.4440  0.1770
  334TMC3    C5 5065   1.175   2.805  10.968 -0.3581  0.3237  0.2672
  334TMC3    C6 5066   1.305   2.776  10.980  0.0470 -0.1355 -0.4898
  334TMC3     C 5067   1.033   2.522  11.146  0.7554 -0.2739 -0.6681
  334TMC3     O 5068   1.044   2.400  11.127 -0.6054  0.6108 -0.6029
  334TMC3     H 5069   1.278   2.462  11.117  2.2901  0.2461 -0.7921
  334TMC3    H1 5070   0.975   2.735  11.012 -0.0456 -1.2963 -3.0753
  334TMC3    H2 5071   1.367   2.858  10.947 -0.7106  0.2805 -0.8795
  334TMC3    C7 5072   1.147   2.947  10.935 -0.1927  0.2378  0.4068
  334TMC3    C8 5073   1.484   2.636  11.076 -0.0813  0.5962 -0.7977
  334TMC3    O1 5074   1.224   3.036  10.969 -0.3678  0.1027  0.2866
  334TMC3    O2 5075   1.512   2.542  11.152  0.0872 -0.2954 -0.2634
  335TMC3    C1 5076   0.893   4.038  17.663  0.2663  0.5702 -0.0560
  335TMC3    C2 5077   0.922   3.916   0.001 -0.3887 -0.3038  0.8549
  335TMC3    C3 5078   1.052   3.889   0.027  0.7681 -0.3104  0.0748
  335TMC3    C4 5079   0.989   4.121  17.620 -0.5413 -0.2730 -0.1268
  335TMC3    C5 5080   1.115   4.093  17.659  0.0573 -0.1383  0.2115
  335TMC3    C6 5081   1.149   3.978   0.004 -0.2299  0.4292 -0.4059
  335TMC3     C 5082   0.766   4.067  17.607 -0.2854 -0.0533  0.3870
  335TMC3     O 5083   0.741   4.183  17.578  0.0694 -0.2455  0.0073
  335TMC3     H 5084   0.846   3.857   0.051 -1.2060  0.1601  0.1691
  335TMC3    H1 5085   0.968   4.213  17.566 -1.1162  0.2889  1.0409
  335TMC3    H2 5086   1.247   3.963   0.048 -0.3514 -1.0666 -0.6490
  335TMC3    C7 5087   1.226   4.146  17.575  0.0947  0.0253  0.2445
  335TMC3    C8 5088   1.087   3.765   0.098  0.3407 -0.2755  0.1235
  335TMC3    O1 5089   1.339   4.107  17.600  0.0001 -0.2955 -0.1501
  335TMC3    O2 5090   1.199   3.758   0.142 -0.6891 -0.5413 -0.9474
  336MPD2     C 5091   0.785   1.165  16.016 -0.1230  0.0558  0.2917
  336MPD2    C1 5092   0.721   1.140  15.897  0.5489  0.2026 -0.4193
  336MPD2    C2 5093   0.696   1.003  15.862  0.4085 -0.4920  0.6178
  336MPD2    C3 5094   0.749   0.900  15.947 -0.0527 -0.1677  0.9475
  336MPD2    C4 5095   0.824   0.939  16.060  1.0603  0.0229 -0.0665
  336MPD2    C5 5096   0.839   1.068  16.090 -0.1266  0.1093  0.5967
  336MPD2     H 5097   0.636   0.959  15.783 -0.7790  2.2324 -0.0203
  336MPD2    H1 5098   0.865   0.869  16.131 -1.1700 -2.7625 -1.5211
  336MPD2    H2 5099   0.804   1.265  16.053  1.5760 -0.6479  1.3611
  336MPD2    H3 5100   0.882   1.098  16.185  0.1984  3.4749 -0.6256
  336MPD2     N 5101   0.736   0.761  15.922 -0.2312 -0.0388 -0.0732
  336MPD2    H5 5102   0.772   0.697  15.992 -0.3021 -0.6569 -0.6005
  336MPD2    N1 5103   0.660   1.244  15.827 -0.3887 -1.1349 -0.3841
  336MPD2    H7 5104   0.627   1.210  15.737 -0.4724 -0.6988 -0.5228
  337TMC3    C1 5105   0.580   1.457  15.762 -0.3176  0.6410  0.2036
  337TMC3    C2 5106   0.462   1.518  15.798 -0.1010 -0.1756 -0.1228
  337TMC3    C3 5107   0.390   1.582  15.700  0.5589 -0.2121  0.0687
  337TMC3    C4 5108   0.632   1.456  15.637  0.5057  0.1523  1.1612
  337TMC3    C5 5109   0.552   1.521  15.544 -0.2007 -0.8088  0.1468
  337TMC3    C6 5110   0.428   1.570  15.569  0.2567 -0.2048 -0.2566
  337TMC3     C 5111   0.648   1.378  15.865  0.7359  0.1417  0.3126
  337TMC3     O 5112   0.671   1.428  15.973  0.8384 -1.2024 -0.1733
  337TMC3     H 5113   0.435   1.508  15.902 -1.4326  1.6019 -0.2883
  337TMC3    H1 5114   0.722   1.403  15.610 -0.5593 -1.0879 -0.0047
  337TMC3    H2 5115   0.383   1.620  15.483  2.2079  1.8120 -0.0945
  337TMC3    C7 5116   0.598   1.519  15.407  0.2290  0.0630  0.3291
  337TMC3    C8 5117   0.251   1.629  15.724  0.4393 -0.3823 -0.0594
  337TMC3    O1 5118   0.716   1.500  15.397  0.3703 -0.5345 -0.2100
  337TMC3    O2 5119   0.210   1.620  15.837 -0.2630 -0.6492  0.5512
  338MPD2     C 5120   1.341   1.617   0.885  0.3061 -0.3734 -0.5271
  338MPD2    C1 5121   1.243   1.586   0.794 -0.0405  0.8801  0.4982
  338MPD2    C2 5122   1.134   1.666   0.797  0.3155  0.3739  0.4042
  338MPD2    C3 5123   1.117   1.771   0.884 -0.0591 -0.3954  0.7881
  338MPD2    C4 5124   1.220   1.797   0.970  0.5695 -0.5238  0.1310
  338MPD2    C5 5125   1.336   1.723   0.967  0.4859  0.1172  0.0062
  338MPD2     H 5126   1.064   1.647   0.716  0.8401  1.0810 -0.2127
  338MPD2    H1 5127   1.214   1.878   1.042  1.5014  0.9176 -1.4283
  338MPD2    H2 5128   1.432   1.562   0.907  0.8995  0.3981 -1.0385
  338MPD2    H3 5129   1.420   1.739   1.033  0.6066 -0.5506  0.0108
  338MPD2     N 5130   0.998   1.849   0.875  0.8317 -0.1791 -0.1882
  338MPD2    H5 5131   0.938   1.834   0.795  0.2276  2.1074 -0.1473
  338MPD2    N1 5132   1.250   1.483   0.694  0.3537  0.3667  0.1746
  338MPD2    H7 5133   1.175   1.487   0.625 -0.8857 -2.1279  1.3669
  339TMC3    C1 5134   0.814   1.977   0.948 -0.4899 -0.1805 -0.4049
  339TMC3    C2 5135   0.744   1.964   1.067 -0.2970  0.1062  0.5375
  339TMC3    C3 5136   0.619   1.922   1.058  0.1554  0.3492  0.0365
  339TMC3    C4 5137   0.762   1.951   0.824 -0.3015  0.1769  0.0173
  339TMC3    C5 5138   0.639   1.899   0.820 -0.5051  1.0062  0.3560
  339TMC3    C6 5139   0.563   1.887   0.934 -0.6862 -0.1409  0.6225
  339TMC3     C 5140   0.955   1.943   0.966  0.0870 -0.3404  0.4151
  339TMC3     O 5141   1.006   1.963   1.074 -0.1332 -0.2140 -0.6814
  339TMC3     H 5142   0.787   1.991   1.163  1.6606 -2.3109  0.3388
  339TMC3    H1 5143   0.829   1.956   0.738  0.5739  0.0717  0.7002
  339TMC3    H2 5144   0.456   1.868   0.927 -0.8941  0.8942  0.9864
  339TMC3    C7 5145   0.586   1.844   0.692 -0.0113  0.3990  0.8229
  339TMC3    C8 5146   0.554   1.881   1.182  0.5102 -0.0905 -0.1559
  339TMC3    O1 5147   0.650   1.870   0.592  0.1831  0.5818 -0.0343
  339TMC3    O2 5148   0.557   1.960   1.275 -0.5680  0.3387  0.2491
  340MPD2     C 5149   0.452   3.349   9.548  0.2732  0.3009 -0.4510
  340MPD2    C1 5150   0.580   3.331   9.600 -0.1078 -0.2073 -0.6589
  340MPD2    C2 5151   0.695   3.351   9.533  0.2397 -0.2382 -0.0176
  340MPD2    C3 5152   0.689   3.407   9.409  0.8159 -0.7293 -0.6872
  340MPD2    C4 5153   0.560   3.433   9.356  0.0572  0.0943  0.2083
  340MPD2    C5 5154   0.441   3.400   9.421 -0.3683  0.1565 -0.0861
  340MPD2     H 5155   0.791   3.348   9.583 -0.0203  0.8718  0.5458
  340MPD2    H1 5156   0.550   3.473   9.256 -2.3541 -0.4795  0.2285
  340MPD2    H2 5157   0.363   3.332   9.607  1.2413  1.1019  1.2515
  340MPD2    H3 5158   0.344   3.424   9.378 -1.5285 -1.3459  1.6823
  340MPD2     N 5159   0.809   3.443   9.328 -0.0449  0.1887 -0.1433
  340MPD2    H5 5160   0.789   3.485   9.238  0.8972  0.3099 -0.2896
  340MPD2    N1 5161   0.578   3.278   9.729 -1.0115 -0.2273 -0.7165
  340MPD2    H7 5162   0.489   3.260   9.776 -0.2576 -1.1553  0.3516
  341TMC3    C1 5163   0.662   3.172   9.929 -0.3824  0.7367 -0.3449
  341TMC3    C2 5164   0.576   3.067   9.918  0.9080  0.0140  0.3433
  341TMC3    C3 5165   0.579   2.969  10.016  0.8289 -0.2661  0.5915
  341TMC3    C4 5166   0.748   3.177  10.031 -0.9106  0.5162 -0.9280
  341TMC3    C5 5167   0.739   3.089  10.133  0.0494 -0.4603  0.0419
  341TMC3    C6 5168   0.651   2.984  10.132  0.6828 -0.6737  0.3644
  341TMC3     C 5169   0.693   3.236   9.809 -0.0709 -0.1847 -0.5988
  341TMC3     O 5170   0.811   3.223   9.778  0.3660 -0.3023 -0.0947
  341TMC3     H 5171   0.520   3.050   9.827  1.8052 -2.1117  0.1795
  341TMC3    H1 5172   0.823   3.255  10.025 -0.1198 -0.0889  0.8745
  341TMC3    H2 5173   0.634   2.912  10.211 -1.0439 -0.3914  0.2533
  341TMC3    C7 5174   0.841   3.093  10.236 -0.1506  0.0713  0.0663
  341TMC3    C8 5175   0.493   2.848  10.013  0.1972  0.4012 -0.5277
  341TMC3    O1 5176   0.896   3.199  10.258  0.5669  0.2608  0.8856
  341TMC3    O2 5177   0.496   2.768  10.112 -0.4755  0.0620  0.4195
  342MPD2     C 5178   3.801   1.381  17.632  0.1135  0.0045 -0.4584
  342MPD2    C1 5179   3.855   1.440  17.517 -0.0006  0.4029  0.1525
  342MPD2    C2 5180   3.813   1.566  17.477 -0.2115  0.0400  0.5754
  342MPD2    C3 5181   3.717   1.632  17.552 -0.7490 -0.6197  0.2996
  342MPD2    C4 5182   3.668   1.577  17.670  0.0735 -0.0412 -0.1943
  342MPD2    C5 5183   3.711   1.450  17.705 -0.8284  0.3695  0.4173
  342MPD2     H 5184   3.851   1.599  17.381 -1.2283  2.1270  0.8825
  342MPD2    H1 5185   3.588   1.624   0.000  0.9739 -1.2649  2.1742
  342MPD2    H2 5186   3.827   1.284  17.672 -0.0120 -1.2145 -3.2737
  342MPD2    H3 5187   3.666   1.405   0.068 -1.0177  0.0303  0.1437
  342MPD2     N 5188   3.687   1.767  17.538 -0.3886  0.0596  0.5240
  342MPD2    H5 5189   3.613   1.808  17.594 -0.1862  0.0756  0.7805
  342MPD2    N1 5190   3.940   1.367  17.428 -0.6221  0.4687 -0.5533
  342MPD2    H7 5191   3.970   1.411  17.341  0.0083 -0.3126 -0.7283
  343TMC3    C1 5192   4.028   1.181  17.322 -0.6857  0.3151  0.0861
  343TMC3    C2 5193   4.117   1.255  17.245 -0.3438 -0.7585  0.2686
  343TMC3    C3 5194   4.168   1.199  17.137  0.3000  0.1295  0.3037
  343TMC3    C4 5195   3.994   1.053  17.300 -0.5658  0.0624 -0.3468
  343TMC3    C5 5196   4.040   1.009  17.176 -0.2079  0.3314  0.2253
  343TMC3    C6 5197   4.135   1.071  17.104  0.1383 -0.5511 -0.1873
  343TMC3     C 5198   3.966   1.239  17.439 -0.5068 -0.2023 -0.2632
  343TMC3     O 5199   3.931   1.156  17.519  0.1714 -0.2356  0.0099
  343TMC3     H 5200   4.165   1.346  17.279 -0.1567 -0.5808 -0.4637
  343TMC3    H1 5201   3.920   1.004  17.362 -2.5440  2.7341 -0.5977
  343TMC3    H2 5202   4.178   1.014  17.022  0.5570  0.2863 -0.5455
  343TMC3    C7 5203   3.969   0.888  17.129 -0.4610  0.6530  0.5241
  343TMC3    C8 5204   4.273   1.265  17.066  0.0289  0.6295 -0.2479
  343TMC3    O1 5205   3.913   0.823  17.215 -0.1798  0.3873  0.1742
  343TMC3    O2 5206   4.308   1.374  17.110  0.2370  0.0838  0.3630
  344MPD2     C 5207   3.727   1.825  10.897  0.2531 -0.4278  0.8290
  344MPD2    C1 5208   3.743   1.721  10.812  0.3820 -0.2951 -0.0748
  344MPD2    C2 5209   3.795   1.757  10.682  0.3547  0.1333  0.4359
  344MPD2    C3 5210   3.811   1.889  10.643 -0.1969 -0.2662 -0.5437
  344MPD2    C4 5211   3.778   1.993  10.727 -0.0898  0.4393  0.1107
  344MPD2    C5 5212   3.745   1.955  10.858 -0.0378  0.1333  0.0344
  344MPD2     H 5213   3.809   1.667  10.622 -0.6055 -0.4722  1.1146
  344MPD2    H1 5214   3.794   2.097  10.703  0.3350  0.8134  2.0469
  344MPD2    H2 5215   3.704   1.803  11.001 -0.4468  1.5728  1.0960
  344MPD2    H3 5216   3.739   2.041  10.923  1.3625  0.5691 -0.4178
  344MPD2     N 5217   3.864   1.916  10.512 -0.0303 -0.7001  0.7629
  344MPD2    H5 5218   3.875   2.010  10.474 -1.8679 -0.7847  0.0156
  344MPD2    N1 5219   3.727   1.585  10.844  0.0907 -0.2016  0.0779
  344MPD2    H7 5220   3.732   1.521  10.765 -3.2921 -0.4448  0.0465
  345TMC3    C1 5221   3.961   1.878  10.294  0.1324 -0.7397 -0.3056
  345TMC3    C2 5222   4.089   1.841  10.266  0.4713  0.2662 -0.1803
  345TMC3    C3 5223   4.173   1.917  10.185 -0.0900 -0.0873 -0.2246
  345TMC3    C4 5224   3.911   1.988  10.235 -0.2555  0.5906 -0.7850
  345TMC3    C5 5225   3.985   2.046  10.137  0.2973 -0.5139  0.0520
  345TMC3    C6 5226   4.115   2.013  10.110  0.0631  0.2856  0.5219
  345TMC3     C 5227   3.911   1.823  10.426 -0.1566 -0.2059  0.4970
  345TMC3     O 5228   3.943   1.708  10.453 -0.3649 -0.0710 -0.1639
  345TMC3     H 5229   4.128   1.751  10.315 -0.2312 -0.2672 -0.6039
  345TMC3    H1 5230   3.819   2.029  10.276  0.3688  0.6114  0.5831
  345TMC3    H2 5231   4.178   2.078  10.051  0.8629 -2.9913 -2.2457
  345TMC3    C7 5232   3.959   2.185  10.124  0.1320  0.0187 -0.8768
  345TMC3    C8 5233   4.272   1.972  10.270 -0.7652  0.3006 -0.0045
  345TMC3    O1 5234   3.951   2.254  10.224 -0.6648  0.8880  0.2073
  345TMC3    O2 5235   4.240   1.971  10.389  0.1245 -0.3416  0.0444
  346MPD2     C 5236   4.602   3.144  13.991  0.1329 -0.1671 -0.1321
  346MPD2    C1 5237   4.684   3.043  13.942  0.2240 -0.0557 -0.5149
  346MPD2    C2 5238   4.647   2.912  13.964  0.2839  0.8441  0.3924
  346MPD2    C3 5239   4.535   2.882  14.044 -0.3668 -0.4761  0.0745
  346MPD2    C4 5240   4.456   2.979  14.096  0.6268 -0.3783  0.8339
  346MPD2    C5 5241   4.495   3.113  14.072 -0.0896 -0.1244  0.0926
  346MPD2     H 5242   4.698   2.829  13.916 -0.2271  1.3309 -0.9966
  346MPD2    H1 5243   4.375   2.972  14.168 -1.9469  0.9381 -1.9957
  346MPD2    H2 5244   4.633   3.248  13.985 -2.4891  0.6121  0.1242
  346MPD2    H3 5245   4.433   3.191  14.114 -0.3476  0.5558 -1.5847
  346MPD2     N 5246   4.521   2.744  14.073 -0.3266  0.6051 -0.1739
  346MPD2    H5 5247   4.598   2.689  14.035 -0.8668 -0.1759 -0.1347
  346MPD2    N1 5248   0.074   3.061  13.875  0.7503 -0.1113 -0.3998
  346MPD2    H7 5249   0.126   2.976  13.855  1.3173  0.3265 -0.7595
  347TMC3    C1 5250   4.462   2.562  14.206 -0.1613  0.1680  0.0309
  347TMC3    C2 5251   4.596   2.571  14.256  0.2615  0.0551  0.5924
  347TMC3    C3 5252   4.618   2.521  14.381 -0.0145 -0.5372 -0.9162
  347TMC3    C4 5253   4.370   2.485  14.276 -0.5474 -0.1496 -0.5777
  347TMC3    C5 5254   4.409   2.414  14.385 -0.1673 -0.1589  0.0119
  347TMC3    C6 5255   4.535   2.434  14.438 -0.0620  0.3359 -0.2555
  347TMC3     C 5256   4.419   2.684  14.145  0.1145 -0.9177 -0.1693
  347TMC3     O 5257   4.317   2.736  14.185  0.1796  0.0579  0.1249
  347TMC3     H 5258   4.675   2.611  14.193  2.2454 -1.3232  2.2387
  347TMC3    H1 5259   4.265   2.476  14.250 -0.9372  1.7326  0.3529
  347TMC3    H2 5260   4.569   2.371  14.520 -2.2436  0.0587  0.4395
  347TMC3    C7 5261   4.325   2.320  14.452  0.9364  0.1299 -0.4144
  347TMC3    C8 5262   4.699   2.608  14.461 -0.5751  0.3032  0.5110
  347TMC3    O1 5263   4.360   2.275  14.561  0.2814  0.3166 -0.1468
  347TMC3    O2 5264   0.025   2.562  14.560  0.2394 -0.1431  0.0098
  348MPD2     C 5265   3.680   2.977  11.788 -0.1641 -0.0454 -0.2872
  348MPD2    C1 5266   3.544   2.982  11.749  0.9396 -0.2025 -0.0901
  348MPD2    C2 5267   3.511   3.078  11.654 -0.0269  0.6160  0.0422
  348MPD2    C3 5268   3.607   3.155  11.595 -0.8218 -0.0174  0.6261
  348MPD2    C4 5269   3.742   3.130  11.625 -0.0677  0.1421  0.7206
  348MPD2    C5 5270   3.781   3.046  11.724 -0.0200  0.1450  0.4179
  348MPD2     H 5271   3.406   3.095  11.631 -0.5966 -2.7073  0.1053
  348MPD2    H1 5272   3.829   3.181  11.586 -0.5252 -1.2021 -2.0571
  348MPD2    H2 5273   3.710   2.916  11.872 -0.6233  1.3418  0.8737
  348MPD2    H3 5274   3.883   3.037  11.760  1.1433 -1.7959 -3.3782
  348MPD2     N 5275   3.559   3.253  11.508 -0.0415  0.1011 -0.5045
  348MPD2    H5 5276   3.457   3.256  11.503 -0.1521  0.9072  1.9453
  348MPD2    N1 5277   3.439   2.894  11.786  0.6133 -0.3907  0.6271
  348MPD2    H7 5278   3.348   2.924  11.752  0.4790 -0.8373  0.5814
  349TMC3    C1 5279   3.327   2.719  11.900  0.3027  0.3179  0.0660
  349TMC3    C2 5280   3.321   2.630  12.007  0.2059  0.2713 -0.0778
  349TMC3    C3 5281   3.201   2.568  12.030  0.4890 -0.8907 -0.7675
  349TMC3    C4 5282   3.216   2.758  11.829  0.1372 -0.3193  0.6113
  349TMC3    C5 5283   3.101   2.700  11.859 -0.4488  0.5525 -0.0095
  349TMC3    C6 5284   3.089   2.608  11.961  0.1587 -0.9393 -0.0396
  349TMC3     C 5285   3.459   2.783  11.866 -0.1547  0.6624  0.3006
  349TMC3     O 5286   3.557   2.737  11.925  0.0112  0.3981  0.0858
  349TMC3     H 5287   3.411   2.603  12.062  1.5159 -0.1124 -2.4426
  349TMC3    H1 5288   3.212   2.839  11.757  0.3689  0.2988  1.2902
  349TMC3    H2 5289   2.990   2.570  11.986 -0.2949  0.0179 -0.4057
  349TMC3    C7 5290   2.983   2.722  11.777  0.0813 -0.1601 -0.7283
  349TMC3    C8 5291   3.199   2.463  12.126  0.0340  0.3416 -0.7574
  349TMC3    O1 5292   2.872   2.702  11.822  0.0817 -0.0555  0.2139
  349TMC3    O2 5293   3.304   2.424  12.176 -0.2176 -0.0960 -0.0463
  350MPD2     C 5294   2.339   1.375  10.441 -0.3184 -0.3860 -0.4409
  350MPD2    C1 5295   2.242   1.313  10.511  0.0800  0.1105 -0.0243
  350MPD2    C2 5296   2.190   1.373  10.625 -0.2693 -0.1277 -0.5497
  350MPD2    C3 5297   2.232   1.500  10.666  0.1763 -0.0440  0.4551
  350MPD2    C4 5298   2.327   1.564  10.592  0.1318  0.4051  0.0093
  350MPD2    C5 5299   2.378   1.497  10.482 -0.5415 -0.1426  0.2517
  350MPD2     H 5300   2.115   1.322  10.684  2.6397 -1.0310  2.3597
  350MPD2    H1 5301   2.363   1.662  10.620 -1.2078  1.0276 -0.4173
  350MPD2    H2 5302   2.372   1.345  10.343 -3.2756 -0.2628 -1.4930
  350MPD2    H3 5303   2.450   1.550  10.421  0.0423 -0.1469  0.9453
  350MPD2     N 5304   2.163   1.558  10.774 -0.2325 -0.3431  0.5512
  350MPD2    H5 5305   2.087   1.498  10.804  1.0435 -1.5215  1.4258
  350MPD2    N1 5306   2.189   1.189  10.476 -0.1051 -0.2428 -0.2201
  350MPD2    H7 5307   2.149   1.134  10.552 -0.6450  0.4765  0.0074
  351TMC3    C1 5308   2.146   0.994  10.333 -0.0340  0.9292  0.9781
  351TMC3    C2 5309   2.205   0.906  10.245 -0.0246  0.0248  0.1708
  351TMC3    C3 5310   2.127   0.814  10.180 -0.2327 -0.7415  0.5845
  351TMC3    C4 5311   2.016   1.004  10.355  0.3796  0.1577 -0.5536
  351TMC3    C5 5312   1.942   0.917  10.280 -0.7852 -0.9262  0.3641
  351TMC3    C6 5313   1.988   0.822  10.190 -0.2504  0.6630  0.8546
  351TMC3     C 5314   2.225   1.113  10.363  0.2952 -0.4068  0.1997
  351TMC3     O 5315   2.308   1.142  10.279 -0.3063 -0.3826 -0.4729
  351TMC3     H 5316   2.312   0.910  10.227  0.1319 -0.7587  0.9653
  351TMC3    H1 5317   1.970   1.082  10.415 -1.5036 -2.0550  0.8929
  351TMC3    H2 5318   1.928   0.781  10.110  0.3070  1.0207  0.2561
  351TMC3    C7 5319   1.797   0.942  10.272 -0.3638  0.1619  1.2442
  351TMC3    C8 5320   2.185   0.713  10.095 -0.6383 -0.6632  0.8632
  351TMC3    O1 5321   1.762   1.049  10.321  0.3149 -1.0560 -0.2022
  351TMC3    O2 5322   2.299   0.732  10.047 -0.1808 -0.0907 -0.1387
  352MPD2     C 5323   0.736   3.443   0.962 -0.0061 -0.3434 -0.4670
  352MPD2    C1 5324   0.698   3.319   0.920 -0.4725  0.0470 -0.0189
  352MPD2    C2 5325   0.788   3.225   0.876 -0.3850  0.4257 -0.4709
  352MPD2    C3 5326   0.923   3.258   0.876 -0.3780 -0.7909 -0.9217
  352MPD2    C4 5327   0.959   3.386   0.922  0.2663 -0.4624  0.6555
  352MPD2    C5 5328   0.866   3.477   0.961  0.1086 -0.1681 -0.1120
  352MPD2     H 5329   0.760   3.127   0.839 -0.4944  0.2547  0.0644
  352MPD2    H1 5330   1.063   3.419   0.924  0.2202 -0.3024  0.3955
  352MPD2    H2 5331   0.664   3.518   0.992 -0.5813 -1.0470 -0.0924
  352MPD2    H3 5332   0.880   3.580   0.993 -4.4718  0.3633  0.2288
  352MPD2     N 5333   1.031   3.177   0.824  0.2731 -1.2335 -0.1578
  352MPD2    H5 5334   1.122   3.221   0.813 -0.5801  0.1244 -1.8492
  352MPD2    N1 5335   0.555   3.288   0.914 -0.0461  0.0450  0.0160
  352MPD2    H7 5336   0.494   3.362   0.948  1.5819  0.8078  1.3085
  353TMC3    C1 5337   1.122   2.997   0.681 -0.4630 -0.1729 -0.6989
  353TMC3    C2 5338   1.219   2.948   0.763  0.2153  1.3343 -0.7688
  353TMC3    C3 5339   1.248   2.814   0.763 -0.0155 -0.3893 -0.7568
  353TMC3    C4 5340   1.077   2.918   0.582  0.3412 -0.1539 -0.3566
  353TMC3    C5 5341   1.102   2.787   0.579  0.0544 -0.3085 -0.2872
  353TMC3    C6 5342   1.190   2.729   0.673  0.5405 -0.3955  0.1716
  353TMC3     C 5343   1.010   3.060   0.755  0.5958  0.8106 -0.8444
  353TMC3     O 5344   0.909   2.993   0.744  0.1382  0.0655  0.2924
  353TMC3     H 5345   1.260   3.010   0.841 -0.6334 -0.5924  1.2128
  353TMC3    H1 5346   1.005   2.951   0.508  2.1025  1.6350 -1.2578
  353TMC3    H2 5347   1.219   2.625   0.658  0.6727 -0.2871 -0.3366
  353TMC3    C7 5348   0.989   2.706   0.538 -0.5364  0.4165 -0.2020
  353TMC3    C8 5349   1.349   2.766   0.860 -0.8531 -0.4165  0.4990
  353TMC3    O1 5350   1.014   2.593   0.489  0.1324 -0.4844  0.6405
  353TMC3    O2 5351   1.414   2.844   0.932 -0.2412  0.0967 -0.8566
  354TMC3    C1 5352   2.567   3.874  13.296  0.2402  0.3053 -0.4045
  354TMC3    C2 5353   2.483   3.968  13.248  0.2663  0.8645 -0.1811
  354TMC3    C3 5354   2.471   3.994  13.117 -0.1116  0.2308  0.2410
  354TMC3    C4 5355   2.653   3.808  13.214  0.6504  0.2106  0.2707
  354TMC3    C5 5356   2.651   3.840  13.084  0.9147 -0.5888  0.0764
  354TMC3    C6 5357   2.562   3.932  13.037  0.3951  0.2431  0.0047
  354TMC3     C 5358   2.572   3.856  13.443  0.7220  0.2571  0.1163
  354TMC3     O 5359   2.481   3.909  13.497 -0.3839  0.0324  0.0766
  354TMC3     H 5360   2.437   4.038  13.316 -0.9907  0.2930 -0.4424
  354TMC3    H1 5361   2.710   3.723  13.249 -1.8025 -0.9709  1.4140
  354TMC3    H2 5362   2.543   3.948  12.932  0.3592  2.4903  0.3702
  354TMC3    C7 5363   2.753   3.791  12.995  0.4934 -0.6038  0.5668
  354TMC3    C8 5364   2.408   4.110  13.066 -0.3173  0.3369 -0.5607
  354TMC3    O1 5365   2.799   3.676  13.009  0.8269 -0.3327  0.9318
  354TMC3    O2 5366   2.440   4.134  12.947  0.2049 -0.4772  0.0001
  355MPD2     C 5367   2.136   0.424  11.963 -0.4375 -0.5790 -0.2018
  355MPD2    C1 5368   2.243   0.445  11.887 -0.0271  0.1341 -0.3660
  355MPD2    C2 5369   2.349   0.352  11.896  0.4384  0.2831 -0.4847
  355MPD2    C3 5370   2.344   0.249  11.984 -0.2688  0.0113  0.5332
  355MPD2    C4 5371   2.235   0.237  12.066  0.0794 -0.3400 -0.7178
  355MPD2    C5 5372   2.133   0.327  12.056  0.1515 -0.0606  0.7216
  355MPD2     H 5373   2.444   0.358  11.845  0.9386 -1.0034  0.2951
  355MPD2    H1 5374   2.226   0.150  12.129 -1.2477  0.5886  0.3874
  355MPD2    H2 5375   2.048   0.487  11.957 -0.2754 -0.4555 -1.3690
  355MPD2    H3 5376   2.041   0.306  12.111 -1.7706 -1.2851 -2.9362
  355MPD2     N 5377   2.450   0.164  11.999 -0.1100 -0.7283 -0.2717
  355MPD2    H5 5378   2.443   0.105  12.082 -0.5951 -2.2625 -1.3932
  355MPD2    N1 5379   2.243   0.548  11.790  0.0819 -0.1926  0.7580
  355MPD2    H7 5380   2.195   0.635  11.814  2.2942  1.3683 -0.4413
  356TMC3    C1 5381   2.684   0.155  11.972  0.7567 -0.6692 -0.1605
  356TMC3    C2 5382   2.777   0.201  11.885  0.0059 -0.8786  0.5394
  356TMC3    C3 5383   2.873   0.297  11.916  0.8092 -0.1245  0.5619
  356TMC3    C4 5384   2.694   0.206  12.100  0.1814 -0.4570  0.0674
  356TMC3    C5 5385   2.794   0.293  12.141  0.3626  0.3063 -0.4606
  356TMC3    C6 5386   2.890   0.334  12.044  0.1924  0.7396  0.1185
  356TMC3     C 5387   2.557   0.161  11.908  0.4827  0.3574 -0.0215
  356TMC3     O 5388   2.561   0.175  11.786  0.0896 -0.0759 -0.3408
  356TMC3     H 5389   2.778   0.160  11.785 -1.9774  2.5865 -0.8960
  356TMC3    H1 5390   2.622   0.166  12.169  0.0405 -0.7159 -0.2287
  356TMC3    H2 5391   2.970   0.399  12.079 -1.1694  0.3690  3.9256
  356TMC3    C7 5392   2.826   0.298  12.285 -0.0540  0.5851  1.0683
  356TMC3    C8 5393   2.916   0.380  11.814  0.0888 -0.0586  0.7644
  356TMC3    O1 5394   2.776   0.211  12.359  0.2580  0.0045 -0.2042
  356TMC3    O2 5395   2.845   0.368  11.710  0.2915  0.4957 -0.1048
  357MPD2     C 5396   2.353   0.025   0.670 -0.2107 -0.7292 -0.3223
  357MPD2    C1 5397   2.301   0.015   0.796 -0.8650  0.1334  1.6048
  357MPD2    C2 5398   2.169   0.041   0.808  0.4134 -0.8433 -0.4218
  357MPD2    C3 5399   2.086   0.095   0.714  0.4592 -0.4077 -0.2534
  357MPD2    C4 5400   2.146   0.111   0.594 -0.1442  0.3236 -0.6036
  357MPD2    C5 5401   2.271   0.065   0.569 -0.6993 -0.1388  0.2161
  357MPD2     H 5402   2.122   0.017   0.903  2.0472 -1.8568  0.1446
  357MPD2    H1 5403   2.081   0.133   0.510 -0.4910 -1.6900 -0.8648
  357MPD2    H2 5404   2.454   4.726   0.647  0.0834  0.8685 -1.1018
  357MPD2    H3 5405   2.306   0.050   0.468 -2.5286 -0.8474 -0.3146
  357MPD2     N 5406   1.954   0.140   0.754  0.4862 -0.0845 -0.8563
  357MPD2    H5 5407   1.887   0.150   0.678 -0.4330  1.6530  0.1920
  357MPD2    N1 5408   2.386   4.708   0.903 -0.7801 -0.2902  0.2081
  357MPD2    H7 5409   2.473   4.661   0.879  0.2070  0.0621  3.0895
  358TMC3    C1 5410   2.423   4.675   1.137 -0.2653 -0.7562  0.1369
  358TMC3    C2 5411   2.513   4.579   1.098  0.8521 -0.5038 -0.6568
  358TMC3    C3 5412   2.548   4.466   1.177  0.2548 -0.2144  0.1370
  358TMC3    C4 5413   2.369   4.659   1.267 -0.0477 -0.1931  0.5916
  358TMC3    C5 5414   2.390   4.542   1.335  0.1530 -0.5151  0.1229
  358TMC3    C6 5415   2.478   4.446   1.296  0.3011 -0.1331 -0.4970
  358TMC3     C 5416   2.352   0.007   1.032 -1.1068  0.2739  0.1287
  358TMC3     O 5417   2.266   0.085   1.061 -0.8392 -0.2102 -0.4258
  358TMC3     H 5418   2.570   4.575   1.006  1.1665  1.1588 -0.5254
  358TMC3    H1 5419   2.309   0.009   1.306  3.2998  1.2312  2.8370
  358TMC3    H2 5420   2.493   4.363   1.364  2.8087 -0.8617 -1.9263
  358TMC3    C7 5421   2.344   4.536   1.473 -0.0982  0.0276  0.5565
  358TMC3    C8 5422   2.560   4.359   1.084 -0.4470  0.8454 -0.8144
  358TMC3    O1 5423   2.434   4.511   1.552 -0.1278  0.3015  0.1136
  358TMC3    O2 5424   2.663   4.356   1.016  0.2970 -0.2068 -0.5926
  359MPD2     C 5425   2.709   4.084  11.937 -0.1572 -0.6461  0.1864
  359MPD2    C1 5426   2.760   3.955  11.942  0.1907 -0.1786 -0.1948
  359MPD2    C2 5427   2.691   3.852  11.999 -0.1907 -0.3666 -0.0193
  359MPD2    C3 5428   2.564   3.872  12.056  0.1766  0.9732  0.2099
  359MPD2    C4 5429   2.509   3.997  12.046 -0.2970  0.3676  0.4697
  359MPD2    C5 5430   2.579   4.097  11.985 -0.8244  0.1570 -0.3247
  359MPD2     H 5431   2.742   3.757  12.004  2.5459  1.1563  1.1079
  359MPD2    H1 5432   2.413   4.026  12.087 -0.7855  0.9714 -1.0958
  359MPD2    H2 5433   2.764   4.169  11.899 -0.8488  0.5058  1.7258
  359MPD2    H3 5434   2.538   4.198  11.986  1.9297  1.2632  1.1228
  359MPD2     N 5435   2.493   3.763  12.128 -0.2282  0.1139 -0.3166
  359MPD2    H5 5436   2.392   3.765  12.142  0.1357  0.6313  2.2363
  359MPD2    N1 5437   2.885   3.916  11.894 -0.0118 -0.4034 -0.3837
  359MPD2    H7 5438   2.904   3.816  11.893  2.1750  0.0065  0.5654
  360TMC3    C1 5439   3.092   3.963  11.783  0.7652  0.4702 -0.7668
  360TMC3    C2 5440   3.208   4.027  11.806  0.2358 -0.5746  0.0509
  360TMC3    C3 5441   3.298   4.027  11.704  0.3180  0.0388  0.6639
  360TMC3    C4 5442   3.055   3.905  11.663  0.6918  1.0849 -0.2904
  360TMC3    C5 5443   3.150   3.902  11.564 -0.0674  0.5054  0.3154
  360TMC3    C6 5444   3.273   3.957  11.586  0.3529  0.2535  0.4446
  360TMC3     C 5445   2.981   4.009  11.861 -0.2833  0.2901 -0.0676
  360TMC3     O 5446   2.979   4.125  11.888 -0.5279 -0.1257  0.0900
  360TMC3     H 5447   3.217   4.094  11.890 -1.8178 -1.6596  1.1035
  360TMC3    H1 5448   2.949   3.888  11.652  0.5984  1.2438  0.3601
  360TMC3    H2 5449   3.355   3.953  11.515  0.3032  1.5207  0.3171
  360TMC3    C7 5450   3.129   3.842  11.438 -0.3164 -0.4375 -0.0056
  360TMC3    C8 5451   3.424   4.095  11.719 -0.2533  0.1967  0.0008
  360TMC3    O1 5452   3.219   3.833  11.357 -0.0145  0.6048  0.4442
  360TMC3    O2 5453   3.415   4.209  11.762  0.0756  0.3660  0.1922
  361MPD2     C 5454   4.621   2.002  16.534  0.7964 -0.4271  0.3521
  361MPD2    C1 5455   4.597   2.078  16.648  0.5632 -0.2628  0.1778
  361MPD2    C2 5456   4.696   2.109  16.741 -0.4395  0.8420 -0.0460
  361MPD2    C3 5457   0.089   2.057  16.720  0.7261 -0.0504  0.2437
  361MPD2    C4 5458   0.109   1.970  16.613  0.5814  0.2675 -0.0991
  361MPD2    C5 5459   0.012   1.944  16.521  0.3392  0.0244  0.0668
  361MPD2     H 5460   4.678   2.165  16.832  1.1994 -0.9655  1.3881
  361MPD2    H1 5461   0.203   1.916  16.607  0.1522 -0.1650 -2.5454
  361MPD2    H2 5462   4.550   1.979  16.455  1.9885 -1.1218 -0.5000
  361MPD2    H3 5463   0.027   1.877  16.437 -0.5588  0.6515 -0.5788
  361MPD2     N 5464   0.207   2.080  16.791  0.2309  0.5023 -0.6518
  361MPD2    H5 5465   0.294   2.036  16.762 -1.6303 -1.1726 -3.6515
  361MPD2    N1 5466   4.468   2.135  16.676 -0.2315 -0.2567 -0.2203
  361MPD2    H7 5467   4.455   2.198  16.755 -0.8963 -1.2623  0.4726
  362TMC3    C1 5468   4.262   2.218  16.637  0.2419  0.1669  0.1114
  362TMC3    C2 5469   4.238   2.239  16.770 -0.2048  0.1762  0.0364
  362TMC3    C3 5470   4.149   2.340  16.801 -0.1620  0.2743 -1.0820
  362TMC3    C4 5471   4.197   2.274  16.533  0.0743 -0.0939 -0.3511
  362TMC3    C5 5472   4.125   2.387  16.570 -0.3739 -0.3691 -0.2686
  362TMC3    C6 5473   4.095   2.419  16.702  0.4556 -0.2996  0.4192
  362TMC3     C 5474   4.361   2.119  16.596 -0.8993  0.5654  0.0671
  362TMC3     O 5475   4.336   2.056  16.496 -0.0297 -0.2388  0.1272
  362TMC3     H 5476   4.287   2.188  16.852 -0.6986 -1.0008 -0.4115
  362TMC3    H1 5477   4.222   2.260  16.428  0.4547 -2.0635  0.0046
  362TMC3    H2 5478   4.040   2.508  16.729  0.8541 -0.8376  3.0695
  362TMC3    C7 5479   4.043   2.449  16.475 -0.2420 -0.1956  0.6209
  362TMC3    C8 5480   4.139   2.381  16.942 -0.2415  0.0612  0.5139
  362TMC3    O1 5481   3.976   2.540  16.515  0.3424  0.6827 -0.4115
  362TMC3    O2 5482   4.245   2.355  17.000  0.1079 -0.2676  0.2834
  363TMC3    C1 5483   3.607   4.155   9.144  0.3542  0.6491 -0.6518
  363TMC3    C2 5484   3.663   4.278   9.152 -0.5427  0.3749  0.0733
  363TMC3    C3 5485   3.597   4.393   9.121 -0.3451  0.1757 -0.2846
  363TMC3    C4 5486   3.488   4.142   9.075 -0.0290  0.0429  0.4380
  363TMC3    C5 5487   3.426   4.257   9.030  0.1230  0.8696  0.9088
  363TMC3    C6 5488   3.474   4.384   9.064  0.4875  0.1956  0.5818
  363TMC3     C 5489   3.672   4.054   9.223  0.0572  0.4333  0.0922
  363TMC3     O 5490   3.779   4.076   9.280 -0.0073  0.0179 -0.3861
  363TMC3     H 5491   3.754   4.281   9.210 -1.0079 -1.1560  0.8932
  363TMC3    H1 5492   3.450   4.043   9.052  1.1629 -0.6388  1.4473
  363TMC3    H2 5493   3.418   4.472   9.034  1.1170  0.3156 -0.2383
  363TMC3    C7 5494   3.283   4.252   8.995 -0.0369  0.0399  0.2632
  363TMC3    C8 5495   3.638   4.526   9.161  0.8073 -0.2702  0.7579
  363TMC3    O1 5496   3.220   4.349   9.033 -0.0887 -0.4183 -0.0160
  363TMC3    O2 5497   3.577   4.624   9.120  0.6339  0.5954 -0.4917
  364MPD2     C 5498   1.543   4.606  10.515 -0.1731  0.4809 -0.2470
  364MPD2    C1 5499   1.614   4.612  10.397 -0.3390 -0.5746 -0.3344
  364MPD2    C2 5500   1.702   4.509  10.374 -0.2323 -0.9311  0.0296
  364MPD2    C3 5501   1.711   4.395  10.453 -0.0642  0.4113 -0.0510
  364MPD2    C4 5502   1.632   4.395  10.567  0.3037 -0.2942  0.2327
  364MPD2    C5 5503   1.545   4.496  10.596 -0.2712 -0.1580 -0.1351
  364MPD2     H 5504   1.773   4.514  10.293 -1.3192 -0.0689 -0.8660
  364MPD2    H1 5505   1.647   4.312  10.635  0.9962 -2.3387 -2.4369
  364MPD2    H2 5506   1.474   4.682  10.550 -0.2272  0.8536 -1.1596
  364MPD2    H3 5507   1.482   4.508  10.683  1.2478 -0.2478  0.9899
  364MPD2     N 5508   1.814   4.304  10.442  0.3518 -0.2959  0.2425
  364MPD2    H5 5509   1.832   4.244  10.522  0.3771 -2.8611 -1.6800
  364MPD2    N1 5510   1.613   0.002  10.319  0.8775 -0.1475 -0.0947
  364MPD2    H7 5511   1.560   0.079  10.358  2.9252  1.4834 -0.4562
  365TMC3    C1 5512   1.656   0.149  10.141 -0.0750  0.2105  0.2540
  365TMC3    C2 5513   1.666   0.173  10.004 -0.0116 -0.2343  0.3621
  365TMC3    C3 5514   1.693   0.300   9.964 -0.4323  0.6266 -0.5363
  365TMC3    C4 5515   1.684   0.250  10.230  0.3359  0.1401 -0.9508
  365TMC3    C5 5516   1.724   0.371  10.181  0.5218  0.0946 -0.6324
  365TMC3    C6 5517   1.725   0.398  10.050  0.0905 -0.5615  0.2198
  365TMC3     C 5518   1.663   0.018  10.188 -0.0941  0.1502  0.1760
  365TMC3     O 5519   1.698   4.661  10.113 -0.2008  0.3711 -0.1669
  365TMC3     H 5520   1.640   0.093   9.936 -2.3529 -0.4907  1.5187
  365TMC3    H1 5521   1.707   0.215  10.330 -0.8389  0.4946 -0.5585
  365TMC3    H2 5522   1.759   0.496  10.017  1.0188 -0.7361  0.6553
  365TMC3    C7 5523   1.774   0.476  10.267  1.0372  0.5133  0.1246
  365TMC3    C8 5524   1.699   0.338   9.822 -0.1449  0.4585 -0.0526
  365TMC3    O1 5525   1.838   0.566  10.216 -0.5702 -0.0073 -0.0173
  365TMC3    O2 5526   1.675   0.456   9.796  0.1566  0.2543  0.5069
  366MPD2     C 5527   4.729   0.197  15.269  0.7338 -0.2257 -0.7641
  366MPD2    C1 5528   0.071   0.287  15.196 -0.2204  0.5474 -0.2638
  366MPD2    C2 5529   0.158   0.240  15.093 -0.7154  0.1872 -0.0286
  366MPD2    C3 5530   0.186   0.106  15.079  0.3069 -0.6845 -0.3791
  366MPD2    C4 5531   0.131   0.021  15.174 -0.0737 -0.1079 -0.3712
  366MPD2    C5 5532   0.029   0.061  15.257  0.5053  0.2040  0.8830
  366MPD2     H 5533   0.220   0.309  15.037  0.1019 -0.6878 -0.1934
  366MPD2    H1 5534   0.146   4.645  15.170 -1.7146 -0.3676  0.1033
  366MPD2    H2 5535   4.648   0.232  15.331  2.6057  2.9663 -0.0839
  366MPD2    H3 5536   4.701   0.001  15.325  0.0575  1.0192  1.2165
  366MPD2     N 5537   0.274   0.065  14.973 -0.5021  0.2481  0.0654
  366MPD2    H5 5538   0.312   0.138  14.914  1.7061 -1.2514 -0.3632
  366MPD2    N1 5539   0.076   0.427  15.215 -0.3330  0.8032 -0.0072
  366MPD2    H7 5540   0.159   0.474  15.181  0.2530  0.2675  0.6818
  367TMC3    C1 5541   0.019   0.624  15.306  0.6434  0.5503  0.3068
  367TMC3    C2 5542   0.153   0.655  15.330 -0.2416 -0.0619 -0.8764
  367TMC3    C3 5543   0.201   0.786  15.330 -0.2242 -0.3521  0.3114
  367TMC3    C4 5544   4.665   0.723  15.275  0.4898 -0.0596  0.3852
  367TMC3    C5 5545   4.715   0.853  15.274 -0.0576  0.3872 -0.4554
  367TMC3    C6 5546   0.114   0.887  15.302 -0.5314 -0.5266 -0.5276
  367TMC3     C 5547   4.709   0.493  15.280 -0.5799 -0.0702  0.1821
  367TMC3     O 5548   4.592   0.465  15.301  0.6120  0.2250  0.1533
  367TMC3     H 5549   0.233   0.585  15.352 -1.2472 -0.0679  2.7334
  367TMC3    H1 5550   4.561   0.701  15.254  0.0130  1.5332  1.0276
  367TMC3    H2 5551   0.135   0.994  15.303 -0.3966 -0.5507 -0.7897
  367TMC3    C7 5552   4.645   0.965  15.220  0.3982  0.0250 -0.0223
  367TMC3    C8 5553   0.342   0.814  15.366  0.4380  0.3747  0.3193
  367TMC3    O1 5554   4.679   1.078  15.253  0.2312  0.3065  0.0679
  367TMC3    O2 5555   0.384   0.747  15.465 -0.3519  0.1233 -0.4366
  368MPD2     C 5556   1.654   2.206  12.929  0.5427 -0.6203  0.5625
  368MPD2    C1 5557   1.595   2.323  12.891  0.4504  0.3313 -0.5319
  368MPD2    C2 5558   1.648   2.384  12.778 -0.4905  0.1724  0.2079
  368MPD2    C3 5559   1.736   2.327  12.689 -1.1428  0.4055  0.1015
  368MPD2    C4 5560   1.780   2.201  12.721  0.5857 -0.4310 -0.5317
  368MPD2    C5 5561   1.741   2.149  12.844  0.8210 -0.4031  0.8902
  368MPD2     H 5562   1.608   2.482  12.753  0.6692  0.7215  0.4907
  368MPD2    H1 5563   1.852   2.146  12.661  0.8445  0.1624 -0.7626
  368MPD2    H2 5564   1.641   2.164  13.028  0.4181 -0.3416  0.6672
  368MPD2    H3 5565   1.793   2.062  12.884  0.1869 -2.1457 -2.0877
  368MPD2     N 5566   1.792   2.388  12.572  0.2132  0.6899 -0.3454
  368MPD2    H5 5567   1.873   2.348  12.526 -0.1085  1.6493 -1.7761
  368MPD2    N1 5568   1.504   2.385  12.977  0.4992  0.0799 -0.1188
  368MPD2    H7 5569   1.495   2.332  13.063 -2.8584  1.6972  0.5152
  369TMC3    C1 5570   1.377   2.570  13.027 -0.6769  0.0388  0.2774
  369TMC3    C2 5571   1.359   2.695  12.992  0.4953 -0.0786  0.3846
  369TMC3    C3 5572   1.324   2.777  13.089 -0.4128  0.1522  0.4258
  369TMC3    C4 5573   1.363   2.526  13.154 -0.1165 -0.1360 -0.2802
  369TMC3    C5 5574   1.333   2.621  13.254  0.5524 -0.6865 -0.3375
  369TMC3    C6 5575   1.307   2.751  13.221 -0.0948  0.0807  0.6628
  369TMC3     C 5576   1.424   2.483  12.927  0.5035  0.3817  0.8503
  369TMC3     O 5577   1.401   2.517  12.812 -0.4506 -0.0459  0.1652
  369TMC3     H 5578   1.376   2.726  12.890 -0.4781 -0.0768  0.2260
  369TMC3    H1 5579   1.349   2.421  13.176 -1.8682  0.0344 -0.5516
  369TMC3    H2 5580   1.290   2.828  13.295 -1.4436  1.1922 -0.7835
  369TMC3    C7 5581   1.319   2.581  13.398 -0.0724 -0.3334 -0.6206
  369TMC3    C8 5582   1.331   2.908  13.042  0.1165  0.1994 -0.2318
  369TMC3    O1 5583   1.266   2.664  13.470  0.3457  0.1642  0.0184
  369TMC3    O2 5584   1.225   2.970  13.027 -0.1630 -0.0110  0.9246
  370TMC3    C1 5585   1.354   3.153  16.703 -0.2794  0.2241  0.5428
  370TMC3    C2 5586   1.310   3.081  16.809 -0.2769  0.1422  0.2810
  370TMC3    C3 5587   1.300   2.945  16.793 -0.2161  0.0926  0.3773
  370TMC3    C4 5588   1.394   3.090  16.587 -0.1038  0.6344  0.3080
  370TMC3    C5 5589   1.394   2.956  16.586  0.6825  0.0550  0.8578
  370TMC3    C6 5590   1.341   2.877  16.680 -0.1389 -0.4190  0.7224
  370TMC3     C 5591   1.383   3.293  16.737  0.9279 -0.2423  0.3411
  370TMC3     O 5592   1.350   3.347  16.841  0.6551  0.1119 -1.2040
  370TMC3     H 5593   1.325   3.127  16.905 -1.8279 -0.2258  0.6952
  370TMC3    H1 5594   1.438   3.153  16.511 -0.6092 -0.1924 -0.6664
  370TMC3    H2 5595   1.345   2.771  16.659  0.9408 -0.0308 -1.1269
  370TMC3    C7 5596   1.450   2.899  16.471  0.2955 -0.1653  0.2215
  370TMC3    C8 5597   1.259   2.861  16.905  0.1041 -0.4769 -0.1946
  370TMC3    O1 5598   1.401   2.929  16.362  0.2320 -0.1993 -0.2199
  370TMC3    O2 5599   1.286   2.747  16.885  0.0334  0.2271 -0.7199
  371TMC3    C1 5600   2.610   1.670  15.575 -0.3236  0.1491 -0.2223
  371TMC3    C2 5601   2.599   1.670  15.717 -0.1302  0.5346  0.3811
  371TMC3    C3 5602   2.604   1.787  15.780  0.3092 -0.4487  0.3628
  371TMC3    C4 5603   2.620   1.786  15.505  0.1425 -0.0459  0.1356
  371TMC3    C5 5604   2.601   1.905  15.577  0.4062 -0.1191 -0.3288
  371TMC3    C6 5605   2.593   1.911  15.711 -0.0007 -0.7309 -0.2624
  371TMC3     C 5606   2.620   1.544  15.502  0.0360  0.2301 -0.1444
  371TMC3     O 5607   2.669   1.557  15.392  0.3522  0.5429  0.6652
  371TMC3     H 5608   2.608   1.581  15.779 -1.7616  1.3173  1.7506
  371TMC3    H1 5609   2.627   1.785  15.397 -2.3521 -0.4166 -0.0264
  371TMC3    H2 5610   2.594   2.012  15.749 -2.0222 -1.1081  0.7867
  371TMC3    C7 5611   2.587   2.038  15.509 -0.9363 -0.2724  0.2701
  371TMC3    C8 5612   2.593   1.785  15.924 -0.6587  0.0242  0.6455
  371TMC3    O1 5613   2.553   2.137  15.575  0.1277 -0.0243 -0.3670
  371TMC3    O2 5614   2.612   1.676  15.986 -0.5596 -0.3296 -0.1264
  372MPD2     C 5615   1.791   2.897  13.474  0.5458 -0.7379 -0.2430
  372MPD2    C1 5616   1.890   2.843  13.550 -1.1279  0.5765 -0.2867
  372MPD2    C2 5617   1.856   2.730  13.621 -0.1258  0.2594  0.0728
  372MPD2    C3 5618   1.727   2.679  13.631  0.1955 -0.2861  0.3747
  372MPD2    C4 5619   1.624   2.746  13.553  0.4593 -1.2363  0.3401
  372MPD2    C5 5620   1.665   2.852  13.476 -0.4729  0.0167  0.9339
  372MPD2     H 5621   1.928   2.692  13.692 -0.2292  1.8536  1.0322
  372MPD2    H1 5622   1.519   2.719  13.552 -0.2435  1.4821  1.5466
  372MPD2    H2 5623   1.811   2.975  13.402  0.9076  0.0935  0.7591
  372MPD2    H3 5624   1.597   2.893  13.402  1.2538 -0.5976 -0.9867
  372MPD2     N 5625   1.702   2.564  13.713  0.0013  0.0030 -0.5519
  372MPD2    H5 5626   1.785   2.513  13.743  0.6048  1.4024  0.1533
  372MPD2    N1 5627   2.018   2.892  13.555  0.2440 -0.1763 -0.0161
  372MPD2    H7 5628   2.078   2.872  13.634 -0.8578  2.5154  1.5025
  373TMC3    C1 5629   1.578   2.407  13.837 -0.0458  0.2234 -0.6024
  373TMC3    C2 5630   1.522   2.421  13.960 -0.4812 -0.4569 -0.0999
  373TMC3    C3 5631   1.569   2.339  14.059 -0.0289 -0.1101  0.4045
  373TMC3    C4 5632   1.678   2.310  13.816  0.4432  0.8128 -0.0291
  373TMC3    C5 5633   1.715   2.221  13.917  0.6837 -0.4729 -0.2208
  373TMC3    C6 5634   1.666   2.237  14.043  0.6181  0.8404  0.3673
  373TMC3     C 5635   1.579   2.531  13.760  0.3950  0.1491  0.5205
  373TMC3     O 5636   1.481   2.604  13.766 -0.0740 -0.1473  0.5687
  373TMC3     H 5637   1.462   2.509  13.978 -0.6952 -0.5132 -0.5365
  373TMC3    H1 5638   1.718   2.300  13.716  0.4339  1.3954 -0.0957
  373TMC3    H2 5639   1.710   2.189  14.130 -0.2053 -4.4138 -2.0815
  373TMC3    C7 5640   1.803   2.111  13.876 -0.4358  0.0841  0.8416
  373TMC3    C8 5641   1.567   2.391  14.201  0.2014 -0.6992 -0.4739
  373TMC3    O1 5642   1.802   2.075  13.760 -0.3394  0.0081  0.5504
  373TMC3    O2 5643   1.670   2.387  14.273 -0.0709 -0.0850  0.1144
  374TMC3    C1 5644   2.418   3.176   9.785  0.1581 -0.3316 -0.5214
  374TMC3    C2 5645   2.519   3.267   9.775  0.2238  0.4288  0.0460
  374TMC3    C3 5646   2.492   3.373   9.691  0.3411 -0.2559 -0.0625
  374TMC3    C4 5647   2.300   3.184   9.722  0.3314  0.1020  0.4268
  374TMC3    C5 5648   2.285   3.282   9.627 -0.6488 -0.1481 -0.2131
  374TMC3    C6 5649   2.374   3.384   9.622  0.0781  0.6105 -0.4420
  374TMC3     C 5650   2.427   3.077   9.889 -0.3798  0.8338 -0.2832
  374TMC3     O 5651   2.530   3.024   9.928  0.0418 -0.3587  0.2084
  374TMC3     H 5652   2.615   3.257   9.824 -0.8258 -3.3263  1.3154
  374TMC3    H1 5653   2.239   3.094   9.720  1.4972 -0.6760 -1.0399
  374TMC3    H2 5654   2.347   3.472   9.565 -0.0759 -0.3910 -1.9186
  374TMC3    C7 5655   2.179   3.257   9.525  0.3827 -0.7682 -0.0858
  374TMC3    C8 5656   2.586   3.481   9.667  0.1042  0.4219 -0.2272
  374TMC3    O1 5657   2.102   3.169   9.548 -0.4823  0.4525  0.1450
  374TMC3    O2 5658   2.574   3.549   9.565 -0.3188  0.2591  0.6270
  375MPD2     C 5659   2.439   4.241  17.023  0.3195 -0.0070  0.7669
  375MPD2    C1 5660   2.381   4.113  17.018 -0.2261 -1.6082  0.5057
  375MPD2    C2 5661   2.453   4.005  16.975 -0.3673 -0.2922  0.2893
  375MPD2    C3 5662   2.585   4.016  16.933  0.6130  0.1058 -0.2832
  375MPD2    C4 5663   2.641   4.142  16.922  0.6625 -0.7584  0.4896
  375MPD2    C5 5664   2.570   4.252  16.971 -0.7139 -0.1151 -1.0495
  375MPD2     H 5665   2.404   3.909  16.964 -0.8472 -0.0351  0.1667
  375MPD2    H1 5666   2.738   4.158  16.876 -0.4729  1.8272 -1.0212
  375MPD2    H2 5667   2.390   4.335  17.047  1.6397  0.9923 -0.4717
  375MPD2    H3 5668   2.605   4.354  16.961  0.4266 -0.5537 -1.5298
  375MPD2     N 5669   2.663   3.905  16.894  0.2234 -0.1698 -0.1845
  375MPD2    H5 5670   2.762   3.923  16.878  0.7110 -0.3136  2.6285
  375MPD2    N1 5671   2.243   4.087  17.038 -0.0593  0.2637  0.1848
  375MPD2    H7 5672   2.209   3.992  17.035  0.3138  0.1579 -0.9075
  376TMC3    C1 5673   2.742   3.694  16.842 -0.5412 -0.4715  0.4126
  376TMC3    C2 5674   2.872   3.731  16.868 -0.2369 -0.5880 -0.9242
  376TMC3    C3 5675   2.973   3.645  16.820 -0.2749  0.0851  0.9829
  376TMC3    C4 5676   2.706   3.575  16.786 -0.2353 -0.0346 -0.3837
  376TMC3    C5 5677   2.813   3.488  16.751 -1.1574 -0.7502 -0.1761
  376TMC3    C6 5678   2.938   3.528  16.756 -0.5149  0.1731 -0.1092
  376TMC3     C 5679   2.621   3.775  16.878 -0.0609 -0.5042 -0.7970
  376TMC3     O 5680   2.509   3.724  16.887  0.3885 -0.1059  0.7553
  376TMC3     H 5681   2.892   3.832  16.903  0.8306  0.3893 -4.4283
  376TMC3    H1 5682   2.606   3.533  16.776 -0.6181  0.8394 -0.1633
  376TMC3    H2 5683   3.022   3.464  16.730  1.1563  1.8127  1.2805
  376TMC3    C7 5684   2.777   3.404  16.644 -0.5980  0.5313  0.5725
  376TMC3    C8 5685   3.114   3.682  16.810  0.2760 -0.2015  0.2864
  376TMC3    O1 5686   2.662   3.424  16.603  0.1891  0.0331  0.0050
  376TMC3    O2 5687   3.169   3.642  16.709 -0.3508 -0.0325 -0.3048
  377MPD2     C 5688   1.012   2.573  13.110  0.0684 -0.0744  0.2359
  377MPD2    C1 5689   0.919   2.672  13.113  0.0242 -0.5795  0.0382
  377MPD2    C2 5690   0.826   2.675  13.222  0.5893 -0.5838 -0.0925
  377MPD2    C3 5691   0.827   2.574  13.319 -0.2061 -0.4777 -0.2392
  377MPD2    C4 5692   0.928   2.474  13.313 -0.3133  0.6163  0.3672
  377MPD2    C5 5693   1.010   2.477  13.205 -1.0226  0.7403  0.0115
  377MPD2     H 5694   0.750   2.753  13.222  2.4782  1.2462 -2.6492
  377MPD2    H1 5695   0.929   2.392  13.383  0.2450 -2.8122 -3.6653
  377MPD2    H2 5696   1.083   2.565  13.028  0.5974  0.1955  0.6676
  377MPD2    H3 5697   1.091   2.406  13.195 -2.3579 -0.5610 -1.4883
  377MPD2     N 5698   0.737   2.554  13.422  0.6846 -0.1653  0.4548
  377MPD2    H5 5699   0.757   2.472  13.479 -0.0294 -0.8183 -0.2177
  377MPD2    N1 5700   0.911   2.759  13.004  0.4746 -0.4884 -0.0551
  377MPD2    H7 5701   0.958   2.722  12.922 -0.6360  0.0347 -0.9374
  378TMC3    C1 5702   0.733   3.036  12.693  0.5154  0.1197  0.4193
  378TMC3    C2 5703   0.729   3.000  12.824  0.4861  0.6116  0.1794
  378TMC3    C3 5704   0.841   2.935  12.869  0.3062  0.1800  0.2918
  378TMC3    C4 5705   0.852   3.027  12.616  0.1072  0.7506  0.5606
  378TMC3    C5 5706   0.969   2.999  12.680  0.0382  0.5224  0.3045
  378TMC3    C6 5707   0.961   2.942  12.806  0.0477 -0.1070  0.6029
  378TMC3     C 5708   0.608   3.064  12.625 -0.6347  0.4180  0.4994
  378TMC3     O 5709   0.509   3.026  12.683 -0.3468 -0.0159  0.4172
  378TMC3     H 5710   0.634   2.990  12.876  0.2422 -0.5310 -0.4737
  378TMC3    H1 5711   0.861   3.057  12.512 -1.3642 -0.7015  0.0193
  378TMC3    H2 5712   1.049   2.895  12.848 -0.6217 -0.8612  1.1527
  378TMC3    C7 5713   1.100   3.010  12.612 -0.3408 -0.2727 -0.3625
  378TMC3    C8 5714   0.833   2.871  12.995  1.0767  0.5681 -0.6006
  378TMC3    O1 5715   1.183   2.949  12.677  0.3398 -0.9265 -0.0094
  378TMC3    O2 5716   0.774   2.929  13.086 -0.0065  0.5262 -0.2361
  379MPD2     C 5717   1.245   1.235  16.177 -0.4919 -0.0239 -0.6267
  379MPD2    C1 5718   1.271   1.107  16.131  0.3905 -0.1615  0.4706
  379MPD2    C2 5719   1.384   1.042  16.179 -0.4360 -0.0035  0.0960
  379MPD2    C3 5720   1.456   1.092  16.283 -0.6098  0.1765  0.3174
  379MPD2    C4 5721   1.420   1.210  16.329 -0.4784  0.0991  0.3472
  379MPD2    C5 5722   1.317   1.286  16.279 -0.8511  0.0371  0.4535
  379MPD2     H 5723   1.398   0.941  16.144 -2.4970  0.2891 -1.5578
  379MPD2    H1 5724   1.463   1.252  16.420 -0.8726 -0.3210  0.7278
  379MPD2    H2 5725   1.152   1.285  16.155 -0.2447  0.3948 -0.7242
  379MPD2    H3 5726   1.288   1.380  16.325  1.7212  1.4832 -0.9027
  379MPD2     N 5727   1.569   1.027  16.337 -0.3023 -0.0369  0.3530
  379MPD2    H5 5728   1.604   1.046  16.431 -0.1957  2.1767 -0.1277
  379MPD2    N1 5729   1.184   1.054  16.034  0.4707  0.6385 -0.1918
  379MPD2    H7 5730   1.116   1.111  15.985 -0.0143 -0.0499 -0.3227
  380TMC3    C1 5731   1.093   0.891  15.891 -0.1789  0.3800 -0.0400
  380TMC3    C2 5732   1.119   0.766  15.845 -0.0213 -0.5289  0.6557
  380TMC3    C3 5733   1.075   0.738  15.719  0.1123  0.8360 -0.5341
  380TMC3    C4 5734   1.042   0.995  15.813 -0.4336  0.0099 -0.1432
  380TMC3    C5 5735   0.998   0.953  15.692 -0.2543  1.1039  0.0142
  380TMC3    C6 5736   1.005   0.828  15.649  0.0468 -0.4731 -0.3493
  380TMC3     C 5737   1.179   0.921  16.006  0.2887 -0.5285 -0.2974
  380TMC3     O 5738   1.208   0.834  16.090  0.2986  0.2062 -0.4077
  380TMC3     H 5739   1.182   0.698  15.900  0.4291 -0.3758  0.3303
  380TMC3    H1 5740   1.022   1.095  15.851  1.6006  0.5756 -0.5260
  380TMC3    H2 5741   0.963   0.792  15.556 -0.1277  0.9118 -0.8160
  380TMC3    C7 5742   0.909   1.042  15.623 -0.2585 -0.2659  0.7202
  380TMC3    C8 5743   1.126   0.624  15.654 -0.6072  0.8615  0.8870
  380TMC3    O1 5744   0.939   1.160  15.620  0.3799 -0.2755  0.0540
  380TMC3    O2 5745   1.040   0.550  15.604  0.0887 -0.1168 -0.0148
  381TMC3    C1 5746   1.440   2.253  16.770 -0.4735 -0.6516 -0.6130
  381TMC3    C2 5747   1.496   2.375  16.733 -0.4925 -0.1693 -0.5322
  381TMC3    C3 5748   1.477   2.477  16.823 -0.2983  0.2500 -0.2980
  381TMC3    C4 5749   1.355   2.235  16.874  0.2664  0.1790  0.0069
  381TMC3    C5 5750   1.341   2.338  16.961 -0.4704 -0.7174  0.5131
  381TMC3    C6 5751   1.397   2.462  16.934  0.1211  0.5411  0.7663
  381TMC3     C 5752   1.423   2.163  16.660 -0.3378  0.1994  0.7119
  381TMC3     O 5753   1.383   2.051  16.687 -0.6071 -0.2759 -0.4049
  381TMC3     H 5754   1.564   2.381  16.649  1.6827 -3.1734  1.0287
  381TMC3    H1 5755   1.315   2.137  16.896 -2.4075  1.5992  1.4504
  381TMC3    H2 5756   1.381   2.545  17.002 -2.9238  0.0752  0.6298
  381TMC3    C7 5757   1.246   2.312  17.067  0.5630  0.3233 -0.3553
  381TMC3    C8 5758   1.568   2.591  16.807  0.3058  0.2550 -0.4143
  381TMC3    O1 5759   1.212   2.193  17.080  0.1179  0.5165 -0.2767
  381TMC3    O2 5760   1.603   2.622  16.694  0.0202  0.0708 -0.8015
  382MPD2     C 5761   0.198   4.597  16.730  0.2793  0.0923 -0.0592
  382MPD2    C1 5762   0.267   4.574  16.854  0.1097  0.1218 -0.6338
  382MPD2    C2 5763   0.282   4.443  16.903 -0.6123 -0.0070  0.2478
  382MPD2    C3 5764   0.231   4.329  16.848 -1.0177 -0.0601 -0.8942
  382MPD2    C4 5765   0.161   4.347  16.731 -0.1545  0.6672 -0.7657
  382MPD2    C5 5766   0.147   4.475  16.676 -0.2321  0.0850  0.3161
  382MPD2     H 5767   0.333   4.431  16.998 -0.2879  1.4462  0.2557
  382MPD2    H1 5768   0.097   4.270  16.690  1.1106  0.8864 -3.1362
  382MPD2    H2 5769   0.185   4.693  16.682  0.8877  0.5353  0.6495
  382MPD2    H3 5770   0.084   4.489  16.588 -0.7726  2.3774  1.0635
  382MPD2     N 5771   0.249   4.196  16.902  0.1974  0.2365 -0.9174
  382MPD2    H5 5772   0.184   4.132  16.857 -0.9511  0.6759  0.1274
  382MPD2    N1 5773   0.315   4.676  16.940 -0.3023  0.3112 -0.1577
  382MPD2    H7 5774   0.356   4.649  17.029  2.5845 -1.2892 -1.9591
  383TMC3    C1 5775   0.332   4.024  17.024  0.7451  0.4156  0.6661
  383TMC3    C2 5776   0.222   3.949  17.001  0.2721  0.0187 -0.3000
  383TMC3    C3 5777   0.207   3.829  17.063 -0.8116  0.7228  0.3834
  383TMC3    C4 5778   0.424   3.981  17.119 -0.1653 -0.6925  0.6040
  383TMC3    C5 5779   0.407   3.855  17.175 -0.4762  0.3286  0.3392
  383TMC3    C6 5780   0.303   3.777  17.146 -0.8656 -0.0082 -0.2477
  383TMC3     C 5781   0.330   4.162  16.998  0.1152  0.2942 -0.2148
  383TMC3     O 5782   0.420   4.231  17.048 -0.3026  0.3118 -0.3025
  383TMC3     H 5783   0.144   3.979  16.933  2.0404  2.2517 -1.3463
  383TMC3    H1 5784   0.510   4.044  17.134  0.9510 -2.4589  1.6527
  383TMC3    H2 5785   0.307   3.671  17.168 -2.3529 -0.1278 -0.5422
  383TMC3    C7 5786   0.515   3.796  17.247  0.6668 -0.2828 -0.6378
  383TMC3    C8 5787   0.084   3.761  17.042  0.8054 -1.0360 -0.7053
  383TMC3    O1 5788   0.510   3.674  17.274 -1.0366 -0.3458  0.0673
  383TMC3    O2 5789   0.013   3.794  16.949  0.0639  0.6927 -1.0168
  384MPD2     C 5790   1.110   0.660  12.302  0.2332  0.0724  0.0117
  384MPD2    C1 5791   1.235   0.706  12.332  0.0827 -0.3115  0.0803
  384MPD2    C2 5792   1.296   0.796  12.248  0.4019  0.1767  0.5451
  384MPD2    C3 5793   1.228   0.853  12.143 -0.0355  0.4038 -0.1762
  384MPD2    C4 5794   1.095   0.822  12.128 -0.0361  0.2626 -0.4746
  384MPD2    C5 5795   1.041   0.722  12.206  0.1715  0.4060 -1.0599
  384MPD2     H 5796   1.400   0.819  12.266  0.8331 -1.8719  0.7230
  384MPD2    H1 5797   1.035   0.869  12.051  0.2947 -0.3697 -1.1277
  384MPD2    H2 5798   1.056   0.595  12.369 -1.0953 -0.0159 -1.1482
  384MPD2    H3 5799   0.934   0.709  12.192 -0.4273 -0.0003  4.1839
  384MPD2     N 5800   1.292   0.948  12.066  0.4039 -0.6095 -0.3478
  384MPD2    H5 5801   1.388   0.977  12.086  0.5442 -0.8368 -0.6846
  384MPD2    N1 5802   1.288   0.672  12.458 -0.0379  0.0793  0.4312
  384MPD2    H7 5803   1.227   0.619  12.519 -1.2361  0.8772 -0.0544
  385TMC3    C1 5804   1.333   1.141  11.936  0.4265  0.2612  0.2531
  385TMC3    C2 5805   1.347   1.179  11.808  0.0907 -0.1973 -0.3192
  385TMC3    C3 5806   1.431   1.286  11.782  0.1670 -0.5113 -0.0155
  385TMC3    C4 5807   1.380   1.212  12.039 -0.8607  0.3882 -0.6662
  385TMC3    C5 5808   1.468   1.307  12.005 -0.2911  0.4830 -0.0087
  385TMC3    C6 5809   1.491   1.353  11.881  0.2966 -0.3040  0.0378
  385TMC3     C 5810   1.243   1.030  11.974 -0.6265  0.0832  0.0769
  385TMC3     O 5811   1.133   1.028  11.914  0.0376 -0.0559  0.6109
  385TMC3     H 5812   1.312   1.117  11.726 -0.4851 -0.1911 -0.0727
  385TMC3    H1 5813   1.341   1.199  12.140 -2.4342 -0.5823 -1.4143
  385TMC3    H2 5814   1.558   1.437  11.866  0.0603 -0.1664 -0.2464
  385TMC3    C7 5815   1.560   1.360  12.104  0.4481  0.6508 -0.3604
  385TMC3    C8 5816   1.482   1.302  11.654 -0.2626  0.2002  0.6857
  385TMC3    O1 5817   1.581   1.481  12.100 -0.5298  0.6361 -0.6240
  385TMC3    O2 5818   1.516   1.413  11.618  0.5479  0.2409  0.2108
  386TMC3    C1 5819   1.861   3.557  11.655 -0.0500 -0.5792  0.2031
  386TMC3    C2 5820   1.839   3.621  11.543  0.5312 -0.4925  0.2568
  386TMC3    C3 5821   1.717   3.687  11.527  0.8920 -0.2666 -0.8943
  386TMC3    C4 5822   1.769   3.552  11.760 -0.0057 -0.2765 -0.1857
  386TMC3    C5 5823   1.652   3.630  11.747 -0.2100 -0.3909  0.4219
  386TMC3    C6 5824   1.627   3.700  11.629 -0.2683 -0.3984 -0.2739
  386TMC3     C 5825   1.983   3.482  11.671  0.1392 -0.0573  0.2698
  386TMC3     O 5826   2.078   3.505  11.594 -0.1710 -0.4113  0.8319
  386TMC3     H 5827   1.913   3.603  11.466  3.3875  0.1020  2.8584
  386TMC3    H1 5828   1.787   3.501  11.854 -0.1581 -1.9334 -1.0621
  386TMC3    H2 5829   1.552   3.778  11.633  0.8372  0.6513 -0.0753
  386TMC3    C7 5830   1.571   3.642  11.868 -0.1786  0.0027 -0.9927
  386TMC3    C8 5831   1.670   3.727  11.393 -0.3040 -0.8907 -0.0231
  386TMC3    O1 5832   1.603   3.574  11.965 -0.2435 -0.3784  0.7262
  386TMC3    O2 5833   1.555   3.767  11.394 -0.8033  0.0170 -0.0471
  387MPD2     C 5834   4.373   3.726  10.231 -0.4051 -0.4132  0.2287
  387MPD2    C1 5835   4.405   3.652  10.338 -0.3997  0.7364 -0.1222
  387MPD2    C2 5836   4.353   3.526  10.341 -0.2629 -0.6223 -0.7976
  387MPD2    C3 5837   4.287   3.468  10.236 -0.0667 -0.0151 -0.4995
  387MPD2    C4 5838   4.267   3.539  10.126 -0.4434  0.7414  0.8739
  387MPD2    C5 5839   4.309   3.671  10.124 -0.0599  0.1251 -0.2097
  387MPD2     H 5840   4.372   3.451  10.418  1.3710 -0.2373 -0.8189
  387MPD2    H1 5841   4.214   3.502  10.039  2.6203 -0.9954 -0.2417
  387MPD2    H2 5842   4.405   3.828  10.216  1.3921 -1.1275 -0.8780
  387MPD2    H3 5843   4.278   3.737  10.045 -0.9837 -0.1489 -0.0821
  387MPD2     N 5844   4.245   3.334  10.253  0.2740 -0.3350 -0.1464
  387MPD2    H5 5845   4.246   3.298  10.348  0.5667 -1.1813 -0.4676
  387MPD2    N1 5846   4.486   3.679  10.447  0.3849 -0.5138 -0.4204
  387MPD2    H7 5847   4.491   3.612  10.523  0.1952  1.3738  1.2528
  388TMC3    C1 5848   4.677   3.769  10.540  0.1322  0.3462 -0.6604
  388TMC3    C2 5849   4.706   3.850  10.650 -0.0383  0.7205  0.2608
  388TMC3    C3 5850   0.068   3.797  10.739  0.0283 -0.3810  0.2197
  388TMC3    C4 5851   0.001   3.649  10.520  0.4647 -0.2960 -0.1072
  388TMC3    C5 5852   0.092   3.608  10.616  0.0706 -0.0200  0.1551
  388TMC3    C6 5853   0.102   3.670  10.729 -0.3650 -0.3386  0.0218
  388TMC3     C 5854   4.563   3.794  10.459  0.0474 -0.4053 -0.9389
  388TMC3     O 5855   4.559   3.906  10.408  0.8660  0.1209  0.2549
  388TMC3     H 5856   4.654   3.945  10.657 -0.6155  0.6448 -2.7257
  388TMC3    H1 5857   4.723   3.605  10.422 -1.7437 -0.1346  0.0259
  388TMC3    H2 5858   0.172   3.623  10.798 -3.0201 -1.8850  1.6630
  388TMC3    C7 5859   0.123   3.462  10.617  0.4523  0.6675 -0.1177
  388TMC3    C8 5860   0.097   3.847  10.871  0.0128  0.0994  0.1589
  388TMC3    O1 5861   0.189   3.422  10.712 -1.0047  0.1288 -0.4047
  388TMC3    O2 5862   0.073   3.784  10.975 -0.3160 -0.0402 -0.3612
  389MPD2     C 5863   3.616   1.980  11.232  0.2976  0.0192 -0.0404
  389MPD2    C1 5864   3.494   1.925  11.202 -0.4082  0.4048  0.0526
  389MPD2    C2 5865   3.413   1.873  11.302 -0.2049 -0.0162  0.1619
  389MPD2    C3 5866   3.466   1.865  11.428 -1.3178  0.5802  0.6609
  389MPD2    C4 5867   3.595   1.911  11.454 -0.3126  0.4244  0.1858
  389MPD2    C5 5868   3.661   1.978  11.358  0.3172 -0.6133 -1.2726
  389MPD2     H 5869   3.315   1.833  11.282 -0.7481  1.2717  0.2484
  389MPD2    H1 5870   3.650   1.909  11.547  2.9326 -0.0121 -1.7133
  389MPD2    H2 5871   3.682   2.021  11.157  0.2016 -1.0880 -0.7316
  389MPD2    H3 5872   3.760   2.015  11.382 -1.1652  1.1265  2.2501
  389MPD2     N 5873   3.398   1.804  11.538  0.4708 -0.4602 -0.8945
  389MPD2    H5 5874   3.453   1.778  11.619  1.9026 -1.8573 -2.3118
  389MPD2    N1 5875   3.452   1.943  11.073  0.3273 -0.2641 -0.1149
  389MPD2    H7 5876   3.506   2.011  11.021  1.3140 -2.1490 -1.5280
  390TMC3    C1 5877   3.228   1.662  11.634 -0.0758  0.1297  1.0598
  390TMC3    C2 5878   3.115   1.582  11.606  0.0699 -0.3868  0.2296
  390TMC3    C3 5879   3.121   1.452  11.636 -0.2060  0.0705 -0.0252
  390TMC3    C4 5880   3.323   1.616  11.730  0.2938 -0.3314  0.7894
  390TMC3    C5 5881   3.310   1.485  11.772 -0.4248  0.2903 -0.1330
  390TMC3    C6 5882   3.218   1.407  11.720  0.2152  0.0787  0.5967
  390TMC3     C 5883   3.265   1.766  11.539 -0.0208 -0.0690  0.5332
  390TMC3     O 5884   3.173   1.790  11.464  0.0987 -0.1094  0.5815
  390TMC3     H 5885   3.044   1.619  11.533 -1.1421 -1.1054  1.0400
  390TMC3    H1 5886   3.407   1.680  11.754  1.0844 -0.2849 -2.0410
  390TMC3    H2 5887   3.213   1.307  11.762  2.9429 -0.6663 -0.8786
  390TMC3    C7 5888   3.309   1.486  11.917 -0.0719 -0.3816 -0.1651
  390TMC3    C8 5889   3.004   1.366  11.628  0.4254  0.2683 -0.1464
  390TMC3    O1 5890   3.397   1.551  11.974  0.6489  0.5361  0.1578
  390TMC3    O2 5891   3.017   1.243  11.605  0.0284  0.7533  0.4810
  391MPD2     C 5892   3.039   3.422  10.960  0.2679  0.2297  0.8645
  391MPD2    C1 5893   3.163   3.474  10.955 -1.0850  0.4580  0.3065
  391MPD2    C2 5894   3.224   3.499  10.834  0.5054 -0.2319 -0.1460
  391MPD2    C3 5895   3.168   3.466  10.712  0.3970  0.0273  0.2474
  391MPD2    C4 5896   3.042   3.407  10.714 -0.1481  0.2008 -0.4174
  391MPD2    C5 5897   2.985   3.388  10.835  0.3209  0.7149  0.5356
  391MPD2     H 5898   3.320   3.551  10.836 -0.1734  1.0561 -1.3709
  391MPD2    H1 5899   2.989   3.359  10.632 -0.4854  0.7873 -0.5484
  391MPD2    H2 5900   2.983   3.428  11.052  0.3178  1.7345  0.8084
  391MPD2    H3 5901   2.891   3.333  10.832  1.7200 -1.5428 -1.2824
  391MPD2     N 5902   3.239   3.501  10.598  0.2549  0.3512 -0.3527
  391MPD2    H5 5903   3.330   3.546  10.598  1.1427 -1.4347 -2.4356
  391MPD2    N1 5904   3.241   3.502  11.068  0.4349 -0.1460  0.2992
  391MPD2    H7 5905   3.323   3.557  11.046 -0.5070  0.1380 -2.5587
  392TMC3    C1 5906   3.272   3.545  10.366  0.4643 -0.3210  0.7216
  392TMC3    C2 5907   3.231   3.504  10.240 -0.2762  0.4675 -0.0291
  392TMC3    C3 5908   3.211   3.598  10.139  0.6200  0.0904  0.0502
  392TMC3    C4 5909   3.321   3.671  10.384 -0.0783  0.1616 -0.2508
  392TMC3    C5 5910   3.321   3.757  10.276  0.0860 -0.0079  0.1296
  392TMC3    C6 5911   3.265   3.729  10.155  0.4236  0.1404 -0.6807
  392TMC3     C 5912   3.193   3.481  10.469 -0.0844 -1.2227  0.0137
  392TMC3     O 5913   3.094   3.420  10.436  0.0644 -0.5217 -0.4901
  392TMC3     H 5914   3.196   3.402  10.225 -0.0015  0.1685  1.3353
  392TMC3    H1 5915   3.349   3.705  10.484 -1.6247  0.2282  0.1654
  392TMC3    H2 5916   3.271   3.800  10.073  2.9731 -0.2464 -0.8230
  392TMC3    C7 5917   3.402   3.876  10.291  0.1079 -0.1148 -0.4606
  392TMC3    C8 5918   3.102   3.579  10.047 -0.2435 -0.1744 -0.1837
  392TMC3    O1 5919   3.495   3.868  10.368 -0.1356  0.1248 -0.1533
  392TMC3    O2 5920   3.065   3.469  10.023  0.1412 -0.2657  0.5421
  393TMC3    C1 5921   1.296   1.307  10.478 -0.4860 -0.0232 -0.2221
  393TMC3    C2 5922   1.225   1.193  10.451 -0.2535 -0.6202 -0.1955
  393TMC3    C3 5923   1.166   1.121  10.551 -0.3211  0.3942  0.6278
  393TMC3    C4 5924   1.310   1.350  10.609 -0.1212 -0.2162  0.5587
  393TMC3    C5 5925   1.229   1.288  10.702 -0.2498 -0.0514 -0.0657
  393TMC3    C6 5926   1.154   1.174  10.678  0.0821  0.3767  0.1128
  393TMC3     C 5927   1.378   1.371  10.371 -0.5276 -0.0280 -0.7510
  393TMC3     O 5928   1.408   1.301  10.275  0.1263 -0.1324 -0.1388
  393TMC3     H 5929   1.225   1.147  10.353  2.1278 -0.2792 -0.3421
  393TMC3    H1 5930   1.382   1.429  10.628  0.0773 -0.0619 -0.8355
  393TMC3    H2 5931   1.117   1.115  10.762  1.6574  0.5564  0.9353
  393TMC3    C7 5932   1.233   1.337  10.836  0.8909  0.4484 -0.0632
  393TMC3    C8 5933   1.113   0.984  10.531  0.0048 -0.3779  0.0014
  393TMC3    O1 5934   1.156   1.286  10.914 -0.3912 -0.3692  0.0969
  393TMC3    O2 5935   1.104   0.917  10.638  0.5988  0.3554 -0.2464
  394TMC3    C1 5936   3.295   1.929  10.884  0.1077 -0.0112 -0.8564
  394TMC3    C2 5937   3.165   1.899  10.844 -0.1079 -0.2450  0.2629
  394TMC3    C3 5938   3.135   1.920  10.710 -0.1742 -0.2483  0.5611
  394TMC3    C4 5939   3.395   1.966  10.796 -0.0855 -0.4431  0.5673
  394TMC3    C5 5940   3.351   1.978  10.661 -0.2512  0.0523 -0.5754
  394TMC3    C6 5941   3.225   1.958  10.612 -0.1429  0.1212 -0.1156
  394TMC3     C 5942   3.330   1.895  11.022 -0.2259  0.2878  0.4873
  394TMC3     O 5943   3.250   1.816  11.072  0.2475 -0.3451 -0.2553
  394TMC3     H 5944   3.087   1.860  10.909 -1.9340  2.1432 -0.4723
  394TMC3    H1 5945   3.496   1.993  10.822 -0.4019 -0.6595  2.0536
  394TMC3    H2 5946   3.193   1.983  10.512 -1.7180 -0.8375  0.1479
  394TMC3    C7 5947   3.446   2.023  10.571  0.1202  0.7404  0.4443
  394TMC3    C8 5948   3.009   1.853  10.671 -0.3434  0.1402 -0.3485
  394TMC3    O1 5949   3.524   2.112  10.608  0.3507  0.1096  0.3716
  394TMC3    O2 5950   2.920   1.853  10.750  0.1371  0.4573 -0.0134
  395TMC3    C1 5951   3.222   2.736  14.951 -0.1167  0.7281 -0.2620
  395TMC3    C2 5952   3.184   2.694  14.825 -0.2870  0.3407 -0.4326
  395TMC3    C3 5953   3.275   2.664  14.728 -0.2394 -0.1335 -0.4457
  395TMC3    C4 5954   3.347   2.785  14.972 -0.2893  0.4827  0.1391
  395TMC3    C5 5955   3.441   2.762  14.872  0.0745 -1.0000  0.0195
  395TMC3    C6 5956   3.409   2.697  14.748  0.3402  0.6988 -0.3064
  395TMC3     C 5957   3.133   2.808  15.044  0.7660  0.5439 -0.4373
  395TMC3     O 5958   3.171   2.822  15.160 -0.0550  0.1533 -0.7909
  395TMC3     H 5959   3.081   2.664  14.812 -0.1606  1.3582 -3.8582
  395TMC3    H1 5960   3.380   2.835  15.063 -1.9663  2.1275 -0.1472
  395TMC3    H2 5961   3.480   2.682  14.667  0.6987  2.1583 -0.2621
  395TMC3    C7 5962   3.542   2.861  14.882 -0.6312 -0.5009  0.5077
  395TMC3    C8 5963   3.240   2.650  14.584 -0.5681 -0.2370  0.0479
  395TMC3    O1 5964   3.532   2.955  14.957  0.0478  0.1490  0.8803
  395TMC3    O2 5965   3.323   2.605  14.504  0.1129 -0.1924  0.1339
  396MPD2     C 5966   3.053   4.714  17.293 -0.0953  0.3468  0.4759
  396MPD2    C1 5967   3.174   4.642  17.295  0.8490  0.4964 -0.2177
  396MPD2    C2 5968   3.267   4.688  17.206 -0.6675  0.0429  0.0477
  396MPD2    C3 5969   3.246   0.045  17.101 -0.6542 -0.4359  0.5997
  396MPD2    C4 5970   3.123   0.099  17.100  0.0766  0.2180 -0.1395
  396MPD2    C5 5971   3.029   0.072  17.195  0.0277 -0.5988  0.4888
  396MPD2     H 5972   3.367   4.646  17.215 -1.2110 -1.7710 -2.3487
  396MPD2    H1 5973   3.086   0.163  17.021 -0.0695  1.7145  1.1284
  396MPD2    H2 5974   2.974   4.702  17.366 -0.0682  0.0620  0.4614
  396MPD2    H3 5975   2.930   0.115  17.194  0.2265 -0.1257  0.9190
  396MPD2     N 5976   3.357   0.095  17.030  0.5420 -0.7157  0.1096
  396MPD2    H5 5977   3.449   0.054  17.043  0.4284 -1.2206 -0.7132
  396MPD2    N1 5978   3.195   4.552  17.397 -0.0366 -0.2193 -0.3816
  396MPD2    H7 5979   3.123   4.557  17.468 -1.4707 -1.7147 -1.7510
  397TMC3    C1 5980   3.288   4.429  17.575 -0.9226  0.6972  1.0756
  397TMC3    C2 5981   3.397   4.386  17.635 -0.9010 -0.7105  0.2350
  397TMC3    C3 5982   3.394   4.260  17.692 -0.3318 -0.0195  0.8131
  397TMC3    C4 5983   3.182   4.344  17.561  0.1868 -0.1463  0.0469
  397TMC3    C5 5984   3.167   4.243  17.652 -0.5226  0.3699  0.6088
  397TMC3    C6 5985   3.279   4.198  17.711  0.0692  0.1817 -0.6728
  397TMC3     C 5986   3.309   4.504  17.447  0.3345 -0.7477 -0.1997
  397TMC3     O 5987   3.424   4.510  17.406 -0.2775  0.4941 -0.0762
  397TMC3     H 5988   3.491   4.436  17.616 -1.6978 -0.0321 -1.8610
  397TMC3    H1 5989   3.091   4.364  17.506  0.1695 -0.8565 -0.1878
  397TMC3    H2 5990   3.287   4.120   0.061  1.5006 -0.1159 -1.1284
  397TMC3    C7 5991   3.054   4.156  17.630 -0.2444  0.5186 -0.3246
  397TMC3    C8 5992   3.504   4.188   0.035 -0.7063  0.7434 -0.1149
  397TMC3    O1 5993   3.007   4.151  17.520 -0.0149  0.3556 -0.2663
  397TMC3    O2 5994   3.490   4.143   0.145  0.2931  0.0725  0.4322
  398MPD2     C 5995   1.635   1.381   0.286 -0.3114  0.7399 -0.4067
  398MPD2    C1 5996   1.718   1.273   0.323  0.6149 -1.0685 -0.3068
  398MPD2    C2 5997   1.818   1.312   0.406 -0.8175  0.1078 -0.2348
  398MPD2    C3 5998   1.837   1.442   0.451  0.4208  0.1474 -0.8039
  398MPD2    C4 5999   1.753   1.540   0.408 -0.7944  0.4058 -0.2891
  398MPD2    C5 6000   1.652   1.510   0.329  0.1738 -0.5105  0.8639
  398MPD2     H 6001   1.894   1.240   0.432 -1.1512  0.2290  1.0781
  398MPD2    H1 6002   1.766   1.641   0.444  0.1824  0.3923 -0.6154
  398MPD2    H2 6003   1.543   1.374   0.229 -1.2018  1.8204  0.9123
  398MPD2    H3 6004   1.586   1.587   0.290  1.9924  1.6266  2.0086
  398MPD2     N 6005   1.946   1.467   0.542 -0.2065 -0.1461  0.0197
  398MPD2    H5 6006   2.004   1.394   0.582 -0.4677  0.1502  0.9438
  398MPD2    N1 6007   1.703   1.142   0.268  0.8452  0.2237  0.7279
  398MPD2    H7 6008   1.771   1.072   0.298  0.5643 -1.2127 -2.0300
  399TMC3    C1 6009   1.578   0.958   0.169 -0.1939  0.1372 -0.0562
  399TMC3    C2 6010   1.675   0.875   0.206  0.4247 -0.5532 -0.9170
  399TMC3    C3 6011   1.641   0.745   0.230  0.0490  0.4262 -1.0174
  399TMC3    C4 6012   1.450   0.913   0.131 -0.1584  0.1204 -0.3293
  399TMC3    C5 6013   1.427   0.784   0.159  0.1132 -0.2692 -0.2479
  399TMC3    C6 6014   1.512   0.700   0.215  0.0184  0.2672  0.0385
  399TMC3     C 6015   1.585   1.102   0.198 -0.5482 -0.2694  0.3040
  399TMC3     O 6016   1.492   1.177   0.174  0.7833 -0.6873  0.0322
  399TMC3     H 6017   1.777   0.901   0.229  0.1065  2.0316 -2.4111
  399TMC3    H1 6018   1.376   0.982   0.093 -1.4576 -1.0610  0.0667
  399TMC3    H2 6019   1.488   0.595   0.214 -1.2820  0.5631  0.5304
  399TMC3    C7 6020   1.293   0.737   0.135 -0.1095 -0.2411 -0.1210
  399TMC3    C8 6021   1.749   0.652   0.236  0.6993  0.1766 -0.0124
  399TMC3    O1 6022   1.257   0.651   0.211  0.2723  0.1697 -0.2116
  399TMC3    O2 6023   1.830   0.681   0.150  0.3910  0.0299  0.4810
  400TMC3    C1 6024   4.496   3.511  16.722 -0.2452 -0.1621 -0.5407
  400TMC3    C2 6025   4.374   3.476  16.663  0.1490  0.7102  0.1083
  400TMC3    C3 6026   4.296   3.570  16.610 -0.5465 -0.3873 -0.1712
  400TMC3    C4 6027   4.537   3.642  16.722 -0.4062 -0.5578 -0.2996
  400TMC3    C5 6028   4.450   3.739  16.667  0.4152  0.0398 -0.2702
  400TMC3    C6 6029   4.338   3.701  16.598 -0.1442  0.0727  0.1999
  400TMC3     C 6030   4.592   3.403  16.726  0.1975 -0.0992  0.3423
  400TMC3     O 6031   4.569   3.315  16.641 -0.1110 -0.0133  1.0137
  400TMC3     H 6032   4.335   3.375  16.673  0.3436  0.4755 -1.5976
  400TMC3    H1 6033   4.631   3.676  16.765 -0.5596  0.5042 -0.7926
  400TMC3    H2 6034   4.265   3.775  16.565 -1.4010 -1.2870 -0.0842
  400TMC3    C7 6035   4.474   3.884  16.673  0.7140  0.0135  0.6596
  400TMC3    C8 6036   4.155   3.552  16.626 -0.4763  0.1881  0.7471
  400TMC3    O1 6037   4.421   3.945  16.582  0.6029  0.0535  0.3186
  400TMC3    O2 6038   4.125   3.522  16.739 -0.1979  0.4411 -0.2806
  401MPD2     C 6039   2.879   2.636  17.351 -0.0560 -0.7072  0.4277
  401MPD2    C1 6040   2.916   2.635  17.481 -0.5211  0.4415 -0.3094
  401MPD2    C2 6041   2.985   2.527  17.531 -0.0763 -0.3443  0.1218
  401MPD2    C3 6042   2.997   2.413  17.452 -0.2263 -0.6256 -0.4762
  401MPD2    C4 6043   2.952   2.413  17.319 -0.1661  0.1697 -0.7381
  401MPD2    C5 6044   2.901   2.530  17.273 -0.1816 -0.2897 -0.1295
  401MPD2     H 6045   3.031   2.533  17.629 -0.7289  0.7881  0.3558
  401MPD2    H1 6046   2.942   2.333  17.247 -0.8650  0.0778 -0.5351
  401MPD2    H2 6047   2.829   2.725  17.313  0.7905 -1.1480 -1.6791
  401MPD2    H3 6048   2.858   2.531  17.174 -2.7594  1.9205  0.9955
  401MPD2     N 6049   3.056   2.300  17.519  0.0026  0.0399  0.3126
  401MPD2    H5 6050   3.084   2.298  17.617 -1.6910  1.6624  0.8338
  401MPD2    N1 6051   2.883   2.742  17.575 -0.1038 -0.2421 -0.1495
  401MPD2    H7 6052   2.926   2.741  17.667 -0.1116 -1.1077 -0.1548
  402TMC3    C1 6053   3.118   2.075  17.549 -0.3766 -0.3303 -0.2578
  402TMC3    C2 6054   3.126   2.088  17.685 -0.2549 -0.0736  0.3031
  402TMC3    C3 6055   3.168   1.981   0.035  0.1068  0.9624  0.0685
  402TMC3    C4 6056   3.141   1.958  17.487 -0.2319  0.6895 -0.1860
  402TMC3    C5 6057   3.184   1.856  17.562  0.1521 -0.0937 -0.0883
  402TMC3    C6 6058   3.198   1.866  17.700  0.2594 -0.3836 -0.2499
  402TMC3     C 6059   3.074   2.181  17.459 -0.3252  0.0962 -0.1314
  402TMC3     O 6060   3.061   2.152  17.343 -0.1627 -0.2346  0.0402
  402TMC3     H 6061   3.135   2.183   0.012 -0.0427  0.2503 -0.3357
  402TMC3    H1 6062   3.117   1.950  17.381 -1.5059 -1.8053  0.2830
  402TMC3    H2 6063   3.220   1.780   0.037  1.1624 -0.3181 -0.4866
  402TMC3    C7 6064   3.231   1.742  17.485  0.2672  0.4421  0.5882
  402TMC3    C8 6065   3.108   1.969   0.164  0.0154  0.0588 -0.2454
  402TMC3    O1 6066   3.209   1.737  17.365  0.4609  0.0203  0.0057
  402TMC3    O2 6067   3.128   1.865   0.223  0.7247 -0.2129 -0.0542
  403MPD2     C 6068   1.382   0.893  13.260 -1.3113  0.3187 -0.9483
  403MPD2    C1 6069   1.297   0.810  13.339  0.0429  0.0443 -0.4917
  403MPD2    C2 6070   1.305   0.816  13.478 -0.7386  0.1866 -0.0787
  403MPD2    C3 6071   1.393   0.898  13.544  0.4182 -0.0801  0.8523
  403MPD2    C4 6072   1.471   0.981  13.465 -0.1047  0.0804  0.6218
  403MPD2    C5 6073   1.467   0.972  13.326  0.2496 -0.3211  0.1261
  403MPD2     H 6074   1.238   0.760  13.542 -0.7396  0.9450  0.5859
  403MPD2    H1 6075   1.533   1.058  13.510  1.0065  0.5756 -1.7602
  403MPD2    H2 6076   1.383   0.896  13.152 -0.1007 -0.3426 -0.9564
  403MPD2    H3 6077   1.520   1.050  13.273  1.0213 -1.8581 -1.3507
  403MPD2     N 6078   1.368   0.911  13.687 -0.1096 -0.5231 -0.0647
  403MPD2    H5 6079   1.296   0.850  13.725 -1.1977  1.1105  0.4508
  403MPD2    N1 6080   1.201   0.725  13.275  0.3959  0.2344 -0.4339
  403MPD2    H7 6081   1.194   0.723  13.174  0.0227  0.4712 -0.4093
  404TMC3    C1 6082   1.032   0.562  13.248 -0.4681  0.8994 -0.0833
  404TMC3    C2 6083   0.979   0.442  13.301  0.1491 -0.1721  0.1425
  404TMC3    C3 6084   0.896   0.367  13.226 -0.6918  0.0962  0.6174
  404TMC3    C4 6085   1.017   0.592  13.115 -0.1006  0.5833  0.1746
  404TMC3    C5 6086   0.940   0.507  13.044 -0.7527 -0.2877 -0.6343
  404TMC3    C6 6087   0.875   0.397  13.093 -0.3079 -0.0304 -0.4649
  404TMC3     C 6088   1.112   0.641  13.335  0.1697  0.2277 -0.5730
  404TMC3     O 6089   1.100   0.603  13.452  0.2249  0.0069  0.2936
  404TMC3     H 6090   1.009   0.418  13.402  1.3678 -0.7008 -0.3425
  404TMC3    H1 6091   1.038   0.689  13.072 -1.4111  0.6444 -0.3340
  404TMC3    H2 6092   0.814   0.325  13.039  1.2755 -2.3598  0.8323
  404TMC3    C7 6093   0.917   0.545  12.905  0.5636 -0.6356 -0.2411
  404TMC3    C8 6094   0.831   0.242  13.276 -0.8755  0.1721 -0.9785
  404TMC3    O1 6095   1.004   0.603  12.847  0.1088  0.4998 -0.0923
  404TMC3    O2 6096   0.776   0.163  13.203  0.1656  0.2517 -0.2850
  405MPD2     C 6097   1.642   1.150  15.428  0.5103  0.0451 -0.0448
  405MPD2    C1 6098   1.561   1.114  15.322 -0.7968 -0.0087 -0.3873
  405MPD2    C2 6099   1.529   1.206  15.223 -0.6251 -0.8875  0.0427
  405MPD2    C3 6100   1.607   1.323  15.219  0.3802  0.6492  0.2365
  405MPD2    C4 6101   1.693   1.360  15.321  0.2636 -0.0264 -0.1462
  405MPD2    C5 6102   1.710   1.274  15.427 -0.1256  0.3030 -0.2339
  405MPD2     H 6103   1.471   1.181  15.135  1.3299 -0.6571 -1.3201
  405MPD2    H1 6104   1.741   1.456  15.334 -0.8199  0.5215 -0.1392
  405MPD2    H2 6105   1.666   1.080  15.508  1.7948  0.0340 -0.4359
  405MPD2    H3 6106   1.789   1.292  15.498 -1.0778 -1.5917  1.3163
  405MPD2     N 6107   1.597   1.398  15.096  0.4120 -0.2168  0.6455
  405MPD2    H5 6108   1.529   1.371  15.026  0.1312 -0.0177  0.8425
  405MPD2    N1 6109   1.499   0.986  15.320 -0.1139 -0.0574 -0.4707
  405MPD2    H7 6110   1.491   0.934  15.406  0.2337  0.1896 -0.2900
  406TMC3    C1 6111   1.567   1.714  14.779  0.3241 -0.5363  0.4528
  406TMC3    C2 6112   1.542   1.619  14.679  0.4607  0.5076 -0.0423
  406TMC3    C3 6113   1.582   1.491  14.704  0.8326 -0.8205 -0.4335
  406TMC3    C4 6114   1.616   1.686  14.904 -0.4994  0.1683  0.1809
  406TMC3    C5 6115   1.637   1.564  14.933 -0.0364 -0.0801  0.0703
  406TMC3    C6 6116   1.622   1.466  14.839  0.2063  0.6759 -0.4431
  406TMC3     C 6117   1.518   1.846  14.760  0.4651 -0.2535  0.4145
  406TMC3     O 6118   1.568   1.938  14.822  0.4852 -0.1041 -0.0516
  406TMC3     H 6119   1.505   1.641  14.580 -2.2501  0.2510  0.9100
  406TMC3    H1 6120   1.629   1.762  14.980  0.8107  0.4394 -0.3100
  406TMC3    H2 6121   1.667   1.372  14.869  1.1778  1.4893  0.6314
  406TMC3    C7 6122   1.653   1.524  15.075 -0.6350  0.5323  0.3878
  406TMC3    C8 6123   1.509   1.389  14.633 -0.1510  0.3568 -0.0479
  406TMC3    O1 6124   1.687   1.603  15.161  0.1590  0.4945  0.0914
  406TMC3    O2 6125   1.436   1.418  14.539  0.4690 -0.0036 -0.5627
  407MPD2     C 6126   3.818   3.577   9.834 -0.0880  0.4081 -0.4323
  407MPD2    C1 6127   3.910   3.507   9.913 -0.4585 -0.1123  0.4997
  407MPD2    C2 6128   3.913   3.547  10.051  0.1924 -1.0511  0.0814
  407MPD2    C3 6129   3.843   3.664  10.091 -0.0760 -0.3974  0.0260
  407MPD2    C4 6130   3.760   3.733  10.006 -0.1657 -0.2489  0.3343
  407MPD2    C5 6131   3.753   3.692   9.879 -0.1942  0.5786  0.0138
  407MPD2     H 6132   3.988   3.499  10.113  1.6182  0.4586 -0.4477
  407MPD2    H1 6133   3.716   3.830  10.027 -1.9762 -0.7560 -1.1107
  407MPD2    H2 6134   3.793   3.560   9.730 -0.2072  0.3906 -0.3998
  407MPD2    H3 6135   3.692   3.753   9.813 -0.0689 -0.0788 -0.7085
  407MPD2     N 6136   3.873   3.737  10.208 -0.4407  0.3539  0.6339
  407MPD2    H5 6137   3.831   3.829  10.218 -0.6720  0.4177 -1.0282
  407MPD2    N1 6138   4.004   3.415   9.861 -0.1049 -0.2707  0.1664
  407MPD2    H7 6139   4.073   3.379   9.927 -0.4398  0.2898  0.8290
  408TMC3    C1 6140   4.169   3.375   9.699 -0.3561 -0.2593 -0.6300
  408TMC3    C2 6141   4.208   3.251   9.661 -0.7389 -0.2524 -0.3843
  408TMC3    C3 6142   4.329   3.207   9.720 -0.4043 -0.9455 -0.3014
  408TMC3    C4 6143   4.249   3.454   9.779  0.0730  0.1728 -0.0908
  408TMC3    C5 6144   4.371   3.409   9.810  0.0810  0.4706 -0.4139
  408TMC3    C6 6145   4.411   3.288   9.790  0.1872  0.3917  0.4235
  408TMC3     C 6146   4.026   3.392   9.727  0.0070 -0.0889  0.2888
  408TMC3     O 6147   3.953   3.422   9.632 -0.1045 -0.1915 -0.3316
  408TMC3     H 6148   4.145   3.180   9.608 -0.9439 -0.0864 -0.3614
  408TMC3    H1 6149   4.212   3.553   9.801 -1.3450 -0.7907  1.8617
  408TMC3    H2 6150   4.514   3.259   9.809  0.1044  0.1488  0.5020
  408TMC3    C7 6151   4.471   3.493   9.866  0.2682  0.3730  0.7158
  408TMC3    C8 6152   4.343   3.065   9.726  0.2077  0.4644  0.4675
  408TMC3    O1 6153   4.553   3.449   9.946  0.0185  0.0513  0.2243
  408TMC3    O2 6154   4.286   2.998   9.640  0.0436 -0.0669  0.0722
  409MPD2     C 6155   3.398   3.341  16.930 -0.1745  0.1138  0.8634
  409MPD2    C1 6156   3.493   3.319  17.021  0.6119  0.4650  0.7203
  409MPD2    C2 6157   3.600   3.407  17.023  0.1263 -0.0771 -0.2789
  409MPD2    C3 6158   3.605   3.511  16.927 -0.2258  0.1852 -0.9584
  409MPD2    C4 6159   3.502   3.531  16.832 -0.1547 -0.6378  0.1424
  409MPD2    C5 6160   3.406   3.438  16.840 -0.9470 -0.1672 -0.2236
  409MPD2     H 6161   3.683   3.396  17.092 -0.8868  0.1586  0.9685
  409MPD2    H1 6162   3.496   3.614  16.764  1.6837  0.7051  1.6401
  409MPD2    H2 6163   3.315   3.272  16.925  0.9654 -1.0683 -1.9482
  409MPD2    H3 6164   3.320   3.455  16.776 -0.6066  1.9585 -0.1333
  409MPD2     N 6165   3.722   3.585  16.914  0.1447 -0.2135 -0.6131
  409MPD2    H5 6166   3.716   3.657  16.843  0.6992 -0.1759 -0.6211
  409MPD2    N1 6167   3.485   3.215  17.116 -0.5672 -0.2475 -0.8293
  409MPD2    H7 6168   3.564   3.208  17.180 -0.1362 -1.0955 -1.4546
  410TMC3    C1 6169   3.935   3.676  16.935 -0.6533 -0.0625 -0.1075
  410TMC3    C2 6170   4.057   3.669  16.995  0.1296 -0.5230  0.4536
  410TMC3    C3 6171   4.154   3.761  16.956  1.3407  0.0048  0.6551
  410TMC3    C4 6172   3.916   3.762  16.825  0.2636  0.0222  0.5112
  410TMC3    C5 6173   4.016   3.849  16.797 -0.3356 -0.0379 -0.9048
  410TMC3    C6 6174   4.136   3.856  16.857  0.1668  0.6034  0.6446
  410TMC3     C 6175   3.846   3.568  16.970  0.1703  0.2485  0.4199
  410TMC3     O 6176   3.895   3.474  17.030 -0.3547  0.2797  0.1818
  410TMC3     H 6177   4.070   3.604  17.080  0.1630 -2.0749 -0.7464
  410TMC3    H1 6178   3.826   3.769  16.765 -0.4165  2.0377  1.7687
  410TMC3    H2 6179   4.220   3.918  16.826  0.9024 -1.1828 -0.9391
  410TMC3    C7 6180   4.015   3.915  16.662 -0.2008  0.4523 -1.3127
  410TMC3    C8 6181   4.282   3.748  17.020 -0.0263  0.4423  0.3114
  410TMC3    O1 6182   3.965   3.852  16.569  0.6453 -0.1026  0.0398
  410TMC3    O2 6183   4.363   3.838  16.999  0.1740 -0.5041 -0.8836
  411MPD2     C 6184   3.978   3.654  14.506 -0.1527  0.2589  0.5575
  411MPD2    C1 6185   3.845   3.694  14.477 -0.8364 -0.2199 -0.2975
  411MPD2    C2 6186   3.755   3.601  14.441 -0.1814  0.0692 -0.5683
  411MPD2    C3 6187   3.793   3.467  14.432  0.5356  0.2743  1.0094
  411MPD2    C4 6188   3.921   3.431  14.472  0.2969 -0.0458 -0.4993
  411MPD2    C5 6189   4.012   3.523  14.506  0.2610 -0.6166 -0.2747
  411MPD2     H 6190   3.650   3.627  14.426  0.1786  1.3646 -0.8671
  411MPD2    H1 6191   3.966   3.333  14.472 -0.7190 -0.4973  0.5946
  411MPD2    H2 6192   4.056   3.724  14.532  0.0763  0.2938 -0.2331
  411MPD2    H3 6193   4.115   3.495  14.524  0.3083  0.2109  0.7236
  411MPD2     N 6194   3.712   3.358  14.390 -1.1286 -0.1014 -0.1391
  411MPD2    H5 6195   3.751   3.264  14.390 -4.1531 -1.3864  1.8140
  411MPD2    N1 6196   3.815   3.831  14.460 -0.2142  0.3029 -0.4629
  411MPD2    H7 6197   3.719   3.846  14.428  0.7911  0.9390 -3.1243
  412TMC3    C1 6198   3.528   3.270  14.271  0.1383  0.0729 -0.2829
  412TMC3    C2 6199   3.398   3.289  14.233  0.1066  0.4914 -0.1141
  412TMC3    C3 6200   3.358   3.245  14.110 -0.1711 -0.5637  0.4757
  412TMC3    C4 6201   3.614   3.189  14.202  0.4481  0.2665  0.1265
  412TMC3    C5 6202   3.570   3.139  14.074  0.3961 -0.1000  0.2150
  412TMC3    C6 6203   3.444   3.174  14.028  0.6302 -0.0525 -0.4897
  412TMC3     C 6204   3.581   3.371  14.358  0.3402 -0.9626  0.4524
  412TMC3     O 6205   3.499   3.458  14.385  0.2367 -0.3466  0.6641
  412TMC3     H 6206   3.324   3.339  14.295  0.6554  2.7043 -1.2464
  412TMC3    H1 6207   3.717   3.168  14.231 -0.8087 -2.2731  2.7466
  412TMC3    H2 6208   3.406   3.154  13.928 -0.8260  0.7261 -0.0841
  412TMC3    C7 6209   3.677   3.158  13.980  0.1892 -0.0073 -0.6017
  412TMC3    C8 6210   3.290   3.355  14.038 -0.2781 -1.0931 -0.3209
  412TMC3    O1 6211   3.787   3.104  13.996  0.2075  0.1032 -0.3874
  412TMC3    O2 6212   3.284   3.464  14.094  0.6508 -0.4917  0.0348
  413MPD2     C 6213   0.243   2.304  15.115 -0.2120 -0.2943 -0.1837
  413MPD2    C1 6214   0.247   2.286  15.251 -0.2754  0.3661 -0.0510
  413MPD2    C2 6215   0.371   2.254  15.309  0.3637  0.2692  0.0257
  413MPD2    C3 6216   0.490   2.237  15.242 -0.0830  0.7511  0.5157
  413MPD2    C4 6217   0.477   2.232  15.107  0.0046  0.1318  0.1546
  413MPD2    C5 6218   0.359   2.268  15.047  0.5606 -0.5414  0.3794
  413MPD2     H 6219   0.372   2.229  15.415 -0.0444 -1.1148 -0.2922
  413MPD2    H1 6220   0.553   2.192  15.041  0.7832 -0.4520  1.4004
  413MPD2    H2 6221   0.152   2.342  15.069  1.1313  1.4038 -1.4577
  413MPD2    H3 6222   0.354   2.274  14.939 -1.1432  1.8923  0.5905
  413MPD2     N 6223   0.603   2.194  15.308 -0.4148 -0.8655 -0.3909
  413MPD2    H5 6224   0.598   2.203  15.409 -0.4272 -0.2327 -0.4536
  413MPD2    N1 6225   0.121   2.296  15.315 -0.5094 -0.2011 -0.0276
  413MPD2    H7 6226   0.046   2.338  15.261 -1.0028  1.5821  2.0373
  414TMC3    C1 6227   0.824   2.174  15.351 -0.5791 -0.0646  0.3704
  414TMC3    C2 6228   0.802   2.110  15.473  0.3634 -0.4263  0.2843
  414TMC3    C3 6229   0.889   2.130  15.579  0.4503 -0.4264 -0.7917
  414TMC3    C4 6230   0.934   2.247  15.324 -0.3545 -0.1633 -0.6230
  414TMC3    C5 6231   1.026   2.247  15.429  0.1481 -0.0009  0.0092
  414TMC3    C6 6232   1.002   2.198  15.555  0.7174 -0.1115  0.2874
  414TMC3     C 6233   0.726   2.193  15.250  0.6356 -0.3032 -0.4025
  414TMC3     O 6234   0.760   2.236  15.145  0.3961  0.0201  0.3823
  414TMC3     H 6235   0.710   2.057  15.497 -0.1710 -0.1257 -1.1132
  414TMC3    H1 6236   0.954   2.302  15.233  0.1745 -1.3714 -1.2322
  414TMC3    H2 6237   1.086   2.194  15.622  1.2023 -3.3331 -0.5049
  414TMC3    C7 6238   1.164   2.257  15.393  0.2121  0.5995 -0.0383
  414TMC3    C8 6239   0.903   2.018  15.663  0.5030 -0.5521  0.6965
  414TMC3    O1 6240   1.247   2.291  15.478  0.0238  0.6856 -0.2433
  414TMC3    O2 6241   0.860   1.909  15.623  0.0060 -0.0305  0.2264
  415TMC3    C1 6242   1.244   0.593  10.845  0.6249  0.2429  0.0254
  415TMC3    C2 6243   1.288   0.717  10.886 -0.2995 -0.1608 -0.3486
  415TMC3    C3 6244   1.365   0.779  10.792 -0.5055  0.2924  0.8128
  415TMC3    C4 6245   1.279   0.536  10.721  0.1845 -0.1192 -0.3977
  415TMC3    C5 6246   1.356   0.607  10.635  0.1827 -0.0375 -0.1362
  415TMC3    C6 6247   1.409   0.722  10.676 -0.5330  0.3804 -0.3277
  415TMC3     C 6248   1.216   0.487  10.942 -0.2067 -0.0613  0.3259
  415TMC3     O 6249   1.190   0.378  10.895 -0.0368  0.4420 -0.2274
  415TMC3     H 6250   1.236   0.762  10.970 -0.5706 -0.4356 -0.3677
  415TMC3    H1 6251   1.244   0.437  10.692 -0.0692  0.0251 -0.5825
  415TMC3    H2 6252   1.498   0.758  10.625 -0.3939  0.6306  0.0954
  415TMC3    C7 6253   1.363   0.563  10.496  0.0630  0.2366 -0.6329
  415TMC3    C8 6254   1.406   0.910  10.823 -0.3021  0.2348 -0.0869
  415TMC3    O1 6255   1.412   0.638  10.411 -0.2073  0.2892  0.0978
  415TMC3    O2 6256   1.422   0.929  10.942  0.2127 -0.2853  0.2689
  416MPD2     C 6257   3.135   4.665  11.295 -0.8058  0.5587 -0.4293
  416MPD2    C1 6258   3.011   4.619  11.266 -0.0811  0.7090  0.0233
  416MPD2    C2 6259   2.992   4.546  11.148 -0.0433  0.2156  0.2310
  416MPD2    C3 6260   3.098   4.507  11.072 -0.8333  0.6277 -0.4367
  416MPD2    C4 6261   3.218   4.553  11.107  0.1807  0.6844 -0.0679
  416MPD2    C5 6262   3.243   4.637  11.221  0.9969 -0.3915 -0.7232
  416MPD2     H 6263   2.892   4.516  11.116  0.6696 -2.3335  0.3916
  416MPD2    H1 6264   3.306   4.513  11.057 -1.3695 -1.3359 -1.1911
  416MPD2    H2 6265   3.156   4.719  11.387 -0.3189 -0.8269  0.2800
  416MPD2    H3 6266   3.339   4.680  11.245  0.5325  1.8516 -2.8144
  416MPD2     N 6267   3.090   4.423  10.960  0.3075 -0.2159 -0.0688
  416MPD2    H5 6268   3.172   4.384  10.915 -0.5123  1.6886 -3.2395
  416MPD2    N1 6269   2.897   4.652  11.338 -0.1584  0.6581 -0.1160
  416MPD2    H7 6270   2.812   4.605  11.306  1.2819 -1.0530 -1.4483
  417TMC3    C1 6271   2.771   4.691  11.516  0.1313 -0.7333 -0.1559
  417TMC3    C2 6272   2.758   4.630  11.634 -0.0584 -0.2921  0.0491
  417TMC3    C3 6273   2.629   4.586  11.678 -0.3392  0.0536  0.1467
  417TMC3    C4 6274   2.672   4.705  11.426 -0.0786  0.1461 -0.8079
  417TMC3    C5 6275   2.545   4.666  11.472 -0.1667  0.0702 -0.3518
  417TMC3    C6 6276   2.518   4.607  11.595 -0.3032 -0.7039 -0.3702
  417TMC3     C 6277   2.894   4.713  11.461 -0.5771 -0.7726 -0.4154
  417TMC3     O 6278   2.978   0.009  11.545  0.3161  0.0099  0.0407
  417TMC3     H 6279   2.843   4.622  11.701  0.6824  0.8231 -0.7635
  417TMC3    H1 6280   2.684   0.030  11.334 -1.1052  0.0223 -1.0206
  417TMC3    H2 6281   2.420   4.584  11.635 -0.3961  0.7719  0.2847
  417TMC3    C7 6282   2.434   4.690  11.376  0.5337  0.2970  0.7076
  417TMC3    C8 6283   2.604   4.569  11.817  1.0351  0.1113 -0.2604
  417TMC3    O1 6284   2.451   0.046  11.292 -0.6666 -0.5998 -0.7320
  417TMC3    O2 6285   2.490   4.594  11.852 -0.6283  0.5291 -0.6107
  418TMC3    C1 6286   2.283   1.644   0.784  0.0678  0.0164 -0.6322
  418TMC3    C2 6287   2.177   1.672   0.700  0.1591  0.7985 -0.2820
  418TMC3    C3 6288   2.073   1.585   0.700 -0.0907  0.8785  0.2371
  418TMC3    C4 6289   2.277   1.542   0.872 -0.0564 -0.1761  0.1995
  418TMC3    C5 6290   2.163   1.466   0.875  0.1976 -0.8051  0.4994
  418TMC3    C6 6291   2.068   1.477   0.783  0.5019 -0.3511 -0.1758
  418TMC3     C 6292   2.417   1.678   0.745  0.4320 -0.0226  0.0512
  418TMC3     O 6293   2.493   1.723   0.828 -0.3778 -0.0563  0.1062
  418TMC3     H 6294   2.194   1.736   0.614  5.6111  0.0886  0.2718
  418TMC3    H1 6295   2.348   1.548   0.954 -2.3813  0.9982  2.1242
  418TMC3    H2 6296   1.975   1.421   0.786  0.9227 -1.2114 -2.7287
  418TMC3    C7 6297   2.162   1.328   0.919  0.3153 -0.7771 -1.1497
  418TMC3    C8 6298   1.980   1.593   0.591 -0.4497  0.2977  0.0334
  418TMC3    O1 6299   2.069   1.258   0.886  0.7751 -0.1108  0.4389
  418TMC3    O2 6300   1.954   1.706   0.547 -0.1222 -0.2752  0.0346
  419MPD2     C 6301   0.238   3.875  12.537  0.3829  0.3623  0.8098
  419MPD2    C1 6302   0.199   4.006  12.507 -0.7464 -1.0439 -0.4296
  419MPD2    C2 6303   0.173   4.088  12.616  0.2174  0.8516 -0.1116
  419MPD2    C3 6304   0.177   4.039  12.746  0.1795 -0.0050  0.8172
  419MPD2    C4 6305   0.229   3.912  12.767 -0.2171 -0.0862 -0.3462
  419MPD2    C5 6306   0.262   3.829  12.668 -0.5707  0.1043  0.8813
  419MPD2     H 6307   0.125   4.179  12.583 -1.4855 -0.6702 -1.8121
  419MPD2    H1 6308   0.235   3.870  12.866 -1.3746  1.3486  0.3403
  419MPD2    H2 6309   0.265   3.802  12.461  2.0927 -0.3814  2.1279
  419MPD2    H3 6310   0.308   3.733  12.691 -1.0371 -0.8160 -1.9947
  419MPD2     N 6311   0.120   4.117  12.853  0.0636 -0.3066 -0.6707
  419MPD2    H5 6312   0.045   4.185  12.842 -0.7554 -0.5749  3.2600
  419MPD2    N1 6313   0.195   4.062  12.377  0.1857  0.2790  1.1818
  419MPD2    H7 6314   0.168   4.159  12.361 -0.4127 -0.1589 -0.4159
  420TMC3    C1 6315   0.052   4.173  13.069 -0.2124  0.2422 -0.1634
  420TMC3    C2 6316   4.663   4.220  13.031  0.5094 -0.6505 -0.7247
  420TMC3    C3 6317   4.606   4.312  13.110 -0.2441  0.2157 -0.1042
  420TMC3    C4 6318   0.115   4.214  13.185 -0.2809  0.1798 -0.3196
  420TMC3    C5 6319   0.050   4.303  13.260 -0.1460  0.3535 -0.1477
  420TMC3    C6 6320   4.657   4.351  13.228 -0.1494  0.6653  0.3493
  420TMC3     C 6321   0.132   4.085  12.986 -0.6592 -0.6442 -0.2402
  420TMC3     O 6322   0.209   4.004  13.039 -0.5054  0.3737  0.0091
  420TMC3     H 6323   4.619   4.185  12.939  1.9520 -1.5303 -1.0877
  420TMC3    H1 6324   0.217   4.179  13.198 -0.9314 -2.3997 -2.1006
  420TMC3    H2 6325   4.607   4.413  13.301  1.6708 -0.0096  2.1663
  420TMC3    C7 6326   0.092   4.299  13.402  0.6495  0.0870 -0.5048
  420TMC3    C8 6327   4.470   4.353  13.076  0.3902  0.8203 -0.6175
  420TMC3    O1 6328   0.127   4.189  13.451  0.0094  0.1512  0.0766
  420TMC3    O2 6329   4.425   4.448  13.137 -0.8873  0.3183  0.1566
  421TMC3    C1 6330   1.391   0.979  13.908 -0.9429  0.7317  0.0724
  421TMC3    C2 6331   1.414   1.091  13.984 -0.5128 -0.0101  0.7533
  421TMC3    C3 6332   1.464   1.085  14.116  0.5842  0.5019 -0.4290
  421TMC3    C4 6333   1.426   0.853  13.958 -0.1420  0.4297 -0.4148
  421TMC3    C5 6334   1.492   0.854  14.083 -0.1752 -0.0879 -0.3723
  421TMC3    C6 6335   1.495   0.966  14.169  0.4314  0.0190 -0.5122
  421TMC3     C 6336   1.420   1.008  13.768  0.2773  0.1295 -0.4614
  421TMC3     O 6337   1.500   1.098  13.748 -0.4622  0.3916 -0.2957
  421TMC3     H 6338   1.401   1.192  13.949  2.2579 -0.9809 -3.0266
  421TMC3    H1 6339   1.433   0.775  13.882 -1.3645 -0.4378  0.3584
  421TMC3    H2 6340   1.538   0.959  14.268  0.7677 -1.1506 -0.7306
  421TMC3    C7 6341   1.584   0.746  14.108 -0.1922 -0.6047  0.2552
  421TMC3    C8 6342   1.526   1.200  14.188 -0.4359  0.1193 -0.0560
  421TMC3    O1 6343   1.668   0.784  14.186 -0.5282 -0.3241 -0.0900
  421TMC3    O2 6344   1.619   1.179  14.264  0.0423 -0.3403 -0.2187
  422TMC3    C1 6345   3.347   2.968  12.315  0.1139  0.1738  1.1907
  422TMC3    C2 6346   3.365   2.953  12.446 -0.2645  0.4584  0.0924
  422TMC3    C3 6347   3.261   2.916  12.524 -0.1770  0.2563 -0.2625
  422TMC3    C4 6348   3.228   2.941  12.255  0.8822 -0.0379  0.1706
  422TMC3    C5 6349   3.132   2.894  12.337  0.1911 -0.1198  0.8686
  422TMC3    C6 6350   3.143   2.881  12.470 -0.5153  0.4674 -0.8142
  422TMC3     C 6351   3.460   2.916  12.259  0.1318 -0.6036 -0.2696
  422TMC3     O 6352   3.455   2.792  12.248 -0.5580 -0.6950  0.2107
  422TMC3     H 6353   3.468   2.953  12.480 -0.2925  0.7890  0.1834
  422TMC3    H1 6354   3.218   2.938  12.147 -1.9957 -0.2743  0.4408
  422TMC3    H2 6355   3.053   2.874  12.530 -0.2117 -0.5826 -0.4772
  422TMC3    C7 6356   3.022   2.819  12.267 -0.5000 -0.0078 -0.2197
  422TMC3    C8 6357   3.265   2.911  12.671  0.1121  0.5493  0.3552
  422TMC3    O1 6358   2.994   2.856  12.153 -0.6761  0.5111 -0.7666
  422TMC3    O2 6359   3.175   2.844  12.727  0.8260  0.0463 -0.2499
  423MPD2     C 6360   0.031   2.838   0.452 -0.3687 -1.1628  0.0294
  423MPD2    C1 6361   0.143   2.914   0.465 -0.2966  0.0632 -0.1226
  423MPD2    C2 6362   0.258   2.890   0.382 -0.2040  0.6291 -0.1786
  423MPD2    C3 6363   0.254   2.784   0.294  0.0075  0.3456  0.0069
  423MPD2    C4 6364   0.136   2.724   0.271 -0.1764  0.0259  0.1343
  423MPD2    C5 6365   0.021   2.752   0.349  0.7969  0.7671  0.3932
  423MPD2     H 6366   0.350   2.927   0.424 -0.9262 -0.5326  2.4425
  423MPD2    H1 6367   0.142   2.642   0.199  1.4019 -1.0820  1.5209
  423MPD2    H2 6368   4.675   2.865   0.510  1.3947  0.3146  1.9950
  423MPD2    H3 6369   4.661   2.696   0.334  1.5844 -0.4026 -0.0089
  423MPD2     N 6370   0.372   2.738   0.224  0.3577  0.2704 -0.1740
  423MPD2    H5 6371   0.368   2.648   0.178  4.2145 -0.1904  0.4311
  423MPD2    N1 6372   0.159   3.005   0.576  0.0392  0.0891  0.7073
  423MPD2    H7 6373   0.246   3.058   0.577 -0.3877  0.8764 -1.5316
  424TMC3    C1 6374   0.147   3.117   0.762 -0.6501  0.8164 -0.1646
  424TMC3    C2 6375   0.284   3.116   0.756 -0.3035  0.5320 -0.8299
  424TMC3    C3 6376   0.349   3.195   0.849  0.1697 -0.7019 -0.0164
  424TMC3    C4 6377   0.075   3.198   0.842  0.0357  0.4561  0.3309
  424TMC3    C5 6378   0.147   3.273   0.935  0.1558 -0.1277  1.3195
  424TMC3    C6 6379   0.287   3.276   0.938  0.3309  0.8840 -0.2893
  424TMC3     C 6380   0.078   3.028   0.679  0.0797 -0.8755  0.2355
  424TMC3     O 6381   4.694   2.997   0.700  0.2250 -0.4976 -0.1982
  424TMC3     H 6382   0.344   3.049   0.695 -2.3335  1.9221 -4.3822
  424TMC3    H1 6383   4.699   3.182   0.834 -0.0299  1.3844 -0.7307
  424TMC3    H2 6384   0.338   3.334   1.014  1.0128  0.3179 -0.3134
  424TMC3    C7 6385   0.076   3.339   1.051  0.4408 -0.1371 -0.0894
  424TMC3    C8 6386   0.493   3.175   0.856 -0.3179 -0.1852  0.2059
  424TMC3    O1 6387   0.147   3.367   1.143  0.3814 -0.2759  0.4675
  424TMC3    O2 6388   0.547   3.092   0.787 -0.0199 -0.0840 -0.0184
  425MPD2     C 6389   4.450   2.322  17.425  0.3688 -0.6195 -0.1411
  425MPD2    C1 6390   4.402   2.235  17.333  0.5306 -0.0966  0.1499
  425MPD2    C2 6391   4.266   2.204  17.334  0.0028 -0.0787 -1.3645
  425MPD2    C3 6392   4.178   2.277  17.414  1.2814 -0.4125 -0.3132
  425MPD2    C4 6393   4.228   2.373  17.501 -0.5610  0.1672 -0.1152
  425MPD2    C5 6394   4.360   2.392  17.502  0.3974 -0.0659  0.8133
  425MPD2     H 6395   4.223   2.119  17.283 -3.7403  0.6412  0.5637
  425MPD2    H1 6396   4.163   2.438  17.560 -1.9435  0.2293 -1.7093
  425MPD2    H2 6397   4.554   2.354  17.425 -0.3701  1.6998 -4.0514
  425MPD2    H3 6398   4.400   2.467  17.569  0.6632  2.0894 -1.7395
  425MPD2     N 6399   4.042   2.239  17.402  0.9987  0.3864 -0.2100
  425MPD2    H5 6400   4.027   2.160  17.339  1.8289 -1.4886  1.9533
  425MPD2    N1 6401   4.492   2.163  17.251 -0.1442 -0.2729  0.3785
  425MPD2    H7 6402   4.591   2.180  17.265 -0.5228  0.2869  2.4391
  426TMC3    C1 6403   4.560   1.976  17.130 -0.5679 -0.4342  0.0447
  426TMC3    C2 6404   4.558   1.924  17.007  0.1167  0.1077  0.1440
  426TMC3    C3 6405   4.606   1.796  16.992 -0.3547  0.4495  1.1444
  426TMC3    C4 6406   4.595   1.897  17.240 -0.2196 -0.0300 -0.5897
  426TMC3    C5 6407   4.644   1.769  17.225 -0.6247 -0.3733 -0.2957
  426TMC3    C6 6408   4.650   1.721  17.097 -0.2882  0.1160  0.4302
  426TMC3     C 6409   4.458   2.070  17.154  0.6452  0.0526  0.4100
  426TMC3     O 6410   4.358   2.053  17.088 -0.2305 -0.5919  0.3560
  426TMC3     H 6411   4.520   1.983  16.924 -0.0331  1.2522  1.0273
  426TMC3    H1 6412   4.572   1.943  17.336  1.4161  1.4489 -0.9082
  426TMC3    H2 6413   4.666   1.617  17.070  2.0490  0.8013 -0.8721
  426TMC3    C7 6414   4.602   1.663  17.321  0.2874 -0.3831 -0.2041
  426TMC3    C8 6415   4.606   1.728  16.862  0.4486 -0.5454 -0.4227
  426TMC3    O1 6416   4.659   1.552  17.309 -0.7423  0.8143 -0.4901
  426TMC3    O2 6417   4.694   1.650  16.858  0.2828 -0.2115 -0.0117
  427MPD2     C 6418   3.026   4.638  15.348 -0.3647  0.0259  0.1305
  427MPD2    C1 6419   2.990   4.502  15.338 -1.0598 -0.3188 -0.1456
  427MPD2    C2 6420   2.851   4.470  15.331 -0.0653 -0.7214 -0.5826
  427MPD2    C3 6421   2.762   4.574  15.355  0.2343  0.1779  0.3405
  427MPD2    C4 6422   2.800   4.706  15.367  0.3734  0.8720  0.8721
  427MPD2    C5 6423   2.929   0.009  15.373 -1.1713 -0.0599  0.5912
  427MPD2     H 6424   2.817   4.369  15.308  0.5349 -1.1756  0.5038
  427MPD2    H1 6425   2.736   0.056  15.401 -1.3289  0.7239 -1.9491
  427MPD2    H2 6426   3.130   4.667  15.362 -0.1033  0.6891 -3.0253
  427MPD2    H3 6427   2.962   0.110  15.395 -0.6149  0.5216 -2.9221
  427MPD2     N 6428   2.623   4.556  15.356  0.0008 -0.9136  0.1748
  427MPD2    H5 6429   2.555   4.629  15.374 -1.8389 -2.8638  1.1276
  427MPD2    N1 6430   3.078   4.395  15.309  0.1762 -0.3982 -0.7970
  427MPD2    H7 6431   3.037   4.307  15.281 -1.3252  0.5824 -1.6700
  428TMC3    C1 6432   3.275   4.273  15.316 -0.5057 -0.5546 -1.0728
  428TMC3    C2 6433   3.214   4.168  15.381  0.6853  0.2909  0.5709
  428TMC3    C3 6434   3.294   4.095  15.463  0.6987  0.1001  0.2575
  428TMC3    C4 6435   3.410   4.289  15.329 -0.6505 -0.3806  0.1194
  428TMC3    C5 6436   3.482   4.211  15.415  0.1568  0.0893  0.5929
  428TMC3    C6 6437   3.427   4.105  15.484 -0.5007  0.0757 -0.3552
  428TMC3     C 6438   3.214   4.401  15.328  0.4073  0.1109  0.6317
  428TMC3     O 6439   3.280   4.478  15.396 -0.6910 -0.5434 -0.1642
  428TMC3     H 6440   3.106   4.172  15.392  0.7981  0.5507  1.6375
  428TMC3    H1 6441   3.465   4.371  15.285 -2.3675 -0.2804 -1.8091
  428TMC3    H2 6442   3.485   4.047  15.555  1.3698  0.8475 -1.2717
  428TMC3    C7 6443   3.628   4.234  15.421  0.1073  0.2309 -0.2806
  428TMC3    C8 6444   3.216   3.998  15.552  0.4225 -0.6302 -0.0573
  428TMC3    O1 6445   3.695   4.229  15.528 -0.0362  0.0456  0.1466
  428TMC3    O2 6446   3.125   3.943  15.495  0.5363 -0.3318  0.3142
  429MPD2     C 6447   4.102   4.151  17.659  0.7007  0.1323 -0.2793
  429MPD2    C1 6448   4.208   4.072  17.687  0.0925 -0.1151  0.9559
  429MPD2    C2 6449   4.332   4.122  17.676  0.7162  0.3830 -0.3816
  429MPD2    C3 6450   4.355   4.244  17.615 -0.1110  0.2527  0.5514
  429MPD2    C4 6451   4.243   4.328  17.591 -0.0215  0.0025 -0.8744
  429MPD2    C5 6452   4.119   4.279  17.608 -0.1376 -0.0511  0.0138
  429MPD2     H 6453   4.410   4.051  17.697  1.2333  0.8150 -0.8266
  429MPD2    H1 6454   4.254   4.433  17.569 -0.4707 -0.3503 -2.7283
  429MPD2    H2 6455   3.997   4.122  17.662 -0.2258  3.4361 -0.7894
  429MPD2    H3 6456   4.032   4.341  17.586  0.5813  1.4251  1.3581
  429MPD2     N 6457   4.490   4.278  17.577  0.2742  0.3212 -0.5346
  429MPD2    H5 6458   4.568   4.220  17.607 -1.1935 -2.0643 -1.3100
  429MPD2    N1 6459   4.199   3.943   0.015 -0.2956 -0.4656  0.3598
  429MPD2    H7 6460   4.282   3.900   0.054  1.0355 -1.3938 -3.5874
  430TMC3    C1 6461   4.661   4.399  17.458 -0.0102  0.6982  0.1514
  430TMC3    C2 6462   4.713   4.520  17.412  0.0944  0.1608 -0.1580
  430TMC3    C3 6463   0.069   4.522  17.309 -0.1579  0.2818 -0.2949
  430TMC3    C4 6464   4.709   4.280  17.413 -0.2657  0.5522  1.1073
  430TMC3    C5 6465   0.052   4.285  17.297 -0.5661  0.2909  0.2827
  430TMC3    C6 6466   0.112   4.404  17.251 -0.6028  0.0933  0.3151
  430TMC3     C 6467   4.522   4.393  17.506  0.2917 -0.4484 -0.2834
  430TMC3     O 6468   4.451   4.485  17.468  0.4890  0.0901 -0.2081
  430TMC3     H 6469   4.654   4.608  17.435 -0.7030 -0.1402 -1.0608
  430TMC3    H1 6470   4.662   4.185  17.437 -1.2386  0.3782 -1.5156
  430TMC3    H2 6471   0.156   4.408  17.152 -0.1688  0.1280  0.5137
  430TMC3    C7 6472   4.728   4.210  17.191  0.4353 -0.4551 -0.2823
  430TMC3    C8 6473   0.028   4.606  17.198 -0.6577 -0.5551  0.5252
  430TMC3    O1 6474   4.698   4.094  17.213  0.3473 -0.2321  0.5901
  430TMC3    O2 6475   4.717   4.556  17.098 -0.2272 -0.2273 -0.2343
  431MPD2     C 6476   4.424   4.653  12.455 -0.0240  0.0515 -0.1005
  431MPD2    C1 6477   4.556   4.688  12.434 -0.0425  0.4840 -0.5118
  431MPD2    C2 6478   4.629   4.611  12.341  0.1741  0.6699  0.7354
  431MPD2    C3 6479   4.579   4.491  12.291 -0.2253 -0.0599 -0.0542
  431MPD2    C4 6480   4.456   4.455  12.327 -0.3356  0.2042 -0.7699
  431MPD2    C5 6481   4.380   4.536  12.407 -0.4739  0.2712 -0.4063
  431MPD2     H 6482   4.727   4.638  12.303  1.4240  0.2675  3.7174
  431MPD2    H1 6483   4.412   4.361  12.295 -0.4126  0.4641 -1.4235
  431MPD2    H2 6484   4.350   4.716  12.502  0.1614  1.7902 -2.1698
  431MPD2    H3 6485   4.278   4.504  12.424 -0.5557  1.3127  1.1403
  431MPD2     N 6486   4.656   4.401  12.211 -0.1438  0.7851 -0.0678
  431MPD2    H5 6487   4.623   4.306  12.202  0.1690  0.6695 -0.0131
  431MPD2    N1 6488   4.602   0.076  12.496  0.8558  0.0662  0.2905
  431MPD2    H7 6489   4.538   0.120  12.561  2.1306  2.2050  0.0819
  432TMC3    C1 6490   0.106   4.316  12.105  0.5139 -0.0616  0.3059
  432TMC3    C2 6491   0.202   4.330  12.007  0.7957 -0.3617  0.1847
  432TMC3    C3 6492   0.282   4.227  11.982  0.5088 -1.0203  0.1555
  432TMC3    C4 6493   0.100   4.191  12.170  0.3934  0.6485  0.2131
  432TMC3    C5 6494   0.191   4.091  12.146 -0.7734 -0.5224  0.3600
  432TMC3    C6 6495   0.288   4.114  12.052 -0.2008 -0.9620 -0.3509
  432TMC3     C 6496   0.030   4.434  12.141  0.2622 -0.1254  0.1803
  432TMC3     O 6497   0.072   4.543  12.100 -0.2055  0.0479  0.6911
  432TMC3     H 6498   0.201   4.426  11.956  3.0992  0.9629  2.6417
  432TMC3    H1 6499   0.034   4.176  12.254  1.2563  0.8310  0.9248
  432TMC3    H2 6500   0.366   4.039  12.040 -0.3316 -1.2421  0.5867
  432TMC3    C7 6501   0.227   4.003  12.263 -0.5581 -0.3217  0.0637
  432TMC3    C8 6502   0.390   4.255  11.887  0.2895 -0.7609 -0.4007
  432TMC3    O1 6503   0.287   3.900  12.253 -0.5117 -0.4371 -0.0977
  432TMC3    O2 6504   0.451   4.152  11.849  0.1642 -0.3706 -0.1404
  433MPD2     C 6505   3.712   3.349  10.600  0.6966  0.8377  0.1412
  433MPD2    C1 6506   3.746   3.257  10.696 -0.0720  0.0908 -0.0981
  433MPD2    C2 6507   3.807   3.306  10.814 -0.3210  0.1464  0.3622
  433MPD2    C3 6508   3.837   3.436  10.829  0.3531 -0.6918  0.2700
  433MPD2    C4 6509   3.805   3.519  10.726 -0.8939 -0.0897 -0.0738
  433MPD2    C5 6510   3.745   3.481  10.612  0.4899 -0.4737 -0.0612
  433MPD2     H 6511   3.845   3.237  10.888 -1.2845 -0.6476  0.1066
  433MPD2    H1 6512   3.831   3.623  10.743 -1.7529 -0.0969  1.3495
  433MPD2    H2 6513   3.660   3.317  10.511  1.0163  0.0040  0.2471
  433MPD2    H3 6514   3.746   3.550  10.528 -4.1531 -0.4203 -0.0731
  433MPD2     N 6515   3.897   3.469  10.955 -0.3835 -0.2082  0.2496
  433MPD2    H5 6516   3.902   3.396  11.025  3.4464 -0.8008 -0.6455
  433MPD2    N1 6517   3.712   3.122  10.678  0.6049  0.8051 -0.0695
  433MPD2    H7 6518   3.674   3.101  10.586 -1.1816 -0.6237  0.9799
  434TMC3    C1 6519   3.698   2.878  10.728  0.1090  0.3033 -0.2361
  434TMC3    C2 6520   3.732   2.789  10.821 -1.2314 -0.3055 -0.2508
  434TMC3    C3 6521   3.772   2.662  10.773  0.3139 -0.5661  0.2851
  434TMC3    C4 6522   3.681   2.847  10.599  0.1571 -0.8415 -0.2803
  434TMC3    C5 6523   3.705   2.718  10.554 -0.6909  0.1837 -0.2740
  434TMC3    C6 6524   3.756   2.626  10.640 -0.4246 -0.1602 -0.4772
  434TMC3     C 6525   3.722   3.022  10.771 -0.0207 -0.3626  0.9603
  434TMC3     O 6526   3.742   3.036  10.894 -0.1626  0.5164  0.2908
  434TMC3     H 6527   3.745   2.816  10.925  0.6789 -0.3925 -0.4597
  434TMC3    H1 6528   3.694   2.929  10.530  1.2134 -0.4456  0.3808
  434TMC3    H2 6529   3.787   2.529  10.604  0.1870 -0.1221 -0.0706
  434TMC3    C7 6530   3.593   2.667  10.471  0.5066 -0.1620  0.1032
  434TMC3    C8 6531   3.876   2.598  10.849  0.3946  0.0079 -0.5671
  434TMC3    O1 6532   3.556   2.740  10.383 -0.2813  0.4495 -0.3223
  434TMC3    O2 6533   3.911   2.665  10.947  0.1590 -0.1384  0.1886
  435MPD2     C 6534   1.163   3.301  16.063 -0.3402 -0.4654  0.1161
  435MPD2    C1 6535   1.191   3.169  16.080 -0.0137 -0.5553  0.1591
  435MPD2    C2 6536   1.316   3.135  16.128 -0.0902  0.3232  0.3896
  435MPD2    C3 6537   1.416   3.222  16.157  0.2396  0.1919  0.2939
  435MPD2    C4 6538   1.390   3.356  16.127  0.7084 -0.1601 -0.0687
  435MPD2    C5 6539   1.265   3.387  16.078 -0.6343  0.4384 -0.0153
  435MPD2     H 6540   1.344   3.033  16.148 -0.1839  0.3012  0.4059
  435MPD2    H1 6541   1.465   3.433  16.140  0.4890 -0.1660  1.2807
  435MPD2    H2 6542   1.067   3.324  16.019 -0.1201  3.3075  1.6287
  435MPD2    H3 6543   1.250   3.487  16.039  1.5384  0.6766 -0.2463
  435MPD2     N 6544   1.541   3.176  16.223  1.1194  0.4392 -0.1365
  435MPD2    H5 6545   1.554   3.078  16.245  3.9221  0.7532 -0.3785
  435MPD2    N1 6546   1.095   3.069  16.059  0.1312  0.2994  1.2133
  435MPD2    H7 6547   1.133   2.976  16.072  2.3694  0.7490 -1.9384
  436TMC3    C1 6548   0.746   2.811  16.160  0.0939  0.3386  0.2134
  436TMC3    C2 6549   0.780   2.940  16.130  0.1438  0.0636  0.2889
  436TMC3    C3 6550   0.891   2.960  16.054  0.1804  0.1293  0.2950
  436TMC3    C4 6551   0.824   2.708  16.127 -0.3464  0.5359 -0.0519
  436TMC3    C5 6552   0.926   2.725  16.037 -0.1919  0.1883  1.1059
  436TMC3    C6 6553   0.961   2.852  16.000  0.0855 -0.1266  0.1423
  436TMC3     C 6554   0.699   2.804  16.296 -0.0207 -0.6968  0.0194
  436TMC3     O 6555   0.757   2.719  16.364  0.5626  0.7600 -0.4733
  436TMC3     H 6556   0.732   3.030  16.167 -0.3263  0.1516 -0.5277
  436TMC3    H1 6557   0.784   2.612  16.157  1.9224 -0.4385 -0.0940
  436TMC3    H2 6558   1.043   2.875  15.932 -2.8233  2.5713 -2.4424
  436TMC3    C7 6559   1.001   2.614  15.987  0.2620 -0.3414 -0.8677
  436TMC3    C8 6560   0.961   3.087  16.051 -0.2010  0.3595  0.0795
  436TMC3    O1 6561   0.942   2.521  15.939  0.4481  0.1436 -0.3849
  436TMC3    O2 6562   0.895   3.185  16.052  0.3911  0.2137  0.1267
  437TMC3    C1 6563   4.179   0.382  12.769 -0.1519  0.9663 -0.3117
  437TMC3    C2 6564   4.169   0.319  12.648  0.2913  0.2768  0.0362
  437TMC3    C3 6565   4.200   0.384  12.533 -0.4057 -0.0150  0.0789
  437TMC3    C4 6566   4.217   0.512  12.777  0.4893 -0.4266 -1.1210
  437TMC3    C5 6567   4.246   0.575  12.662 -0.3810  0.8924 -0.4009
  437TMC3    C6 6568   4.240   0.516  12.540 -0.1513  0.5895 -0.0252
  437TMC3     C 6569   4.134   0.303  12.884  0.3453 -0.6277  0.2952
  437TMC3     O 6570   4.103   0.182  12.874 -0.2346  0.4142  0.7876
  437TMC3     H 6571   4.159   0.211  12.641 -0.5158  0.3976 -0.6932
  437TMC3    H1 6572   4.223   0.568  12.870 -1.4885  0.0915 -1.3139
  437TMC3    H2 6573   4.270   0.576  12.455  0.4148 -0.3649 -0.4992
  437TMC3    C7 6574   4.321   0.699  12.664 -0.2416  0.4169  0.5180
  437TMC3    C8 6575   4.255   0.306  12.423  0.5203 -0.4267 -0.0995
  437TMC3    O1 6576   4.291   0.778  12.577 -0.4555  0.3980  0.3598
  437TMC3    O2 6577   4.246   0.179  12.431  0.3429  0.1346  0.2270
  438MPD2     C 6578   2.181   1.414  16.739  0.4235 -0.1246 -0.7644
  438MPD2    C1 6579   2.292   1.329  16.759 -0.0112  0.5196  0.7917
  438MPD2    C2 6580   2.308   1.272  16.883 -0.1678  0.6035 -0.3612
  438MPD2    C3 6581   2.222   1.300  16.992  0.2438 -0.6206 -0.8058
  438MPD2    C4 6582   2.111   1.380  16.964 -1.0407 -0.4205 -0.1074
  438MPD2    C5 6583   2.093   1.439  16.846  0.0404  0.2644 -0.4637
  438MPD2     H 6584   2.392   1.206  16.899 -0.2748  1.1580  2.4546
  438MPD2    H1 6585   2.041   1.418  17.037 -0.5967  2.2628 -1.0696
  438MPD2    H2 6586   2.151   1.465  16.648 -2.4112 -0.3572  0.0351
  438MPD2    H3 6587   2.010   1.509  16.834 -1.5579 -1.5703 -0.1619
  438MPD2     N 6588   2.246   1.261  17.126  0.3127  0.2170 -0.0657
  438MPD2    H5 6589   2.175   1.291  17.193  1.9534  1.7322  1.0034
  438MPD2    N1 6590   2.389   1.299  16.661  0.3757 -0.0627 -0.4372
  438MPD2    H7 6591   2.471   1.258  16.704  0.5403 -0.0925 -0.7784
  439TMC3    C1 6592   2.526   1.308  16.483 -0.0613 -0.5002  0.6348
  439TMC3    C2 6593   2.512   1.238  16.367 -0.3391 -1.0879 -0.0832
  439TMC3    C3 6594   2.577   1.115  16.368 -0.0933 -0.5787 -0.6232
  439TMC3    C4 6595   2.604   1.262  16.585  0.7199  0.2218 -0.0213
  439TMC3    C5 6596   2.658   1.139  16.590 -0.4288  0.5676  0.7830
  439TMC3    C6 6597   2.637   1.059  16.476  0.1056  0.0074 -0.0389
  439TMC3     C 6598   2.402   1.354  16.535 -0.5222  0.4351  0.2941
  439TMC3     O 6599   2.317   1.406  16.463  0.0403  0.1310  0.8734
  439TMC3     H 6600   2.473   1.298  16.286  0.7292  3.2071  2.6305
  439TMC3    H1 6601   2.633   1.326  16.668 -0.1266 -0.0624  0.4879
  439TMC3    H2 6602   2.679   0.960  16.472  0.1433 -0.0104  0.6845
  439TMC3    C7 6603   2.655   1.069  16.713  0.5926  0.3008 -0.2189
  439TMC3    C8 6604   2.592   1.043  16.236  1.0427  0.0144  0.2524
  439TMC3    O1 6605   2.592   1.135  16.795 -0.2916  0.4617 -0.5833
  439TMC3    O2 6606   2.591   0.918  16.246 -0.3844 -1.5528  0.2863
  440MPD2     C 6607   1.221   1.858  14.983 -0.2802 -0.5341  0.4746
  440MPD2    C1 6608   1.132   1.756  15.019 -0.0588 -1.2107 -0.2830
  440MPD2    C2 6609   1.184   1.652  15.091  0.2992  0.1181 -0.0309
  440MPD2    C3 6610   1.300   1.677  15.165  0.8596 -0.4223 -0.0559
  440MPD2    C4 6611   1.383   1.780  15.137  0.1766 -0.5036 -0.5437
  440MPD2    C5 6612   1.348   1.869  15.039  0.3263  0.3433  0.5944
  440MPD2     H 6613   1.115   1.574  15.118 -0.1959  0.5958  0.0855
  440MPD2    H1 6614   1.476   1.799  15.189 -1.3198  2.5037  1.0616
  440MPD2    H2 6615   1.196   1.928  14.903 -0.0237 -0.7121  0.2412
  440MPD2    H3 6616   1.424   1.943  15.015 -2.0928  1.7649 -2.7848
  440MPD2     N 6617   1.341   1.602  15.273 -0.1649 -0.0821  0.4883
  440MPD2    H5 6618   1.425   1.632  15.322  0.4902  0.3423 -0.9080
  440MPD2    N1 6619   0.990   1.746  14.973  0.2588  0.1111 -0.3113
  440MPD2    H7 6620   0.930   1.665  14.987 -2.1262  1.8496 -0.5201
  441TMC3    C1 6621   1.339   1.425  15.425 -0.1450 -0.3640 -0.2808
  441TMC3    C2 6622   1.350   1.512  15.533  0.0147 -0.5488 -0.5596
  441TMC3    C3 6623   1.339   1.453  15.664 -0.0490 -0.1350  0.3867
  441TMC3    C4 6624   1.303   1.296  15.443  0.0989 -0.0872  0.5160
  441TMC3    C5 6625   1.305   1.245  15.574  0.3563  0.0956  0.5905
  441TMC3    C6 6626   1.312   1.318  15.686  0.2960 -0.0493 -0.6537
  441TMC3     C 6627   1.295   1.478  15.297 -0.1151  0.0038  0.3139
  441TMC3     O 6628   1.222   1.408  15.225  0.4058  0.6038  0.5571
  441TMC3     H 6629   1.377   1.616  15.523 -0.0050 -0.3947  1.0048
  441TMC3    H1 6630   1.293   1.233  15.355 -0.9819  1.2441 -0.3143
  441TMC3    H2 6631   1.313   1.278  15.786  1.3872 -0.1436 -0.6993
  441TMC3    C7 6632   1.302   1.103  15.584  0.6568 -0.3254  0.5763
  441TMC3    C8 6633   1.321   1.544  15.775  0.9776 -0.6045 -0.0368
  441TMC3    O1 6634   1.219   1.047  15.517 -0.1363  0.1336 -0.0870
  441TMC3    O2 6635   1.321   1.492  15.886 -0.7008  0.0724  0.0083
  442MPD2     C 6636   4.062   1.931  16.130 -0.0802 -0.4236  0.7529
  442MPD2    C1 6637   4.015   1.835  16.222 -0.5826 -0.0439 -0.2935
  442MPD2    C2 6638   3.986   1.708  16.189 -0.0054  0.0668 -0.4210
  442MPD2    C3 6639   4.027   1.659  16.060  0.4294  0.6530  0.0033
  442MPD2    C4 6640   4.064   1.761  15.964 -0.1155 -0.2296 -0.3609
  442MPD2    C5 6641   4.086   1.886  16.004 -0.4594  0.2082 -0.1798
  442MPD2     H 6642   3.942   1.647  16.266  0.6627 -0.2943 -0.3267
  442MPD2    H1 6643   4.084   1.732  15.862 -0.5479  1.7635 -1.0178
  442MPD2    H2 6644   4.050   2.038  16.138 -3.1140 -1.1979  6.0866
  442MPD2    H3 6645   4.112   1.958  15.927  0.6010  1.2228  1.1380
  442MPD2     N 6646   4.023   1.524  16.020  0.0769 -1.1613 -0.1944
  442MPD2    H5 6647   4.072   1.497  15.935  0.9795 -1.0571  0.2882
  442MPD2    N1 6648   3.986   1.867  16.358  0.9347  0.0752 -0.2720
  442MPD2    H7 6649   3.941   1.797  16.416  1.4561 -0.6034 -0.6866
  443TMC3    C1 6650   3.950   2.006  16.557 -0.2116  0.0251 -0.8589
  443TMC3    C2 6651   3.895   2.128  16.586  0.4229  0.5272 -0.0139
  443TMC3    C3 6652   3.820   2.141  16.702  0.5142  0.1305  0.1518
  443TMC3    C4 6653   3.944   1.901  16.644 -0.2967 -1.0247 -0.1856
  443TMC3    C5 6654   3.884   1.928  16.764 -0.3020 -0.1639  0.3712
  443TMC3    C6 6655   3.829   2.047  16.798  0.3229  0.5173 -0.2491
  443TMC3     C 6656   4.000   1.996  16.413 -0.8498  0.3677  0.1913
  443TMC3     O 6657   4.018   2.101  16.355 -0.4893 -0.1423  0.2659
  443TMC3     H 6658   3.895   2.206  16.510 -0.6697 -1.2832 -1.8513
  443TMC3    H1 6659   3.982   1.804  16.617 -3.1296 -2.6242  1.5661
  443TMC3    H2 6660   3.784   2.065  16.895  1.6097 -0.2914  0.4887
  443TMC3    C7 6661   3.847   1.817  16.846 -0.8586 -0.1055 -0.2464
  443TMC3    C8 6662   3.792   2.275  16.756  0.3697  0.7022 -0.4135
  443TMC3    O1 6663   3.896   1.710  16.815 -0.1922  0.2116 -0.0731
  443TMC3    O2 6664   3.843   2.283  16.867  0.1032 -0.4977  0.1065
  444MPD2     C 6665   4.516   1.328  16.895  0.3650  0.4678 -0.0268
  444MPD2    C1 6666   4.439   1.215  16.881 -0.3351 -0.0060 -0.1289
  444MPD2    C2 6667   4.466   1.125  16.772 -0.1750 -0.0124 -0.6047
  444MPD2    C3 6668   4.573   1.147  16.688  0.3878  0.4818  0.1550
  444MPD2    C4 6669   4.656   1.249  16.713 -0.0319 -0.0011 -0.7357
  444MPD2    C5 6670   4.628   1.340  16.821  0.6698 -0.4987  0.1781
  444MPD2     H 6671   4.409   1.035  16.755  1.4103 -1.2260  0.4847
  444MPD2    H1 6672   0.018   1.271  16.662  0.2929 -0.8172 -0.4889
  444MPD2    H2 6673   4.493   1.408  16.964 -3.7479 -1.7010  1.1590
  444MPD2    H3 6674   4.692   1.425  16.841  0.4840 -0.6012  1.1844
  444MPD2     N 6675   4.589   1.056  16.584  0.0306  0.3450 -0.0750
  444MPD2    H5 6676   4.524   0.979  16.589  0.7570 -0.2139  0.7168
  444MPD2    N1 6677   4.324   1.188  16.962  0.1134  0.1022 -0.5838
  444MPD2    H7 6678   4.273   1.100  16.956 -0.7904  0.4549  2.3537
  445TMC3    C1 6679   4.680   0.917  16.414  0.2753  0.3544 -0.2560
  445TMC3    C2 6680   4.551   0.867  16.397  0.9212  0.5043  0.5051
  445TMC3    C3 6681   4.549   0.729  16.391  0.1761  0.1334  0.5941
  445TMC3    C4 6682   0.054   0.830  16.414 -0.3510 -1.0089 -0.3018
  445TMC3    C5 6683   0.041   0.699  16.421  0.7334 -0.6707 -0.2376
  445TMC3    C6 6684   4.652   0.642  16.412 -0.1462  0.2496 -0.1399
  445TMC3     C 6685   4.693   1.037  16.494 -0.1815 -0.5754  0.1419
  445TMC3     O 6686   0.070   1.097  16.491  0.5926  0.3755 -0.3722
  445TMC3     H 6687   4.465   0.932  16.410  0.1704 -0.0306 -1.7857
  445TMC3    H1 6688   0.154   0.870  16.432 -0.0326 -2.5043  1.1787
  445TMC3    H2 6689   4.643   0.541  16.372 -1.4611 -0.1393  1.1084
  445TMC3    C7 6690   0.159   0.615  16.404 -0.2345 -0.1019 -0.3247
  445TMC3    C8 6691   4.430   0.670  16.332 -0.6679  0.0319  0.1229
  445TMC3    O1 6692   0.268   0.663  16.398 -0.5589 -0.5515  0.3300
  445TMC3    O2 6693   4.355   0.735  16.259 -0.0001 -0.0021 -0.3487
  446MPD2     C 6694   3.634   2.846  11.431  0.6618  0.1249  0.1639
  446MPD2    C1 6695   3.611   2.888  11.307  0.1322 -0.7257  0.0946
  446MPD2    C2 6696   3.712   2.899  11.224  0.4539 -0.4520  0.4852
  446MPD2    C3 6697   3.838   2.852  11.246 -0.0104 -0.3818 -0.1506
  446MPD2    C4 6698   3.855   2.798  11.373 -0.8447 -0.2903  0.4330
  446MPD2    C5 6699   3.755   2.798  11.466  0.6834  0.2764 -0.1367
  446MPD2     H 6700   3.687   2.935  11.124  0.7408  1.3847  1.0748
  446MPD2    H1 6701   3.948   2.761  11.414 -0.6233 -0.2592 -0.0395
  446MPD2    H2 6702   3.566   2.839  11.516 -1.2141 -0.5459 -1.4115
  446MPD2    H3 6703   3.774   2.751  11.561 -0.3344 -0.3622 -0.2493
  446MPD2     N 6704   3.933   2.874  11.150 -0.3619 -0.4505 -0.1102
  446MPD2    H5 6705   3.899   2.899  11.057 -0.0065 -1.8440 -0.6089
  446MPD2    N1 6706   3.484   2.936  11.268 -0.2094  0.1718  0.6609
  446MPD2    H7 6707   3.486   2.984  11.178  1.7678  2.6264  2.0120
  447TMC3    C1 6708   4.139   2.840  11.034 -0.0280 -0.0958  0.9399
  447TMC3    C2 6709   4.121   2.964  10.981  0.0709  0.0170  0.2408
  447TMC3    C3 6710   4.235   3.052  10.967 -1.0915  0.0495  0.2201
  447TMC3    C4 6711   4.259   2.790  11.055 -1.0272 -0.4676 -0.5378
  447TMC3    C5 6712   4.368   2.873  11.037  0.2797  0.4854  0.8303
  447TMC3    C6 6713   4.357   3.006  11.007  0.5343 -0.0659 -0.2539
  447TMC3     C 6714   4.059   2.819  11.149 -0.1777 -0.5519 -0.4922
  447TMC3     O 6715   4.120   2.769  11.245 -0.1921 -0.6365  0.4853
  447TMC3     H 6716   4.024   3.003  10.955  0.4627 -1.2010 -3.0721
  447TMC3    H1 6717   4.274   2.683  11.068  1.7850  0.1608  1.3681
  447TMC3    H2 6718   4.448   3.055  10.975  1.4931 -1.2455  0.6660
  447TMC3    C7 6719   4.479   2.827  11.114  0.0670 -0.4109  0.0774
  447TMC3    C8 6720   4.224   3.182  10.909 -0.5638  0.7104 -1.1677
  447TMC3    O1 6721   4.478   2.710  11.142  0.4823 -0.0632  0.0266
  447TMC3    O2 6722   4.123   3.196  10.838  0.7149  0.1349 -0.5463
  448TMC3    C1 6723   2.497   2.738  17.661  0.7773 -0.1244 -0.3625
  448TMC3    C2 6724   2.557   2.665  17.560  1.1731  0.0615  0.0461
  448TMC3    C3 6725   2.607   2.541  17.587 -0.7596  0.6139  0.6387
  448TMC3    C4 6726   2.499   2.689   0.063  0.4906 -0.4861 -0.0150
  448TMC3    C5 6727   2.549   2.565   0.086  0.2092 -0.1860  0.6788
  448TMC3    C6 6728   2.597   2.488  17.709 -0.3883  0.0447 -0.5569
  448TMC3     C 6729   2.438   2.871  17.645  0.2120  0.5100  1.1513
  448TMC3     O 6730   2.375   2.906   0.019  0.1908  0.0503 -0.1090
  448TMC3     H 6731   2.562   2.701  17.458 -0.5789 -1.1890 -0.4783
  448TMC3    H1 6732   2.464   2.754   0.143  0.1673 -1.5923  0.7417
  448TMC3    H2 6733   2.644   2.393   0.002 -4.2864 -1.8206 -0.1547
  448TMC3    C7 6734   2.649   2.559   0.184 -0.8045  0.8597 -0.2218
  448TMC3    C8 6735   2.617   2.437  17.489  0.9274  0.5395 -0.1577
  448TMC3    O1 6736   2.759   2.528   0.152 -0.2286 -0.3449  0.3073
  448TMC3    O2 6737   2.651   2.324  17.523  0.3712 -0.5001 -0.0986
  449MPD2     C 6738   3.803   0.498  14.290 -0.2045 -0.5874  0.2650
  449MPD2    C1 6739   3.686   0.489  14.218  0.2029  0.4974  0.0593
  449MPD2    C2 6740   3.567   0.482  14.284  0.9053  0.0276  0.2148
  449MPD2    C3 6741   3.559   0.509  14.417  0.1100 -0.2465 -0.4577
  449MPD2    C4 6742   3.671   0.528  14.498 -0.5698 -0.0893  0.8104
  449MPD2    C5 6743   3.788   0.520  14.426  0.2033 -0.1476  0.3563
  449MPD2     H 6744   3.471   0.473  14.235 -0.2429  1.7843  2.1760
  449MPD2    H1 6745   3.667   0.541  14.606 -1.1367  0.2027  0.7546
  449MPD2    H2 6746   3.906   0.503  14.257 -0.2785 -1.6200 -0.0933
  449MPD2    H3 6747   3.874   0.529  14.491  0.3059 -3.2382  0.6624
  449MPD2     N 6748   3.425   0.508  14.464 -0.0235 -0.5554 -0.1624
  449MPD2    H5 6749   3.354   0.481  14.398 -0.1523 -1.4420  0.3412
  449MPD2    N1 6750   3.685   0.458  14.081  0.3943  0.4552  0.3613
  449MPD2    H7 6751   3.595   0.436  14.040  1.2933  0.4928 -1.6279
  450TMC3    C1 6752   3.745   0.476  13.863  0.1812 -0.9545  0.1375
  450TMC3    C2 6753   3.770   0.586  13.790  0.0118 -0.4039  0.3047
  450TMC3    C3 6754   3.668   0.634  13.716  0.1655 -0.0366 -0.4227
  450TMC3    C4 6755   3.623   0.413  13.859 -0.2287 -0.9219 -0.2445
  450TMC3    C5 6756   3.518   0.460  13.779  0.3617  0.0067  0.1786
  450TMC3    C6 6757   3.548   0.568  13.704  0.2848 -0.1783 -0.5205
  450TMC3     C 6758   3.784   0.495  13.994  0.4853 -0.4124  0.9834
  450TMC3     O 6759   3.895   0.546  14.010 -0.4420 -0.0653  0.6782
  450TMC3     H 6760   3.860   0.641  13.815  0.2447 -1.0876  0.9893
  450TMC3    H1 6761   3.608   0.317  13.906 -1.8842 -1.0472 -1.0162
  450TMC3    H2 6762   3.467   0.602  13.640  0.4822 -1.1146 -1.2646
  450TMC3    C7 6763   3.397   0.464  13.853 -0.2448  0.1542 -0.5805
  450TMC3    C8 6764   3.675   0.765  13.655  0.1552  0.3977  0.3369
  450TMC3    O1 6765   3.417   0.416  13.965 -0.0671  0.0131 -0.2894
  450TMC3    O2 6766   3.570   0.825  13.642  0.1113  0.5650  0.1964
  451MPD2     C 6767   4.625   3.965   0.990 -0.0807 -0.0305 -0.1353
  451MPD2    C1 6768   4.713   4.073   0.991 -0.6425  0.1338 -0.0433
  451MPD2    C2 6769   0.072   4.080   0.886  0.3594  0.2937  1.1543
  451MPD2    C3 6770   0.079   3.980   0.795  0.0801  0.1781 -0.0914
  451MPD2    C4 6771   4.731   3.870   0.800  0.0073  0.1979  0.2483
  451MPD2    C5 6772   4.634   3.866   0.897  0.3957  0.9536  0.1731
  451MPD2     H 6773   0.141   4.163   0.886  0.3298  0.2986 -1.9892
  451MPD2    H1 6774   0.006   3.794   0.723 -2.2700  1.4607 -1.1810
  451MPD2    H2 6775   4.545   3.951   1.062 -0.0329  1.1806  0.1511
  451MPD2    H3 6776   4.567   3.783   0.915 -0.5785  1.6569 -0.2053
  451MPD2     N 6777   0.173   3.993   0.695  0.4145 -0.0084  0.8276
  451MPD2    H5 6778   0.176   3.925   0.620 -2.4673  0.1288  0.6184
  451MPD2    N1 6779   4.717   4.172   1.092 -0.0413 -0.3554  0.5911
  451MPD2    H7 6780   0.052   4.247   1.075  1.6745 -2.0677 -0.4905
  452TMC3    C1 6781   0.327   4.109   0.561  0.0239 -0.0657  0.6491
  452TMC3    C2 6782   0.251   4.069   0.453 -0.0005 -0.0165  0.6812
  452TMC3    C3 6783   0.270   4.145   0.340  0.4326  0.0936  0.4081
  452TMC3    C4 6784   0.426   4.203   0.559  0.9337  0.2533  0.1940
  452TMC3    C5 6785   0.451   4.255   0.437  0.2067 -0.0904  0.6923
  452TMC3    C6 6786   0.373   4.240   0.328  0.2126  0.1862 -0.2602
  452TMC3     C 6787   0.283   4.073   0.690  0.4945 -0.0870  0.5117
  452TMC3     O 6788   0.341   4.096   0.800 -0.3536  0.1262 -0.0146
  452TMC3     H 6789   0.171   3.996   0.452  0.8841 -0.9931  1.3090
  452TMC3    H1 6790   0.476   4.233   0.651 -0.3535 -1.7823  1.5744
  452TMC3    H2 6791   0.397   4.300   0.241 -2.0998  1.9871  0.3341
  452TMC3    C7 6792   0.536   4.372   0.429  0.2363  0.2419 -0.1277
  452TMC3    C8 6793   0.144   4.188   0.277  0.0441 -0.5078 -0.4338
  452TMC3    O1 6794   0.498   4.460   0.349 -0.0800 -0.1177  0.2798
  452TMC3    O2 6795   0.046   4.133   0.325  0.2256  0.0740 -0.3500
  453TMC3    C1 6796   0.598   1.654  12.173 -0.3700 -0.1865  0.2070
  453TMC3    C2 6797   0.551   1.526  12.145 -0.8325 -0.2779  0.1217
  453TMC3    C3 6798   0.429   1.483  12.191  0.1468  0.3836 -0.2103
  453TMC3    C4 6799   0.508   1.741  12.220  0.1144 -0.4204  0.0790
  453TMC3    C5 6800   0.393   1.693  12.272  0.4297 -0.3739 -0.0492
  453TMC3    C6 6801   0.351   1.567  12.259  0.2037 -0.6540 -0.0018
  453TMC3     C 6802   0.727   1.705  12.141  0.0889  0.3433  0.5491
  453TMC3     O 6803   0.749   1.808  12.196 -0.9653 -0.1581  0.3417
  453TMC3     H 6804   0.617   1.455  12.095  0.6466  1.1890 -0.0107
  453TMC3    H1 6805   0.539   1.840  12.252  0.7704 -0.4520 -0.4610
  453TMC3    H2 6806   0.261   1.535  12.309 -0.7281 -0.7608 -1.7521
  453TMC3    C7 6807   0.325   1.791  12.357 -0.2298 -0.7808 -0.7356
  453TMC3    C8 6808   0.373   1.345  12.170  0.3126 -0.8359  0.0074
  453TMC3    O1 6809   0.330   1.906  12.316  0.4840  0.3402  0.3681
  453TMC3    O2 6810   0.280   1.312  12.244  0.5043 -0.5691 -0.5585
  454MPD2     C 6811   0.475   0.842  16.134  1.0277 -0.8017 -0.3374
  454MPD2    C1 6812   0.410   0.899  16.025  1.2986  0.0823 -0.4400
  454MPD2    C2 6813   0.384   1.028  16.044  0.6176 -0.2271  0.0344
  454MPD2    C3 6814   0.412   1.098  16.162 -0.1437  0.3624 -0.1403
  454MPD2    C4 6815   0.483   1.038  16.260 -0.6852 -0.4111  0.1460
  454MPD2    C5 6816   0.521   0.906  16.248  0.1186  0.2786 -0.0255
  454MPD2     H 6817   0.325   1.071  15.963  0.8292  0.0964  0.0530
  454MPD2    H1 6818   0.509   1.089  16.353 -0.0148 -0.1893 -0.1642
  454MPD2    H2 6819   0.494   0.735  16.129 -2.8103 -1.3557 -2.7067
  454MPD2    H3 6820   0.585   0.848  16.314  2.2222  1.9140 -0.6227
  454MPD2     N 6821   0.365   1.228  16.179 -0.4936  0.0265  0.4819
  454MPD2    H5 6822   0.361   1.254  16.277 -0.9594 -1.0416  0.7482
  454MPD2    N1 6823   0.355   0.836  15.913  0.3080  0.3485  0.3926
  454MPD2    H7 6824   0.310   0.890  15.839  0.0262  1.7448  1.5895
  455TMC3    C1 6825   0.173   1.356  16.129 -0.3426  0.2699 -0.6112
  455TMC3    C2 6826   0.160   1.389  16.261 -0.6939 -0.1251 -0.3246
  455TMC3    C3 6827   0.046   1.356  16.322  0.9215 -0.6815  0.3289
  455TMC3    C4 6828   0.074   1.289  16.063  0.6923 -0.6930  0.2964
  455TMC3    C5 6829   4.698   1.254  16.129  0.2140  0.4181  0.3649
  455TMC3    C6 6830   4.675   1.293  16.258  0.2811 -0.5770  0.4823
  455TMC3     C 6831   0.299   1.301  16.080  0.8751 -0.5485 -0.1472
  455TMC3     O 6832   0.310   1.302  15.959  0.5375  0.4941 -0.0619
  455TMC3     H 6833   0.230   1.446  16.322  1.4356 -1.8440 -1.1897
  455TMC3    H1 6834   0.097   1.257  15.962 -5.4795 -2.2029 -0.6430
  455TMC3    H2 6835   4.594   1.243  16.309  0.3355 -2.3804 -1.1779
  455TMC3    C7 6836   4.645   1.128  16.095 -0.9555  0.1592  0.2300
  455TMC3    C8 6837   4.729   1.445  16.424  0.1604 -0.0389  0.6835
  455TMC3    O1 6838   4.523   1.104  16.111  0.2697  0.1357 -0.1006
  455TMC3    O2 6839   0.069   1.523  16.483  0.2387  0.3182 -0.0812
  456MPD2     C 6840   2.527   1.662  16.411 -1.0767 -0.0831 -1.0522
  456MPD2    C1 6841   2.651   1.609  16.445 -0.1967 -0.1538 -0.4498
  456MPD2    C2 6842   2.691   1.622  16.580  0.2287  0.5718 -0.7810
  456MPD2    C3 6843   2.607   1.677  16.676 -0.0310  0.6267 -0.4017
  456MPD2    C4 6844   2.490   1.741  16.626 -0.1220 -0.0468  0.8689
  456MPD2    C5 6845   2.445   1.728  16.493  0.1005 -0.3525  0.2161
  456MPD2     H 6846   2.790   1.592  16.611 -0.6241 -1.6123 -0.2052
  456MPD2    H1 6847   2.425   1.790  16.696 -0.5033  3.7283 -2.1399
  456MPD2    H2 6848   2.482   1.648  16.314 -0.3983 -0.2918 -1.3377
  456MPD2    H3 6849   2.349   1.766  16.461 -0.2962 -0.6945  1.0158
  456MPD2     N 6850   2.644   1.688  16.817 -0.0368  0.7444  0.0445
  456MPD2    H5 6851   2.581   1.735  16.881  0.1319  1.3323 -0.2101
  456MPD2    N1 6852   2.719   1.544  16.342 -0.4654 -0.1601  0.5889
  456MPD2    H7 6853   2.677   1.551  16.250 -1.6822  0.2242  1.1630
  457TMC3    C1 6854   2.783   1.675  17.003 -0.4808  0.3150  0.7462
  457TMC3    C2 6855   2.763   1.807  17.024  0.0529  0.2084 -0.3272
  457TMC3    C3 6856   2.806   1.858  17.138 -0.1927  0.3383  0.4983
  457TMC3    C4 6857   2.850   1.590  17.094  0.2841 -0.2285 -0.1065
  457TMC3    C5 6858   2.887   1.652  17.211  0.5149 -0.3297 -0.9706
  457TMC3    C6 6859   2.872   1.783  17.229  0.1604  0.1887  0.1231
  457TMC3     C 6860   2.755   1.624  16.872  0.1533 -0.5770  0.5993
  457TMC3     O 6861   2.833   1.548  16.824 -0.1520  0.5575 -0.0533
  457TMC3     H 6862   2.707   1.860  16.948  0.1346 -0.9377 -1.1862
  457TMC3    H1 6863   2.874   1.488  17.066  1.2785  0.0293 -0.1957
  457TMC3    H2 6864   2.922   1.834  17.310  2.4993  1.0252 -1.8235
  457TMC3    C7 6865   2.898   1.573  17.337  0.6579 -0.3868 -0.0350
  457TMC3    C8 6866   2.757   1.993  17.185 -0.2019 -0.1430  0.6543
  457TMC3    O1 6867   2.960   1.465  17.331  0.2199  0.3112 -0.4715
  457TMC3    O2 6868   2.773   2.011  17.302  0.1237  0.2474 -0.4821
  458MPD2     C 6869   0.037   0.937  12.742  0.0344 -0.3467 -0.7413
  458MPD2    C1 6870   0.038   0.817  12.811  0.0676 -0.3062  0.2056
  458MPD2    C2 6871   4.659   0.738  12.807 -0.7802  0.1391  0.2948
  458MPD2    C3 6872   4.542   0.778  12.738 -0.0052 -0.4122  0.3701
  458MPD2    C4 6873   4.550   0.899  12.660  0.6974  0.4477 -0.4140
  458MPD2    C5 6874   4.659   0.982  12.676  0.1845  0.4076  0.7097
  458MPD2     H 6875   4.653   0.639  12.852 -0.8156 -0.7105 -1.5484
  458MPD2    H1 6876   4.465   0.938  12.606  0.6114  1.6336  0.5745
  458MPD2    H2 6877   0.115   1.012  12.743  0.1953 -0.5265  0.6963
  458MPD2    H3 6878   4.674   1.072  12.617 -0.0359  0.8940  1.4070
  458MPD2     N 6879   4.437   0.687  12.740 -0.2336  0.6743  0.8666
  458MPD2    H5 6880   4.451   0.599  12.789  0.0517 -1.9377 -3.8920
  458MPD2    N1 6881   0.158   0.775  12.882  0.2728  0.2171  0.6274
  458MPD2    H7 6882   0.231   0.845  12.890 -0.7006  1.1266  1.5955
  459TMC3    C1 6883   0.311   0.642  13.002 -0.3549 -0.0185  0.3176
  459TMC3    C2 6884   0.414   0.733  12.989 -0.4659  0.4413  0.0603
  459TMC3    C3 6885   0.515   0.731  13.079 -0.3155  0.0209  0.1632
  459TMC3    C4 6886   0.322   0.540  13.098  0.0419  0.7230  0.4619
  459TMC3    C5 6887   0.432   0.542  13.179 -0.7499  0.2173 -0.3915
  459TMC3    C6 6888   0.525   0.641  13.176  0.0759  0.7350  0.5659
  459TMC3     C 6889   0.178   0.658  12.944  0.6310 -0.0159  0.3220
  459TMC3     O 6890   0.101   0.566  12.963  0.0568 -0.5349 -0.0094
  459TMC3     H 6891   0.425   0.792  12.899 -1.9869 -0.2010 -0.5556
  459TMC3    H1 6892   0.238   0.472  13.108  1.0292 -0.5200  0.2737
  459TMC3    H2 6893   0.606   0.646  13.248  1.1862 -1.3064 -0.5378
  459TMC3    C7 6894   0.442   0.441  13.281  0.2379 -0.5615  0.0834
  459TMC3    C8 6895   0.635   0.816  13.063  0.4875  0.4018 -1.0270
  459TMC3    O1 6896   0.402   0.329  13.254  0.5607 -0.2650  0.9203
  459TMC3    O2 6897   0.740   0.785  13.116  0.1293 -0.1958 -0.5547
  460MPD2     C 6898   4.452   3.453  10.987  0.8017 -0.4898 -0.4141
  460MPD2    C1 6899   4.329   3.411  10.941 -0.0999  0.0049 -0.6568
  460MPD2    C2 6900   4.254   3.486  10.854 -0.0004 -0.3728 -0.4337
  460MPD2    C3 6901   4.290   3.616  10.822  0.5015 -0.1458  0.4487
  460MPD2    C4 6902   4.415   3.661  10.871  0.6615  0.2584  0.1751
  460MPD2    C5 6903   4.496   3.581  10.950  0.2282 -0.8186  0.2733
  460MPD2     H 6904   4.172   3.436  10.805 -2.4775  0.2255  3.1029
  460MPD2    H1 6905   4.447   3.764  10.861 -2.5747  1.2751  0.2824
  460MPD2    H2 6906   4.517   3.392  11.048 -0.1058 -0.8090  0.2505
  460MPD2    H3 6907   4.587   3.612  11.001 -0.1965 -0.7170  0.9700
  460MPD2     N 6908   4.214   3.694  10.730  0.3700  0.4710  0.4527
  460MPD2    H5 6909   4.119   3.662  10.711 -0.5949  3.3231  0.4661
  460MPD2    N1 6910   4.311   3.271  10.959  0.4291  0.0074  0.1380
  460MPD2    H7 6911   4.367   3.240  11.037 -1.9375  1.0866  2.2893
  461TMC3    C1 6912   4.173   3.850  10.554 -0.5086 -0.1061  0.4703
  461TMC3    C2 6913   4.073   3.765  10.501  0.6704 -0.3578 -0.8729
  461TMC3    C3 6914   4.004   3.807  10.394 -0.1834 -0.2072  0.5561
  461TMC3    C4 6915   4.202   3.969  10.490  0.2387 -0.3438  0.2227
  461TMC3    C5 6916   4.123   4.008  10.388  0.2905 -0.4113  0.4486
  461TMC3    C6 6917   4.033   3.922  10.327  0.7837 -0.0499  0.0345
  461TMC3     C 6918   4.258   3.809  10.669  0.6003  0.3342 -0.6588
  461TMC3     O 6919   4.356   3.875  10.693 -0.5240 -0.5956 -0.2336
  461TMC3     H 6920   4.038   3.670  10.541  0.5276 -0.3080 -0.8797
  461TMC3    H1 6921   4.287   4.031  10.518  0.4663 -0.3380 -0.4781
  461TMC3    H2 6922   3.995   3.947  10.228  0.0954 -0.0568  0.2955
  461TMC3    C7 6923   4.164   4.126  10.309  0.1184  0.0953  0.4861
  461TMC3    C8 6924   3.954   3.697  10.309  0.0352 -0.5295 -0.4271
  461TMC3    O1 6925   4.148   4.114  10.188 -0.3021  0.0690 -0.0753
  461TMC3    O2 6926   3.994   3.586  10.337  0.3887 -0.4395  0.7109
  462TMC3    C1 6927   4.165   3.335  17.452 -0.4695  0.2380  0.1915
  462TMC3    C2 6928   4.103   3.258  17.348  0.2344 -0.1104  0.6411
  462TMC3    C3 6929   4.114   3.120  17.353 -0.7401  0.0617  0.7399
  462TMC3    C4 6930   4.231   3.266  17.551 -0.1586 -0.3245 -0.2645
  462TMC3    C5 6931   4.231   3.128  17.554 -0.5099 -0.7453 -0.1073
  462TMC3    C6 6932   4.193   3.059  17.443  0.2824 -0.3728  0.0630
  462TMC3     C 6933   4.184   3.477  17.436 -0.4184 -0.5933  0.0999
  462TMC3     O 6934   4.271   3.536  17.499  0.6748 -0.3850  0.1334
  462TMC3     H 6935   4.050   3.308  17.267  1.2620 -1.3639 -0.8233
  462TMC3    H1 6936   4.256   3.319  17.642 -4.1413  1.0503 -0.0193
  462TMC3    H2 6937   4.177   2.952  17.447  0.2646 -0.4463 -1.9950
  462TMC3    C7 6938   4.179   3.062  17.674  0.0254 -0.5894 -0.0619
  462TMC3    C8 6939   4.075   3.043  17.227  0.3775  0.3528  0.0325
  462TMC3    O1 6940   4.095   2.978  17.661  0.3478 -0.6017  0.1336
  462TMC3    O2 6941   3.982   3.094  17.160 -0.2799  0.3223 -0.1466
  463MPD2     C 6942   0.986   2.519   0.938 -0.0497  0.5390 -0.5029
  463MPD2    C1 6943   0.891   2.619   0.922 -0.1278 -0.3897 -0.3946
  463MPD2    C2 6944   0.909   2.739   0.973 -0.8510 -0.3518  0.0117
  463MPD2    C3 6945   1.016   2.778   1.050 -0.5027  0.5442  0.0169
  463MPD2    C4 6946   1.110   2.682   1.064 -0.1194  0.4026 -0.8852
  463MPD2    C5 6947   1.089   2.558   1.016 -0.1749  0.2523 -0.1852
  463MPD2     H 6948   0.838   2.815   0.945 -1.7847 -1.2974 -0.1729
  463MPD2    H1 6949   1.199   2.699   1.123 -1.1271  2.3284  0.0875
  463MPD2    H2 6950   0.986   2.416   0.904 -0.7432 -0.4337  2.5026
  463MPD2    H3 6951   1.164   2.483   1.036 -0.6916 -0.4769 -1.0195
  463MPD2     N 6952   1.040   2.899   1.109 -0.1876  0.5826  0.0660
  463MPD2    H5 6953   1.131   2.921   1.147 -0.7761  0.9554  1.2464
  463MPD2    N1 6954   0.756   2.592   0.879 -0.0149  0.2412  0.0263
  463MPD2    H7 6955   0.694   2.671   0.887 -0.0872  0.2226 -0.3545
  464TMC3    C1 6956   0.558   2.457   0.854  0.3728  0.0894 -0.2461
  464TMC3    C2 6957   0.482   2.562   0.908  0.3359  0.0556 -0.5227
  464TMC3    C3 6958   0.347   2.542   0.909  0.0672 -0.8033  0.6848
  464TMC3    C4 6959   0.501   2.343   0.800  0.4170 -0.0340 -0.0333
  464TMC3    C5 6960   0.369   2.326   0.810  0.4333 -0.0201  0.3926
  464TMC3    C6 6961   0.289   2.428   0.855 -0.0169 -0.1352 -0.1645
  464TMC3     C 6962   0.704   2.469   0.849 -0.1412 -0.3182  0.0783
  464TMC3     O 6963   0.755   2.360   0.832  0.5539  0.4048 -0.0053
  464TMC3     H 6964   0.536   2.649   0.945 -2.7026  2.7205 -2.3183
  464TMC3    H1 6965   0.561   2.272   0.745 -0.0887  1.7580 -2.9002
  464TMC3    H2 6966   0.181   2.421   0.854  0.0464 -0.7057 -1.8009
  464TMC3    C7 6967   0.325   2.189   0.774 -0.3352 -0.1580 -0.5205
  464TMC3    C8 6968   0.258   2.650   0.953  0.1619  0.0346 -0.8946
  464TMC3    O1 6969   0.415   2.118   0.728 -0.9335 -0.0539 -0.3615
  464TMC3    O2 6970   0.144   2.648   0.915 -0.2204 -0.1245  0.0950
  465MPD2     C 6971   2.170   1.050  16.460 -0.0925 -0.8503  0.0183
  465MPD2    C1 6972   2.110   1.056  16.585  0.0533 -0.3976  0.0443
  465MPD2    C2 6973   2.017   1.160  16.601  0.5266  0.1285 -0.1304
  465MPD2    C3 6974   1.980   1.238  16.494  0.3267 -0.0143  0.0150
  465MPD2    C4 6975   2.034   1.221  16.375 -0.5841  0.0956 -0.2142
  465MPD2    C5 6976   2.136   1.130  16.354 -0.1165  0.3370 -0.4873
  465MPD2     H 6977   1.975   1.192  16.696 -1.0782  0.1067 -0.8215
  465MPD2    H1 6978   2.016   1.282  16.287 -1.6801 -1.0084 -0.7496
  465MPD2    H2 6979   2.256   0.984  16.447  0.2677 -0.7762  2.1319
  465MPD2    H3 6980   2.195   1.128  16.263 -0.5610 -0.3347 -0.7633
  465MPD2     N 6981   1.881   1.328  16.525 -0.2549  0.5709 -0.6513
  465MPD2    H5 6982   1.838   1.322  16.617 -1.2917  0.9666 -1.1188
  465MPD2    N1 6983   2.143   0.974  16.695 -0.1740  0.3269  0.2987
  465MPD2    H7 6984   2.104   1.006  16.783 -0.1664  1.6718 -0.1881
  466TMC3    C1 6985   1.601   1.548  16.698 -0.0918 -0.1702 -0.7387
  466TMC3    C2 6986   1.603   1.688  16.684  0.4803 -0.0767 -0.6335
  466TMC3    C3 6987   1.687   1.726  16.583  0.4598  0.0460 -0.0190
  466TMC3    C4 6988   1.664   1.451  16.624 -0.0537 -0.3475 -0.6136
  466TMC3    C5 6989   1.726   1.506  16.512  0.5607 -0.0957 -0.1589
  466TMC3    C6 6990   1.735   1.638  16.482  0.2636  0.8580 -0.1276
  466TMC3     C 6991   1.537   1.491  16.822 -0.0806  0.1940  0.0037
  466TMC3     O 6992   1.596   1.398  16.873 -0.0677 -0.1744 -0.2139
  466TMC3     H 6993   1.569   1.763  16.753  0.3307 -0.7819  0.0623
  466TMC3    H1 6994   1.650   1.343  16.634  0.1030 -0.4812 -1.8099
  466TMC3    H2 6995   1.801   1.682  16.408  0.1879 -1.0945 -1.3523
  466TMC3    C7 6996   1.827   1.427  16.445  0.3914  0.0865 -0.2686
  466TMC3    C8 6997   1.752   1.855  16.583  0.2724 -0.1546 -0.6847
  466TMC3    O1 6998   1.875   1.468  16.337 -0.0388  0.7071  0.6153
  466TMC3    O2 6999   1.785   1.895  16.472 -0.6116  0.6947  0.1766
  467TMC3    C1 7000   2.472   4.383  13.974  0.3182  0.2097 -0.1721
  467TMC3    C2 7001   2.438   4.510  13.937  0.7166  0.2109 -0.6716
  467TMC3    C3 7002   2.339   4.520  13.846  0.4624  0.0091 -0.0101
  467TMC3    C4 7003   2.392   4.275  13.939  0.4857 -0.1491  0.2245
  467TMC3    C5 7004   2.283   4.301  13.857 -0.1651  0.7064  0.3513
  467TMC3    C6 7005   2.260   4.422  13.804 -0.3142 -0.5999 -0.1568
  467TMC3     C 7006   2.613   4.353  13.981  0.4521  0.4022 -0.1707
  467TMC3     O 7007   2.682   4.450  14.014 -0.3593  0.1309 -0.2265
  467TMC3     H 7008   2.502   4.595  13.956 -0.3959  1.2198 -1.4950
  467TMC3    H1 7009   2.422   4.175  13.968 -0.0080  0.1393  1.7301
  467TMC3    H2 7010   2.180   4.432  13.731  0.2394  1.4779 -0.4787
  467TMC3    C7 7011   2.191   4.189  13.855  0.4242  0.0756  0.3194
  467TMC3    C8 7012   2.345   4.643  13.770 -0.9213 -0.0065 -0.4685
  467TMC3    O1 7013   2.233   4.073  13.853  0.7114 -0.3971 -0.3751
  467TMC3    O2 7014   2.392   0.018  13.817 -0.0216  0.7101  0.0898
  468MPD2     C 7015   0.859   3.280  10.684 -0.4180 -0.0514  0.4219
  468MPD2    C1 7016   0.963   3.305  10.768  0.2339  0.4171  0.1915
  468MPD2    C2 7017   1.038   3.197  10.813  0.0199 -0.2947  0.0393
  468MPD2    C3 7018   0.979   3.071  10.806 -0.1647  0.2763 -0.1127
  468MPD2    C4 7019   0.868   3.056  10.731  0.5874  0.7740 -0.8933
  468MPD2    C5 7020   0.810   3.155  10.657  0.1338 -0.1011  0.6680
  468MPD2     H 7021   1.112   3.219  10.890  0.4881 -0.2553 -0.4269
  468MPD2    H1 7022   0.820   2.959  10.726 -0.2738  1.1336  0.3240
  468MPD2    H2 7023   0.805   3.363  10.641  0.5328  1.8960  2.9567
  468MPD2    H3 7024   0.720   3.137  10.600  1.1564 -1.8172 -0.4095
  468MPD2     N 7025   1.026   2.953  10.865  0.1094 -0.4334  0.1822
  468MPD2    H5 7026   0.981   2.872  10.823 -1.2667 -0.4140  1.6310
  468MPD2    N1 7027   1.000   3.432  10.811  0.6780  1.0480  0.3064
  468MPD2    H7 7028   1.082   3.437  10.870  1.4804 -1.1283 -0.6155
  469TMC3    C1 7029   1.030   3.668  10.804 -1.0678  0.0728  0.5853
  469TMC3    C2 7030   1.156   3.681  10.757 -0.3218  0.2498  0.5963
  469TMC3    C3 7031   1.229   3.781  10.818 -0.3260  0.7182  0.0363
  469TMC3    C4 7032   0.968   3.753  10.882 -0.0364  0.3463  0.8098
  469TMC3    C5 7033   1.043   3.846  10.949 -0.1143 -0.0974 -0.1980
  469TMC3    C6 7034   1.174   3.862  10.923 -0.3809 -0.0868 -0.3648
  469TMC3     C 7035   0.955   3.550  10.761 -0.0202  0.7100  0.2279
  469TMC3     O 7036   0.856   3.570  10.694  0.2720 -0.0064 -0.9076
  469TMC3     H 7037   1.205   3.616  10.686 -0.7498  0.1832  0.3615
  469TMC3    H1 7038   0.872   3.724  10.923 -0.7654 -2.0092 -2.5526
  469TMC3    H2 7039   1.233   3.936  10.976  0.7660 -1.5047  0.3186
  469TMC3    C7 7040   0.984   3.917  11.063  0.4421 -0.2674 -0.0224
  469TMC3    C8 7041   1.372   3.777  10.819  0.4294 -0.9752 -0.3558
  469TMC3    O1 7042   0.862   3.933  11.059 -0.1301  0.0705 -0.4212
  469TMC3    O2 7043   1.422   3.721  10.724 -0.4963 -0.3932 -0.3412
  470TMC3    C1 7044   3.283   3.772   0.604 -0.4143 -0.0172  0.7435
  470TMC3    C2 7045   3.405   3.836   0.627  0.1505 -0.0604  0.3189
  470TMC3    C3 7046   3.443   3.856   0.759 -0.1661 -0.6781 -0.2876
  470TMC3    C4 7047   3.208   3.722   0.707 -0.2296  0.3471  0.6369
  470TMC3    C5 7048   3.249   3.753   0.835  1.0365  0.2277  0.4152
  470TMC3    C6 7049   3.367   3.815   0.865  0.1803 -0.0069 -0.0673
  470TMC3     C 7050   3.251   3.728   0.469  0.2314 -0.6081  0.3546
  470TMC3     O 7051   3.196   3.621   0.466 -0.2618  0.0859 -0.3710
  470TMC3     H 7052   3.472   3.854   0.544 -0.5632  2.0153  0.1691
  470TMC3    H1 7053   3.119   3.663   0.689 -0.9897  1.5081  0.6010
  470TMC3    H2 7054   3.396   3.828   0.969 -1.1024  0.8719  0.1829
  470TMC3    C7 7055   3.146   3.755   0.941  0.0412 -0.3048  0.0759
  470TMC3    C8 7056   3.542   3.961   0.796 -0.1945  0.5726  0.1947
  470TMC3    O1 7057   3.039   3.712   0.900 -0.5415  0.4719 -0.8355
  470TMC3    O2 7058   3.581   3.956   0.914 -0.3585 -0.5704  0.4174
  471MPD2     C 7059   4.553   0.304  17.016  0.0888 -0.0895 -0.2627
  471MPD2    C1 7060   4.516   0.169  16.998 -0.1601  0.3305  0.3727
  471MPD2    C2 7061   4.587   0.075  17.071 -0.7705  0.3732  0.3529
  471MPD2    C3 7062   4.695   0.105  17.157 -0.1511 -0.8666  0.0157
  471MPD2    C4 7063   4.718   0.244  17.178 -0.1460  0.0946  0.8284
  471MPD2    C5 7064   4.646   0.337  17.110 -0.6061 -0.4761 -0.5805
  471MPD2     H 7065   4.547   4.706  17.064  0.5447 -0.0995 -0.3097
  471MPD2    H1 7066   0.061   0.288  17.244 -1.6949  1.2920  1.7424
  471MPD2    H2 7067   4.496   0.381  16.966 -1.3142 -0.8950  0.0962
  471MPD2    H3 7068   4.673   0.441  17.125  0.1578 -0.5831 -1.1836
  471MPD2     N 7069   0.035   0.012  17.224 -0.2587  0.0740  0.0056
  471MPD2    H5 7070   0.084   0.045  17.307 -1.4650  1.5278  0.1316
  471MPD2    N1 7071   4.407   0.126  16.920  0.0208 -0.1603 -1.0046
  471MPD2    H7 7072   4.390   0.026  16.927 -1.6688  0.1028 -1.3350
  472TMC3    C1 7073   4.242   0.118  16.753  0.0303 -0.0147  0.3901
  472TMC3    C2 7074   4.135   0.184  16.704  0.1040 -0.0463 -0.0459
  472TMC3    C3 7075   4.060   0.126  16.600 -0.0177  0.1011 -0.2927
  472TMC3    C4 7076   4.278   4.726  16.707  0.0497 -0.1732  0.9266
  472TMC3    C5 7077   4.198   4.667  16.612  0.0363  0.4958 -0.0725
  472TMC3    C6 7078   4.086   4.726  16.556  0.5149 -0.1699 -1.2906
  472TMC3     C 7079   4.330   0.200  16.836  0.4455  0.5252  0.5257
  472TMC3     O 7080   4.349   0.318  16.800 -0.1999 -1.2417 -0.0723
  472TMC3     H 7081   4.107   0.285  16.731 -0.3196 -0.4450  0.9589
  472TMC3    H1 7082   4.356   4.662  16.746 -0.0380 -0.6016  0.3930
  472TMC3    H2 7083   4.032   4.684  16.472 -0.0405 -3.0290  0.4903
  472TMC3    C7 7084   4.206   4.524  16.613  0.6006 -0.0943  0.1994
  472TMC3    C8 7085   3.921   0.160  16.584 -0.5635 -0.0715  0.2093
  472TMC3    O1 7086   4.245   4.467  16.712  0.2288  0.2570  0.2951
  472TMC3    O2 7087   3.899   0.274  16.554 -0.3190 -0.2230  0.0156
  473MPD2     C 7088   3.370   2.181  13.748 -0.6078 -0.0480 -0.5085
  473MPD2    C1 7089   3.395   2.303  13.692  0.5026 -0.4692  0.6482
  473MPD2    C2 7090   3.486   2.388  13.749 -0.1728 -0.4650 -0.1704
  473MPD2    C3 7091   3.554   2.362  13.867 -0.8673 -0.2413 -0.3818
  473MPD2    C4 7092   3.524   2.238  13.924 -0.4682  0.2326 -0.4009
  473MPD2    C5 7093   3.440   2.148  13.866 -0.1086 -0.0211  0.0979
  473MPD2     H 7094   3.496   2.487  13.707  0.4507 -0.4025  0.1315
  473MPD2    H1 7095   3.574   2.207  14.015 -0.4766  1.6718  0.0992
  473MPD2    H2 7096   3.299   2.110  13.707  1.2511 -0.8470 -2.4144
  473MPD2    H3 7097   3.444   2.050  13.911  0.3357 -0.1881 -0.3006
  473MPD2     N 7098   3.655   2.439  13.928  0.4954 -0.5107 -0.1546
  473MPD2    H5 7099   3.693   2.409  14.017  1.2976  2.3593  0.4943
  473MPD2    N1 7100   3.349   2.348  13.569 -0.0443 -0.1760 -0.4028
  473MPD2    H7 7101   3.386   2.440  13.546 -0.3569  0.7507  2.7700
  474TMC3    C1 7102   3.802   2.628  13.945 -0.7559 -0.9068  0.4914
  474TMC3    C2 7103   3.863   2.733  13.879  1.0581  0.8087  0.0524
  474TMC3    C3 7104   3.974   2.793  13.948  0.1113 -0.0041 -0.2799
  474TMC3    C4 7105   3.838   2.592  14.072  0.0738 -0.1871 -0.3514
  474TMC3    C5 7106   3.935   2.667  14.145  0.1831  0.7614  0.0408
  474TMC3    C6 7107   4.011   2.756  14.074 -0.0966 -0.1752 -0.3128
  474TMC3     C 7108   3.718   2.544  13.863  0.6470  1.4278 -0.1853
  474TMC3     O 7109   3.691   2.585  13.750 -0.8622  0.0950  0.2578
  474TMC3     H 7110   3.840   2.764  13.778  0.8065  2.2435  0.5414
  474TMC3    H1 7111   3.770   2.528  14.127 -0.6334 -0.0012 -0.9919
  474TMC3    H2 7112   4.102   2.799  14.115  0.5095  2.2074 -4.1739
  474TMC3    C7 7113   3.973   2.616  14.280 -0.2728 -0.4791  0.3756
  474TMC3    C8 7114   4.073   2.872  13.863 -0.1972 -0.0194 -0.9265
  474TMC3    O1 7115   3.902   2.529  14.318 -0.3111 -0.0982 -0.2871
  474TMC3    O2 7116   4.083   2.832  13.750  0.0476  0.1045  0.5810
  475MPD2     C 7117   1.456   1.603  11.210 -0.3582  0.6527 -0.5489
  475MPD2    C1 7118   1.550   1.576  11.112  0.2246  0.3344  0.2004
  475MPD2    C2 7119   1.513   1.502  11.002  0.4520 -0.2140 -0.5981
  475MPD2    C3 7120   1.388   1.449  10.987  0.7818 -0.3642 -0.0660
  475MPD2    C4 7121   1.306   1.453  11.096  0.2184  0.5187  0.3511
  475MPD2    C5 7122   1.339   1.528  11.202 -0.0194  0.3226  0.0465
  475MPD2     H 7123   1.583   1.490  10.920  0.8781 -0.2521 -0.2255
  475MPD2    H1 7124   1.210   1.401  11.100  1.4699 -1.5014  3.7749
  475MPD2    H2 7125   1.483   1.646  11.306 -0.5996  0.9080 -0.5976
  475MPD2    H3 7126   1.269   1.524  11.285 -1.7476  0.9991 -1.4085
  475MPD2     N 7127   1.348   1.413  10.859 -0.4097 -0.5266  0.2634
  475MPD2    H5 7128   1.427   1.425  10.796 -0.5225 -3.5685 -0.4556
  475MPD2    N1 7129   1.683   1.620  11.125  0.1021 -0.3603  0.0241
  475MPD2    H7 7130   1.698   1.672  11.210 -0.6120 -1.4288  0.8122
  476TMC3    C1 7131   1.914   1.639  11.083 -0.0527  0.7720  0.2163
  476TMC3    C2 7132   2.011   1.605  10.990  0.3699  0.4560 -0.5831
  476TMC3    C3 7133   2.086   1.705  10.939  0.1031 -0.6967 -0.2409
  476TMC3    C4 7134   1.905   1.772  11.113  0.5506  0.4754 -0.2216
  476TMC3    C5 7135   1.993   1.868  11.069 -0.3937  0.8547  0.5285
  476TMC3    C6 7136   2.071   1.842  10.966 -0.0719  0.9333  0.6898
  476TMC3     C 7137   1.794   1.559  11.064 -0.5946 -0.1125 -0.0833
  476TMC3     O 7138   1.801   1.465  10.993  0.4798  0.2682  0.2819
  476TMC3     H 7139   2.030   1.499  10.990  1.3425  0.6259 -0.2579
  476TMC3    H1 7140   1.850   1.796  11.203 -2.4403 -2.4257 -1.2854
  476TMC3    H2 7141   2.101   1.921  10.898  1.0154  0.3592  0.4897
  476TMC3    C7 7142   1.938   2.001  11.081 -0.1629 -0.2800  0.3224
  476TMC3    C8 7143   2.182   1.679  10.837 -0.2713  0.3138  0.4105
  476TMC3    O1 7144   1.830   2.009  11.138  0.2069 -0.4054  0.2610
  476TMC3    O2 7145   2.266   1.766  10.813 -0.2686 -0.4443 -0.1249
  477MPD2     C 7146   4.501   2.583  11.928  0.1216  0.2297  0.0722
  477MPD2    C1 7147   4.567   2.491  11.847 -0.5502 -0.3286 -0.1618
  477MPD2    C2 7148   4.603   2.369  11.898  0.6774 -0.0614  0.4492
  477MPD2    C3 7149   4.569   2.333  12.029 -0.4203 -0.3428 -0.3563
  477MPD2    C4 7150   4.513   2.433  12.111  0.0270 -0.6654  0.2296
  477MPD2    C5 7151   4.475   2.551  12.055 -0.0081  0.0938  0.0394
  477MPD2     H 7152   4.634   2.291  11.830 -0.9006 -0.3541  0.0670
  477MPD2    H1 7153   4.500   2.419  12.217 -0.8548 -0.3774  0.1584
  477MPD2    H2 7154   4.465   2.678  11.891 -0.2993 -0.1995 -0.6247
  477MPD2    H3 7155   4.425   2.624  12.118 -0.7910 -0.3745 -0.0444
  477MPD2     N 7156   4.610   2.207  12.081  0.4204 -0.0044  0.0211
  477MPD2    H5 7157   4.681   2.162  12.024  0.9850  2.2921 -1.0957
  477MPD2    N1 7158   4.565   2.515  11.703  0.8637  0.8468  0.4227
  477MPD2    H7 7159   4.524   2.605  11.680 -0.3918  0.0627 -0.4113
  478TMC3    C1 7160   4.545   2.475  11.477 -0.0549  1.0210 -0.1969
  478TMC3    C2 7161   4.504   2.606  11.469 -0.1019 -0.6742  0.2817
  478TMC3    C3 7162   4.374   2.630  11.437  0.1697 -0.0773  0.4050
  478TMC3    C4 7163   4.471   2.374  11.422  0.6440 -0.1667  0.3524
  478TMC3    C5 7164   4.353   2.401  11.363  0.2623  0.4205 -0.2605
  478TMC3    C6 7165   4.293   2.530  11.380 -0.3226  0.1791  0.1403
  478TMC3     C 7166   4.603   2.423  11.601  0.5697 -0.7985  0.2891
  478TMC3     O 7167   4.658   2.314  11.603  0.8682  0.2884 -0.0210
  478TMC3     H 7168   4.567   2.675  11.524 -0.3155 -0.0786 -0.2144
  478TMC3    H1 7169   4.504   2.271  11.421 -2.5629 -1.1937 -0.7027
  478TMC3    H2 7170   4.188   2.552  11.363  0.3745 -0.1864 -4.5768
  478TMC3    C7 7171   4.308   2.321  11.248 -0.5687  0.4200 -0.3067
  478TMC3    C8 7172   4.315   2.726  11.527 -0.2820  0.5305 -0.0005
  478TMC3    O1 7173   4.354   2.208  11.240 -0.0163  0.0843 -0.1086
  478TMC3    O2 7174   4.373   2.729  11.634 -0.7321  0.0448  0.3076
  479MPD2     C 7175   3.825   4.200  15.112 -0.1708  0.6023 -0.2268
  479MPD2    C1 7176   3.802   4.224  15.248 -0.1054 -0.5882  0.9216
  479MPD2    C2 7177   3.900   4.283  15.321  0.4584  0.1802 -0.6517
  479MPD2    C3 7178   4.021   4.320  15.271 -0.2094  0.7006  0.2678
  479MPD2    C4 7179   4.049   4.281  15.138 -0.2211  1.3331 -0.8647
  479MPD2    C5 7180   3.957   4.221  15.069  0.5763  0.0296  0.6310
  479MPD2     H 7181   3.874   4.315  15.421  1.1433  0.8819 -0.6998
  479MPD2    H1 7182   4.137   4.304  15.079 -1.1724  1.8899 -2.0472
  479MPD2    H2 7183   3.750   4.155  15.048 -1.3753 -0.0472  1.6473
  479MPD2    H3 7184   3.986   4.189  14.970  2.4301  0.9971  0.8735
  479MPD2     N 7185   4.118   4.384  15.345 -0.4473 -0.0817 -0.1798
  479MPD2    H5 7186   4.212   4.385  15.307  0.3328 -1.7179  1.7608
  479MPD2    N1 7187   3.671   4.209  15.289  0.2815  0.4360  0.4969
  479MPD2    H7 7188   3.601   4.193  15.218  0.4813 -1.8603  0.8164
  480TMC3    C1 7189   3.805   4.618  15.632 -0.2151 -0.6055 -0.4453
  480TMC3    C2 7190   3.719   4.651  15.530 -0.6372  0.3786  0.1610
  480TMC3    C3 7191   3.767   4.621  15.402 -0.0146  0.1477 -0.7742
  480TMC3    C4 7192   3.934   4.559  15.610 -0.1845  0.2881 -0.7443
  480TMC3    C5 7193   3.975   4.533  15.483 -0.1691  0.4619  0.0396
  480TMC3    C6 7194   3.892   4.566  15.381 -0.4073  0.0846  0.1094
  480TMC3     C 7195   3.754   4.605  15.774  0.3349  0.2972 -0.2878
  480TMC3     O 7196   3.635   4.577  15.793 -0.0353 -0.0740  0.0344
  480TMC3     H 7197   3.621   4.694  15.550 -2.7171 -3.8688 -1.0741
  480TMC3    H1 7198   3.994   4.517  15.689  1.0765 -0.6492 -2.2080
  480TMC3    H2 7199   3.929   4.571  15.280  1.0721 -0.2242  0.6385
  480TMC3    C7 7200   4.100   4.464  15.463  0.9795  0.1352 -0.2901
  480TMC3    C8 7201   3.675   4.643  15.293  0.1931 -0.3299 -0.3929
  480TMC3    O1 7202   4.195   4.504  15.527 -0.2768  0.1308  0.0067
  480TMC3    O2 7203   3.586   4.716  15.328  0.0022 -0.6446  0.4122
  481MPD2     C 7204   0.605   4.359  14.646 -0.2256  0.4794  0.0910
  481MPD2    C1 7205   0.578   4.233  14.605 -0.5816  0.4082 -0.0652
  481MPD2    C2 7206   0.590   4.132  14.700  0.4838  0.4192 -0.7457
  481MPD2    C3 7207   0.643   4.152  14.824  1.2327  0.0344 -0.0983
  481MPD2    C4 7208   0.661   4.285  14.861  0.0854  0.1149 -0.5254
  481MPD2    C5 7209   0.652   4.388  14.777  0.1064  0.1770 -1.1694
  481MPD2     H 7210   0.567   4.035  14.657 -3.0850  0.9138  0.0084
  481MPD2    H1 7211   0.690   4.295  14.965 -0.5791  0.2033 -0.3485
  481MPD2    H2 7212   0.610   4.433  14.566  0.4523 -0.8319 -1.0833
  481MPD2    H3 7213   0.670   4.491  14.804  3.0839 -0.5080 -0.4722
  481MPD2     N 7214   0.659   4.055  14.928 -0.0459  0.0607  0.1256
  481MPD2    H5 7215   0.683   4.094  15.018 -2.7754  0.4671  0.6656
  481MPD2    N1 7216   0.534   4.212  14.471 -0.3628  0.2953  0.0458
  481MPD2    H7 7217   0.545   4.288  14.405 -0.1732  0.1571 -0.0795
  482TMC3    C1 7218   0.489   4.107  14.264 -0.4338  1.0021 -0.1470
  482TMC3    C2 7219   0.489   3.982  14.198 -0.0822 -0.9856  0.4985
  482TMC3    C3 7220   0.479   3.979  14.061 -0.5993 -0.3437 -0.1568
  482TMC3    C4 7221   0.453   4.223  14.201 -0.4211 -0.0526 -0.1298
  482TMC3    C5 7222   0.411   4.207  14.068 -0.6243  0.3835  0.4867
  482TMC3    C6 7223   0.437   4.092  13.997  0.3317 -0.5890  0.0930
  482TMC3     C 7224   0.501   4.092  14.409  0.6834 -0.3459  0.0887
  482TMC3     O 7225   0.493   3.977  14.447 -0.4498  0.0557 -0.3594
  482TMC3     H 7226   0.520   3.892  14.250  2.2858  1.7607  3.8240
  482TMC3    H1 7227   0.429   4.316  14.252 -0.0446 -0.0595  0.0591
  482TMC3    H2 7228   0.413   4.087  13.891 -0.2241 -3.2218  0.3591
  482TMC3    C7 7229   0.371   4.326  14.002 -0.2475 -0.1158  0.1602
  482TMC3    C8 7230   0.521   3.864  13.985  0.4035  0.0446  0.2517
  482TMC3    O1 7231   0.396   4.424  14.067 -0.2217 -0.2327 -0.2793
  482TMC3    O2 7232   0.527   3.755  14.042  0.3426  0.4865 -0.2368
  483TMC3    C1 7233   2.788   2.926  17.674  0.1843  0.3297  0.8367
  483TMC3    C2 7234   2.747   3.057  17.650  0.4020  0.3720 -0.1215
  483TMC3    C3 7235   2.728   3.126   0.044  0.2835  0.1196  0.2151
  483TMC3    C4 7236   2.797   2.869   0.071  0.3140  0.0470 -0.3607
  483TMC3    C5 7237   2.761   2.943   0.177  0.1385  0.2894  0.4238
  483TMC3    C6 7238   2.715   3.067   0.163 -0.1679 -0.3764 -0.8405
  483TMC3     C 7239   2.811   2.856  17.551 -0.0970  0.1129 -0.5353
  483TMC3     O 7240   2.753   2.889  17.449 -0.1697  0.0783 -0.1252
  483TMC3     H 7241   2.744   3.099  17.550  1.4231  2.0534  0.5619
  483TMC3    H1 7242   2.850   2.776   0.089  2.8534  1.2055 -1.8203
  483TMC3    H2 7243   2.680   3.129   0.244  2.8381  1.9780 -1.3720
  483TMC3    C7 7244   2.848   2.912   0.289 -0.5424 -0.1726 -0.1273
  483TMC3    C8 7245   2.720   3.267   0.032 -0.2942  0.5974  0.8387
  483TMC3    O1 7246   2.952   2.857   0.259  0.0549 -0.4610 -0.7369
  483TMC3    O2 7247   2.679   3.296  17.644 -0.2712 -0.5048  0.0528
  484MPD2     C 7248   0.673   1.064  12.799 -0.6514 -0.4302 -0.6013
  484MPD2    C1 7249   0.715   0.986  12.901  0.4795  0.0371  0.2120
  484MPD2    C2 7250   0.851   0.943  12.906  0.4354 -0.3949 -0.3982
  484MPD2    C3 7251   0.942   0.977  12.804 -1.1610 -0.6331 -0.3871
  484MPD2    C4 7252   0.895   1.068  12.708 -0.1953 -0.5777 -0.8328
  484MPD2    C5 7253   0.766   1.104  12.708 -0.5923  0.7603  0.2332
  484MPD2     H 7254   0.881   0.868  12.978  0.0761 -0.8702 -0.7431
  484MPD2    H1 7255   0.954   1.105  12.624 -0.4350 -1.0599 -1.2132
  484MPD2    H2 7256   0.573   1.106  12.807 -0.6203 -0.7234  1.3491
  484MPD2    H3 7257   0.733   1.170  12.628  0.8590  3.7857  2.1147
  484MPD2     N 7258   1.072   0.930  12.789 -0.0355 -0.0975 -0.0617
  484MPD2    H5 7259   1.125   0.944  12.703  1.3116 -1.2911  0.5890
  484MPD2    N1 7260   0.615   0.930  12.980  0.9824 -0.0423 -0.1443
  484MPD2    H7 7261   0.519   0.954  12.959  1.6741  0.8035 -2.2757
  485TMC3    C1 7262   1.268   0.842  12.841  0.4049 -0.0913 -0.3936
  485TMC3    C2 7263   1.371   0.923  12.873 -0.2093  0.0432  0.4387
  485TMC3    C3 7264   1.491   0.923  12.802  0.0276  0.3140 -0.4375
  485TMC3    C4 7265   1.277   0.767  12.729  0.3771  0.2712  0.4342
  485TMC3    C5 7266   1.392   0.752  12.660  0.5618  0.4246  0.2386
  485TMC3    C6 7267   1.500   0.831  12.699 -0.2031 -0.5033  0.6223
  485TMC3     C 7268   1.140   0.878  12.892 -0.1865 -0.0083 -1.4117
  485TMC3     O 7269   1.130   0.894  13.016 -0.0484  0.6381 -0.0952
  485TMC3     H 7270   1.355   1.004  12.943 -3.7714 -0.7074  0.4832
  485TMC3    H1 7271   1.186   0.717  12.698 -0.3460  0.8455  1.6266
  485TMC3    H2 7272   1.596   0.811  12.653  0.4736  1.3777  1.2321
  485TMC3    C7 7273   1.393   0.739  12.511  0.5095 -0.3013 -1.0296
  485TMC3    C8 7274   1.532   1.052  12.764 -0.6804 -0.1125  0.0372
  485TMC3    O1 7275   1.496   0.779  12.462  0.5917  0.0516 -0.1950
  485TMC3    O2 7276   1.541   1.138  12.851  0.0535  0.8601 -0.4507
  486MPD2     C 7277   2.774   0.055  12.911  0.4648  0.3066  0.5710
  486MPD2    C1 7278   2.788   0.026  12.778  0.4727  0.2159  0.4155
  486MPD2    C2 7279   2.696   0.081  12.694  0.1359 -0.5131 -0.1095
  486MPD2    C3 7280   2.599   0.171  12.738  0.5976 -0.0586  0.2553
  486MPD2    C4 7281   2.592   0.196  12.866  0.2477 -0.0882 -0.0285
  486MPD2    C5 7282   2.678   0.136  12.956 -0.4658  0.6416  0.5655
  486MPD2     H 7283   2.687   0.046  12.592  0.5981 -1.8585  0.3189
  486MPD2    H1 7284   2.522   0.263  12.914 -0.4362  1.0005 -2.5361
  486MPD2    H2 7285   2.844   0.029  12.989  0.9462  0.8395  0.3212
  486MPD2    H3 7286   2.668   0.161  13.061  0.5501  1.2493  0.5131
  486MPD2     N 7287   2.510   0.233  12.640 -0.3262 -0.7123 -0.0815
  486MPD2    H5 7288   2.520   0.215  12.541  1.7489 -1.0369  0.1874
  486MPD2    N1 7289   2.893   4.683  12.722 -0.1359 -0.0987  0.1654
  486MPD2    H7 7290   2.886   4.649  12.627 -1.1569  0.0402  0.1925
  487TMC3    C1 7291   3.072   4.529  12.732  0.1591  0.3981 -0.6953
  487TMC3    C2 7292   3.018   4.452  12.637 -0.2376 -0.7204  0.8311
  487TMC3    C3 7293   3.076   4.340  12.593 -0.4432  0.7269  0.0744
  487TMC3    C4 7294   3.194   4.499  12.785 -0.0621  0.1566  0.0982
  487TMC3    C5 7295   3.256   4.381  12.743 -0.2102 -0.2673  0.3973
  487TMC3    C6 7296   3.203   4.301  12.644 -0.2875  0.1895  0.5555
  487TMC3     C 7297   2.996   4.639  12.797  0.5559 -0.1649 -0.5992
  487TMC3     O 7298   3.049   4.703  12.887 -0.7507  0.4954  0.1406
  487TMC3     H 7299   2.918   4.477  12.603  0.8873 -0.6804 -2.4034
  487TMC3    H1 7300   3.226   4.558  12.870 -0.4258  2.1891 -1.1727
  487TMC3    H2 7301   3.241   4.200  12.629 -1.6155 -0.1884 -0.2194
  487TMC3    C7 7302   3.316   4.314  12.854  0.8174  0.5135 -0.3149
  487TMC3    C8 7303   2.986   4.232  12.572  0.1525  0.1859  0.7484
  487TMC3    O1 7304   3.268   4.331  12.964 -0.3695 -0.0669  0.3551
  487TMC3    O2 7305   2.874   4.256  12.604 -0.5752  0.5455  0.1789
  488MPD2     C 7306   3.435   1.336  16.266 -0.7549  0.0722  0.4670
  488MPD2    C1 7307   3.528   1.408  16.333  0.2741  1.0383 -0.9814
  488MPD2    C2 7308   3.555   1.376  16.461  0.9439  0.4474  0.8116
  488MPD2    C3 7309   3.496   1.266  16.527  0.1123 -0.3649  0.8752
  488MPD2    C4 7310   3.394   1.201  16.466  0.5251  0.9632  0.0492
  488MPD2    C5 7311   3.373   1.231  16.335 -0.5798  0.8810  0.6959
  488MPD2     H 7312   3.629   1.434  16.516  2.7972 -0.7547 -0.4128
  488MPD2    H1 7313   3.334   1.127  16.517 -0.0611  1.8538  0.6661
  488MPD2    H2 7314   3.403   1.347  16.163 -0.4175 -0.6256  0.2827
  488MPD2    H3 7315   3.286   1.184  16.290 -0.2788  2.9228 -2.0015
  488MPD2     N 7316   3.549   1.231  16.657 -0.3195 -0.1337  0.2139
  488MPD2    H5 7317   3.630   1.286  16.685  0.7694 -1.1414 -0.9001
  488MPD2    N1 7318   3.603   1.512  16.277  0.2804  0.3926  0.3519
  488MPD2    H7 7319   3.661   1.561  16.344  1.8358  2.3081 -2.3848
  489TMC3    C1 7320   3.598   1.109  16.848  0.0622 -0.1254 -0.2747
  489TMC3    C2 7321   3.702   1.192  16.883 -0.4140 -0.1146  0.7626
  489TMC3    C3 7322   3.740   1.190  17.013  1.2241  0.5095 -0.8289
  489TMC3    C4 7323   3.530   1.035  16.941  0.2709  0.1537  0.1154
  489TMC3    C5 7324   3.551   1.052  17.074  0.0326 -0.0495 -0.2803
  489TMC3    C6 7325   3.666   1.118  17.104 -0.2626  0.2606  0.2283
  489TMC3     C 7326   3.518   1.122  16.729 -0.2885  0.0423 -0.4452
  489TMC3     O 7327   3.464   1.020  16.683  0.1479  0.4604  0.2723
  489TMC3     H 7328   3.747   1.256  16.808  0.2043  2.1365  3.0669
  489TMC3    H1 7329   3.452   0.964  16.914 -0.1315  1.1591 -1.3534
  489TMC3    H2 7330   3.685   1.141  17.208 -0.5071  0.9709  0.1102
  489TMC3    C7 7331   3.473   0.998  17.176 -0.2978 -0.6957  0.3500
  489TMC3    C8 7332   3.773   1.324  17.049  0.0781  0.8601 -0.2282
  489TMC3    O1 7333   3.533   0.994  17.280  0.8602 -0.2473  0.3075
  489TMC3    O2 7334   3.873   1.373  16.996  0.3156  0.4084 -0.4654
  490MPD2     C 7335   4.318   0.552   0.119  0.1037 -0.6173  0.3707
  490MPD2    C1 7336   4.431   0.500   0.065 -0.7300  0.0013  0.0435
  490MPD2    C2 7337   4.553   0.568   0.072  0.6921  0.1905 -1.2186
  490MPD2    C3 7338   4.562   0.690   0.141 -0.3505  0.1849 -0.3898
  490MPD2    C4 7339   4.443   0.743   0.188  0.4153  0.1457 -0.3692
  490MPD2    C5 7340   4.325   0.674   0.176  0.6537 -0.8525 -0.5883
  490MPD2     H 7341   4.632   0.520   0.016  0.9357  0.0941 -0.7962
  490MPD2    H1 7342   4.438   0.840   0.236  1.1710 -0.3609  0.7168
  490MPD2    H2 7343   4.227   0.495   0.104 -1.5704  2.8366 -2.5508
  490MPD2    H3 7344   4.228   0.719   0.195 -0.4875 -2.8295 -1.6849
  490MPD2     N 7345   4.685   0.763   0.151  0.5630  0.1954 -0.6130
  490MPD2    H5 7346   4.667   0.861   0.169  0.9484 -0.0393  1.0622
  490MPD2    N1 7347   4.414   0.374  17.723  0.0922 -0.1508  0.4845
  490MPD2    H7 7348   4.318   0.341  17.719  0.5611 -1.5831  1.1918
  491TMC3    C1 7349   4.442   0.204  17.560  0.4778 -0.4502 -0.2171
  491TMC3    C2 7350   4.358   0.136  17.642 -0.3013  0.0991 -0.6831
  491TMC3    C3 7351   4.261   0.059  17.591  0.7803  0.4390 -0.2529
  491TMC3    C4 7352   4.426   0.215  17.425 -0.1047 -0.0360  0.4373
  491TMC3    C5 7353   4.319   0.141  17.378  0.0241  0.5448  0.6967
  491TMC3    C6 7354   4.250   0.052  17.451  0.2818  1.0541 -0.0368
  491TMC3     C 7355   4.504   0.321  17.627  0.1222 -0.4722 -0.5801
  491TMC3     O 7356   4.593   0.382  17.571  0.6783  0.1060  0.3014
  491TMC3     H 7357   4.362   0.140   0.026 -0.0208 -3.1085 -0.5876
  491TMC3    H1 7358   4.492   0.285  17.374  1.7543  0.3768  3.3785
  491TMC3    H2 7359   4.174   4.725  17.401 -0.9654  2.3514  0.3524
  491TMC3    C7 7360   4.261   0.180  17.259  0.3990 -0.1255 -0.0773
  491TMC3    C8 7361   4.162   0.023  17.679  0.2559  0.0035  1.1729
  491TMC3    O1 7362   4.170   0.107  17.215 -0.1993  0.1990 -0.3001
  491TMC3    O2 7363   4.179   0.035   0.075 -0.1103  0.2182 -0.0235
  492MPD2     C 7364   3.901   1.158  11.473  0.1728  0.0928 -0.3039
  492MPD2    C1 7365   3.784   1.108  11.425 -0.7874  0.1292 -0.0346
  492MPD2    C2 7366   3.727   1.005  11.491  0.3993 -0.5783 -0.1645
  492MPD2    C3 7367   3.770   0.959  11.619 -0.3862  0.6407 -0.9604
  492MPD2    C4 7368   3.892   1.012  11.657 -0.7604 -0.1364  0.4109
  492MPD2    C5 7369   3.957   1.113  11.591 -0.2497  0.0978  0.4757
  492MPD2     H 7370   3.629   0.970  11.460  0.4212  1.0030 -1.9534
  492MPD2    H1 7371   3.930   0.989  11.756 -1.6481 -2.2126  0.2703
  492MPD2    H2 7372   3.949   1.235  11.413 -0.7102  1.0572  0.2194
  492MPD2    H3 7373   4.052   1.155  11.622 -0.1233  0.2640 -0.1355
  492MPD2     N 7374   3.713   0.864  11.703 -0.5146  0.2495  0.2091
  492MPD2    H5 7375   3.756   0.840  11.791 -0.8143  1.5997  0.7097
  492MPD2    N1 7376   3.743   1.169  11.303  0.3805 -0.9270  0.0395
  492MPD2    H7 7377   3.814   1.227  11.259 -1.0698  0.8512  0.0439
  493TMC3    C1 7378   3.606   1.213  11.111 -0.4639 -0.0010  0.0439
  493TMC3    C2 7379   3.681   1.325  11.091  0.3487  0.9258  0.3544
  493TMC3    C3 7380   3.671   1.393  10.971  0.3451  0.5109  0.0791
  493TMC3    C4 7381   3.514   1.162  11.017  0.1696  0.5033 -0.6505
  493TMC3    C5 7382   3.511   1.235  10.899 -0.1888  0.5978 -0.6832
  493TMC3    C6 7383   3.587   1.346  10.870 -1.2813 -0.1491 -0.8760
  493TMC3     C 7384   3.628   1.140  11.232  0.3862 -0.8799  0.1241
  493TMC3     O 7385   3.534   1.064  11.245  0.5710 -0.5265  0.0318
  493TMC3     H 7386   3.729   1.369  11.178  1.1785  1.4547 -0.3822
  493TMC3    H1 7387   3.441   1.084  11.033  0.9647 -0.1640 -0.3018
  493TMC3    H2 7388   3.565   1.414  10.788 -0.5759  1.0238 -0.1006
  493TMC3    C7 7389   3.425   1.197  10.787  0.7032  0.0960  0.3640
  493TMC3    C8 7390   3.702   1.535  10.969  0.5153 -0.0409  0.3510
  493TMC3    O1 7391   3.453   1.243  10.677  0.3473  0.1802 -0.1053
  493TMC3    O2 7392   3.694   1.598  11.073  0.4297  0.2287 -0.2631
  494TMC3    C1 7393   4.378   2.845   0.265 -0.3301 -0.7836 -0.5578
  494TMC3    C2 7394   4.355   2.711   0.246  0.8591 -0.3043 -0.0109
  494TMC3    C3 7395   4.434   2.659   0.147  0.2184  0.7091 -0.0192
  494TMC3    C4 7396   4.461   2.924   0.188 -0.2682  0.3706  0.1640
  494TMC3    C5 7397   4.534   2.861   0.091 -0.2752 -0.1744 -0.0983
  494TMC3    C6 7398   4.514   2.730   0.066 -0.4676  0.0698  0.7420
  494TMC3     C 7399   4.338   2.895   0.391  0.1208  0.2402 -0.0300
  494TMC3     O 7400   4.400   2.989   0.439  0.1731  0.4658  0.1112
  494TMC3     H 7401   4.304   2.652   0.321 -2.5327  1.9508 -0.5261
  494TMC3    H1 7402   4.481   3.027   0.215 -2.1578  0.7999 -0.0580
  494TMC3    H2 7403   4.577   2.676  17.722 -0.8717 -0.9129  1.1366
  494TMC3    C7 7404   4.658   2.914   0.035  0.5359 -0.1803 -0.0232
  494TMC3    C8 7405   4.485   2.516   0.157 -0.4092 -1.4657  0.0111
  494TMC3    O1 7406   4.731   2.840  17.695 -0.1830 -0.1565 -0.0652
  494TMC3    O2 7407   4.592   2.494   0.097  0.1841  0.4749 -0.4408
  495TMC3    C1 7408   3.813   4.058  14.487  0.3856  0.4246 -0.1935
  495TMC3    C2 7409   3.713   4.070  14.391  0.3600 -0.5044  0.4137
  495TMC3    C3 7410   3.634   4.181  14.389 -0.2317  0.1847 -0.2554
  495TMC3    C4 7411   3.828   4.155  14.585  0.8342  0.6463 -0.0013
  495TMC3    C5 7412   3.750   4.262  14.581 -0.1646 -0.3876  0.4145
  495TMC3    C6 7413   3.650   4.274  14.490  0.3641  0.2484  0.0836
  495TMC3     C 7414   3.881   3.934  14.518  0.9098  0.3262 -0.1666
  495TMC3     O 7415   3.982   3.929  14.582  0.4862 -0.5447  0.1421
  495TMC3     H 7416   3.702   3.994  14.315 -0.5147  0.4017 -0.3681
  495TMC3    H1 7417   3.893   4.140  14.671  1.5747  2.6374 -0.2104
  495TMC3    H2 7418   3.585   4.360  14.484  1.9126  1.5289  1.6017
  495TMC3    C7 7419   3.739   4.338  14.710 -0.1883 -1.0611  0.1509
  495TMC3    C8 7420   3.496   4.174  14.330 -0.5690  0.3297  0.5324
  495TMC3    O1 7421   3.830   4.319  14.791 -0.4135 -0.1812  0.2189
  495TMC3    O2 7422   3.413   4.250  14.374  0.0642  0.2858  0.0299
  496MPD2     C 7423   0.676   4.416  15.276 -0.1632 -0.1968 -0.4134
  496MPD2    C1 7424   0.749   4.434  15.390  0.1231  0.2653 -0.1938
  496MPD2    C2 7425   0.723   4.352  15.496  0.3010  0.2207  0.1442
  496MPD2    C3 7426   0.623   4.249  15.483 -0.0610  0.3886  0.3074
  496MPD2    C4 7427   0.543   4.248  15.378  0.3588  0.0980 -0.1063
  496MPD2    C5 7428   0.561   4.341  15.280 -0.0657  0.1270  0.2784
  496MPD2     H 7429   0.784   4.359  15.585  0.8900 -3.8672  0.0794
  496MPD2    H1 7430   0.465   4.173  15.374  1.6385 -1.3954  3.2638
  496MPD2    H2 7431   0.689   4.488  15.196  1.2779 -0.6179 -0.5553
  496MPD2    H3 7432   0.494   4.341  15.195 -0.5653 -1.8819  0.6563
  496MPD2     N 7433   0.603   4.151  15.582 -0.5043 -0.1965  0.1966
  496MPD2    H5 7434   0.525   4.089  15.564 -0.6835  0.0775  0.0207
  496MPD2    N1 7435   0.853   4.530  15.390 -0.1708 -0.5647 -0.4526
  496MPD2    H7 7436   0.868   4.587  15.308  0.8521 -0.5920 -0.2818
  497TMC3    C1 7437   0.652   3.990  15.739 -0.3679 -0.3760 -0.2165
  497TMC3    C2 7438   0.567   3.908  15.673  0.9120  0.1042 -0.6092
  497TMC3    C3 7439   0.498   3.811  15.746  0.7886  0.8051  0.8974
  497TMC3    C4 7440   0.682   3.970  15.872 -0.0225  0.0813  0.3328
  497TMC3    C5 7441   0.609   3.881  15.938 -0.4632  0.6263  0.1716
  497TMC3    C6 7442   0.506   3.813  15.881 -0.0728 -0.1267 -0.1445
  497TMC3     C 7443   0.691   4.111  15.675  0.4133  0.1445 -0.3737
  497TMC3     O 7444   0.792   4.165  15.713 -0.0808  0.6927 -0.3010
  497TMC3     H 7445   0.560   3.906  15.565 -2.2962 -1.5335 -0.3797
  497TMC3    H1 7446   0.758   4.031  15.920  1.6187 -0.1328 -1.9947
  497TMC3    H2 7447   0.450   3.743  15.941 -3.0449  2.5837  0.2584
  497TMC3    C7 7448   0.683   3.786  16.022  0.6733  0.2988  0.2971
  497TMC3    C8 7449   0.487   3.682  15.683  0.4505  0.1487  0.2863
  497TMC3    O1 7450   0.639   3.670  16.019 -0.1778 -0.0561  0.3637
  497TMC3    O2 7451   0.468   3.679  15.562  0.1109 -0.6863  0.0505
  498MPD2     C 7452   1.746   1.272  10.725 -0.4013  0.0592  0.6958
  498MPD2    C1 7453   1.688   1.241  10.603 -0.1087 -0.3520 -0.1279
  498MPD2    C2 7454   1.595   1.138  10.600  1.1410 -0.2235  0.0878
  498MPD2    C3 7455   1.552   1.089  10.721 -0.2746 -0.2128 -0.0255
  498MPD2    C4 7456   1.584   1.150  10.837 -0.7557 -0.1808 -0.6937
  498MPD2    C5 7457   1.693   1.228  10.840  0.4375  0.5145 -0.4345
  498MPD2     H 7458   1.555   1.109  10.504  0.2494 -0.5295  0.5506
  498MPD2    H1 7459   1.541   1.130  10.935  0.7791  2.3726  0.5023
  498MPD2    H2 7460   1.823   1.348  10.728  1.6436 -1.9438 -1.4119
  498MPD2    H3 7461   1.719   1.270  10.936  1.6082  0.7411 -0.8599
  498MPD2     N 7462   1.464   0.981  10.717  0.0712  0.8323  0.1639
  498MPD2    H5 7463   1.435   0.961  10.622 -2.8992  0.3044  1.1480
  498MPD2    N1 7464   1.741   1.282  10.480  0.5015 -0.0474 -0.5566
  498MPD2    H7 7465   1.746   1.210  10.409 -1.9592 -0.1163 -0.6600
  499TMC3    C1 7466   1.900   1.399  10.339  0.2761  0.2086 -0.7139
  499TMC3    C2 7467   1.866   1.307  10.246 -0.2176 -0.0658  0.2093
  499TMC3    C3 7468   1.957   1.297  10.149  0.2716  0.3132  0.1525
  499TMC3    C4 7469   2.019   1.464  10.340  0.1786  0.6330 -0.4375
  499TMC3    C5 7470   2.101   1.457  10.232  0.3015 -0.3350  0.1909
  499TMC3    C6 7471   2.075   1.368  10.140 -0.4217  0.3807 -0.0493
  499TMC3     C 7472   1.825   1.392  10.463 -0.1807 -0.4049  0.1427
  499TMC3     O 7473   1.839   1.485  10.541 -0.5072  0.0750 -0.0763
  499TMC3     H 7474   1.768   1.260  10.248  0.6877 -1.8530  2.7660
  499TMC3    H1 7475   2.035   1.530  10.425 -0.8412 -1.6214  1.5112
  499TMC3    H2 7476   2.129   1.363  10.047  0.1955 -2.4839  0.4477
  499TMC3    C7 7477   2.197   1.563  10.209  0.1205 -0.0147  0.6798
  499TMC3    C8 7478   1.944   1.200  10.045 -0.1979  0.2646 -0.1483
  499TMC3    O1 7479   2.272   1.548  10.113  0.2094 -0.6379 -0.0723
  499TMC3    O2 7480   2.054   1.162  10.008 -0.0055 -0.9854 -0.1637
  500MPD2     C 7481   3.381   3.008  10.746 -0.3516  0.2067  0.4028
  500MPD2    C1 7482   3.337   2.890  10.682  0.2725  0.6975 -0.7386
  500MPD2    C2 7483   3.268   2.904  10.560 -0.4781  0.2174 -0.0540
  500MPD2    C3 7484   3.245   3.035  10.513 -0.0941 -0.3285 -0.4385
  500MPD2    C4 7485   3.288   3.145  10.576 -0.2525 -0.2605 -0.3013
  500MPD2    C5 7486   3.359   3.133  10.693 -0.3171 -0.2363 -0.5271
  500MPD2     H 7487   3.221   2.816  10.518 -0.5494  0.3414 -0.2335
  500MPD2    H1 7488   3.275   3.246  10.540 -0.1719  0.5156  1.8283
  500MPD2    H2 7489   3.436   3.003  10.839 -1.2211  0.2788  0.9319
  500MPD2    H3 7490   3.402   3.217  10.745  0.1448 -0.4797 -0.5192
  500MPD2     N 7491   3.165   3.059  10.401 -0.7476 -0.0818  0.0229
  500MPD2    H5 7492   3.152   3.157  10.379 -1.1929 -0.4455 -1.3976
  500MPD2    N1 7493   3.340   2.758  10.743 -0.8311  0.3360  0.1368
  500MPD2    H7 7494   3.296   2.683  10.690  1.4246  0.6542 -2.1753
  501TMC3    C1 7495   3.396   2.589  10.887  0.2431  0.3413 -0.1515
  501TMC3    C2 7496   3.294   2.518  10.835 -0.1089  0.3883 -0.2328
  501TMC3    C3 7497   3.281   2.384  10.863 -0.1484 -0.8418  0.6617
  501TMC3    C4 7498   3.490   2.529  10.964 -0.0243  0.2281 -0.2927
  501TMC3    C5 7499   3.478   2.390  10.985 -0.0787 -0.1462  0.2200
  501TMC3    C6 7500   3.367   2.322  10.942 -0.2457  0.2498 -0.6184
  501TMC3     C 7501   3.398   2.732  10.866 -0.7522  0.1425 -0.0617
  501TMC3     O 7502   3.463   2.799  10.947 -0.0441  0.0064  0.0041
  501TMC3     H 7503   3.203   2.560  10.793 -0.0348  2.0245  1.2310
  501TMC3    H1 7504   3.567   2.591  11.008 -1.7960  2.1641  0.0631
  501TMC3    H2 7505   3.363   2.214  10.943  0.0724  0.2462  0.8617
  501TMC3    C7 7506   3.585   2.316  11.043 -0.0348 -0.2775  0.0385
  501TMC3    C8 7507   3.192   2.298  10.799  0.1902  0.8327 -0.1504
  501TMC3    O1 7508   3.584   2.193  11.041 -0.1819  0.8450  0.4970
  501TMC3    O2 7509   3.134   2.221  10.878  0.0744  0.4627 -0.6068
  502TMC3    C1 7510   3.038   0.188  14.967  0.5110  0.2407  0.0096
  502TMC3    C2 7511   3.047   0.300  14.888 -0.3683  0.0076 -0.5257
  502TMC3    C3 7512   2.949   0.394  14.899  0.0630  0.0363  0.6352
  502TMC3    C4 7513   2.922   0.168  15.040 -0.2809  0.3120  0.4798
  502TMC3    C5 7514   2.816   0.258  15.034 -0.0181 -0.1253  0.2448
  502TMC3    C6 7515   2.827   0.372  14.967  0.5774 -0.1562 -0.1284
  502TMC3     C 7516   3.160   0.180  15.046 -0.0739  0.3503 -0.4151
  502TMC3     O 7517   3.262   0.196  14.977 -0.0485 -0.3325  0.2507
  502TMC3     H 7518   3.136   0.308  14.826 -0.0591  2.7238  0.2773
  502TMC3    H1 7519   2.917   0.089  15.114 -0.9979 -1.9104 -1.9523
  502TMC3    H2 7520   2.754   0.452  14.967  0.3479 -0.3674  1.6757
  502TMC3    C7 7521   2.784   0.288  15.171 -0.2371 -0.1898  0.1475
  502TMC3    C8 7522   3.004   0.531  14.916 -0.2830  0.5278 -0.0668
  502TMC3    O1 7523   2.882   0.293  15.242  0.3745 -0.3374 -0.5566
  502TMC3    O2 7524   2.932   0.627  14.937 -0.5784 -0.2569 -0.9239
  503MPD2     C 7525   0.866   1.832  16.700 -0.1456 -0.4007  0.3998
  503MPD2    C1 7526   0.819   1.821  16.828  0.1761  0.2731 -0.5435
  503MPD2    C2 7527   0.860   1.718  16.910 -0.2448  0.4072  0.1068
  503MPD2    C3 7528   0.942   1.617  16.861 -0.6878  0.0086 -0.1047
  503MPD2    C4 7529   1.003   1.629  16.737 -0.2388 -0.0669  0.0276
  503MPD2    C5 7530   0.953   1.733  16.654  0.5090  0.2575 -0.0164
  503MPD2     H 7531   0.821   1.720  17.011  1.3263 -0.9102  0.7329
  503MPD2    H1 7532   1.070   1.554  16.696 -1.7481 -1.1698 -0.4155
  503MPD2    H2 7533   0.817   1.903  16.635 -0.4600 -1.8355 -0.9091
  503MPD2    H3 7534   0.988   1.724  16.551  2.2623 -2.0281  0.7661
  503MPD2     N 7535   0.963   1.503  16.947  0.4228  0.2195 -0.1112
  503MPD2    H5 7536   0.907   1.514  17.031  2.0875 -0.8082  1.1303
  503MPD2    N1 7537   0.728   1.914  16.882  0.1046 -0.1500 -0.1942
  503MPD2    H7 7538   0.680   1.881  16.965 -0.6124 -1.0767 -0.9761
  504TMC3    C1 7539   1.082   1.315  17.048  0.3773 -0.1281  0.4240
  504TMC3    C2 7540   1.001   1.320  17.161  0.0061  0.3103 -0.1455
  504TMC3    C3 7541   1.044   1.259  17.277  0.0324 -0.0787 -0.8736
  504TMC3    C4 7542   1.196   1.232  17.047 -0.4544  0.1307  0.2631
  504TMC3    C5 7543   1.227   1.171  17.169 -0.2572  0.2148 -0.8524
  504TMC3    C6 7544   1.155   1.180  17.281  0.2342  0.4428  0.3595
  504TMC3     C 7545   1.056   1.408  16.932 -0.4753  0.1218 -0.4469
  504TMC3     O 7546   1.129   1.389  16.830  0.2443 -0.1721  0.1767
  504TMC3     H 7547   0.905   1.370  17.164 -0.5037 -0.6827 -0.1816
  504TMC3    H1 7548   1.278   1.263  16.983 -2.0905  0.9884 -1.4130
  504TMC3    H2 7549   1.195   1.133  17.370  0.5679 -0.4096 -0.2352
  504TMC3    C7 7550   1.346   1.086  17.168  0.4385  0.0564 -0.0129
  504TMC3    C8 7551   0.948   1.246  17.380 -0.7757 -0.3260  0.3598
  504TMC3    O1 7552   1.391   1.065  17.278  0.3706 -0.4009 -0.1407
  504TMC3    O2 7553   0.842   1.202  17.340 -0.6379 -0.2029  0.4272
  505MPD2     C 7554   0.715   0.005  10.495 -0.2942  0.4508  0.2742
  505MPD2    C1 7555   0.787   4.614  10.512  0.1829  0.0211 -0.3101
  505MPD2    C2 7556   0.823   4.571  10.642  0.3918  0.0269  0.7262
  505MPD2    C3 7557   0.772   4.635  10.756  0.0550  0.1780 -0.0961
  505MPD2    C4 7558   0.682   0.010  10.742 -0.1634 -0.2909 -0.7744
  505MPD2    C5 7559   0.668   0.065  10.610  0.3046 -0.2064  0.3061
  505MPD2     H 7560   0.888   4.485  10.655 -1.0930 -1.2610 -0.2191
  505MPD2    H1 7561   0.647   0.066  10.827  1.3231  1.3704 -1.2648
  505MPD2    H2 7562   0.704   0.053  10.399  1.7501  0.1881 -0.1022
  505MPD2    H3 7563   0.613   0.158  10.602 -0.3789 -0.5692  0.8182
  505MPD2     N 7564   0.811   4.597  10.887  0.5557  0.4403 -0.6394
  505MPD2    H5 7565   0.762   4.636  10.967 -0.6376 -0.3738 -0.9602
  505MPD2    N1 7566   0.853   4.567  10.396 -0.3498  0.0725  0.8241
  505MPD2    H7 7567   0.839   4.611  10.306  0.4815 -0.5854  0.3721
  506TMC3    C1 7568   1.019   4.434  10.280  0.0362  0.2024  0.1925
  506TMC3    C2 7569   1.089   4.548  10.250  0.4474 -0.1580  0.0568
  506TMC3    C3 7570   1.223   4.529  10.219 -0.7043 -0.7407  0.0410
  506TMC3    C4 7571   1.077   4.311  10.275 -0.1777  0.0946 -0.3838
  506TMC3    C5 7572   1.209   4.295  10.250  0.2224  0.4258  0.5911
  506TMC3    C6 7573   1.279   4.406  10.206 -0.0084  0.3948 -0.3669
  506TMC3     C 7574   0.934   4.451  10.399 -0.2287 -0.4090 -0.1026
  506TMC3     O 7575   0.977   4.379  10.491 -0.8654  0.0511  0.4320
  506TMC3     H 7576   1.048   4.646  10.273  1.6437  0.6214 -1.1396
  506TMC3    H1 7577   1.025   4.223  10.311 -0.4676  0.9790  1.3831
  506TMC3    H2 7578   1.384   4.394  10.180 -0.1668  1.2952 -1.4226
  506TMC3    C7 7579   1.281   4.210  10.345  0.7935 -0.0741 -0.3283
  506TMC3    C8 7580   1.290   4.645  10.166 -0.8641 -0.2865 -0.4676
  506TMC3    O1 7581   1.388   4.158  10.315  0.0918 -0.3771  0.5629
  506TMC3    O2 7582   1.350   4.645  10.061 -0.5117 -0.3272  0.0350
  507TMC3    C1 7583   1.210   0.696  15.184  0.2816 -0.3457 -0.3958
  507TMC3    C2 7584   1.233   0.636  15.064  0.0008 -0.2707 -0.4519
  507TMC3    C3 7585   1.348   0.665  15.001  0.1206 -0.8763 -0.3946
  507TMC3    C4 7586   1.309   0.766  15.249  0.1216 -0.0172  0.0471
  507TMC3    C5 7587   1.435   0.781  15.188  0.3681  0.5366 -0.8212
  507TMC3    C6 7588   1.458   0.719  15.068  0.5805  0.0702 -0.2401
  507TMC3     C 7589   1.074   0.719  15.222 -0.6197  0.2539 -0.4376
  507TMC3     O 7590   1.063   0.800  15.313  0.4393 -0.0216  0.7319
  507TMC3     H 7591   1.151   0.595  15.005  2.0807 -2.2478 -1.9934
  507TMC3    H1 7592   1.280   0.821  15.338 -2.0574  0.4167 -0.9422
  507TMC3    H2 7593   1.553   0.732  15.017 -0.6159  1.8831 -1.9876
  507TMC3    C7 7594   1.492   0.919  15.194 -0.8376  0.7419  0.2776
  507TMC3    C8 7595   1.318   0.729  14.871  1.2416  0.6922 -0.3497
  507TMC3    O1 7596   1.547   0.961  15.090 -1.1152 -0.6718 -0.0104
  507TMC3    O2 7597   1.219   0.695  14.809 -0.3392  0.0541 -0.2770
  508MPD2     C 7598   2.992   3.207  16.418  0.0651  0.5901 -0.6184
  508MPD2    C1 7599   2.885   3.276  16.453  0.1764 -0.3263 -0.0622
  508MPD2    C2 7600   2.780   3.274  16.370  0.0629 -0.0229  0.1594
  508MPD2    C3 7601   2.792   3.237  16.239 -0.1017 -0.3265  0.5752
  508MPD2    C4 7602   2.910   3.167  16.198  0.0190 -0.7945 -0.2614
  508MPD2    C5 7603   3.006   3.153  16.293  0.1106  0.1499 -0.0682
  508MPD2     H 7604   2.687   3.320  16.403  0.6192  2.2928 -1.4306
  508MPD2    H1 7605   2.922   3.145  16.093  0.8498  0.0521 -0.3501
  508MPD2    H2 7606   3.071   3.195  16.491 -0.3601  1.1269 -0.0715
  508MPD2    H3 7607   3.092   3.091  16.270  0.9941  2.1415 -2.1673
  508MPD2     N 7608   2.690   3.270  16.156 -0.4324 -0.0841 -0.3156
  508MPD2    H5 7609   2.620   3.328  16.202  1.1515  0.9556  0.8320
  508MPD2    N1 7610   2.882   3.332  16.582  0.2612  0.2697  0.1044
  508MPD2    H7 7611   2.965   3.327  16.640  2.0743 -4.7213 -2.8936
  509TMC3    C1 7612   2.623   3.522  15.765 -0.3440  0.4476  0.7042
  509TMC3    C2 7613   2.681   3.637  15.819  0.5165 -0.3116 -1.1116
  509TMC3    C3 7614   2.728   3.639  15.951  0.0204 -0.3525  0.1958
  509TMC3    C4 7615   2.597   3.412  15.845 -0.1795 -0.6181  0.8295
  509TMC3    C5 7616   2.653   3.410  15.969 -0.2502  0.4636  0.2692
  509TMC3    C6 7617   2.714   3.516  16.020 -0.0313  0.4813 -0.2329
  509TMC3     C 7618   2.531   3.533  15.652 -0.3507  0.1755  0.1680
  509TMC3     O 7619   2.451   3.442  15.634 -0.1781  0.0474  1.0916
  509TMC3     H 7620   2.691   3.729  15.763 -1.2456 -0.7228 -2.0822
  509TMC3    H1 7621   2.568   3.316  15.803  0.8810 -0.0505 -1.1747
  509TMC3    H2 7622   2.757   3.509  16.119  0.9148 -0.3082 -0.7037
  509TMC3    C7 7623   2.703   3.286  16.020  0.1879  0.6502  0.1431
  509TMC3    C8 7624   2.810   3.739  16.010 -1.3169 -0.0116  0.0810
  509TMC3    O1 7625   2.763   3.214  15.937 -0.0622  0.6012  0.1041
  509TMC3    O2 7626   2.873   3.705  16.111  0.1846  0.1270  0.0417
  510MPD2     C 7627   0.213   0.346  14.455 -0.4841  0.0359  0.3167
  510MPD2    C1 7628   0.225   0.207  14.446 -0.1166 -0.2064 -0.3801
  510MPD2    C2 7629   0.338   0.160  14.379 -0.5822  0.8258 -0.5862
  510MPD2    C3 7630   0.443   0.246  14.350 -1.3171 -0.5538  0.7089
  510MPD2    C4 7631   0.444   0.387  14.389  0.4045  0.1143 -0.1256
  510MPD2    C5 7632   0.324   0.435  14.440  0.0287 -0.3839 -0.0907
  510MPD2     H 7633   0.346   0.054  14.358  2.2083  0.0849  4.2695
  510MPD2    H1 7634   0.520   0.462  14.371  0.4959 -0.5396 -2.4256
  510MPD2    H2 7635   0.123   0.382  14.504 -0.8077  0.2682 -0.4498
  510MPD2    H3 7636   0.311   0.541  14.457 -0.8507 -0.8627  2.1216
  510MPD2     N 7637   0.553   0.196  14.277 -0.0491 -0.4226  0.6177
  510MPD2    H5 7638   0.542   0.100  14.246 -0.8106  0.1928 -1.0276
  510MPD2    N1 7639   0.133   0.131  14.520  0.2820  0.1544 -0.5419
  510MPD2    H7 7640   0.073   0.189  14.577  1.1235  0.5489 -0.0519
  511TMC3    C1 7641   0.043   4.677  14.625 -0.3790 -0.0357  0.0506
  511TMC3    C2 7642   0.001   0.028  14.730 -0.1509  0.0937 -0.3668
  511TMC3    C3 7643   4.670   4.696  14.835  0.3530 -0.9172  0.8033
  511TMC3    C4 7644   0.029   4.543  14.634  0.5287  0.2998  0.0015
  511TMC3    C5 7645   4.706   4.485  14.749  0.4004 -0.5812 -0.2228
  511TMC3    C6 7646   4.671   4.562  14.857  0.0809 -0.4848 -0.6720
  511TMC3     C 7647   0.135   4.726  14.530  0.0936  0.4105 -0.3481
  511TMC3     O 7648   0.180   4.640  14.452 -0.7495 -0.0406 -0.4553
  511TMC3     H 7649   4.717   0.134  14.714 -1.1775 -0.1488 -1.0172
  511TMC3    H1 7650   0.076   4.479  14.559 -2.7143 -1.9359 -0.1323
  511TMC3    H2 7651   4.629   4.513  14.944  0.1241  0.8906  0.1194
  511TMC3    C7 7652   4.679   4.347  14.742 -0.3039  0.1190  0.3284
  511TMC3    C8 7653   4.599   0.048  14.932 -0.7398  0.5731 -0.0726
  511TMC3    O1 7654   4.652   4.313  14.627  0.2760 -0.0389  0.4770
  511TMC3    O2 7655   4.620   0.167  14.934  0.4705 -0.4679 -0.3890
  512TMC3    C1 7656   3.838   4.249  12.904  0.1729  0.2271  0.3227
  512TMC3    C2 7657   3.902   4.226  13.022  0.4739 -0.3919 -0.7068
  512TMC3    C3 7658   3.962   4.107  13.035  0.0227 -0.0542 -0.3141
  512TMC3    C4 7659   3.851   4.160  12.797 -0.0616 -0.3481  0.1974
  512TMC3    C5 7660   3.915   4.046  12.825 -0.6953  0.7947 -0.6623
  512TMC3    C6 7661   3.970   4.011  12.942 -0.1425 -0.1626 -0.3914
  512TMC3     C 7662   3.738   4.356  12.888  0.1136 -0.3723  0.7408
  512TMC3     O 7663   3.704   4.369  12.775  0.6944  0.9367 -0.4546
  512TMC3     H 7664   3.888   4.298  13.102  0.1568  0.3710 -1.4486
  512TMC3    H1 7665   3.796   4.173  12.704 -0.4607 -1.2160  0.3115
  512TMC3    H2 7666   4.028   3.923  12.967  0.3702  0.1750 -0.3904
  512TMC3    C7 7667   3.892   3.949  12.715  0.3952  0.2416  0.3008
  512TMC3    C8 7668   4.057   4.083  13.144 -0.3622  0.3413 -0.0940
  512TMC3    O1 7669   3.844   3.981  12.609  0.4046 -0.0203  0.1455
  512TMC3    O2 7670   4.070   3.965  13.181  0.0353  0.3243 -0.1975
  513MPD2     C 7671   1.292   4.426  13.399  0.2392  0.1808  0.4699
  513MPD2    C1 7672   1.230   4.535  13.346 -0.0230  0.2049 -0.6163
  513MPD2    C2 7673   1.215   4.648  13.429  0.5119  0.4957  0.4199
  513MPD2    C3 7674   1.272   4.659  13.557 -0.1224  0.0078 -0.0925
  513MPD2    C4 7675   1.340   4.543  13.603  0.4694  0.4126 -0.3186
  513MPD2    C5 7676   1.350   4.436  13.519 -0.1154  0.7176 -0.1306
  513MPD2     H 7677   1.171   0.008  13.392 -0.3613  0.1195  0.5308
  513MPD2    H1 7678   1.392   4.535  13.698 -1.6171 -0.7978  0.7249
  513MPD2    H2 7679   1.304   4.339  13.335 -1.2784 -0.5974  1.2493
  513MPD2    H3 7680   1.409   4.355  13.560  0.8564  1.3754 -0.2205
  513MPD2     N 7681   1.267   0.046  13.633  0.0607  0.4606  0.6661
  513MPD2    H5 7682   1.213   0.120  13.588 -0.1319  1.1323  2.0045
  513MPD2    N1 7683   1.182   4.527  13.212 -0.4408 -0.3213  0.0964
  513MPD2    H7 7684   1.198   4.438  13.166 -0.5874 -0.5396  0.4634
  514TMC3    C1 7685   1.079   4.604  13.010 -0.0497  0.6883 -0.1844
  514TMC3    C2 7686   1.181   4.553  12.934  0.0680  0.2357  0.1488
  514TMC3    C3 7687   1.205   4.620  12.815 -0.7247 -0.2615 -0.4851
  514TMC3    C4 7688   1.000   4.712  12.975  0.6137  0.2219  0.4077
  514TMC3    C5 7689   1.039   0.047  12.856  0.1628  0.4539 -0.6746
  514TMC3    C6 7690   1.141   0.002  12.775  0.1169  0.0516 -0.2129
  514TMC3     C 7691   1.116   4.627  13.151  0.2102  0.3575 -0.1368
  514TMC3     O 7692   1.086   0.003  13.196 -0.2256  0.2036  0.4770
  514TMC3     H 7693   1.242   4.469  12.967  2.2880  1.4458 -0.8352
  514TMC3    H1 7694   0.925   0.030  13.035 -1.1469 -0.2430 -1.4266
  514TMC3    H2 7695   1.173   0.056  12.686  0.2591  1.4014  0.6551
  514TMC3    C7 7696   1.051   0.187  12.871 -0.4748 -0.6360 -0.1922
  514TMC3    C8 7697   1.302   4.569  12.732  0.7200  0.3847 -0.5789
  514TMC3    O1 7698   1.026   0.268  12.779  0.6411  0.5988 -0.5209
  514TMC3    O2 7699   1.407   4.539  12.793  0.2644  0.1111  0.0739
  515MPD2     C 7700   3.599   1.487  15.001 -0.0730 -0.6285 -0.4768
  515MPD2    C1 7701   3.690   1.411  14.940 -0.2470 -0.8424  0.5577
  515MPD2    C2 7702   3.827   1.447  14.945 -0.2694 -0.1082 -0.3414
  515MPD2    C3 7703   3.866   1.562  15.016 -0.3479  0.2333  0.1598
  515MPD2    C4 7704   3.767   1.645  15.073 -0.6397  0.0939 -0.4216
  515MPD2    C5 7705   3.638   1.600  15.071 -0.6656 -0.0045 -0.1580
  515MPD2     H 7706   3.891   1.387  14.881  1.5082  0.5568  0.8160
  515MPD2    H1 7707   3.790   1.735  15.129 -1.0352  1.1878 -2.0199
  515MPD2    H2 7708   3.493   1.461  14.998 -0.4575  1.0161 -1.1018
  515MPD2    H3 7709   3.554   1.658  15.107 -1.2232 -0.7384 -0.2680
  515MPD2     N 7710   3.996   1.612  15.020  0.0063 -0.1508 -0.8096
  515MPD2    H5 7711   4.008   1.701  15.067  0.0100 -0.0234 -1.0482
  515MPD2    N1 7712   3.666   1.287  14.878  0.5480  0.6524 -0.3401
  515MPD2    H7 7713   3.749   1.230  14.860 -0.4306 -0.2516 -2.0068
  516TMC3    C1 7714   3.550   1.106  14.797  0.5049 -0.0823 -0.5953
  516TMC3    C2 7715   3.506   1.084  14.671  0.2239  0.4809 -0.3677
  516TMC3    C3 7716   3.548   0.968  14.604  0.1440 -0.3940  0.4739
  516TMC3    C4 7717   3.626   1.018  14.865 -0.3489 -0.2961  0.2578
  516TMC3    C5 7718   3.646   0.892  14.811  0.3532 -0.2189  0.8894
  516TMC3    C6 7719   3.609   0.866  14.675  0.5512 -0.4784 -0.9129
  516TMC3     C 7720   3.545   1.248  14.843 -0.5039 -0.0014  0.0115
  516TMC3     O 7721   3.452   1.318  14.810  0.3641  0.3080 -0.8840
  516TMC3     H 7722   3.470   1.171  14.618  2.6983  2.1453  0.6925
  516TMC3    H1 7723   3.647   1.041  14.969 -1.0084 -0.6633  0.4693
  516TMC3    H2 7724   3.626   0.772  14.624 -0.5871 -1.0386 -0.2661
  516TMC3    C7 7725   3.678   0.797  14.910 -0.1409  0.7421  0.1631
  516TMC3    C8 7726   3.473   0.943  14.487 -0.1187  0.3932 -0.7975
  516TMC3    O1 7727   3.706   0.845  15.018 -0.7599  0.5595 -0.3495
  516TMC3    O2 7728   3.361   0.991  14.478  0.8947  0.0780  0.4184
  517MPD2     C 7729   3.315   2.304   0.142 -0.0866 -0.7431  0.2247
  517MPD2    C1 7730   3.395   2.378   0.065 -0.3748  0.2814 -0.1477
  517MPD2    C2 7731   3.397   2.514   0.087 -0.6488 -0.6261 -0.5713
  517MPD2    C3 7732   3.335   2.571   0.191  0.3931 -0.8486  0.5990
  517MPD2    C4 7733   3.250   2.489   0.269  0.2146 -0.0732 -0.2736
  517MPD2    C5 7734   3.241   2.356   0.236 -0.1720  0.6229 -0.0750
  517MPD2     H 7735   3.454   2.569   0.013 -1.5211  1.7439  0.4923
  517MPD2    H1 7736   3.187   2.524   0.350 -1.6539  0.8314 -2.0988
  517MPD2    H2 7737   3.316   2.196   0.134 -0.5366 -0.7307 -0.0099
  517MPD2    H3 7738   3.170   2.292   0.287 -0.9307  0.8606 -0.8407
  517MPD2     N 7739   3.343   2.710   0.223  0.3750 -0.0822  0.1179
  517MPD2    H5 7740   3.282   2.739   0.298  1.0291 -1.3300  1.1297
  517MPD2    N1 7741   3.467   2.323  17.678  0.4254 -0.2018 -0.3090
  517MPD2    H7 7742   3.507   2.388  17.611  0.0657  1.8852  1.5070
  518TMC3    C1 7743   3.584   2.169  17.546 -0.1160  0.0481 -0.7998
  518TMC3    C2 7744   3.598   2.037  17.518 -0.1558  0.0739 -0.3396
  518TMC3    C3 7745   3.708   1.987  17.451 -0.6174  0.1962  0.6063
  518TMC3    C4 7746   3.699   2.248  17.538  0.8462  0.8245  0.2215
  518TMC3    C5 7747   3.810   2.201  17.467 -0.0961  0.0571 -0.0454
  518TMC3    C6 7748   3.815   2.075  17.421  0.1397  0.5339  0.1760
  518TMC3     C 7749   3.498   2.194  17.660 -0.0389  0.2840  0.1163
  518TMC3     O 7750   3.451   2.092  17.703 -0.0627 -0.3588  0.7656
  518TMC3     H 7751   3.516   1.967  17.508 -0.2230  0.1793 -0.5242
  518TMC3    H1 7752   3.705   2.354  17.561 -2.8131  0.9750  0.4503
  518TMC3    H2 7753   3.904   2.034  17.374 -0.8224 -1.4250  0.0456
  518TMC3    C7 7754   3.931   2.288  17.467  0.9947  0.0686 -0.2833
  518TMC3    C8 7755   3.741   1.846  17.436 -0.2250  0.3456  0.1979
  518TMC3    O1 7756   3.928   2.398  17.524 -0.2700  0.5091 -0.1529
  518TMC3    O2 7757   3.846   1.824  17.381  0.0514  0.1833  0.2141
  519MPD2     C 7758   0.635   1.129  14.706  1.0774 -0.0957  0.3803
  519MPD2    C1 7759   0.596   1.137  14.574  0.8787 -1.1947 -0.3131
  519MPD2    C2 7760   0.683   1.111  14.469  0.5700  0.2707  0.4428
  519MPD2    C3 7761   0.813   1.068  14.496  0.0959  0.3871 -0.4739
  519MPD2    C4 7762   0.856   1.059  14.629  0.3610  0.0559  0.0524
  519MPD2    C5 7763   0.770   1.095  14.729  0.3937  0.3516  0.6949
  519MPD2     H 7764   0.653   1.120  14.365  1.9578  1.0086  0.0975
  519MPD2    H1 7765   0.959   1.032  14.652 -0.1530 -0.7078  1.4241
  519MPD2    H2 7766   0.574   1.159  14.790  1.7057  0.8454  0.5011
  519MPD2    H3 7767   0.799   1.098  14.833  1.7474 -1.0880  0.3566
  519MPD2     N 7768   0.892   1.019  14.395  0.1066  0.3570  0.1024
  519MPD2    H5 7769   0.984   0.986  14.424  0.4309  1.8252  0.7250
  519MPD2    N1 7770   0.473   1.180  14.534 -0.0758  0.0456 -0.0433
  519MPD2    H7 7771   0.461   1.206  14.437  1.4327  0.0057 -0.2421
  520TMC3    C1 7772   0.974   0.948  14.186 -0.0695  0.2525 -0.1842
  520TMC3    C2 7773   0.952   0.936  14.057  0.1141  0.6948  0.5963
  520TMC3    C3 7774   1.029   0.852  13.982  0.2732  0.0113  0.1483
  520TMC3    C4 7775   1.023   0.837  14.247  0.0450  0.8811  0.3899
  520TMC3    C5 7776   1.114   0.758  14.179  0.2341  0.0924  0.7858
  520TMC3    C6 7777   1.127   0.770  14.042  0.7324 -0.2421  0.6030
  520TMC3     C 7778   0.877   1.028  14.256  0.0173 -0.1140  0.5494
  520TMC3     O 7779   0.791   1.082  14.185 -0.6418 -0.1843  0.2809
  520TMC3     H 7780   0.882   1.001  14.006  1.1095  1.2489 -0.0566
  520TMC3    H1 7781   0.991   0.805  14.345  0.0400 -0.3115 -0.0042
  520TMC3    H2 7782   1.198   0.715  13.981  1.7718  0.8310  0.8421
  520TMC3    C7 7783   1.140   0.628  14.239 -0.0781 -1.1625 -0.1981
  520TMC3    C8 7784   1.017   0.848  13.835 -0.1543  0.4505  0.0897
  520TMC3    O1 7785   1.140   0.620  14.360  0.1898 -0.3100 -0.1552
  520TMC3    O2 7786   1.119   0.811  13.776 -0.6188 -0.0893  0.6581
  521MPD2     C 7787   1.223   4.392  17.311  0.5822  0.1404 -0.4449
  521MPD2    C1 7788   1.268   4.290  17.377 -0.6084 -0.4004 -0.5386
  521MPD2    C2 7789   1.398   4.244  17.349  0.6845 -0.0692 -0.5175
  521MPD2    C3 7790   1.470   4.297  17.248 -0.4147  0.1063 -0.8699
  521MPD2    C4 7791   1.422   4.409  17.182 -0.2715  0.0006  0.1999
  521MPD2    C5 7792   1.297   4.449  17.209  0.8094  0.6916  0.5385
  521MPD2     H 7793   1.424   4.150  17.396 -1.1812  0.5675  1.7769
  521MPD2    H1 7794   1.470   4.446  17.092  0.7455 -1.5406  0.1012
  521MPD2    H2 7795   1.119   4.414  17.327  0.2936 -1.8485  0.4063
  521MPD2    H3 7796   1.248   4.526  17.151 -1.9347 -0.5799  1.1784
  521MPD2     N 7797   1.595   4.239  17.212  0.0929  0.0241  0.7173
  521MPD2    H5 7798   1.619   4.148  17.250  0.6606  0.9915  2.6897
  521MPD2    N1 7799   1.185   4.239  17.481  0.0148  0.0175  0.5630
  521MPD2    H7 7800   1.096   4.286  17.496 -0.1410 -0.2254  0.4046
  522TMC3    C1 7801   1.791   4.197  17.099  0.2055  0.4171  0.8188
  522TMC3    C2 7802   1.919   4.242  17.091 -0.3391 -0.2786 -0.1384
  522TMC3    C3 7803   2.019   4.147  17.077 -0.1346  0.1099  0.0166
  522TMC3    C4 7804   1.766   4.063  17.096  0.7198  0.0123  0.1239
  522TMC3    C5 7805   1.867   3.969  17.079 -0.6760  0.2102 -0.4203
  522TMC3    C6 7806   1.993   4.012  17.065  0.1443 -0.3558 -0.2480
  522TMC3     C 7807   1.687   4.296  17.132  0.2691  0.8950  0.3410
  522TMC3     O 7808   1.701   4.419  17.105 -0.4413  0.7389  0.0883
  522TMC3     H 7809   1.938   4.349  17.083  0.3091 -0.3563  0.4304
  522TMC3    H1 7810   1.662   4.040  17.114  1.4674 -0.1434  4.2501
  522TMC3    H2 7811   2.068   3.942  17.030 -2.2373 -2.6964 -0.6528
  522TMC3    C7 7812   1.844   3.830  17.107 -1.1892 -0.4299 -0.1872
  522TMC3    C8 7813   2.159   4.193  17.055  0.0505  0.4781  0.2185
  522TMC3    O1 7814   1.947   3.762  17.130  0.0236 -0.2394 -0.1641
  522TMC3    O2 7815   2.169   4.314  17.045 -0.3321  0.2363 -0.5682
  523MPD2     C 7816   4.332   4.419  10.441  0.4337 -0.4877 -0.1093
  523MPD2    C1 7817   4.278   4.344  10.343  0.4320  0.0395 -0.0752
  523MPD2    C2 7818   4.302   4.386  10.211  0.3350 -0.2266 -0.4865
  523MPD2    C3 7819   4.363   4.503  10.184  0.0864  0.2407  1.1688
  523MPD2    C4 7820   4.427   4.575  10.281 -0.2976  0.7416  0.1098
  523MPD2    C5 7821   4.415   4.529  10.411 -0.0301 -0.4096 -0.1756
  523MPD2     H 7822   4.262   4.316  10.139 -0.8043 -0.3679  0.2850
  523MPD2    H1 7823   4.500   4.654  10.266  2.1870 -1.7086 -0.8042
  523MPD2    H2 7824   4.326   4.388  10.544  1.7152  0.9106  0.3981
  523MPD2    H3 7825   4.483   4.566  10.487 -0.9117  1.0228 -0.0913
  523MPD2     N 7826   4.388   4.548  10.050 -0.1064  0.0488 -0.8120
  523MPD2    H5 7827   4.446   4.632  10.045  0.2781 -0.5248 -5.9813
  523MPD2    N1 7828   4.212   4.232  10.387 -0.0725 -0.1301 -0.9961
  523MPD2    H7 7829   4.212   4.217  10.488 -0.5287 -2.9993 -1.4056
  524TMC3    C1 7830   4.375   4.589   9.829 -0.4680  0.1219 -0.1143
  524TMC3    C2 7831   4.484   4.671   9.856  0.4722  0.0513 -0.7137
  524TMC3    C3 7832   4.503   0.055   9.775  0.2451 -0.3652 -0.1216
  524TMC3    C4 7833   4.275   4.636   9.742  0.2369  0.1432 -0.3016
  524TMC3    C5 7834   4.305   0.015   9.661  0.2184 -0.1775 -0.0746
  524TMC3    C6 7835   4.414   0.094   9.675 -0.5314  0.7349 -0.4162
  524TMC3     C 7836   4.331   4.503   9.936 -0.2299  0.4902 -0.7563
  524TMC3     O 7837   4.247   4.416   9.913 -0.1889  0.2342  0.1599
  524TMC3     H 7838   4.572   4.624   9.899  0.0645 -0.4954 -0.4733
  524TMC3    H1 7839   4.181   4.586   9.725 -0.4172  1.7705 -1.4867
  524TMC3    H2 7840   4.424   0.179   9.608  2.1984  1.7570  1.2687
  524TMC3    C7 7841   4.196   0.062   9.577 -0.9172 -0.6641 -0.3959
  524TMC3    C8 7842   4.641   0.084   9.748  0.6204  0.5101 -0.4634
  524TMC3    O1 7843   4.210   0.178   9.539 -0.0311  0.1385  0.3505
  524TMC3    O2 7844   4.722   0.021   9.812 -0.0081  0.6124 -0.0600
  525MPD2     C 7845   1.884   0.365  14.676 -0.4847  0.2536  0.2007
  525MPD2    C1 7846   2.011   0.390  14.719 -0.2045  0.4911  0.4402
  525MPD2    C2 7847   2.074   0.514  14.688 -1.0055 -0.2108  0.0089
  525MPD2    C3 7848   2.015   0.604  14.603 -0.0276 -0.1440  0.2080
  525MPD2    C4 7849   1.898   0.562  14.543 -0.1240 -0.0000  0.9878
  525MPD2    C5 7850   1.827   0.447  14.574 -0.3866 -0.1942 -1.0439
  525MPD2     H 7851   2.169   0.534  14.736  0.5523 -1.4398 -2.5077
  525MPD2    H1 7852   1.848   0.625  14.471  2.7984 -0.7123 -1.6913
  525MPD2    H2 7853   1.821   0.282  14.704 -1.0910  0.6839  0.1230
  525MPD2    H3 7854   1.727   0.430  14.536 -0.5847 -0.7838 -0.2636
  525MPD2     N 7855   2.068   0.727  14.563  0.3735  0.6764 -0.0428
  525MPD2    H5 7856   2.005   0.787  14.510  0.1822  1.1337  0.7009
  525MPD2    N1 7857   2.075   0.306  14.812  0.5755  0.8345 -0.1284
  525MPD2    H7 7858   2.174   0.317  14.829  1.0634 -0.7962 -1.8614
  526TMC3    C1 7859   2.103   0.188  15.013 -1.0624 -0.0583  0.3905
  526TMC3    C2 7860   2.054   0.228  15.138 -0.1885 -0.3136 -0.5814
  526TMC3    C3 7861   2.151   0.212  15.236  0.0309 -0.4032 -0.1164
  526TMC3    C4 7862   2.227   0.154  14.981  0.3096  0.2017  0.1600
  526TMC3    C5 7863   2.315   0.131  15.089  0.5880  0.3407  0.2359
  526TMC3    C6 7864   2.270   0.155  15.216 -0.5279 -0.0459  0.1984
  526TMC3     C 7865   2.012   0.226  14.904 -0.4690 -0.5654 -0.2153
  526TMC3     O 7866   1.890   0.218  14.923  0.4021  0.2956  0.9372
  526TMC3     H 7867   1.964   0.287  15.148  1.7412  2.3769  0.7568
  526TMC3    H1 7868   2.247   0.125  14.878  0.2858 -0.1425  0.2527
  526TMC3    H2 7869   2.343   0.160  15.296  0.4207 -0.1534 -0.6590
  526TMC3    C7 7870   2.444   0.054  15.076  0.2061 -0.1213 -0.0261
  526TMC3    C8 7871   2.132   0.277  15.360  0.6527 -0.3147  0.1624
  526TMC3    O1 7872   2.504   0.047  15.183  0.3533 -0.0623  0.3120
  526TMC3    O2 7873   2.234   0.294  15.421 -0.4803  0.7445 -0.0572
  527MPD2     C 7874   4.418   3.601   1.260 -0.0408  0.5346  0.0972
  527MPD2    C1 7875   4.370   3.563   1.135  0.4832  0.5743  0.5222
  527MPD2    C2 7876   4.463   3.497   1.049  0.2997 -0.3622  0.3271
  527MPD2    C3 7877   4.587   3.453   1.101 -1.0721 -0.7807  0.4377
  527MPD2    C4 7878   4.628   3.497   1.227  0.0572 -0.4996  0.3632
  527MPD2    C5 7879   4.541   3.561   1.306 -0.6933 -0.6658  0.5540
  527MPD2     H 7880   4.430   3.463   0.952 -0.0789  1.3929 -0.1724
  527MPD2    H1 7881   4.711   3.456   1.284  0.7709  0.0776 -0.2639
  527MPD2    H2 7882   4.353   3.649   1.333  0.7235 -0.0545  1.1523
  527MPD2    H3 7883   4.564   3.581   1.410 -2.5422  3.1359  0.2621
  527MPD2     N 7884   4.677   3.383   1.016 -0.4138 -0.7243 -0.5218
  527MPD2    H5 7885   4.647   3.356   0.923 -1.4560  0.3471 -0.4958
  527MPD2    N1 7886   4.240   3.591   1.093  0.1509  0.6597  0.2018
  527MPD2    H7 7887   4.220   3.556   1.000  1.7706 -1.2210  0.5589
  528TMC3    C1 7888   4.016   3.651   1.082  0.2662 -0.3214  0.2096
  528TMC3    C2 7889   4.031   3.668   0.951  0.0086  0.0781  0.0515
  528TMC3    C3 7890   3.922   3.684   0.878  0.5177  0.3604 -0.3254
  528TMC3    C4 7891   3.902   3.659   1.147 -0.2652 -0.1120  0.4623
  528TMC3    C5 7892   3.790   3.676   1.071 -1.0047 -0.5191 -0.7657
  528TMC3    C6 7893   3.793   3.687   0.936 -0.0079 -0.3238  0.3019
  528TMC3     C 7894   4.131   3.645   1.163 -0.1995  0.5810 -0.4247
  528TMC3     O 7895   4.129   3.683   1.278 -0.1448 -0.5339  0.6553
  528TMC3     H 7896   4.127   3.652   0.903  0.8321  1.3242  1.2582
  528TMC3    H1 7897   3.896   3.662   1.255 -1.9812  0.9173  0.3401
  528TMC3    H2 7898   3.707   3.721   0.879  2.3898  0.9658 -2.4831
  528TMC3    C7 7899   3.663   3.660   1.136  0.6281 -0.6630  1.1371
  528TMC3    C8 7900   3.943   3.747   0.753  0.8228 -1.0717 -0.6211
  528TMC3    O1 7901   3.654   3.662   1.259 -0.2310  0.2909 -0.2702
  528TMC3    O2 7902   4.050   3.809   0.748  0.3409  0.2908  0.1437
  529MPD2     C 7903   3.042   1.753   1.332  0.7622  0.3468  0.0970
  529MPD2    C1 7904   2.933   1.715   1.266 -0.2099  0.0799  0.2775
  529MPD2    C2 7905   2.854   1.806   1.197  0.2443 -1.0462 -0.0228
  529MPD2    C3 7906   2.881   1.937   1.213 -0.0234 -0.9360  0.3869
  529MPD2    C4 7907   2.981   1.982   1.290  0.6321 -0.1103 -0.5173
  529MPD2    C5 7908   3.068   1.892   1.344 -0.7953 -0.4076  0.1647
  529MPD2     H 7909   2.761   1.771   1.154 -0.8975  1.4785  0.4047
  529MPD2    H1 7910   3.001   2.083   1.325  3.3248 -1.1897  1.0838
  529MPD2    H2 7911   3.102   1.682   1.388  0.8212 -0.2837 -0.7699
  529MPD2    H3 7912   3.145   1.924   1.414 -0.5355  0.1602 -0.3755
  529MPD2     N 7913   2.799   2.028   1.146  0.4228  0.2341  0.6881
  529MPD2    H5 7914   2.808   2.124   1.179 -2.0538  0.6807  0.1215
  529MPD2    N1 7915   2.892   1.577   1.255  0.7322 -0.4736 -0.5943
  529MPD2    H7 7916   2.808   1.555   1.203  0.8827 -0.3904 -0.8715
  530TMC3    C1 7917   2.930   1.348   1.228  0.0100  0.0633 -0.0605
  530TMC3    C2 7918   3.001   1.248   1.169 -0.2949 -0.2771 -0.3795
  530TMC3    C3 7919   2.942   1.125   1.156 -0.0343 -0.5797 -0.8322
  530TMC3    C4 7920   2.810   1.320   1.292 -0.3228  1.0747  0.5413
  530TMC3    C5 7921   2.772   1.188   1.293  0.2231  0.2110  0.0180
  530TMC3    C6 7922   2.833   1.086   1.227 -0.0229 -0.1447 -0.3366
  530TMC3     C 7923   2.989   1.478   1.259  0.7404  0.1181 -0.4655
  530TMC3     O 7924   3.113   1.478   1.266  0.4079  0.3750  0.5461
  530TMC3     H 7925   3.085   1.281   1.109 -1.2780 -0.8346 -2.0607
  530TMC3    H1 7926   2.756   1.398   1.345 -1.3253  0.5486  0.2849
  530TMC3    H2 7927   2.800   0.983   1.226  3.6472 -1.3599  1.4964
  530TMC3    C7 7928   2.647   1.155   1.357 -0.4788  0.2462 -0.1124
  530TMC3    C8 7929   3.016   1.012   1.102  0.4290  0.5089  0.9928
  530TMC3    O1 7930   2.563   1.241   1.355 -0.0882  0.0475 -0.2960
  530TMC3    O2 7931   2.953   0.910   1.074  0.4478  0.3819 -0.7394
  531MPD2     C 7932   1.405   0.475  13.120 -0.3652  0.2718 -0.0470
  531MPD2    C1 7933   1.337   0.395  13.212 -1.3864 -0.0002  0.1031
  531MPD2    C2 7934   1.241   0.312  13.163  0.0925  0.5694  0.2856
  531MPD2    C3 7935   1.197   0.318  13.033  0.5871  0.2772  0.2046
  531MPD2    C4 7936   1.256   0.410  12.948 -0.1324  0.1040 -0.0044
  531MPD2    C5 7937   1.360   0.484  12.994  0.4690  0.2351  0.0064
  531MPD2     H 7938   1.202   0.228  13.219 -0.5504 -0.4052 -1.6196
  531MPD2    H1 7939   1.223   0.415  12.845  2.1272 -0.6877 -0.7676
  531MPD2    H2 7940   1.493   0.532  13.148  0.0870 -1.2499  1.7045
  531MPD2    H3 7941   1.405   0.559  12.930  0.8822 -2.4356 -2.8185
  531MPD2     N 7942   1.122   0.198  12.991 -0.4769  0.0865 -0.0193
  531MPD2    H5 7943   1.114   0.119  13.055  1.0156 -1.4918 -1.8124
  531MPD2    N1 7944   1.399   0.378  13.337  0.1061  0.3798 -0.7734
  531MPD2    H7 7945   1.487   0.425  13.351 -0.1916  0.2340  1.4982
  532TMC3    C1 7946   1.389   0.328  13.571 -0.0711  0.2006 -0.8112
  532TMC3    C2 7947   1.305   0.287  13.669 -0.1996 -0.2886 -0.2465
  532TMC3    C3 7948   1.362   0.216  13.770  0.3222 -1.5426 -0.0191
  532TMC3    C4 7949   1.524   0.315  13.585 -0.0747  0.0901  1.5007
  532TMC3    C5 7950   1.581   0.274  13.707  0.0110 -0.2109 -0.3534
  532TMC3    C6 7951   1.497   0.220  13.794 -0.5411  0.5863  0.0856
  532TMC3     C 7952   1.322   0.332  13.439 -0.4649 -0.5072  0.0932
  532TMC3     O 7953   1.213   0.283  13.432  0.0405  0.0054  0.1552
  532TMC3     H 7954   1.200   0.313  13.670  0.1642  1.1329  1.1382
  532TMC3    H1 7955   1.582   0.327  13.495  0.6224  0.5594  2.0137
  532TMC3    H2 7956   1.525   0.185  13.893 -0.2603 -1.3611 -0.6841
  532TMC3    C7 7957   1.697   0.197  13.680 -0.1857 -0.3316  1.1252
  532TMC3    C8 7958   1.329   0.073  13.754  0.3090  0.5056 -0.4878
  532TMC3    O1 7959   1.775   0.244  13.592  0.7680  0.1583 -0.5489
  532TMC3    O2 7960   1.388   4.731  13.829  0.0415  0.3725  0.1368
  533TMC3    C1 7961   2.217   0.901  14.572 -0.4985  0.6602  0.3602
  533TMC3    C2 7962   2.339   0.942  14.529  0.4742 -0.5343  0.5973
  533TMC3    C3 7963   2.372   1.076  14.531 -0.1381  0.4164 -0.2846
  533TMC3    C4 7964   2.133   0.990  14.635 -0.3433  0.2431 -0.4739
  533TMC3    C5 7965   2.181   1.119  14.659  0.0605  0.1102  0.1572
  533TMC3    C6 7966   2.296   1.166  14.602  0.1950 -0.0382 -0.3587
  533TMC3     C 7967   2.191   0.769  14.603 -0.6476 -0.4140  0.0327
  533TMC3     O 7968   2.285   0.709  14.650 -0.2777  0.5384  0.0048
  533TMC3     H 7969   2.409   0.869  14.490 -1.8486 -3.0668  1.1961
  533TMC3    H1 7970   2.033   0.964  14.670 -1.1125 -1.9859 -4.2079
  533TMC3    H2 7971   2.337   1.264  14.627  0.9510 -0.8957  1.7290
  533TMC3    C7 7972   2.140   1.162  14.793 -0.0160  0.3757 -0.1163
  533TMC3    C8 7973   2.523   1.096  14.536 -0.0336  0.1245  0.7470
  533TMC3    O1 7974   2.043   1.106  14.835  0.1364  0.0189  0.2160
  533TMC3    O2 7975   2.587   1.019  14.610  0.5471  0.2337  0.2378
  534MPD2     C 7976   0.206   1.919   0.749  0.1460  0.4367  0.1470
  534MPD2    C1 7977   0.130   2.032   0.767 -0.5092  0.7721  0.6202
  534MPD2    C2 7978   4.724   2.014   0.767  0.0327  0.4967  0.0595
  534MPD2    C3 7979   4.662   1.886   0.775  0.5722  0.5432 -0.8654
  534MPD2    C4 7980   0.015   1.773   0.766 -0.3047  0.5682 -0.5312
  534MPD2    C5 7981   0.147   1.800   0.731  0.5188 -0.2221 -0.5274
  534MPD2     H 7982   4.667   2.106   0.773 -1.4484 -0.3584 -0.6627
  534MPD2    H1 7983   4.705   1.675   0.747 -0.1021  0.2501  0.6334
  534MPD2    H2 7984   0.314   1.929   0.753  0.1848  0.6642 -1.7234
  534MPD2    H3 7985   0.202   1.712   0.700 -0.9253 -0.6857 -1.7546
  534MPD2     N 7986   4.519   1.857   0.761  0.3672  0.2584  0.2128
  534MPD2    H5 7987   4.502   1.760   0.738 -1.2372 -0.0366  2.6414
  534MPD2    N1 7988   0.191   2.160   0.785 -0.2847 -0.4885  0.0281
  534MPD2    H7 7989   0.133   2.241   0.802  1.9112  1.3604 -1.2404
  535TMC3    C1 7990   4.287   1.894   0.753  0.3917 -0.6645 -0.5809
  535TMC3    C2 7991   4.186   1.961   0.805 -0.0968 -0.2932  0.3709
  535TMC3    C3 7992   4.064   1.952   0.748 -0.7267  0.3806  0.3831
  535TMC3    C4 7993   4.275   1.810   0.644 -0.4372 -0.7050 -0.6571
  535TMC3    C5 7994   4.159   1.815   0.580 -0.4140 -0.2356  0.5100
  535TMC3    C6 7995   4.053   1.884   0.627 -0.1892  0.6014  0.9812
  535TMC3     C 7996   4.421   1.956   0.776  0.0131 -0.1752 -0.2047
  535TMC3     O 7997   4.425   2.069   0.824  0.6587  1.0631  0.0415
  535TMC3     H 7998   4.206   2.013   0.897  0.2624 -0.9633  0.6700
  535TMC3    H1 7999   4.360   1.766   0.592 -0.4850 -1.5549 -0.0014
  535TMC3    H2 8000   3.959   1.889   0.574  0.8986 -0.2527 -1.0470
  535TMC3    C7 8001   4.172   1.806   0.438 -0.4442  0.1599  0.2197
  535TMC3    C8 8002   3.939   1.962   0.830 -0.2977  0.1814 -0.0115
  535TMC3    O1 8003   4.239   1.715   0.387  0.2565  0.1329  0.1251
  535TMC3    O2 8004   3.849   1.910   0.771 -0.2288  0.4022 -0.0960
  536MPD2     C 8005   3.764   0.483  16.281 -0.3091 -0.6466  0.1429
  536MPD2    C1 8006   3.643   0.494  16.349 -0.3001 -0.3663 -0.7441
  536MPD2    C2 8007   3.530   0.544  16.278 -0.0243  0.0434 -0.1826
  536MPD2    C3 8008   3.533   0.526  16.137 -0.4173 -0.8354 -0.7314
  536MPD2    C4 8009   3.654   0.509  16.074 -1.0642  0.0502 -0.7774
  536MPD2    C5 8010   3.771   0.493  16.150  0.0129  0.6402 -0.0424
  536MPD2     H 8011   3.438   0.558  16.334  0.6227  0.1870  0.8283
  536MPD2    H1 8012   3.667   0.510  15.967 -0.7347 -0.3910 -0.7428
  536MPD2    H2 8013   3.856   0.458  16.334  0.0799  1.7741  0.5906
  536MPD2    H3 8014   3.871   0.476  16.112 -0.0006  1.0635 -0.2635
  536MPD2     N 8015   3.413   0.523  16.056  0.5372 -0.0841  0.0816
  536MPD2    H5 8016   3.433   0.526  15.956  0.5784  1.3758  0.1402
  536MPD2    N1 8017   3.645   0.461  16.486  0.2337  0.2878 -0.2417
  536MPD2    H7 8018   3.731   0.443  16.538 -0.1330  1.2957  0.7175
  537TMC3    C1 8019   3.546   0.395  16.701 -0.2057 -0.6654 -0.5527
  537TMC3    C2 8020   3.678   0.387  16.749  0.2291 -0.1846  0.9088
  537TMC3    C3 8021   3.691   0.317  16.865  0.7617  0.2031  0.0970
  537TMC3    C4 8022   3.446   0.324  16.756  0.0688  0.4473 -0.3568
  537TMC3    C5 8023   3.469   0.246  16.868 -0.1224  0.3012  0.2042
  537TMC3    C6 8024   3.596   0.244  16.922 -0.0342 -0.1513  1.0768
  537TMC3     C 8025   3.526   0.453  16.567 -0.4015  0.0978  0.1713
  537TMC3     O 8026   3.409   0.462  16.532  0.8189  1.0088 -0.3615
  537TMC3     H 8027   3.766   0.423  16.697  0.1042 -1.5934 -0.2980
  537TMC3    H1 8028   3.345   0.342  16.719  0.3946  2.1572 -0.4152
  537TMC3    H2 8029   3.598   0.203  17.022  0.5071 -0.9472  0.7425
  537TMC3    C7 8030   3.344   0.204  16.941  0.1994  0.0824 -0.2432
  537TMC3    C8 8031   3.822   0.310  16.919 -0.5450  0.6365  0.2533
  537TMC3    O1 8032   3.244   0.270  16.926 -0.2231  0.3442  0.0684
  537TMC3    O2 8033   3.828   0.222  17.002  0.2307  0.9456 -0.0968
  538TMC3    C1 8034   4.281   3.618  11.573 -0.0856  0.0066 -0.4005
  538TMC3    C2 8035   4.382   3.533  11.541  0.2474  0.6527  0.4218
  538TMC3    C3 8036   4.455   3.553  11.430 -0.2898 -0.6189 -0.7876
  538TMC3    C4 8037   4.250   3.729  11.501 -0.7730 -0.0988  0.7219
  538TMC3    C5 8038   4.316   3.736  11.381 -0.1570 -0.0895  0.0024
  538TMC3    C6 8039   4.408   3.644  11.340  0.6051  0.0249  0.1057
  538TMC3     C 8040   4.199   3.605  11.697 -0.0292 -0.6422 -0.3459
  538TMC3     O 8041   4.093   3.667  11.703 -0.1111 -0.0007 -0.1230
  538TMC3     H 8042   4.399   3.448  11.606 -1.6850 -0.3254 -0.3274
  538TMC3    H1 8043   4.177   3.803  11.532 -0.6703  0.0564  0.5909
  538TMC3    H2 8044   4.460   3.656  11.246 -0.0161  1.6756 -0.0256
  538TMC3    C7 8045   4.286   3.846  11.292 -0.2254  0.0330  0.7566
  538TMC3    C8 8046   4.553   3.457  11.394  0.2364 -0.1759  0.3726
  538TMC3    O1 8047   4.166   3.888  11.297 -0.1450 -0.3270 -0.5677
  538TMC3    O2 8048   4.531   3.342  11.427 -0.0628  0.3545  0.2166
  539MPD2     C 8049   4.208   2.954  11.692 -0.1315 -0.2611 -0.0788
  539MPD2    C1 8050   4.196   2.945  11.552 -0.3686  0.5764  0.1868
  539MPD2    C2 8051   4.149   3.052  11.479  0.3334  0.4063  0.0660
  539MPD2    C3 8052   4.113   3.171  11.544 -0.2779  0.5311 -0.2239
  539MPD2    C4 8053   4.130   3.176  11.679  0.7404 -0.5569 -1.1502
  539MPD2    C5 8054   4.176   3.069  11.752  0.4177 -0.7546 -0.0407
  539MPD2     H 8055   4.140   3.045  11.371 -0.5309 -1.4649  0.2650
  539MPD2    H1 8056   4.109   3.269  11.732 -0.6085 -1.2966 -0.4047
  539MPD2    H2 8057   4.247   2.881  11.762  1.6221 -1.5446 -2.4008
  539MPD2    H3 8058   4.194   3.063  11.859  2.1872  1.2270 -0.2225
  539MPD2     N 8059   4.074   3.284  11.472 -0.0813  0.0517 -1.1875
  539MPD2    H5 8060   4.011   3.349  11.518  1.8194  0.5375  0.7077
  539MPD2    N1 8061   4.248   2.833  11.477  0.0213  0.2076  0.4939
  539MPD2    H7 8062   4.243   2.836  11.375  1.0315 -1.1356  0.4093
  540TMC3    C1 8063   4.064   3.442  11.299  0.3487 -0.2339  0.5462
  540TMC3    C2 8064   4.073   3.475  11.159 -0.4878  0.3514  0.0552
  540TMC3    C3 8065   4.018   3.596  11.116  0.4595 -0.0832 -0.8490
  540TMC3    C4 8066   4.001   3.529  11.390 -0.4529 -0.1089 -0.0821
  540TMC3    C5 8067   3.968   3.654  11.343 -0.3673  0.2113  0.6618
  540TMC3    C6 8068   3.972   3.690  11.204  0.4694  0.1452  0.4272
  540TMC3     C 8069   4.117   3.314  11.344  0.1837  0.1178 -0.3228
  540TMC3     O 8070   4.195   3.252  11.272  0.1400  0.0417 -0.0415
  540TMC3     H 8071   4.093   3.393  11.090  0.7192  0.4980  0.2318
  540TMC3    H1 8072   4.020   3.526  11.497 -0.7796  0.9276  0.0104
  540TMC3    H2 8073   3.927   3.781  11.165 -0.1432  0.1178  1.0780
  540TMC3    C7 8074   3.892   3.739  11.439 -0.1228  0.7655 -0.0202
  540TMC3    C8 8075   3.940   3.594  10.984  0.1992 -0.0913  0.2011
  540TMC3    O1 8076   3.847   3.679  11.533 -0.2663  0.1995  0.0162
  540TMC3    O2 8077   3.913   3.701  10.930  0.5014  0.0806  0.4570
  541MPD2     C 8078   2.161   4.329  13.222  0.3368  0.7089  0.0416
  541MPD2    C1 8079   2.247   4.286  13.120  0.3023  0.3764 -0.2197
  541MPD2    C2 8080   2.259   4.361  13.007  0.4714 -0.2524 -0.1139
  541MPD2    C3 8081   2.198   4.487  13.000 -0.2570 -0.0863  0.2699
  541MPD2    C4 8082   2.120   4.535  13.101 -0.5990 -0.0010  0.0103
  541MPD2    C5 8083   2.102   4.451  13.212  0.5377  0.3137 -0.1997
  541MPD2     H 8084   2.323   4.320  12.930  1.2896 -2.1492  1.6020
  541MPD2    H1 8085   2.075   4.634  13.106 -1.0933 -0.3060  1.4732
  541MPD2    H2 8086   2.142   4.267  13.310 -1.6562 -0.1976 -1.0113
  541MPD2    H3 8087   2.050   4.488  13.300 -1.1275 -1.7539 -0.3156
  541MPD2     N 8088   2.216   4.569  12.891 -0.5681 -0.2807  0.6118
  541MPD2    H5 8089   2.173   4.661  12.891 -1.6231 -0.7794 -0.8636
  541MPD2    N1 8090   2.318   4.167  13.148 -0.0284  0.3626  0.2318
  541MPD2    H7 8091   2.305   4.111  13.232 -1.4987 -1.1516 -1.0108
  542TMC3    C1 8092   2.286   4.643  12.674 -0.6095  1.2711 -0.0349
  542TMC3    C2 8093   2.367   4.618  12.564  0.1615 -0.6372 -0.1878
  542TMC3    C3 8094   2.341   4.685  12.446  0.5345 -0.2804  0.3776
  542TMC3    C4 8095   2.187   0.008  12.682 -1.0406 -0.2441  0.0220
  542TMC3    C5 8096   2.156   0.063  12.557  0.8576  0.9452 -0.0838
  542TMC3    C6 8097   2.231   0.042  12.441 -0.3620 -0.5529 -0.1205
  542TMC3     C 8098   2.293   4.542  12.782  0.2854  0.5421  0.5027
  542TMC3     O 8099   2.378   4.458  12.759 -0.1579 -0.4031 -0.0456
  542TMC3     H 8100   2.436   4.535  12.572  0.3354 -0.5954 -1.2120
  542TMC3    H1 8101   2.130   0.034  12.770  0.9661  1.4676  0.8088
  542TMC3    H2 8102   2.206   0.085  12.345  1.9726  0.5333 -0.2259
  542TMC3    C7 8103   2.050   0.164  12.565  0.0315  0.3440  0.3641
  542TMC3    C8 8104   2.424   4.649  12.326  0.0102  0.4439  0.1892
  542TMC3    O1 8105   2.035   0.214  12.675 -0.1005  0.2318 -0.6566
  542TMC3    O2 8106   2.403   4.724  12.231 -0.6716 -0.3203  1.1712
  543TMC3    C1 8107   2.348   1.147  17.311 -0.2318 -0.6047 -0.2838
  543TMC3    C2 8108   2.384   1.014  17.324  0.1352  0.2498 -1.1620
  543TMC3    C3 8109   2.332   0.941  17.429 -1.1338  0.4414 -0.3781
  543TMC3    C4 8110   2.289   1.219  17.407 -0.1515  0.0867  0.3198
  543TMC3    C5 8111   2.256   1.141  17.514 -0.4056 -0.5529  0.1241
  543TMC3    C6 8112   2.268   1.005  17.523  0.7385 -0.3844  0.2693
  543TMC3     C 8113   2.360   1.197  17.173 -0.0614 -0.2961 -0.9039
  543TMC3     O 8114   2.453   1.165  17.101 -0.6403  0.3837 -0.7823
  543TMC3     H 8115   2.420   0.958  17.238  0.5156  1.5978 -1.8866
  543TMC3    H1 8116   2.270   1.324  17.384  1.4031  0.3362  0.1456
  543TMC3    H2 8117   2.231   0.956  17.613  0.7888 -1.6584 -0.4090
  543TMC3    C7 8118   2.227   1.208  17.639  0.1374  0.0674 -0.7513
  543TMC3    C8 8119   2.374   0.802  17.431 -0.5020  0.0962  0.1804
  543TMC3    O1 8120   2.189   1.137   0.006  0.0378  0.3095 -0.0597
  543TMC3    O2 8121   2.470   0.766  17.361  0.2524  0.5111 -0.2456
  544MPD2     C 8122   2.214   0.318  17.479  0.4666  0.3063  0.2851
  544MPD2    C1 8123   2.316   0.374  17.403  0.1952 -0.3788  0.6280
  544MPD2    C2 8124   2.333   0.509  17.417  0.2646 -0.1665  1.0121
  544MPD2    C3 8125   2.255   0.587  17.500  1.0832  0.2050  0.6747
  544MPD2    C4 8126   2.154   0.529  17.569  0.2520 -0.3605 -0.2620
  544MPD2    C5 8127   2.135   0.394  17.562 -0.1206 -0.1735 -0.7898
  544MPD2     H 8128   2.411   0.556  17.359 -1.1314  0.2408 -0.5474
  544MPD2    H1 8129   2.102   0.591  17.641  0.2157 -0.3134 -0.3289
  544MPD2    H2 8130   2.198   0.212  17.487  2.6039  0.0776  1.4965
  544MPD2    H3 8131   2.066   0.349  17.633 -0.0573 -0.4782 -0.9222
  544MPD2     N 8132   2.278   0.729  17.509 -0.1187 -0.0529  0.4749
  544MPD2    H5 8133   2.205   0.788  17.549 -0.5849 -1.5407  1.8355
  544MPD2    N1 8134   2.386   0.283  17.318 -0.3016 -0.0122 -0.4715
  544MPD2    H7 8135   2.366   0.184  17.316 -2.4129  0.3890  1.0386
  545TMC3    C1 8136   2.555   0.193  17.165  0.2472  0.1181  0.5071
  545TMC3    C2 8137   2.616   0.231  17.050 -0.5197  1.2489  0.5769
  545TMC3    C3 8138   2.702   0.148  16.996  0.4004 -0.4778 -0.3431
  545TMC3    C4 8139   2.562   0.064  17.211 -0.4382 -0.0826  0.1920
  545TMC3    C5 8140   2.648   4.711  17.150 -0.7768  0.4552 -0.1631
  545TMC3    C6 8141   2.724   0.025  17.042  1.1986 -0.6262  0.0761
  545TMC3     C 8142   2.501   0.311  17.235 -0.0105 -0.5569 -0.0725
  545TMC3     O 8143   2.556   0.416  17.213 -0.5960 -0.0965  0.1432
  545TMC3     H 8144   2.603   0.331  17.011 -3.3210  0.4758 -0.5045
  545TMC3    H1 8145   2.518   0.024  17.302 -1.5351  0.1783 -0.2267
  545TMC3    H2 8146   2.791   4.688  16.990  2.0787 -0.5727  1.1268
  545TMC3    C7 8147   2.673   4.578  17.193 -0.1525 -0.8229  0.3134
  545TMC3    C8 8148   2.761   0.190  16.866 -0.2619 -0.3806  0.4066
  545TMC3    O1 8149   2.697   4.502  17.102  0.0007  0.9860 -0.3179
  545TMC3    O2 8150   2.757   0.312  16.841 -0.1133  0.0874 -0.5694
  546MPD2     C 8151   3.663   0.728  16.766  0.4906  0.6067  0.0264
  546MPD2    C1 8152   3.648   0.707  16.904  0.3949 -0.0428 -0.0839
  546MPD2    C2 8153   3.750   0.751  16.983  0.3561  0.0280  0.0006
  546MPD2    C3 8154   3.863   0.813  16.924 -0.1728 -0.0272  0.1874
  546MPD2    C4 8155   3.880   0.820  16.787 -0.0099 -0.5518 -0.4190
  546MPD2    C5 8156   3.777   0.767  16.713 -0.1642 -0.3002  0.8878
  546MPD2     H 8157   3.742   0.752  17.091  0.0055  3.5917 -0.0578
  546MPD2    H1 8158   3.971   0.859  16.741  0.9409 -0.1202  1.8168
  546MPD2    H2 8159   3.584   0.700  16.698 -1.3922  1.5443  1.8354
  546MPD2    H3 8160   3.772   0.773  16.605 -0.1770 -2.8589  0.7549
  546MPD2     N 8161   3.966   0.880  16.995 -0.1750 -0.0389  0.0297
  546MPD2    H5 8162   4.030   0.933  16.936 -1.5496  0.5792 -0.8943
  546MPD2    N1 8163   3.530   0.663  16.962 -0.3553  0.9896 -0.6731
  546MPD2    H7 8164   3.455   0.645  16.896  0.1818 -0.2540 -0.9533
  547TMC3    C1 8165   3.373   0.582  17.121 -0.3456  0.6632  0.4745
  547TMC3    C2 8166   3.277   0.619  17.034  0.9179  0.3594 -0.1923
  547TMC3    C3 8167   3.153   0.566  17.059  0.6924 -0.4563  0.6596
  547TMC3    C4 8168   3.359   0.503  17.223  0.1386 -0.5653  0.0010
  547TMC3    C5 8169   3.229   0.439  17.235 -0.0039 -0.1222 -0.0199
  547TMC3    C6 8170   3.129   0.476  17.163  0.9435 -0.4079 -0.9875
  547TMC3     C 8171   3.511   0.630  17.091 -0.1170 -0.1458 -0.7471
  547TMC3     O 8172   3.582   0.622  17.189  0.3282  0.7220 -0.1348
  547TMC3     H 8173   3.288   0.693  16.956 -1.4758  0.1930 -0.6925
  547TMC3    H1 8174   3.443   0.475  17.286 -1.1696 -2.3812  0.9283
  547TMC3    H2 8175   3.036   0.421  17.173  0.1910  1.0164 -0.1617
  547TMC3    C7 8176   3.209   0.351  17.344 -0.4617  0.7712 -0.5721
  547TMC3    C8 8177   3.044   0.610  16.974 -0.2998 -0.2744 -0.3454
  547TMC3    O1 8178   3.096   0.321  17.387 -0.1782 -0.0051 -0.4552
  547TMC3    O2 8179   3.081   0.652  16.865 -0.2575 -0.4919  0.1857
  548MPD2     C 8180   2.721   1.635  12.653 -0.7701 -0.1471  0.3922
  548MPD2    C1 8181   2.664   1.513  12.624  0.0718 -0.0106 -0.0858
  548MPD2    C2 8182   2.747   1.398  12.627  0.3755 -0.5057 -0.2485
  548MPD2    C3 8183   2.889   1.412  12.639 -0.2569  0.5689 -0.6847
  548MPD2    C4 8184   2.941   1.536  12.661  0.0737 -1.1409 -0.6375
  548MPD2    C5 8185   2.853   1.642  12.676  0.5295  0.2804  0.4521
  548MPD2     H 8186   2.710   1.297  12.607 -1.9670  0.8838 -2.9627
  548MPD2    H1 8187   3.047   1.560  12.658 -0.3099  0.7792  1.0514
  548MPD2    H2 8188   2.668   1.730  12.654 -0.6483 -0.0644 -0.4405
  548MPD2    H3 8189   2.905   1.733  12.705  1.5507  0.9028 -3.3301
  548MPD2     N 8190   2.972   1.298  12.622  0.2876  0.3423 -0.1878
  548MPD2    H5 8191   2.934   1.205  12.632  0.6802  0.3620  1.5784
  548MPD2    N1 8192   2.526   1.505  12.597 -0.9081 -0.2844 -0.6839
  548MPD2    H7 8193   2.481   1.595  12.608  0.7796  0.6373 -1.3639
  549TMC3    C1 8194   2.302   1.420  12.595 -0.0813 -0.0928 -0.1123
  549TMC3    C2 8195   2.252   1.544  12.568 -0.3606 -0.0240  0.4165
  549TMC3    C3 8196   2.131   1.579  12.613  0.9433  0.5092  0.3977
  549TMC3    C4 8197   2.233   1.323  12.653  0.1631 -0.6178 -0.3453
  549TMC3    C5 8198   2.106   1.356  12.681  0.0903  0.5348  0.0270
  549TMC3    C6 8199   2.051   1.480  12.666 -0.4315 -0.3490 -0.1177
  549TMC3     C 8200   2.447   1.393  12.588 -0.4441  0.6834 -0.5380
  549TMC3     O 8201   2.483   1.277  12.601  0.2277  0.2082 -0.1780
  549TMC3     H 8202   2.312   1.617  12.514 -2.4563  2.6412  1.6452
  549TMC3    H1 8203   2.272   1.229  12.689 -2.1596 -2.1011 -1.6780
  549TMC3    H2 8204   1.949   1.500  12.699  0.4018  2.2226  0.9276
  549TMC3    C7 8205   2.019   1.261  12.751 -0.7657  0.4226 -0.4866
  549TMC3    C8 8206   2.068   1.699  12.578 -0.1320  0.4239  0.5882
  549TMC3    O1 8207   1.930   1.309  12.819 -0.7422 -0.2653  0.0963
  549TMC3    O2 8208   1.969   1.731  12.635  0.0958 -0.0976  0.0183
  550TMC3    C1 8209   2.162   4.458  11.836  0.2873 -0.5845  0.0152
  550TMC3    C2 8210   2.192   4.490  11.969 -0.4081 -0.4466 -0.0085
  550TMC3    C3 8211   2.151   4.615  12.015 -0.1729  0.1386 -0.7074
  550TMC3    C4 8212   2.084   4.534  11.758 -0.2203  0.1281 -0.4306
  550TMC3    C5 8213   2.047   4.656  11.806 -0.2054 -0.4754 -0.0363
  550TMC3    C6 8214   2.084   4.698  11.928  0.1014  1.0652 -0.1954
  550TMC3     C 8215   2.203   4.329  11.783  0.2155  0.2463  0.0718
  550TMC3     O 8216   2.293   4.276  11.841 -0.1802 -1.3455  0.6655
  550TMC3     H 8217   2.276   4.443  12.019  2.5399  5.3615  0.5586
  550TMC3    H1 8218   2.082   4.517  11.651  1.6347  0.4321 -0.5206
  550TMC3    H2 8219   2.045   0.064  11.957 -0.1181 -0.1165  3.4407
  550TMC3    C7 8220   1.927   4.705  11.750 -0.0983  0.3370 -0.1911
  550TMC3    C8 8221   2.112   4.624  12.153  0.5896  0.3007 -0.2212
  550TMC3    O1 8222   1.843   4.616  11.740  0.1804 -0.1470 -0.2527
  550TMC3    O2 8223   2.048   4.721  12.179 -0.0762 -0.2729  0.5546
  551TMC3    C1 8224   4.078   2.130  13.358 -0.3519 -0.0448 -0.2214
  551TMC3    C2 8225   4.194   2.188  13.317 -0.3493  0.0580  0.2262
  551TMC3    C3 8226   4.286   2.202  13.415 -0.1699 -0.1469 -0.2891
  551TMC3    C4 8227   4.055   2.098  13.486  0.3105  0.2212  0.4109
  551TMC3    C5 8228   4.149   2.121  13.583 -0.2325  0.4924  0.2232
  551TMC3    C6 8229   4.265   2.178  13.549  0.9440 -0.4811 -0.4262
  551TMC3     C 8230   3.964   2.141  13.266  0.2839  0.0075  0.2795
  551TMC3     O 8231   3.862   2.094  13.306 -0.1693 -0.2910 -0.0885
  551TMC3     H 8232   4.220   2.200  13.212 -0.3476 -1.9951 -0.0032
  551TMC3    H1 8233   3.963   2.048  13.514  0.0697 -0.0230 -0.8168
  551TMC3    H2 8234   4.332   2.216  13.625 -0.8571  2.1347 -0.1425
  551TMC3    C7 8235   4.136   2.074  13.718 -0.5353  0.3467 -1.0826
  551TMC3    C8 8236   4.349   2.326  13.382  0.3870  0.0013 -0.6315
  551TMC3    O1 8237   4.220   2.120  13.796 -0.0941 -0.6038  0.0680
  551TMC3    O2 8238   4.308   2.388  13.283  0.4964 -0.0216  0.2937
  552MPD2     C 8239   1.191   3.380  14.638  0.8082  0.2469 -0.4893
  552MPD2    C1 8240   1.300   3.388  14.555  0.5185  0.1320 -0.4406
  552MPD2    C2 8241   1.406   3.457  14.587 -0.0438 -0.6901 -0.4914
  552MPD2    C3 8242   1.414   3.535  14.700 -1.1139  0.2409 -0.4600
  552MPD2    C4 8243   1.299   3.543  14.774 -0.9049  0.4312  0.1831
  552MPD2    C5 8244   1.190   3.459  14.750  0.2844 -0.2208  0.4749
  552MPD2     H 8245   1.493   3.449  14.523 -0.2433  0.0643 -0.8704
  552MPD2    H1 8246   1.291   3.596  14.868  2.3573 -1.5456  1.5881
  552MPD2    H2 8247   1.105   3.318  14.615  1.7841 -1.4357  0.3742
  552MPD2    H3 8248   1.096   3.453  14.803 -0.3329 -1.5702 -0.7831
  552MPD2     N 8249   1.527   3.602  14.760  0.3066 -0.6589 -0.3856
  552MPD2    H5 8250   1.520   3.631  14.857 -1.0313 -1.5248 -0.2140
  552MPD2    N1 8251   1.303   3.320  14.432  0.1980 -0.3089  0.0273
  552MPD2    H7 8252   1.387   3.328  14.375  0.3936  0.5200  0.4294
  553TMC3    C1 8253   1.247   3.182  14.247  0.0425 -0.1757 -0.1559
  553TMC3    C2 8254   1.171   3.209  14.138  0.6281 -0.4435 -0.1075
  553TMC3    C3 8255   1.223   3.191  14.012 -0.8563 -0.7301 -0.0926
  553TMC3    C4 8256   1.373   3.134  14.228  0.0202 -0.3436  0.5204
  553TMC3    C5 8257   1.419   3.105  14.105 -0.0024 -0.8443 -0.4298
  553TMC3    C6 8258   1.343   3.132  13.997 -0.0452  0.0588 -0.3966
  553TMC3     C 8259   1.209   3.246  14.371 -0.4917 -0.0624  0.0329
  553TMC3     O 8260   1.087   3.239  14.399  0.4250 -0.1512 -0.3659
  553TMC3     H 8261   1.078   3.260  14.161  0.3975 -1.6840  1.7154
  553TMC3    H1 8262   1.431   3.120  14.318  1.6943  2.5306 -0.1137
  553TMC3    H2 8263   1.373   3.110  13.895 -1.3089  0.6605 -0.9003
  553TMC3    C7 8264   1.565   3.094  14.089 -0.0390  0.4844  0.1306
  553TMC3    C8 8265   1.211   3.304  13.920  0.0702 -0.2905  0.5523
  553TMC3    O1 8266   1.627   3.139  14.181  0.8218  0.4799 -0.2727
  553TMC3    O2 8267   1.316   3.344  13.869 -0.4027 -0.1162  0.0210
  554TMC3    C1 8268   3.554   3.419  11.357 -0.9931  0.9565 -0.5879
  554TMC3    C2 8269   3.430   3.383  11.320 -0.4860  0.1832  0.2646
  554TMC3    C3 8270   3.353   3.487  11.265 -0.1827 -0.0553  0.4636
  554TMC3    C4 8271   3.605   3.540  11.330  0.2258 -0.4741  0.1457
  554TMC3    C5 8272   3.524   3.636  11.281 -0.0633  0.8186 -0.0077
  554TMC3    C6 8273   3.400   3.609  11.248  0.0279  0.4076  0.4329
  554TMC3     C 8274   3.641   3.322  11.428  0.0871  0.2358 -0.5461
  554TMC3     O 8275   3.763   3.335  11.421  0.1799  0.1105  0.7910
  554TMC3     H 8276   3.390   3.283  11.332 -0.2921 -0.0673 -1.1958
  554TMC3    H1 8277   3.705   3.569  11.361  0.7003  0.1004 -1.8708
  554TMC3    H2 8278   3.328   3.679  11.208 -0.2052  1.2639  2.3662
  554TMC3    C7 8279   3.572   3.764  11.258 -0.3699 -0.1528  0.5556
  554TMC3    C8 8280   3.225   3.459  11.198 -0.2340  0.2544 -0.1484
  554TMC3    O1 8281   3.688   3.777  11.225  0.1581  0.4319  0.3168
  554TMC3    O2 8282   3.149   3.378  11.246 -0.7091  0.1827 -0.6218
  555TMC3    C1 8283   2.394   2.884  15.238  0.4519 -0.3227 -0.4610
  555TMC3    C2 8284   2.365   2.953  15.352  0.0080  0.4321 -0.1598
  555TMC3    C3 8285   2.398   2.894  15.468  1.0105  0.4213  0.2374
  555TMC3    C4 8286   2.440   2.759  15.234 -0.3092 -0.3166 -0.6836
  555TMC3    C5 8287   2.462   2.699  15.357  0.1057 -0.5378  0.5904
  555TMC3    C6 8288   2.438   2.767  15.472  0.1287  0.1548  0.0288
  555TMC3     C 8289   2.377   2.945  15.114  0.3305 -0.5308  0.3455
  555TMC3     O 8290   2.473   2.936  15.036  0.0607 -0.1517 -0.3001
  555TMC3     H 8291   2.338   3.058  15.353  1.9322  0.9186  1.6680
  555TMC3    H1 8292   2.442   2.710  15.137 -1.0426 -1.8942  0.0824
  555TMC3    H2 8293   2.463   2.715  15.564  1.2727  0.0716 -0.3296
  555TMC3    C7 8294   2.503   2.561  15.364 -0.3026 -0.3355  0.0492
  555TMC3    C8 8295   2.356   2.954  15.595 -0.2989  0.1437 -0.4183
  555TMC3    O1 8296   2.500   2.516  15.478  0.7848 -0.4031  0.1864
  555TMC3    O2 8297   2.264   3.032  15.586  0.2568 -0.0578  0.0930
  556MPD2     C 8298   0.562   4.423  10.918  0.1607  0.2289  1.0966
  556MPD2    C1 8299   0.580   4.340  11.025  0.2730 -0.2960  0.4676
  556MPD2    C2 8300   0.583   4.206  11.010 -0.3042 -0.4724 -0.0575
  556MPD2    C3 8301   0.547   4.152  10.886  0.7409 -0.5436  0.1978
  556MPD2    C4 8302   0.519   4.238  10.782 -0.2993 -0.3472 -0.3330
  556MPD2    C5 8303   0.537   4.377  10.794 -0.2930  0.0416 -0.5565
  556MPD2     H 8304   0.599   4.141  11.096  0.5605 -3.2919 -2.3550
  556MPD2    H1 8305   0.489   4.199  10.685  0.6285  1.1912 -1.2311
  556MPD2    H2 8306   0.567   4.531  10.930 -2.0210  0.4704 -0.2521
  556MPD2    H3 8307   0.526   4.444  10.709  3.3919  0.8142 -0.4446
  556MPD2     N 8308   0.544   4.010  10.874  0.1135 -0.0828  0.6926
  556MPD2    H5 8309   0.581   3.955  10.951 -0.0694 -0.9811  0.1374
  556MPD2    N1 8310   0.581   4.392  11.157 -0.4254  0.0175 -0.3953
  556MPD2    H7 8311   0.565   4.327  11.234 -1.0091  0.4897 -0.1160
  557TMC3    C1 8312   0.543   3.797  10.788 -0.0746 -0.4095  0.0789
  557TMC3    C2 8313   0.561   3.722  10.676 -0.3430 -0.1149  0.4354
  557TMC3    C3 8314   0.511   3.599  10.678  0.1633 -0.5356 -0.3683
  557TMC3    C4 8315   0.471   3.749  10.895  0.0449 -0.2561  0.2215
  557TMC3    C5 8316   0.417   3.622  10.891  0.4517 -0.1348 -0.9275
  557TMC3    C6 8317   0.447   3.542  10.784 -0.4715  0.3730  0.7209
  557TMC3     C 8318   0.526   3.939  10.758  0.2184  0.3343 -0.5952
  557TMC3     O 8319   0.520   3.979  10.641 -0.0499 -0.5445 -0.1097
  557TMC3     H 8320   0.613   3.763  10.590  0.4382 -0.2717  0.8387
  557TMC3    H1 8321   0.448   3.818  10.975  0.9690  1.8760 -1.3406
  557TMC3    H2 8322   0.419   3.437  10.776  0.2982  0.0837  1.6804
  557TMC3    C7 8323   0.342   3.572  11.001 -0.2909  0.1448  0.2436
  557TMC3    C8 8324   0.497   3.537  10.547  0.8476 -0.0900 -0.4880
  557TMC3    O1 8325   0.332   3.649  11.098 -0.2554  0.5163  1.2827
  557TMC3    O2 8326   0.517   3.616  10.455 -0.2771  0.5281  0.0803
  558TMC3    C1 8327   3.059   3.025  10.190 -0.0387 -0.0051 -0.0200
  558TMC3    C2 8328   2.995   3.148  10.193  0.3444 -0.6554  0.6168
  558TMC3    C3 8329   2.942   3.191  10.075  0.0798 -0.1891 -0.3319
  558TMC3    C4 8330   3.051   2.935  10.081 -0.2111 -0.2968 -0.3215
  558TMC3    C5 8331   2.983   2.983   9.972 -1.2956  0.3442 -0.0734
  558TMC3    C6 8332   2.935   3.108   9.968 -0.1204  0.2207  0.2833
  558TMC3     C 8333   3.121   2.963  10.312  0.1545 -0.2628 -0.4648
  558TMC3     O 8334   3.143   2.843  10.306  0.8016 -0.4111 -0.0966
  558TMC3     H 8335   2.994   3.215  10.279  1.5064  0.6814 -0.4238
  558TMC3    H1 8336   3.120   2.852  10.077  1.0175  0.7212 -0.1678
  558TMC3    H2 8337   2.869   3.128   9.885 -1.4486 -0.8083  1.0822
  558TMC3    C7 8338   2.939   2.898   9.862  0.5156 -0.4716 -0.9909
  558TMC3    C8 8339   2.807   3.246  10.095  0.2485  0.6258 -0.3371
  558TMC3    O1 8340   2.927   2.951   9.751 -0.7065 -0.0292 -0.7027
  558TMC3    O2 8341   2.753   3.287   9.999 -0.5914 -0.2506 -0.5177
  559MPD2     C 8342   2.492   3.401  11.410 -0.0727  0.4315  0.2681
  559MPD2    C1 8343   2.519   3.386  11.278 -0.6869 -0.5562 -0.6607
  559MPD2    C2 8344   2.637   3.337  11.230  0.2551  0.3093  0.5210
  559MPD2    C3 8345   2.732   3.283  11.318 -0.5780 -0.5784  0.2655
  559MPD2    C4 8346   2.702   3.291  11.452 -0.1703 -0.3712 -0.0070
  559MPD2    C5 8347   2.586   3.347  11.495 -0.8956 -0.2044 -0.2694
  559MPD2     H 8348   2.665   3.337  11.125  0.1102 -0.4531  0.4796
  559MPD2    H1 8349   2.764   3.246  11.528  0.5877 -0.2561 -0.5574
  559MPD2    H2 8350   2.397   3.448  11.435  2.1870  3.9275  2.1759
  559MPD2    H3 8351   2.565   3.351  11.601  1.5925  1.3990  0.1591
  559MPD2     N 8352   2.832   3.191  11.266  0.0071  0.0474 -0.3880
  559MPD2    H5 8353   2.840   3.178  11.166  0.4697  1.7005 -0.5528
  559MPD2    N1 8354   2.410   3.408  11.190 -0.5791 -0.3404  0.4872
  559MPD2    H7 8355   2.321   3.393  11.236 -0.4321  0.2044  0.9394
  560TMC3    C1 8356   3.046   3.087  11.257 -0.0273 -0.3385  0.8023
  560TMC3    C2 8357   3.023   3.053  11.125  0.4318  0.2455  0.0537
  560TMC3    C3 8358   3.119   2.984  11.064 -0.2133  0.1084  0.2211
  560TMC3    C4 8359   3.160   3.059  11.326  0.2399  0.4133  0.1365
  560TMC3    C5 8360   3.255   2.992  11.259  0.8617 -0.0868  0.2602
  560TMC3    C6 8361   3.243   2.958  11.126  0.8846  0.8198 -0.2586
  560TMC3     C 8362   2.937   3.141  11.342 -0.0441  0.9311 -0.1520
  560TMC3     O 8363   2.957   3.154  11.462 -0.2388  0.0399  0.1473
  560TMC3     H 8364   2.924   3.060  11.081 -0.2271 -0.7560  1.3639
  560TMC3    H1 8365   3.174   3.093  11.428  0.1274 -1.9715  0.9492
  560TMC3    H2 8366   3.322   2.912  11.067  0.8067 -0.2921  0.5099
  560TMC3    C7 8367   3.366   2.940  11.338 -0.2390  0.2772  0.1513
  560TMC3    C8 8368   3.065   2.901  10.963  0.3588 -0.1782  0.2499
  560TMC3    O1 8369   3.346   2.902  11.452 -0.5006 -0.2007  0.1979
  560TMC3    O2 8370   2.993   2.960  10.886  0.7965 -0.1555  0.0836
  561TMC3    C1 8371   0.967   1.883  11.591 -0.6397  0.0998 -0.0755
  561TMC3    C2 8372   0.883   1.778  11.621  0.1027  0.5978  0.0632
  561TMC3    C3 8373   0.745   1.809  11.638 -0.1963  0.3496 -0.9174
  561TMC3    C4 8374   0.913   2.003  11.555  0.4894 -0.5487 -0.1175
  561TMC3    C5 8375   0.777   2.021  11.556 -0.0778  0.1471 -0.6728
  561TMC3    C6 8376   0.696   1.924  11.608 -0.4267  0.2150  0.5604
  561TMC3     C 8377   1.111   1.853  11.560 -0.8369 -0.0911  0.5544
  561TMC3     O 8378   1.160   1.751  11.614  0.0225  0.6152 -0.1987
  561TMC3     H 8379   0.922   1.682  11.653 -0.2292  0.1080 -0.9898
  561TMC3    H1 8380   0.974   2.091  11.539 -1.0602 -0.0197 -3.0590
  561TMC3    H2 8381   0.590   1.945  11.598 -0.4165  0.9403  2.0691
  561TMC3    C7 8382   0.720   2.156  11.545  0.2042  0.1943 -0.8639
  561TMC3    C8 8383   0.649   1.712  11.693 -0.2482 -0.7638  0.4158
  561TMC3    O1 8384   0.624   2.190  11.618  0.0895 -0.5221 -0.0576
  561TMC3    O2 8385   0.690   1.597  11.696 -0.0613 -0.6563  0.5331
  562TMC3    C1 8386   2.438   3.247  16.846  0.1448 -0.2918  0.9440
  562TMC3    C2 8387   2.364   3.353  16.797  0.0450 -0.6074  0.6754
  562TMC3    C3 8388   2.259   3.323  16.713 -0.2111  0.0582 -1.0159
  562TMC3    C4 8389   2.436   3.121  16.796  0.0677 -0.3819  0.2516
  562TMC3    C5 8390   2.320   3.095  16.724 -0.4473  0.2750  0.2049
  562TMC3    C6 8391   2.230   3.191  16.685  0.2932 -0.1527 -0.3687
  562TMC3     C 8392   2.545   3.271  16.943  0.2191  0.0884 -0.2108
  562TMC3     O 8393   2.606   3.170  16.967 -0.2927  0.3974 -0.3029
  562TMC3     H 8394   2.386   3.457  16.819 -1.3118 -0.0963 -0.3748
  562TMC3    H1 8395   2.498   3.046  16.843  2.0101 -0.8185 -3.0078
  562TMC3    H2 8396   2.145   3.163  16.623 -0.0141  1.8602 -0.8596
  562TMC3    C7 8397   2.292   2.968  16.664  0.0020  0.5384  0.2265
  562TMC3    C8 8398   2.197   3.430  16.642  0.3040 -0.7778  0.2608
  562TMC3    O1 8399   2.175   2.938  16.649  0.4097 -0.1097  0.5597
  562TMC3    O2 8400   2.215   3.545  16.682  0.1094  0.2710 -0.3549
  563MPD2     C 8401   4.443   3.454  15.805 -0.0369 -0.4687  0.3432
  563MPD2    C1 8402   4.491   3.572  15.857  0.2485 -0.9230 -0.2060
  563MPD2    C2 8403   4.605   3.563  15.932  0.4112  0.7203 -0.0349
  563MPD2    C3 8404   4.659   3.445  15.970  0.3453 -0.3336  0.6806
  563MPD2    C4 8405   4.605   3.329  15.935  0.6166 -0.1225  0.2463
  563MPD2    C5 8406   4.499   3.329  15.844  0.3118 -0.1240  0.4502
  563MPD2     H 8407   4.658   3.655  15.955 -0.8812  1.6788 -0.8983
  563MPD2    H1 8408   4.655   3.237  15.962  0.9729 -0.1151 -0.3891
  563MPD2    H2 8409   4.364   3.460  15.731 -0.5417  0.3968  0.9579
  563MPD2    H3 8410   4.471   3.229  15.814 -0.6695  0.0744  0.7328
  563MPD2     N 8411   0.053   3.467  16.033 -0.0976 -0.2482 -0.0775
  563MPD2    H5 8412   0.062   3.563  16.066 -0.5012 -0.6347  1.1723
  563MPD2    N1 8413   4.426   3.691  15.814 -0.6896 -0.3688  0.5063
  563MPD2    H7 8414   4.347   3.683  15.751  0.0999  1.4636 -0.6918
  564TMC3    C1 8415   4.343   3.909  15.859  0.7393  0.6869  0.0710
  564TMC3    C2 8416   4.231   3.855  15.800  0.2687  0.3116 -0.5356
  564TMC3    C3 8417   4.110   3.848  15.876  0.6721 -1.0476 -0.0578
  564TMC3    C4 8418   4.330   3.971  15.979  0.4603 -0.2769  0.5644
  564TMC3    C5 8419   4.221   3.938  16.056 -0.1918 -0.0580  0.0023
  564TMC3    C6 8420   4.110   3.878  16.009  0.5036 -0.1053  0.5618
  564TMC3     C 8421   4.447   3.814  15.880  0.5067 -0.3986 -0.5187
  564TMC3     O 8422   4.520   3.832  15.972  0.0166 -0.2771  0.1957
  564TMC3     H 8423   4.235   3.816  15.699 -0.4377 -2.3320  0.4623
  564TMC3    H1 8424   4.410   4.025  16.028  1.5789 -0.6484 -0.8444
  564TMC3    H2 8425   4.022   3.858  16.068  0.4417 -2.1158 -0.1849
  564TMC3    C7 8426   4.266   3.882  16.179 -0.2264 -0.7485 -0.8755
  564TMC3    C8 8427   4.034   3.725  15.850  0.3919 -0.5499  0.7913
  564TMC3    O1 8428   4.360   3.937  16.232 -0.1065  0.5169 -0.3013
  564TMC3    O2 8429   4.030   3.653  15.952  0.0617  0.8341 -0.1699
  565TMC3    C1 8430   4.089   0.804  10.754  0.5200 -0.3235  0.4733
  565TMC3    C2 8431   4.122   0.751  10.870 -0.2122  0.1962  0.1303
  565TMC3    C3 8432   4.051   0.640  10.918  0.3369 -0.2559  0.9102
  565TMC3    C4 8433   3.981   0.758  10.682  0.1403  0.5567 -1.1585
  565TMC3    C5 8434   3.916   0.646  10.727 -0.5927 -0.1983  0.0921
  565TMC3    C6 8435   3.939   0.589  10.848 -0.4512 -0.1706  0.2611
  565TMC3     C 8436   4.151   0.932  10.716 -0.3399  0.2547 -0.4064
  565TMC3     O 8437   4.144   0.965  10.598 -0.1357  1.1086 -0.5226
  565TMC3     H 8438   4.215   0.773  10.920  1.1926 -1.5353 -1.7414
  565TMC3    H1 8439   3.943   0.826  10.606  0.4533 -1.4696 -3.1075
  565TMC3    H2 8440   3.902   0.488  10.861  4.0948 -1.6598  1.5318
  565TMC3    C7 8441   3.797   0.609  10.655  0.3969 -0.7772  0.1335
  565TMC3    C8 8442   4.107   0.560  11.028 -0.1180 -0.6539 -0.5114
  565TMC3    O1 8443   3.709   0.551  10.722  0.2121  0.1176  0.3801
  565TMC3    O2 8444   4.216   0.599  11.071  0.7455 -0.1145 -0.1666
  566MPD2     C 8445   1.424   2.822  14.430 -0.5825  0.3401  0.0185
  566MPD2    C1 8446   1.542   2.751  14.440 -0.0892 -0.8499  0.3905
  566MPD2    C2 8447   1.558   2.629  14.374 -0.7374 -0.0395 -0.4582
  566MPD2    C3 8448   1.450   2.572  14.304  0.2163 -0.0221  0.4494
  566MPD2    C4 8449   1.327   2.635  14.311  0.0128 -0.3665  0.1921
  566MPD2    C5 8450   1.319   2.760  14.367 -0.0351 -0.7613  0.3794
  566MPD2     H 8451   1.656   2.584  14.383 -0.1314  1.3572 -0.0574
  566MPD2    H1 8452   1.236   2.597  14.265 -0.5827  1.7458 -0.3822
  566MPD2    H2 8453   1.414   2.927  14.458 -0.2044  0.7550 -1.4172
  566MPD2    H3 8454   1.226   2.816  14.367 -0.0479 -0.7703  2.4402
  566MPD2     N 8455   1.454   2.460  14.211  0.6658 -0.0149  0.4515
  566MPD2    H5 8456   1.375   2.449  14.150 -0.1323 -2.1839  1.8901
  566MPD2    N1 8457   1.643   2.833  14.495 -0.0138 -0.3556  0.3077
  566MPD2    H7 8458   1.631   2.934  14.495  0.2325 -0.3303 -0.5500
  567TMC3    C1 8459   1.845   2.889  14.582 -0.2195 -0.7815 -0.1851
  567TMC3    C2 8460   1.874   2.983  14.492 -0.0360 -0.0140 -0.1579
  567TMC3    C3 8461   1.990   3.063  14.504  0.5736 -0.2085 -0.3148
  567TMC3    C4 8462   1.922   2.863  14.686  0.3405 -1.0174  0.3259
  567TMC3    C5 8463   2.033   2.944  14.697 -0.0765 -0.2990  0.0579
  567TMC3    C6 8464   2.070   3.044  14.609  0.0308  0.1707  0.0154
  567TMC3     C 8465   1.760   2.783  14.534 -0.1893 -0.3060  0.0915
  567TMC3     O 8466   1.786   2.669  14.560  0.6465 -0.2189  0.1860
  567TMC3     H 8467   1.813   2.989  14.403 -0.5415 -3.1643 -0.0220
  567TMC3    H1 8468   1.905   2.770  14.738 -0.0952 -0.1369  1.7476
  567TMC3    H2 8469   2.152   3.110  14.635  0.6962 -0.1594 -1.2577
  567TMC3    C7 8470   2.151   2.871  14.743  0.2656  0.8118 -0.9137
  567TMC3    C8 8471   2.069   3.068  14.375 -0.8715  0.3306  0.3661
  567TMC3    O1 8472   2.247   2.855  14.662 -0.0341 -0.5301  0.2813
  567TMC3    O2 8473   2.005   3.059  14.269  0.7076  0.0814 -0.1467
  568MPD2     C 8474   3.902   2.305  16.167 -0.0897  0.0638 -0.8004
  568MPD2    C1 8475   3.941   2.404  16.255  0.2651  0.6331  0.5392
  568MPD2    C2 8476   3.907   2.541  16.217 -0.2226 -0.0597 -0.2128
  568MPD2    C3 8477   3.831   2.568  16.102  0.0773  0.4970 -0.1073
  568MPD2    C4 8478   3.806   2.466  16.018  0.1450  0.6900  1.0930
  568MPD2    C5 8479   3.847   2.340  16.047  0.2393  0.1992  0.8912
  568MPD2     H 8480   3.918   2.614  16.297  1.1709 -0.4604 -0.0476
  568MPD2    H1 8481   3.753   2.482  15.925 -1.9965 -0.2163  2.1588
  568MPD2    H2 8482   3.930   2.200  16.171 -0.6790 -0.1012 -0.9681
  568MPD2    H3 8483   3.841   2.270  15.965  0.1810 -0.4516  1.4522
  568MPD2     N 8484   3.781   2.701  16.083  0.4500 -0.3443 -0.2516
  568MPD2    H5 8485   3.805   2.766  16.157  0.1286 -0.1916 -0.2827
  568MPD2    N1 8486   4.016   2.370  16.364 -0.3100  0.0377  0.1773
  568MPD2    H7 8487   4.058   2.278  16.356  0.4519  0.2217  1.9482
  569TMC3    C1 8488   3.671   2.877  16.006 -0.2813 -0.3754 -0.8252
  569TMC3    C2 8489   3.667   2.932  16.130  0.4262 -0.2443 -0.2890
  569TMC3    C3 8490   3.682   3.067  16.132  0.7751  0.0957  0.2630
  569TMC3    C4 8491   3.702   2.939  15.891  0.4493  0.5271  0.0140
  569TMC3    C5 8492   3.703   3.072  15.891 -0.5295  0.0248 -0.4791
  569TMC3    C6 8493   3.694   3.139  16.016 -0.3476  1.0302  1.0386
  569TMC3     C 8494   3.693   2.738  15.989  0.1095  0.1162  0.0413
  569TMC3     O 8495   3.642   2.677  15.894  0.2375 -0.4046  0.0503
  569TMC3     H 8496   3.645   2.876  16.221  0.8983  1.4792  0.8740
  569TMC3    H1 8497   3.721   2.888  15.797  1.3582  1.6775 -0.4355
  569TMC3    H2 8498   3.677   3.246  16.012  0.5125  1.1181 -0.2711
  569TMC3    C7 8499   3.741   3.145  15.773 -0.3499 -0.3116  0.1351
  569TMC3    C8 8500   3.683   3.134  16.264 -0.4678  0.8776 -0.2134
  569TMC3    O1 8501   3.724   3.093  15.664  0.4523  0.3141 -0.4003
  569TMC3    O2 8502   3.617   3.081  16.355 -0.6647  0.3259 -0.0729
  570TMC3    C1 8503   3.663   1.690  16.132 -1.2121  0.0293 -0.1817
  570TMC3    C2 8504   3.700   1.733  16.009 -0.7794  0.3469 -0.6430
  570TMC3    C3 8505   3.708   1.867  15.983 -0.0788  0.0224 -0.6928
  570TMC3    C4 8506   3.638   1.770  16.233  0.0455 -0.6502  0.1603
  570TMC3    C5 8507   3.646   1.902  16.206 -0.1268  0.0917  0.4258
  570TMC3    C6 8508   3.696   1.956  16.086  0.4446 -0.3893 -0.0012
  570TMC3     C 8509   3.608   1.554  16.142  0.7358 -0.0951  0.3767
  570TMC3     O 8510   3.568   1.494  16.045  0.1320 -0.1915 -0.2582
  570TMC3     H 8511   3.725   1.659  15.935  0.3353  0.4546 -0.3680
  570TMC3    H1 8512   3.593   1.744  16.328  0.7140  1.8179  1.1635
  570TMC3    H2 8513   3.724   2.060  16.074  1.1132 -0.5669  0.0297
  570TMC3    C7 8514   3.623   1.990  16.318  0.1269  0.3324  0.8203
  570TMC3    C8 8515   3.738   1.926  15.859  0.0497 -0.3260  0.0543
  570TMC3    O1 8516   3.638   1.947  16.430 -0.2591  0.3870  0.1830
  570TMC3    O2 8517   3.783   2.041  15.859 -0.0890  0.0222 -0.4672
  571MPD2     C 8518   0.758   4.089   0.223 -0.0939  0.2116  0.1176
  571MPD2    C1 8519   0.847   4.042   0.322 -0.3750 -0.2916 -0.2258
  571MPD2    C2 8520   0.941   4.130   0.363  0.3704 -0.7872  0.5354
  571MPD2    C3 8521   0.931   4.265   0.315  0.3848  0.3857  0.1182
  571MPD2    C4 8522   0.842   4.301   0.222 -0.1397 -0.3090  0.1369
  571MPD2    C5 8523   0.753   4.217   0.175  0.0935 -0.6519 -0.3532
  571MPD2     H 8524   0.999   4.103   0.450 -0.5370  1.5193  1.8626
  571MPD2    H1 8525   0.837   4.404   0.188 -0.5677  0.2396  1.8760
  571MPD2    H2 8526   0.673   4.035   0.184 -0.3040  1.0847 -0.6113
  571MPD2    H3 8527   0.677   4.255   0.108  1.2642  0.0306 -1.2942
  571MPD2     N 8528   1.028   4.361   0.348  0.1669  0.1783  0.1030
  571MPD2    H5 8529   1.012   4.452   0.306  0.0365  0.0123 -0.2032
  571MPD2    N1 8530   0.830   3.900   0.361  0.1896 -0.0378  0.1960
  571MPD2    H7 8531   0.750   3.845   0.330  0.3061  1.2422 -2.3731
  572TMC3    C1 8532   1.230   4.453   0.428  0.1926 -0.4149  0.1421
  572TMC3    C2 8533   1.321   4.466   0.529  0.5250 -0.4733  0.0950
  572TMC3    C3 8534   1.419   4.568   0.510  0.1259 -0.0548  0.2860
  572TMC3    C4 8535   1.232   4.537   0.323 -0.0519 -0.3564  0.6631
  572TMC3    C5 8536   1.322   4.631   0.312  0.0568 -0.7257  0.5778
  572TMC3    C6 8537   1.424   4.650   0.400  0.0887 -0.2333  0.0065
  572TMC3     C 8538   1.131   4.350   0.434 -0.1736 -0.1493 -0.4312
  572TMC3     O 8539   1.143   4.277   0.529 -0.6439  0.4289  0.2773
  572TMC3     H 8540   1.330   4.387   0.602 -2.6950  0.4336  1.4597
  572TMC3    H1 8541   1.169   4.518   0.237 -0.6964 -2.8701  1.6791
  572TMC3    H2 8542   1.507   4.717   0.379  0.8385 -0.9004  0.7965
  572TMC3    C7 8543   1.325   4.721   0.197  0.0426  0.2791  0.1430
  572TMC3    C8 8544   1.551   4.542   0.564 -0.7283  0.5148 -0.2377
  572TMC3    O1 8545   1.219   4.729   0.135 -0.6001 -1.2119 -0.1001
  572TMC3    O2 8546   1.646   4.536   0.481 -0.3652  0.0304 -0.3150
  573MPD2     C 8547   2.276   4.200   0.928 -0.7022 -0.5352 -0.5756
  573MPD2    C1 8548   2.411   4.241   0.932 -0.0263 -0.3234 -0.9618
  573MPD2    C2 8549   2.493   4.229   0.821  0.7141  0.0509  0.5563
  573MPD2    C3 8550   2.439   4.182   0.707  0.3988  0.2893  0.3230
  573MPD2    C4 8551   2.306   4.135   0.698  0.2092 -0.3106  0.1953
  573MPD2    C5 8552   2.233   4.147   0.812 -0.4960  0.7336 -0.4487
  573MPD2     H 8553   2.597   4.260   0.829  1.1426 -1.2555 -0.0225
  573MPD2    H1 8554   2.261   4.080   0.616  0.4370  0.5826 -0.5234
  573MPD2    H2 8555   2.214   4.210   1.016  1.9693  0.5474  1.2107
  573MPD2    H3 8556   2.130   4.116   0.801  0.2314 -1.7010 -0.4412
  573MPD2     N 8557   2.521   4.178   0.591  0.2915  0.2323  0.5345
  573MPD2    H5 8558   2.481   4.143   0.505 -0.9823  5.1597 -0.8797
  573MPD2    N1 8559   2.439   4.302   1.061  0.5372  0.5961 -0.1106
  573MPD2    H7 8560   2.362   4.337   1.117 -0.8680  0.4592 -1.9437
  574TMC3    C1 8561   2.726   4.231   0.457  0.0295 -0.0991  0.0974
  574TMC3    C2 8562   2.643   4.247   0.346  0.2827  0.6289 -0.5086
  574TMC3    C3 8563   2.717   4.269   0.234 -0.0797  0.1665  0.1864
  574TMC3    C4 8564   2.860   4.265   0.462 -0.5684  0.1805  0.2788
  574TMC3    C5 8565   2.922   4.291   0.342  0.5270  0.4873  0.1885
  574TMC3    C6 8566   2.851   4.288   0.227 -0.3518  0.0862  0.4348
  574TMC3     C 8567   2.660   4.201   0.590  0.3380  0.0815  0.4158
  574TMC3     O 8568   2.734   4.196   0.684 -0.3420 -0.1811  0.4470
  574TMC3     H 8569   2.537   4.231   0.355  0.2599  1.3716  0.5629
  574TMC3    H1 8570   2.915   4.231   0.549 -0.9382 -0.6602  0.1796
  574TMC3    H2 8571   2.898   4.294   0.129 -1.0142 -0.5686  0.0702
  574TMC3    C7 8572   3.068   4.279   0.343 -0.2812  0.1930  0.3253
  574TMC3    C8 8573   2.645   4.237   0.119  0.1088  0.5854 -0.6914
  574TMC3    O1 8574   3.116   4.209   0.254 -0.2608 -0.2274 -0.2673
  574TMC3    O2 8575   2.548   4.162   0.132 -0.1804 -0.7564  0.0667
  575TMC3    C1 8576   4.693   0.502  11.654  0.0902 -0.1343  0.1786
  575TMC3    C2 8577   4.723   0.369  11.661  0.6777  0.6470  0.2406
  575TMC3    C3 8578   4.625   0.276  11.658 -0.0740 -0.0943 -0.1347
  575TMC3    C4 8579   4.563   0.538  11.611 -0.3093 -0.0544  0.2130
  575TMC3    C5 8580   4.465   0.443  11.608  0.2613  0.4252  0.0203
  575TMC3    C6 8581   4.493   0.312  11.645  0.0114 -0.3014 -0.0370
  575TMC3     C 8582   0.071   0.586  11.611 -0.5121 -0.3867  0.3762
  575TMC3     O 8583   0.183   0.540  11.617 -0.1234  0.1283 -0.2473
  575TMC3     H 8584   0.096   0.343  11.669 -0.0811 -2.2291  0.6579
  575TMC3    H1 8585   4.538   0.642  11.595  2.0593  0.8794  2.4591
  575TMC3    H2 8586   4.422   0.231  11.641 -0.4033 -0.0032  1.1990
  575TMC3    C7 8587   4.359   0.471  11.516  0.0558 -0.8592 -0.1232
  575TMC3    C8 8588   4.647   0.143  11.595 -0.4411  0.0176  0.5721
  575TMC3    O1 8589   4.375   0.570  11.444 -0.2046 -0.4425 -0.6018
  575TMC3    O2 8590   4.574   0.049  11.628 -0.0232  0.1079  0.0105
  576MPD2     C 8591   4.492   1.853  12.821  0.1961  0.0583  0.3727
  576MPD2    C1 8592   4.423   1.895  12.712 -0.0545  0.3936 -0.7155
  576MPD2    C2 8593   4.287   1.917  12.724  0.4066 -0.4370 -0.6506
  576MPD2    C3 8594   4.215   1.901  12.844 -0.2224  0.6869  0.4456
  576MPD2    C4 8595   4.292   1.858  12.947  0.3712 -0.0009 -0.3839
  576MPD2    C5 8596   4.428   1.843  12.937  0.3981  0.7315 -0.3487
  576MPD2     H 8597   4.239   1.929  12.628  1.5474  2.4968 -0.8582
  576MPD2    H1 8598   4.246   1.823  13.039  1.8157 -3.0373 -0.8277
  576MPD2    H2 8599   4.600   1.841  12.817  0.0503 -0.3282 -2.0973
  576MPD2    H3 8600   4.483   1.802  13.021 -0.8395  0.6252  0.4121
  576MPD2     N 8601   4.072   1.901  12.860  0.5385  0.0989 -0.0605
  576MPD2    H5 8602   4.030   1.923  12.770  0.4067 -0.7695 -0.2112
  576MPD2    N1 8603   4.477   1.895  12.584 -0.0942 -0.0892 -0.3190
  576MPD2    H7 8604   4.417   1.937  12.513 -0.1529  0.0431 -0.1938
  577TMC3    C1 8605   4.635   1.862  12.418  0.4701  0.2442  0.3045
  577TMC3    C2 8606   4.699   1.771  12.341 -0.2422 -0.0643 -0.0148
  577TMC3    C3 8607   4.712   1.810  12.207  0.0257 -0.5013 -0.0786
  577TMC3    C4 8608   4.611   1.988  12.379  0.0488  0.0174 -0.5795
  577TMC3    C5 8609   4.637   2.026  12.251 -0.3654  0.0214 -0.4958
  577TMC3    C6 8610   4.679   1.937  12.161  0.2155  0.5883  0.0071
  577TMC3     C 8611   4.583   1.820  12.546 -0.2757 -0.4843  0.2741
  577TMC3     O 8612   4.632   1.724  12.601  0.5498  0.2466  0.2170
  577TMC3     H 8613   0.006   1.678  12.381  1.4826  0.6926  0.0835
  577TMC3    H1 8614   4.569   2.062  12.446 -0.8269 -1.5638  0.6181
  577TMC3    H2 8615   4.682   1.961  12.055 -2.9810 -0.7273 -0.3797
  577TMC3    C7 8616   4.576   2.158  12.206 -0.2124  0.0999 -0.2443
  577TMC3    C8 8617   0.057   1.719  12.128  0.2404  0.0060  0.2999
  577TMC3    O1 8618   4.486   2.197  12.278  0.1876  0.3918  0.3197
  577TMC3    O2 8619   0.037   1.603  12.147  0.3416  0.6527  0.0296
  578MPD2     C 8620   2.866   2.193   0.335  0.6098  0.1394 -0.3736
  578MPD2    C1 8621   2.966   2.094   0.328  0.2913 -0.4248  0.4027
  578MPD2    C2 8622   3.012   2.034   0.442  0.3202  0.6480 -0.5099
  578MPD2    C3 8623   2.950   2.060   0.565 -0.1051 -0.2908  0.7576
  578MPD2    C4 8624   2.844   2.158   0.570  0.1549 -0.2374 -0.3570
  578MPD2    C5 8625   2.809   2.224   0.456  0.4452  0.4237  0.0752
  578MPD2     H 8626   3.105   1.978   0.446  2.3732  4.0482 -0.5055
  578MPD2    H1 8627   2.789   2.184   0.660  1.7390  3.4327 -0.4354
  578MPD2    H2 8628   2.822   2.242   0.249 -2.3280 -0.6446  0.6643
  578MPD2    H3 8629   2.721   2.287   0.456 -0.6388 -1.1049  1.6275
  578MPD2     N 8630   3.006   2.009   0.686  0.4780  0.2077 -0.5508
  578MPD2    H5 8631   3.078   1.940   0.669 -0.1513 -0.6457  0.2612
  578MPD2    N1 8632   3.018   2.073   0.197 -0.3547  0.1017  0.4128
  578MPD2    H7 8633   2.994   2.148   0.133  0.4492 -0.1206 -0.1555
  579TMC3    C1 8634   3.049   1.977   0.898  0.5099 -0.1588 -0.2056
  579TMC3    C2 8635   3.135   2.055   0.973  0.6158  0.4642 -0.3216
  579TMC3    C3 8636   3.232   1.992   1.037  0.6931 -0.6701 -0.5884
  579TMC3    C4 8637   3.052   1.838   0.886  0.1219 -0.4008  0.1598
  579TMC3    C5 8638   3.156   1.779   0.960 -0.2096 -0.6111 -0.2792
  579TMC3    C6 8639   3.251   1.853   1.017  0.1529 -0.5033 -0.2245
  579TMC3     C 8640   2.984   2.057   0.807 -0.6092 -0.0364 -0.2897
  579TMC3     O 8641   2.945   2.168   0.843  0.5114  0.0481  0.0837
  579TMC3     H 8642   3.122   2.162   0.986  0.1112  0.3504  0.1058
  579TMC3    H1 8643   2.975   1.790   0.827  0.5793 -1.1770  0.1840
  579TMC3    H2 8644   3.329   1.803   1.073 -0.3632  0.0285  0.9620
  579TMC3    C7 8645   3.176   1.635   0.948 -0.0121 -0.0655  0.1208
  579TMC3    C8 8646   3.340   2.072   1.079  0.3609 -0.0066  0.0456
  579TMC3    O1 8647   3.286   1.593   0.976 -0.4911  0.5471 -0.2569
  579TMC3    O2 8648   3.312   2.185   1.116  0.2238 -0.1535 -0.6737
  580TMC3    C1 8649   2.302   1.493  12.202 -0.2587 -0.2618  0.4532
  580TMC3    C2 8650   2.425   1.535  12.225  0.3254  0.4730 -0.5288
  580TMC3    C3 8651   2.532   1.443  12.228  0.5017  0.1520 -0.1504
  580TMC3    C4 8652   2.272   1.362  12.160 -0.2941  0.2910  0.2439
  580TMC3    C5 8653   2.380   1.268  12.156  0.3446  0.8408  0.1747
  580TMC3    C6 8654   2.513   1.311  12.191 -0.1237  0.3091 -0.6101
  580TMC3     C 8655   2.210   1.601  12.154 -0.5322 -1.4242 -0.6555
  580TMC3     O 8656   2.267   1.703  12.119  0.0892 -0.4329  0.7965
  580TMC3     H 8657   2.445   1.639  12.247 -0.0228  0.0578  1.7360
  580TMC3    H1 8658   2.175   1.333  12.120 -0.6906 -1.7489  2.6925
  580TMC3    H2 8659   2.592   1.241  12.214 -1.0624 -0.3871  0.5422
  580TMC3    C7 8660   2.365   1.132  12.119 -0.1973 -0.7331  0.2253
  580TMC3    C8 8661   2.662   1.505  12.246 -0.0925 -0.3576  0.0968
  580TMC3    O1 8662   2.249   1.095  12.128 -0.4387 -0.1539  0.4149
  580TMC3    O2 8663   2.671   1.616  12.296 -0.0877 -0.2756 -1.1773
  581MPD2     C 8664   0.645   0.592  14.650 -0.2987 -0.0966 -0.9064
  581MPD2    C1 8665   0.551   0.519  14.722 -0.6173  0.0944  0.0213
  581MPD2    C2 8666   0.430   0.581  14.751 -0.3821  0.2037  0.0358
  581MPD2    C3 8667   0.399   0.714  14.712 -0.4340  0.5997 -0.2330
  581MPD2    C4 8668   0.499   0.772  14.633 -0.2572 -0.1304  0.6417
  581MPD2    C5 8669   0.616   0.714  14.608 -0.0425 -0.7119 -0.1765
  581MPD2     H 8670   0.363   0.524  14.813 -3.5500  1.2657 -2.4084
  581MPD2    H1 8671   0.498   0.873  14.594 -1.9890 -0.6850 -0.7716
  581MPD2    H2 8672   0.737   0.549  14.613 -0.8698 -2.9614  1.0457
  581MPD2    H3 8673   0.685   0.767  14.544 -0.2028  0.1435  0.3736
  581MPD2     N 8674   0.285   0.781  14.754  0.2473  0.0792  0.5033
  581MPD2    H5 8675   0.279   0.882  14.741 -1.4888  0.0252  0.9121
  581MPD2    N1 8676   0.583   0.388  14.758  0.1561  0.2283  0.4341
  581MPD2    H7 8677   0.680   0.361  14.748 -0.1635 -1.3139  1.4967
  582TMC3    C1 8678   0.560   0.157  14.804 -0.3099 -0.1251  0.2357
  582TMC3    C2 8679   0.664   0.154  14.892 -0.2582  0.2337  0.1178
  582TMC3    C3 8680   0.676   0.038  14.960 -0.2954  0.2346 -0.0321
  582TMC3    C4 8681   0.467   0.055  14.798  0.3375  0.4465  0.5629
  582TMC3    C5 8682   0.468   4.689  14.889 -0.0002  0.4069  0.0557
  582TMC3    C6 8683   0.577   4.679  14.968  0.2275  0.1019 -0.2876
  582TMC3     C 8684   0.495   0.289  14.786 -0.2309 -0.1684  0.4920
  582TMC3     O 8685   0.379   0.294  14.827  1.0152  0.4055  0.4677
  582TMC3     H 8686   0.720   0.246  14.898  1.9088 -1.1052  0.5481
  582TMC3    H1 8687   0.386   0.060  14.727  0.6994 -2.1489 -0.0267
  582TMC3    H2 8688   0.581   4.596  15.037 -3.9577 -1.1471 -1.5008
  582TMC3    C7 8689   0.345   4.677  14.972 -0.6555  0.6860 -0.4940
  582TMC3    C8 8690   0.764   0.037  15.076  0.3583 -0.0333  0.4398
  582TMC3    O1 8691   0.336   4.575  15.039 -0.0854 -0.1550  0.6605
  582TMC3    O2 8692   0.735   4.712  15.178  0.0919 -0.1475  0.6380
  583MPD2     C 8693   1.075   2.305  17.302  0.6961  0.0921 -0.4775
  583MPD2    C1 8694   1.094   2.420  17.231  0.5666  0.3714  0.0812
  583MPD2    C2 8695   1.022   2.532  17.260 -0.6142  0.9108 -0.3013
  583MPD2    C3 8696   0.941   2.529  17.366  0.1384  0.0120 -0.0702
  583MPD2    C4 8697   0.917   2.413  17.440  0.8530  0.7470  0.2837
  583MPD2    C5 8698   0.979   2.299  17.400 -0.4444 -0.0300  0.0210
  583MPD2     H 8699   1.026   2.617  17.194 -0.1077  1.6076  0.6272
  583MPD2    H1 8700   0.855   2.408  17.529 -1.3216 -1.1627 -1.3121
  583MPD2    H2 8701   1.131   2.214  17.291  0.7450  0.3134 -2.0383
  583MPD2    H3 8702   0.966   2.208  17.457 -2.0329  0.7137  0.8769
  583MPD2     N 8703   0.875   2.648  17.408  0.3665  0.5377 -0.4336
  583MPD2    H5 8704   0.894   2.727  17.346 -0.1119 -0.1680 -1.4902
  583MPD2    N1 8705   1.190   2.427  17.126 -0.0698  0.1399  0.7153
  583MPD2    H7 8706   1.197   2.518  17.082 -1.0197  0.0690  0.4076
  584TMC3    C1 8707   0.741   2.798  17.535 -0.0295  0.2350 -0.2110
  584TMC3    C2 8708   0.839   2.874  17.584 -0.8416  0.5471  0.1124
  584TMC3    C3 8709   0.807   2.987  17.657 -0.2643  0.0144 -0.2593
  584TMC3    C4 8710   0.618   2.838  17.536 -0.3220 -0.2787 -0.5889
  584TMC3    C5 8711   0.591   2.960  17.597  1.1106 -0.4067  0.5428
  584TMC3    C6 8712   0.686   3.037  17.655 -0.2765  0.5216  0.1908
  584TMC3     C 8713   0.763   2.661  17.495  0.3675  0.6581 -0.7485
  584TMC3     O 8714   0.683   2.580  17.539 -0.1645  0.3684  0.6076
  584TMC3     H 8715   0.937   2.830  17.597 -1.2942 -0.5023 -0.1090
  584TMC3    H1 8716   0.543   2.764  17.510 -1.0476 -0.7366  2.8441
  584TMC3    H2 8717   0.654   3.114  17.724 -1.3396  0.6345 -0.4351
  584TMC3    C7 8718   0.451   2.981  17.620  0.9238 -0.2630 -0.4099
  584TMC3    C8 8719   0.914   3.069  17.710 -0.8382 -0.2056  0.9019
  584TMC3    O1 8720   0.369   2.892  17.594  0.5760  0.3310 -0.2078
  584TMC3    O2 8721   1.028   3.030  17.695 -0.0032 -0.5308  0.1687
  585MPD2     C 8722   0.106   1.546   0.466  0.4579  0.1107 -0.5032
  585MPD2    C1 8723   0.147   1.554   0.329  0.4372 -0.4008 -0.2596
  585MPD2    C2 8724   0.157   1.438   0.254 -0.0927  0.4966  0.3075
  585MPD2    C3 8725   0.155   1.313   0.317 -0.0432  0.1766 -0.2750
  585MPD2    C4 8726   0.113   1.303   0.452  0.0120  0.4745  0.2016
  585MPD2    C5 8727   0.087   1.416   0.524 -0.2797  0.1062 -0.4247
  585MPD2     H 8728   0.182   1.437   0.149  2.3768  1.1386  0.8662
  585MPD2    H1 8729   0.087   1.209   0.500 -1.5149  0.5394 -0.4792
  585MPD2    H2 8730   0.075   1.631   0.526  0.3687  1.1920 -2.0689
  585MPD2    H3 8731   0.051   1.406   0.626  0.8200  0.4844  0.0047
  585MPD2     N 8732   0.186   1.193   0.246  0.3981 -0.3984 -0.0342
  585MPD2    H5 8733   0.191   1.112   0.306  0.7044 -1.4074 -1.4376
  585MPD2    N1 8734   0.145   1.684   0.269  0.6555 -0.3395 -0.4441
  585MPD2    H7 8735   0.124   1.765   0.328 -1.2950 -0.2607 -1.2797
  586TMC3    C1 8736   0.222   1.031   0.084 -0.2028 -0.1665  0.1152
  586TMC3    C2 8737   0.314   1.005  17.708 -0.1370 -0.5687  0.4310
  586TMC3    C3 8738   0.328   0.875  17.669 -0.4770  0.0817 -0.2676
  586TMC3    C4 8739   0.152   0.936   0.153  0.3656  0.4228  0.9485
  586TMC3    C5 8740   0.174   0.810   0.111  0.2413  0.1326  0.0146
  586TMC3    C6 8741   0.254   0.781   0.002  0.1040 -0.0470  0.4270
  586TMC3     C 8742   0.194   1.171   0.113  0.0057  0.8411  0.3208
  586TMC3     O 8743   0.201   1.248   0.015 -0.2383  0.0567 -0.4469
  586TMC3     H 8744   0.362   1.090  17.661 -0.3010 -1.6021 -1.6328
  586TMC3    H1 8745   0.082   0.959   0.232  0.3270  0.5727  0.8720
  586TMC3    H2 8746   0.263   0.682  17.685 -0.5902  0.9176 -1.9885
  586TMC3    C7 8747   0.077   0.713   0.130 -0.3855 -1.0983 -0.0244
  586TMC3    C8 8748   0.454   0.825  17.605  0.0207 -0.2203  0.1621
  586TMC3    O1 8749   0.099   0.596   0.103  0.2226  0.0247 -0.5956
  586TMC3    O2 8750   0.486   0.710  17.638  0.0392  0.2200 -0.2790
  587TMC3    C1 8751   2.074   4.667  16.087 -0.0656  0.2135 -0.4178
  587TMC3    C2 8752   2.139   0.051  16.092  0.1428  0.2155 -0.3514
  587TMC3    C3 8753   2.273   0.040  16.078 -0.1503 -0.2908 -0.2898
  587TMC3    C4 8754   2.137   4.548  16.047  0.2158 -0.1137  0.3185
  587TMC3    C5 8755   2.271   4.540  16.038  0.0719  0.5770 -0.2762
  587TMC3    C6 8756   2.341   4.654  16.047 -0.1949  0.3817 -0.2284
  587TMC3     C 8757   1.927   4.679  16.096  0.5820  0.0142  0.2622
  587TMC3     O 8758   1.879   0.052  16.052 -0.4088  0.2046 -0.8845
  587TMC3     H 8759   2.088   0.143  16.118  0.4740  0.4896 -0.6738
  587TMC3    H1 8760   2.084   4.453  16.047 -0.3722  0.2212 -0.1115
  587TMC3    H2 8761   2.447   4.665  16.027 -0.6650  0.9838 -2.4292
  587TMC3    C7 8762   2.337   4.407  16.031  0.0244 -1.2380  0.3414
  587TMC3    C8 8763   2.357   0.135  16.146 -0.4403 -0.7750  0.1130
  587TMC3    O1 8764   2.281   4.322  16.099 -0.1694 -0.5086 -0.5836
  587TMC3    O2 8765   2.471   0.104  16.172 -0.0105  0.0639 -0.4721
  588TMC3    C1 8766   4.190   3.112  10.187 -0.1906 -0.0327 -0.3895
  588TMC3    C2 8767   4.148   3.033  10.079  0.0685  0.3338 -0.5153
  588TMC3    C3 8768   4.199   2.903  10.075  0.4968  0.7150  0.3850
  588TMC3    C4 8769   4.278   3.065  10.281  0.6813 -0.0405  0.2232
  588TMC3    C5 8770   4.334   2.942  10.261 -0.5286 -0.0733  0.5719
  588TMC3    C6 8771   4.298   2.861  10.159 -1.0563 -0.2459 -0.0411
  588TMC3     C 8772   4.195   3.256  10.150  0.1828 -0.2075  0.1076
  588TMC3     O 8773   4.186   3.276  10.026  0.1038 -0.0428  0.7213
  588TMC3     H 8774   4.096   3.065   9.989 -1.8573  1.3037  0.9226
  588TMC3    H1 8775   4.306   3.133  10.361  0.8084  1.8591 -1.4393
  588TMC3    H2 8776   4.353   2.770  10.136 -0.6677 -0.6495  2.5625
  588TMC3    C7 8777   4.465   2.919  10.322 -0.1625 -0.3925 -0.6945
  588TMC3    C8 8778   4.132   2.814   9.985 -0.7662 -0.2723 -0.3669
  588TMC3    O1 8779   4.507   2.804  10.334  0.7665 -0.1142  0.5388
  588TMC3    O2 8780   4.059   2.867   9.902 -0.4928  0.1259  0.6668
  589TMC3    C1 8781   3.570   0.057   1.116  0.2409 -0.1676 -0.4964
  589TMC3    C2 8782   3.700   0.116   1.115  0.4534  0.3487 -0.3294
  589TMC3    C3 8783   3.811   0.043   1.078  0.1678 -0.1556  0.0900
  589TMC3    C4 8784   3.555   4.659   1.093  0.4385  0.4246  0.4470
  589TMC3    C5 8785   3.670   4.592   1.052  0.1138  0.2991 -0.3270
  589TMC3    C6 8786   3.797   4.646   1.046 -0.3883 -0.1473  0.1236
  589TMC3     C 8787   3.449   0.134   1.158 -0.0336 -0.0049 -0.4744
  589TMC3     O 8788   3.340   0.083   1.135 -0.1609 -0.3454  0.3754
  589TMC3     H 8789   3.711   0.223   1.130 -0.3442  0.2562  0.8613
  589TMC3    H1 8790   3.458   4.612   1.086  0.2256  0.7454  1.2855
  589TMC3    H2 8791   3.877   4.576   1.027  2.3062  2.9608  0.0613
  589TMC3    C7 8792   3.653   4.464   0.991 -0.0031  0.1695  0.4564
  589TMC3    C8 8793   3.940   0.103   1.101  0.1813 -0.5663  0.6574
  589TMC3    O1 8794   3.560   4.383   1.019  0.6185  0.7477  0.0197
  589TMC3    O2 8795   3.926   0.218   1.134  0.8583  0.0944 -0.8158
  590MPD2     C 8796   3.328   3.866  17.041 -0.5062  0.6234 -0.5401
  590MPD2    C1 8797   3.292   3.810  16.923  0.3360  0.7826 -0.0721
  590MPD2    C2 8798   3.363   3.829  16.802 -1.0382 -0.1768 -0.2079
  590MPD2    C3 8799   3.483   3.888  16.807 -0.2035 -0.0521 -0.4454
  590MPD2    C4 8800   3.535   3.925  16.933 -0.1281 -0.6657 -0.4936
  590MPD2    C5 8801   3.457   3.908  17.052 -0.3684  0.6886 -0.0829
  590MPD2     H 8802   3.306   3.822  16.710 -0.4198 -2.2655 -0.4207
  590MPD2    H1 8803   3.635   3.967  16.940 -0.0696 -0.6440 -1.4949
  590MPD2    H2 8804   3.265   3.866  17.130  0.7747 -0.6229  0.3693
  590MPD2    H3 8805   3.491   3.950  17.146 -0.1141 -0.6857  0.4438
  590MPD2     N 8806   3.548   3.907  16.685 -0.2568  0.2664  0.9513
  590MPD2    H5 8807   3.512   3.858  16.604 -2.3427  0.0113  2.0158
  590MPD2    N1 8808   3.160   3.764  16.916 -0.2229 -0.0411 -0.1639
  590MPD2    H7 8809   3.098   3.782  16.994 -2.2171 -0.7309 -1.5640
  591TMC3    C1 8810   3.669   4.041  16.531  0.1125 -0.5801  0.5530
  591TMC3    C2 8811   3.643   3.953  16.427  0.2429  0.6395 -0.5577
  591TMC3    C3 8812   3.640   4.010  16.301  0.0588 -0.4216 -0.0333
  591TMC3    C4 8813   3.697   4.176  16.513 -0.3855  0.0005  0.2284
  591TMC3    C5 8814   3.693   4.225  16.387 -1.1596  1.1750 -0.3633
  591TMC3    C6 8815   3.661   4.147  16.283 -0.0902  0.6429  0.3382
  591TMC3     C 8816   3.646   4.004  16.669 -0.3525  0.0656  0.5581
  591TMC3     O 8817   3.701   4.073  16.754 -0.1725 -0.1467 -0.4619
  591TMC3     H 8818   3.640   3.846  16.446 -0.0782  0.6773 -0.3986
  591TMC3    H1 8819   3.706   4.237  16.603  2.5057 -1.4448  0.9120
  591TMC3    H2 8820   3.650   4.188  16.183 -3.0568  0.0834  0.4426
  591TMC3    C7 8821   3.703   4.372  16.374 -0.5732 -0.5672 -0.5891
  591TMC3    C8 8822   3.628   3.914  16.193 -0.1865 -0.3404 -0.0145
  591TMC3    O1 8823   3.709   4.437  16.477 -0.5401  0.3647 -0.4664
  591TMC3    O2 8824   3.581   3.806  16.222  0.1683 -0.3734  0.4872
  592MPD2     C 8825   3.159   0.768  11.578  0.0024 -0.4129 -0.2349
  592MPD2    C1 8826   3.169   0.782  11.711 -0.3407  0.8994  0.5372
  592MPD2    C2 8827   3.119   0.681  11.802  0.5982 -0.1679 -0.1721
  592MPD2    C3 8828   3.057   0.570  11.754 -0.5526 -0.6350 -0.2062
  592MPD2    C4 8829   3.050   0.557  11.622 -0.4185 -0.0019 -1.2110
  592MPD2    C5 8830   3.091   0.656  11.534 -0.4060  0.3657  0.1294
  592MPD2     H 8831   3.122   0.706  11.907  0.5536 -0.9079  0.0070
  592MPD2    H1 8832   3.000   0.472  11.576 -0.5761  0.0379 -1.1132
  592MPD2    H2 8833   3.207   0.836  11.508 -0.5617  0.5143  0.2819
  592MPD2    H3 8834   3.077   0.635  11.429  2.8477 -0.9867 -0.0469
  592MPD2     N 8835   3.005   0.478  11.846  0.1182 -0.3344  0.3481
  592MPD2    H5 8836   3.023   0.478  11.945 -4.2555 -0.4509  1.1142
  592MPD2    N1 8837   3.229   0.898  11.762  0.5719  0.0463  0.0816
  592MPD2    H7 8838   3.247   0.980  11.705  1.6811 -0.6714 -0.5703
  593TMC3    C1 8839   3.344   1.031  11.914  0.0665  0.5928  1.2320
  593TMC3    C2 8840   3.348   1.084  12.041 -0.2387  0.1427 -0.1826
  593TMC3    C3 8841   3.436   1.181  12.071  0.2433 -0.0351 -0.0792
  593TMC3    C4 8842   3.423   1.082  11.810  0.8305  0.1679 -0.6775
  593TMC3    C5 8843   3.518   1.174  11.846 -0.3724  0.5168  0.1815
  593TMC3    C6 8844   3.527   1.223  11.976 -0.6707  0.0603  0.4900
  593TMC3     C 8845   3.260   0.916  11.898 -0.0581 -0.5637  0.2088
  593TMC3     O 8846   3.235   0.851  12.001  0.1329 -0.6551 -0.2885
  593TMC3     H 8847   3.268   1.064  12.111 -1.9905  1.4830 -1.8149
  593TMC3    H1 8848   3.426   1.033  11.713 -0.2677  2.1962 -1.7353
  593TMC3    H2 8849   3.582   1.315  11.991 -4.1455  1.9056  2.0750
  593TMC3    C7 8850   3.571   1.251  11.735 -0.6597 -0.7777 -0.1036
  593TMC3    C8 8851   3.428   1.246  12.207  0.0752  0.4782 -0.0298
  593TMC3    O1 8852   3.651   1.337  11.767 -0.3560 -0.9105 -0.1738
  593TMC3    O2 8853   3.327   1.230  12.267 -0.0449 -0.3544 -0.2056
  594MPD2     C 8854   2.095   3.778  14.281 -0.2790 -0.1935 -0.0743
  594MPD2    C1 8855   2.135   3.824  14.398  0.6983 -0.5216  0.0560
  594MPD2    C2 8856   2.243   3.911  14.411 -0.3742 -0.2197 -0.5763
  594MPD2    C3 8857   2.302   3.952  14.303 -0.5033  0.9813  0.1240
  594MPD2    C4 8858   2.260   3.916  14.180  0.2341  0.4315  0.7143
  594MPD2    C5 8859   2.151   3.830  14.164 -0.4934 -0.6882 -1.0206
  594MPD2     H 8860   2.279   3.945  14.508  2.0280  0.7839 -1.8251
  594MPD2    H1 8861   2.295   3.970  14.093 -0.4306  1.0376  0.8219
  594MPD2    H2 8862   2.007   3.716  14.273 -1.8920  2.2067 -1.1161
  594MPD2    H3 8863   2.110   3.801  14.069  0.1509 -2.1019 -0.8622
  594MPD2     N 8864   2.408   4.038  14.324  0.9211  0.0417  0.2492
  594MPD2    H5 8865   2.433   4.053  14.421 -2.5856  0.9633  1.0117
  594MPD2    N1 8866   2.050   3.785  14.505 -0.1554 -0.3279  0.5938
  594MPD2    H7 8867   1.960   3.750  14.475  0.4102  0.2192 -1.6899
  595TMC3    C1 8868   2.829   4.210  14.322  0.1163  0.0158 -0.3656
  595TMC3    C2 8869   2.730   4.143  14.248  0.6925  0.3087 -0.4901
  595TMC3    C3 8870   2.600   4.165  14.288  0.2031  1.0136  0.2718
  595TMC3    C4 8871   2.795   4.310  14.417  0.1761 -0.1365  0.4362
  595TMC3    C5 8872   2.662   4.321  14.452  1.1178 -0.1607  0.6777
  595TMC3    C6 8873   2.563   4.258  14.380 -0.9795 -0.1582 -0.8840
  595TMC3     C 8874   2.969   4.185  14.295  1.3906  0.1186 -0.5762
  595TMC3     O 8875   3.047   4.246  14.365  0.9414 -0.5584 -0.1157
  595TMC3     H 8876   2.753   4.071  14.170 -0.4338 -2.0223  1.3378
  595TMC3    H1 8877   2.881   4.351  14.469 -0.3372 -0.1874  1.3239
  595TMC3    H2 8878   2.460   4.274  14.410 -0.6299  1.9685 -0.8016
  595TMC3    C7 8879   2.627   4.424  14.545 -0.0914  0.3798 -0.3085
  595TMC3    C8 8880   2.507   4.075  14.234  0.7254  0.5362 -0.8109
  595TMC3    O1 8881   2.526   4.487  14.520  0.0847  0.2765  0.4500
  595TMC3    O2 8882   2.531   4.039  14.120 -0.9446 -0.1506 -0.0727
  596MPD2     C 8883   1.967   2.201  17.286 -0.5737 -0.1625  0.5079
  596MPD2    C1 8884   2.010   2.331  17.264 -0.1645 -0.4183 -0.2683
  596MPD2    C2 8885   2.092   2.358  17.156 -0.4876 -0.8873 -0.0832
  596MPD2    C3 8886   2.117   2.258  17.066 -0.6974  0.7794  0.4374
  596MPD2    C4 8887   2.076   2.127  17.094 -0.2523 -0.0577 -0.4829
  596MPD2    C5 8888   1.996   2.105  17.201 -1.1097 -0.3034 -0.2378
  596MPD2     H 8889   2.128   2.459  17.144 -2.0350 -0.2201  0.9514
  596MPD2    H1 8890   2.085   2.042  17.027  2.7445  1.0719 -1.5296
  596MPD2    H2 8891   1.893   2.175  17.361 -2.1243 -0.5266 -1.1460
  596MPD2    H3 8892   1.958   2.005  17.216 -2.2333 -0.2060 -2.5284
  596MPD2     N 8893   2.168   2.282  16.939  0.1984  0.0366  0.4469
  596MPD2    H5 8894   2.182   2.203  16.876 -2.7831 -0.1590  0.0527
  596MPD2    N1 8895   1.960   2.442  17.341  0.1834 -0.2540  0.0200
  596MPD2    H7 8896   1.986   2.532  17.302  1.1689 -0.5694 -0.0474
  597TMC3    C1 8897   1.796   2.559  17.469 -0.5640 -0.0203  0.7193
  597TMC3    C2 8898   1.803   2.658  17.381  0.0623  0.6575  0.4674
  597TMC3    C3 8899   1.743   2.781  17.410  0.0127 -0.4106 -0.3420
  597TMC3    C4 8900   1.729   2.570  17.591 -0.6949  0.1061  0.0616
  597TMC3    C5 8901   1.673   2.693  17.605  0.1474  0.3332 -0.7535
  597TMC3    C6 8902   1.694   2.806  17.531 -0.5838 -0.0631 -0.0706
  597TMC3     C 8903   1.871   2.435  17.440  0.3847  0.4088 -0.2382
  597TMC3     O 8904   1.838   2.340  17.505 -0.2108  0.4124 -0.0124
  597TMC3     H 8905   1.852   2.654  17.285 -1.5316 -0.1672 -0.3110
  597TMC3    H1 8906   1.715   2.488  17.661  1.5983 -0.9325 -0.6986
  597TMC3    H2 8907   1.640   2.897  17.556 -0.5589  0.3235 -1.4124
  597TMC3    C7 8908   1.547   2.691  17.675 -0.8976 -0.3382  0.1685
  597TMC3    C8 8909   1.771   2.898  17.325  0.3488  1.1056  0.7133
  597TMC3    O1 8910   1.478   2.590  17.666  0.2686 -0.1844  0.5404
  597TMC3    O2 8911   1.686   2.989  17.328  0.3405 -0.0968 -0.0925
  598TMC3    C1 8912   4.692   3.793  15.573  0.3080 -1.2411 -1.4451
  598TMC3    C2 8913   0.024   3.669  15.602 -0.5811 -0.5633  0.2208
  598TMC3    C3 8914   0.042   3.583  15.501  0.0014  0.5428  0.2173
  598TMC3    C4 8915   4.657   3.831  15.440  0.2717 -0.4173  0.1483
  598TMC3    C5 8916   4.672   3.734  15.341  0.5384  0.5265  0.1551
  598TMC3    C6 8917   0.011   3.610  15.368 -0.4793  0.0399  0.1383
  598TMC3     C 8918   4.711   3.893  15.677  0.2345 -0.1703  1.0708
  598TMC3     O 8919   0.030   3.851  15.782 -0.2696 -0.6144  0.3653
  598TMC3     H 8920   0.029   3.636  15.705  1.4492 -0.3720  0.1854
  598TMC3    H1 8921   4.598   3.921  15.424  0.6440 -0.0594  0.7966
  598TMC3    H2 8922   0.045   3.547  15.286 -2.1167 -1.4454  0.5957
  598TMC3    C7 8923   4.643   3.765  15.203  0.4485  0.0834  0.0870
  598TMC3    C8 8924   0.061   3.444  15.537  0.4724  0.8300  0.3860
  598TMC3    O1 8925   4.649   3.666  15.130 -0.1413 -0.1203  0.1141
  598TMC3    O2 8926   0.117   3.433  15.648 -0.0753 -0.2455 -0.1584
  599MPD2     C 8927   4.729   1.239  15.685 -0.1666 -0.7215  0.0372
  599MPD2    C1 8928   4.672   1.109  15.697 -0.9519 -0.2863  0.4078
  599MPD2    C2 8929   4.540   1.091  15.736 -0.9552 -0.0355  0.5729
  599MPD2    C3 8930   4.461   1.210  15.763 -0.3458  0.0208  0.1303
  599MPD2    C4 8931   4.509   1.340  15.735 -0.2053  0.6824 -0.8043
  599MPD2    C5 8932   4.639   1.342  15.703 -0.6187  0.3760 -0.7780
  599MPD2     H 8933   4.492   0.995  15.749 -2.8262  0.7933 -0.2027
  599MPD2    H1 8934   4.448   1.427  15.758  2.2758  1.7251  1.8152
  599MPD2    H2 8935   0.094   1.241  15.635 -0.2079 -1.3526 -0.0731
  599MPD2    H3 8936   4.681   1.442  15.691  1.0380 -0.4350 -1.7855
  599MPD2     N 8937   4.328   1.211  15.812  0.5491  0.3653 -0.2426
  599MPD2    H5 8938   4.293   1.305  15.824  1.7202  0.8294 -0.4216
  599MPD2    N1 8939   0.026   0.999  15.671  0.3051 -0.1570  0.1131
  599MPD2    H7 8940   0.124   1.022  15.669  0.2516 -0.0459 -1.2258
  600TMC3    C1 8941   4.115   1.149  15.895  0.1780 -0.3090 -0.1124
  600TMC3    C2 8942   4.019   1.051  15.903  0.3280 -0.3564 -0.0145
  600TMC3    C3 8943   3.898   1.085  15.969 -0.1734  0.5937  0.0878
  600TMC3    C4 8944   4.104   1.267  15.957  0.3713  0.0668  0.1110
  600TMC3    C5 8945   3.998   1.292  16.034  0.0143 -0.6542  0.0612
  600TMC3    C6 8946   3.891   1.201  16.040  0.6507 -0.3889  0.1013
  600TMC3     C 8947   4.246   1.102  15.840  0.3379  0.0898  0.1500
  600TMC3     O 8948   4.261   0.983  15.811  0.1688  0.0519 -0.7590
  600TMC3     H 8949   4.031   0.955  15.854 -1.7312 -0.4783 -0.2723
  600TMC3    H1 8950   4.183   1.339  15.947 -1.8043  2.5057  0.5398
  600TMC3    H2 8951   3.804   1.228  16.098 -1.0080 -1.4147 -1.9198
  600TMC3    C7 8952   3.969   1.423  16.096 -0.1647 -0.6669  0.1766
  600TMC3    C8 8953   3.789   0.987  15.959 -0.2008 -0.5710  0.7840
  600TMC3    O1 8954   3.896   1.427  16.195  0.0083  0.4963  0.0933
  600TMC3    O2 8955   3.810   0.866  15.946 -0.5478  0.1192 -0.2436
  601MPD2     C 8956   1.484   0.399  17.659 -0.0451 -0.0632 -0.4399
  601MPD2    C1 8957   1.363   0.342  17.685 -0.3348  0.3503 -0.5462
  601MPD2    C2 8958   1.344   0.232   0.034 -0.2844 -0.0419 -0.2641
  601MPD2    C3 8959   1.453   0.169   0.085  0.3877  0.2203  0.1405
  601MPD2    C4 8960   1.577   0.225   0.068 -0.4051 -1.0350 -0.0910
  601MPD2    C5 8961   1.591   0.338  17.717 -0.1430  0.3073  0.4583
  601MPD2     H 8962   1.242   0.196   0.030 -0.1499 -0.3431 -0.8750
  601MPD2    H1 8963   1.664   0.204   0.128  1.7243  1.4904 -2.3096
  601MPD2    H2 8964   1.501   0.482  17.592 -0.3982  1.0426  0.8419
  601MPD2    H3 8965   1.689   0.382  17.699  1.1602 -1.1024  4.1021
  601MPD2     N 8966   1.442   0.051   0.167 -0.0535 -0.5996  0.0243
  601MPD2    H5 8967   1.528   0.014   0.205  0.4846  1.0941  0.4845
  601MPD2    N1 8968   1.244   0.395  17.631  0.4927 -0.5541 -0.0711
  601MPD2    H7 8969   1.164   0.337  17.656  0.2231 -0.8696 -1.6605
  602TMC3    C1 8970   1.118   0.504  17.455 -0.1609 -0.5368  1.3575
  602TMC3    C2 8971   1.098   0.624  17.395  0.2713  0.3744 -0.2785
  602TMC3    C3 8972   0.995   0.642  17.307  0.1404 -0.3165  0.1688
  602TMC3    C4 8973   1.039   0.390  17.431 -0.1142  0.3544  0.1305
  602TMC3    C5 8974   0.938   0.416  17.340 -0.1438  0.4002 -0.5324
  602TMC3    C6 8975   0.910   0.542  17.275  0.4503  0.4197 -0.2429
  602TMC3     C 8976   1.243   0.494  17.524  0.4018 -0.1553 -0.0912
  602TMC3     O 8977   1.324   0.584  17.496 -0.0059  0.3103  0.1678
  602TMC3     H 8978   1.160   0.711  17.417  0.7794 -0.2231  0.6692
  602TMC3    H1 8979   1.032   0.298  17.488  0.4357  0.0251 -0.3264
  602TMC3    H2 8980   0.813   0.558  17.228  0.7586 -0.9550 -1.3532
  602TMC3    C7 8981   0.895   0.297  17.273 -0.8475 -0.0462  0.3191
  602TMC3    C8 8982   0.983   0.773  17.245  0.3751  0.4559  0.0789
  602TMC3    O1 8983   0.856   0.201  17.340  0.2116  0.4126 -0.0038
  602TMC3    O2 8984   1.061   0.858  17.274  0.2889  0.4216 -0.1434
  603TMC3    C1 8985   3.587   0.445  11.387 -0.1156  0.8140  0.2166
  603TMC3    C2 8986   3.647   0.468  11.510  0.7270 -0.4901  0.0017
  603TMC3    C3 8987   3.750   0.561  11.528 -0.7113 -0.0676 -0.1628
  603TMC3    C4 8988   3.624   0.530  11.288  0.5747  0.1906 -0.0321
  603TMC3    C5 8989   3.733   0.617  11.305 -0.3446 -0.0054  0.0700
  603TMC3    C6 8990   3.805   0.623  11.422 -0.3610 -0.6402  0.0350
  603TMC3     C 8991   3.557   0.308  11.342 -0.2124  0.0920  0.2146
  603TMC3     O 8992   3.566   0.294  11.221 -0.5139  0.3281  0.0131
  603TMC3     H 8993   3.626   0.397  11.589 -1.6942 -2.2263 -2.1684
  603TMC3    H1 8994   3.576   0.524  11.191 -3.4156  1.3205  1.8854
  603TMC3    H2 8995   3.872   0.708  11.424  1.4431 -2.0825  0.2668
  603TMC3    C7 8996   3.782   0.706  11.200  0.2698  0.3092  0.1082
  603TMC3    C8 8997   3.834   0.532  11.642 -0.1027 -0.2307 -0.1345
  603TMC3    O1 8998   3.897   0.743  11.213 -0.8556 -0.3505  0.7271
  603TMC3    O2 8999   3.803   0.443  11.721  0.0024 -0.0747  0.1968
  604MPD2     C 9000   0.484   3.034  16.711  0.3004  0.4284  0.7195
  604MPD2    C1 9001   0.413   3.077  16.600  0.3018  0.6281 -0.2581
  604MPD2    C2 9002   0.457   3.030  16.474 -0.7483 -0.2046 -0.5339
  604MPD2    C3 9003   0.558   2.938  16.458  0.3288  0.3433  1.1594
  604MPD2    C4 9004   0.623   2.897  16.570 -0.6430 -0.6197  0.4981
  604MPD2    C5 9005   0.581   2.941  16.696 -0.1574  0.8754  0.3107
  604MPD2     H 9006   0.403   3.053  16.383  1.7599  0.7629 -1.7725
  604MPD2    H1 9007   0.701   2.822  16.566 -0.6996 -0.5230 -2.1025
  604MPD2    H2 9008   0.471   3.076  16.810  0.1749  1.8209  0.1190
  604MPD2    H3 9009   0.627   2.904  16.787  1.0941 -2.4977 -1.7108
  604MPD2     N 9010   0.604   2.901  16.327 -0.1763  0.2035  0.0667
  604MPD2    H5 9011   0.569   2.969  16.260 -2.2830 -1.5189 -0.6031
  604MPD2    N1 9012   0.303   3.171  16.612  0.1121 -0.7425 -0.2854
  604MPD2    H7 9013   0.284   3.206  16.706 -0.8843  1.3032 -1.2399
  605TMC3    C1 9014   0.177   3.364  16.547  0.1439 -0.1847  0.3214
  605TMC3    C2 9015   0.250   3.442  16.634 -0.0570 -0.2585 -0.3810
  605TMC3    C3 9016   0.229   3.577  16.625  0.2582  0.6843  0.5286
  605TMC3    C4 9017   0.087   3.410  16.455  0.7548 -0.1730  0.1917
  605TMC3    C5 9018   0.072   3.547  16.449  0.0798 -0.0917 -0.5037
  605TMC3    C6 9019   0.137   3.628  16.538  0.4752 -0.3927  0.0793
  605TMC3     C 9020   0.247   3.241  16.510 -0.0301 -0.0165  0.4270
  605TMC3     O 9021   0.227   3.204  16.391  0.0199 -0.6227 -0.0619
  605TMC3     H 9022   0.341   3.410  16.683  0.1910  0.7799 -0.1561
  605TMC3    H1 9023   0.035   3.339  16.391  0.1974  0.4742 -0.0863
  605TMC3    H2 9024   0.107   3.732  16.527  0.0400 -0.2561  2.4135
  605TMC3    C7 9025   4.676   3.592  16.400 -0.4635 -0.2205  0.3763
  605TMC3    C8 9026   0.286   3.646  16.740  0.7255  0.2180  0.6928
  605TMC3    O1 9027   4.665   3.713  16.387 -0.4470 -0.1140  0.0548
  605TMC3    O2 9028   0.295   3.587  16.847 -0.6713 -0.7793  0.0040
  606TMC3    C1 9029   2.246   2.402  17.612 -0.1181 -0.0304  0.3166
  606TMC3    C2 9030   2.265   2.378   0.022 -0.1864 -0.1193 -0.2490
  606TMC3    C3 9031   2.304   2.252   0.057 -1.2824  0.4574  0.2524
  606TMC3    C4 9032   2.251   2.301  17.524 -0.2503  0.3131  0.1968
  606TMC3    C5 9033   2.267   2.175  17.567  0.8590 -0.0063  0.7950
  606TMC3    C6 9034   2.298   2.144  17.696  0.5541 -0.1585  0.3714
  606TMC3     C 9035   2.212   2.541  17.575  0.7661  0.4717 -0.5361
  606TMC3     O 9036   2.262   2.588  17.475  0.5630  0.3773  0.4220
  606TMC3     H 9037   2.235   2.449   0.098  1.3345  0.7742 -0.4724
  606TMC3    H1 9038   2.221   2.321  17.422  0.6704  0.4998 -0.0391
  606TMC3    H2 9039   2.338   2.047  17.721  2.2570  0.1842 -1.0691
  606TMC3    C7 9040   2.264   2.067  17.469 -0.1102 -0.3693  0.2610
  606TMC3    C8 9041   2.356   2.229   0.197 -0.5446  0.1109  0.3722
  606TMC3    O1 9042   2.301   2.092  17.357 -0.0782 -0.3281  0.1453
  606TMC3    O2 9043   2.330   2.309   0.283 -0.3612  0.9762  0.0105
  607MPD2     C 9044   3.194   0.128  11.830  0.0029  0.4185 -0.1307
  607MPD2    C1 9045   3.232   0.208  11.936 -0.7598 -0.2693  0.0330
  607MPD2    C2 9046   3.213   0.166  12.064 -0.4362 -1.1023  0.2124
  607MPD2    C3 9047   3.169   0.037  12.093  0.0425 -0.5749 -0.0113
  607MPD2    C4 9048   3.142   4.683  11.990 -0.4895 -0.5613  0.2822
  607MPD2    C5 9049   3.145   0.006  11.857 -0.2764 -0.1637  0.4041
  607MPD2     H 9050   3.223   0.231  12.149  0.4852 -1.0699  0.0727
  607MPD2    H1 9051   3.119   4.577  11.995 -0.5391 -0.6465 -1.7072
  607MPD2    H2 9052   3.201   0.158  11.726 -1.0047  1.2230  0.0452
  607MPD2    H3 9053   3.113   4.681  11.770 -1.2588  1.6694 -0.4242
  607MPD2     N 9054   3.184   4.721  12.218 -0.3310 -0.0860  0.3860
  607MPD2    H5 9055   3.219   0.057  12.285 -2.7052  0.5597  0.9661
  607MPD2    N1 9056   3.291   0.336  11.916 -0.3236 -0.1773 -0.1819
  607MPD2    H7 9057   3.282   0.394  11.999  1.5556  0.9318 -0.7385
  608TMC3    C1 9058   3.442   0.503  11.843  0.3865  0.3879 -0.3233
  608TMC3    C2 9059   3.493   0.516  11.967 -0.0210 -0.1243  0.0094
  608TMC3    C3 9060   3.556   0.631  12.006 -0.5371 -0.2529  0.8794
  608TMC3    C4 9061   3.466   0.598  11.749  0.5033  0.5514  0.1980
  608TMC3    C5 9062   3.545   0.706  11.780 -0.5147  0.5465  0.1875
  608TMC3    C6 9063   3.586   0.730  11.912  0.4685 -0.0613  0.3857
  608TMC3     C 9064   3.352   0.389  11.808  1.3173 -0.2296  0.1999
  608TMC3     O 9065   3.361   0.351  11.692 -0.3735 -0.0055  0.4008
  608TMC3     H 9066   3.477   0.430  12.030 -0.6066 -0.0609 -0.0478
  608TMC3    H1 9067   3.420   0.585  11.651 -1.3450  2.4703  0.8399
  608TMC3    H2 9068   3.638   0.819  11.944 -2.4780  2.1724 -1.1091
  608TMC3    C7 9069   3.592   0.795  11.676 -0.4421 -1.1282  0.5238
  608TMC3    C8 9070   3.581   0.652  12.150 -0.1689 -0.2900 -0.1834
  608TMC3    O1 9071   3.514   0.797  11.581  0.2039 -0.3023 -0.5173
  608TMC3    O2 9072   3.606   0.764  12.189  0.0337  0.2906  0.2591
  609TMC3    C1 9073   2.661   4.128   9.031  0.5139  0.5405  0.6585
  609TMC3    C2 9074   2.691   4.011   8.969  0.8513 -0.3017 -0.1649
  609TMC3    C3 9075   2.812   3.952   8.993 -0.2063  0.3149 -0.7345
  609TMC3    C4 9076   2.754   4.191   9.104  0.2406  0.4087  0.1370
  609TMC3    C5 9077   2.877   4.135   9.122 -0.2420  0.4737 -0.1719
  609TMC3    C6 9078   2.907   4.017   9.063 -0.2543  0.0959  0.2660
  609TMC3     C 9079   2.542   4.199   8.989  0.0073  0.2518  0.3252
  609TMC3     O 9080   2.516   4.291   9.063  0.3712  0.2375  0.0664
  609TMC3     H 9081   2.620   3.945   8.919  0.0314 -0.8592  1.7368
  609TMC3    H1 9082   2.738   4.294   9.133  0.3448  0.5445 -0.2794
  609TMC3    H2 9083   3.011   3.986   9.063 -0.4512 -0.6024  1.1836
  609TMC3    C7 9084   2.978   4.210   9.204  0.6016  0.5834 -1.1061
  609TMC3    C8 9085   2.839   3.819   8.949  0.5003  0.0356 -0.3482
  609TMC3    O1 9086   2.974   4.333   9.213  0.0758  0.6758  0.7100
  609TMC3    O2 9087   2.929   3.761   9.011 -0.2222  0.1522 -0.1242
  610TMC3    C1 9088   3.717   0.063  13.249 -0.4159  0.2910 -1.0120
  610TMC3    C2 9089   3.689   0.169  13.166  0.3322 -0.2393  0.0689
  610TMC3    C3 9090   3.754   0.166  13.045  0.6722 -0.7809 -0.9447
  610TMC3    C4 9091   3.808   4.691  13.217  0.0479  0.4183  0.5764
  610TMC3    C5 9092   3.858   4.684  13.084 -0.1686  0.0276  0.3585
  610TMC3    C6 9093   3.833   0.057  12.997 -0.4765 -0.3224  0.4600
  610TMC3     C 9094   3.654   0.059  13.383  0.3971 -0.8660 -0.2185
  610TMC3     O 9095   3.707   4.714  13.464 -0.3994 -0.3709 -0.1197
  610TMC3     H 9096   3.608   0.236  13.194 -0.3344 -1.8406  1.9479
  610TMC3    H1 9097   3.822   4.607  13.284 -0.8218 -0.1759  0.0030
  610TMC3    H2 9098   3.889   0.072  12.905 -2.5159  1.5816 -0.4596
  610TMC3    C7 9099   3.965   4.594  13.072  0.8934 -0.6898  0.0307
  610TMC3    C8 9100   3.747   0.290  12.972  0.0459  0.5390  0.0602
  610TMC3    O1 9101   4.007   4.539  13.172 -0.2927 -0.1626  0.2749
  610TMC3    O2 9102   3.713   0.385  13.038  0.9428  0.0440 -0.0969
  611MPD2     C 9103   2.869   0.470  10.556 -0.0132 -0.8507  0.1658
  611MPD2    C1 9104   2.885   0.526  10.434 -0.1330 -0.2201 -0.0992
  611MPD2    C2 9105   2.989   0.610  10.411  1.0585  0.6534  0.0564
  611MPD2    C3 9106   3.089   0.636  10.506 -0.3689 -0.0381  0.4652
  611MPD2    C4 9107   3.080   0.569  10.626  0.2725  0.6869 -0.5926
  611MPD2    C5 9108   2.968   0.496  10.652 -0.1581 -0.3012 -0.1271
  611MPD2     H 9109   2.987   0.663  10.316  3.0287  1.1833  0.3120
  611MPD2    H1 9110   3.158   0.571  10.701  0.7826  1.9956 -1.1677
  611MPD2    H2 9111   2.781   0.423  10.599 -0.1435  0.0355  0.8632
  611MPD2    H3 9112   2.965   0.456  10.753  1.6976 -0.0634  0.0225
  611MPD2     N 9113   3.203   0.724  10.483 -0.0990  0.5548 -0.0974
  611MPD2    H5 9114   3.265   0.728  10.564 -1.0357 -0.8577  0.7003
  611MPD2    N1 9115   2.782   0.498  10.339  0.3137 -0.3604  0.0671
  611MPD2    H7 9116   2.714   0.428  10.367  0.0161  0.1317  0.5664
  612TMC3    C1 9117   3.353   0.870  10.356 -1.2151  0.2150 -0.1769
  612TMC3    C2 9118   3.447   0.866  10.455  0.2019  0.4633 -0.0482
  612TMC3    C3 9119   3.548   0.961  10.440 -0.1136 -0.0549 -0.4629
  612TMC3    C4 9120   3.354   0.956  10.251 -0.1293 -0.2524  0.5472
  612TMC3    C5 9121   3.457   1.044  10.246  0.1187 -0.8386 -1.2372
  612TMC3    C6 9122   3.554   1.053  10.341 -0.9870  0.2487 -0.6580
  612TMC3     C 9123   3.230   0.788  10.364 -0.7497  0.3766 -0.0429
  612TMC3     O 9124   3.167   0.790  10.263 -0.0910 -0.4308  0.3516
  612TMC3     H 9125   3.428   0.803  10.541 -1.1099 -1.0685 -1.4795
  612TMC3    H1 9126   3.279   0.949  10.174  0.9368  0.2730 -0.5501
  612TMC3    H2 9127   3.625   1.135  10.340 -0.5278 -0.1440 -0.1474
  612TMC3    C7 9128   3.460   1.142  10.139  0.2434  0.1672  0.0278
  612TMC3    C8 9129   3.623   0.999  10.558  0.0872  0.4180  0.6501
  612TMC3    O1 9130   3.537   1.233  10.138 -0.0088 -0.2119  0.3420
  612TMC3    O2 9131   3.695   1.099  10.547 -0.2747 -0.6985  0.2256
  613MPD2     C 9132   3.067   2.901  16.944  0.2642 -0.0938  0.7283
  613MPD2    C1 9133   2.970   2.870  16.856 -0.7886  0.0081 -0.0438
  613MPD2    C2 9134   2.933   2.737  16.841  0.5121 -0.5502  0.6084
  613MPD2    C3 9135   3.005   2.632  16.899  0.2776 -0.1628 -0.5259
  613MPD2    C4 9136   3.115   2.667  16.982 -0.5450 -0.4539 -0.1536
  613MPD2    C5 9137   3.141   2.802  17.004 -0.3765 -0.1889  0.0865
  613MPD2     H 9138   2.863   2.710  16.763 -0.0606 -2.2957  1.7058
  613MPD2    H1 9139   3.179   2.595  17.031  0.1190  0.3469  0.1421
  613MPD2    H2 9140   3.092   3.005  16.963  1.3942 -0.4342  1.1346
  613MPD2    H3 9141   3.226   2.829  17.066  0.6544 -0.3147 -1.2767
  613MPD2     N 9142   2.974   2.499  16.874 -0.5191 -0.2376 -0.6819
  613MPD2    H5 9143   3.032   2.433  16.924  1.3978  1.9444 -0.0448
  613MPD2    N1 9144   2.904   2.972  16.786 -0.4200 -0.1291  0.5109
  613MPD2    H7 9145   2.956   3.058  16.771  0.3867 -1.0132 -1.7156
  614TMC3    C1 9146   2.815   2.968  16.570  0.2288 -0.4739  1.8436
  614TMC3    C2 9147   2.923   2.896  16.524  0.0413  0.0565  0.6503
  614TMC3    C3 9148   2.913   2.836  16.400  0.0155 -0.0998  0.1380
  614TMC3    C4 9149   2.701   2.976  16.496  0.8024  0.7993 -0.8315
  614TMC3    C5 9150   2.697   2.921  16.369 -0.3604  0.7945  0.2222
  614TMC3    C6 9151   2.800   2.842  16.324 -0.3733  0.3772 -0.4048
  614TMC3     C 9152   2.788   2.961  16.713  0.1340  0.2642  0.7622
  614TMC3     O 9153   2.687   2.907  16.757  0.4905 -0.0653 -0.0729
  614TMC3     H 9154   3.013   2.891  16.583 -1.4674  0.7015  3.0345
  614TMC3    H1 9155   2.627   3.043  16.538 -0.0555 -0.6311 -0.0423
  614TMC3    H2 9156   2.775   2.771  16.246 -0.4076  0.1111 -0.1497
  614TMC3    C7 9157   2.577   2.950  16.292  0.2841 -0.7157  0.4030
  614TMC3    C8 9158   3.008   2.727  16.382 -0.4527 -0.0100 -0.3372
  614TMC3    O1 9159   2.476   2.985  16.354  0.7254 -0.5841 -0.1647
  614TMC3    O2 9160   3.083   2.700  16.476 -0.4459  0.5637  0.3775
  615MPD2     C 9161   2.309   3.513  16.017 -0.7804  0.1834  0.1318
  615MPD2    C1 9162   2.305   3.631  16.084 -0.4113 -0.2554  0.3043
  615MPD2    C2 9163   2.256   3.751  16.032 -0.4160 -0.3258  0.5908
  615MPD2    C3 9164   2.196   3.741  15.904  0.2632 -0.1814 -0.7738
  615MPD2    C4 9165   2.201   3.622  15.839  0.3159  0.2762  0.4301
  615MPD2    C5 9166   2.258   3.507  15.891 -0.1024 -0.3348  0.0621
  615MPD2     H 9167   2.243   3.836  16.098  1.7084 -0.1085  0.7496
  615MPD2    H1 9168   2.148   3.602  15.746  1.1956  1.8775 -0.4243
  615MPD2    H2 9169   2.339   3.420  16.063  1.0687  1.1519  0.8982
  615MPD2    H3 9170   2.256   3.412  15.839  0.3634  0.4200 -1.3493
  615MPD2     N 9171   2.119   3.846  15.845  0.1665  0.7399 -0.1438
  615MPD2    H5 9172   2.070   3.818  15.761  2.0308 -0.4360 -0.8436
  615MPD2    N1 9173   2.350   3.644  16.218 -0.3566  0.1481 -0.1355
  615MPD2    H7 9174   2.363   3.735  16.261  0.7356  0.6407 -1.5155
  616TMC3    C1 9175   2.479   3.606  16.398  0.0715 -0.4524  0.1423
  616TMC3    C2 9176   2.612   3.622  16.391  0.0677  0.4960  0.4746
  616TMC3    C3 9177   2.672   3.722  16.462 -0.1171 -0.4012  0.8265
  616TMC3    C4 9178   2.401   3.687  16.473 -0.2435  0.4973  0.4442
  616TMC3    C5 9179   2.460   3.780  16.550  0.0332  0.3747 -0.0931
  616TMC3    C6 9180   2.594   3.795  16.543  0.4914  0.3016  0.1953
  616TMC3     C 9181   2.419   3.544  16.287 -0.7352 -0.2941 -0.0899
  616TMC3     O 9182   2.473   3.446  16.244  0.0699 -0.1408 -0.0443
  616TMC3     H 9183   2.675   3.570  16.319  0.1154 -1.3966  1.8597
  616TMC3    H1 9184   2.305   3.640  16.491  0.1550 -0.9631 -1.2786
  616TMC3    H2 9185   2.640   3.862  16.614  3.9845 -0.9362 -0.9248
  616TMC3    C7 9186   2.385   3.889  16.607  0.5171 -0.9768 -0.1904
  616TMC3    C8 9187   2.814   3.737  16.453 -0.2183 -0.1060  0.0839
  616TMC3    O1 9188   2.443   3.997  16.614  0.4618  0.2185  0.8221
  616TMC3    O2 9189   2.883   3.644  16.418 -0.1797 -0.4473 -0.3344
  617MPD2     C 9190   0.336   2.240  14.191 -0.8179 -0.7562  0.0923
  617MPD2    C1 9191   0.333   2.153  14.085  0.2585  0.2715 -0.3012
  617MPD2    C2 9192   0.219   2.082  14.067 -0.3472  0.7093 -0.2153
  617MPD2    C3 9193   0.118   2.081  14.160 -0.3817  0.1695 -0.3639
  617MPD2    C4 9194   0.125   2.162  14.272 -0.8838 -0.4698  0.1529
  617MPD2    C5 9195   0.231   2.245  14.283 -0.0284  0.1012 -0.0350
  617MPD2     H 9196   0.222   2.002  13.994  1.0429  1.4502 -0.9515
  617MPD2    H1 9197   0.043   2.179  14.341 -0.4631  0.8607  0.3170
  617MPD2    H2 9198   0.417   2.311  14.201 -2.9563  1.7326 -0.1914
  617MPD2    H3 9199   0.225   2.332  14.348  1.1700  1.2093 -1.4294
  617MPD2     N 9200   0.017   1.978  14.156 -0.2863  0.3518 -0.0799
  617MPD2    H5 9201   4.691   1.970  14.240 -1.2238  2.7627 -0.4696
  617MPD2    N1 9202   0.448   2.151  13.997  0.0918  0.0078  0.4431
  617MPD2    H7 9203   0.529   2.204  14.027  0.7901 -0.4625 -0.6070
  618TMC3    C1 9204   0.591   2.049  13.840 -0.6221  0.0221  0.2851
  618TMC3    C2 9205   0.697   2.090  13.927 -0.3664 -0.5304  0.9644
  618TMC3    C3 9206   0.814   2.025  13.919 -0.0649  0.2440  0.5025
  618TMC3    C4 9207   0.614   1.954  13.747  0.0154  0.1647 -0.0880
  618TMC3    C5 9208   0.738   1.898  13.737 -0.0064 -0.3162 -0.4845
  618TMC3    C6 9209   0.833   1.920  13.833 -0.1586  0.2051 -0.4446
  618TMC3     C 9210   0.452   2.074  13.883  0.2345 -0.5462  0.6860
  618TMC3     O 9211   0.364   2.013  13.823 -0.1335 -0.2112 -0.5235
  618TMC3     H 9212   0.683   2.177  13.990  0.3232  0.6236 -0.4832
  618TMC3    H1 9213   0.547   1.933  13.664  2.6125 -3.2738 -1.3327
  618TMC3    H2 9214   0.924   1.861  13.839 -0.0763  0.3684 -0.1228
  618TMC3    C7 9215   0.728   1.763  13.667 -0.8104  0.1836 -0.2383
  618TMC3    C8 9216   0.919   2.062  14.015 -0.1522 -0.0012 -0.4037
  618TMC3    O1 9217   0.620   1.710  13.664  0.0542 -0.2618 -0.2771
  618TMC3    O2 9218   0.884   2.119  14.114 -0.2461  0.1156  0.0169
  619MPD2     C 9219   1.850   3.594  13.515  0.4119  0.6217  1.0683
  619MPD2    C1 9220   1.717   3.632  13.518  0.1580 -0.2877 -0.0457
  619MPD2    C2 9221   1.622   3.544  13.472 -0.4585 -0.0196  0.0740
  619MPD2    C3 9222   1.658   3.417  13.434  0.2924  0.1954  0.8147
  619MPD2    C4 9223   1.791   3.383  13.433 -0.8418  0.2003 -0.4203
  619MPD2    C5 9224   1.885   3.469  13.470 -0.5028  0.2047  0.5265
  619MPD2     H 9225   1.522   3.579  13.448 -0.2441  0.6874  0.1889
  619MPD2    H1 9226   1.827   3.281  13.424 -2.9403 -0.5260 -0.4550
  619MPD2    H2 9227   1.922   3.668  13.547 -0.3406  1.1901  1.4575
  619MPD2    H3 9228   1.987   3.431  13.467 -0.7632 -0.3230 -1.6128
  619MPD2     N 9229   1.552   3.332  13.401 -0.0656  0.0625  0.7458
  619MPD2    H5 9230   1.464   3.363  13.440 -0.2511 -0.3000  0.6166
  619MPD2    N1 9231   1.683   3.752  13.567 -0.3847 -0.6863 -0.3057
  619MPD2    H7 9232   1.584   3.770  13.582 -0.4489 -2.4053  1.4134
  620TMC3    C1 9233   1.672   3.934  13.700  0.3698  0.9308  0.3200
  620TMC3    C2 9234   1.549   3.885  13.747 -0.0576  0.5640  0.4364
  620TMC3    C3 9235   1.463   3.974  13.813 -0.0087 -0.2029  0.1023
  620TMC3    C4 9236   1.709   4.062  13.711 -0.5001  0.3100  0.8012
  620TMC3    C5 9237   1.622   4.145  13.778 -0.5820 -0.2241  0.6734
  620TMC3    C6 9238   1.497   4.107  13.828  0.2842  0.0738 -0.2431
  620TMC3     C 9239   1.759   3.847  13.628 -0.1341 -0.3996  0.3459
  620TMC3     O 9240   1.882   3.868  13.631 -0.1510  0.4877  0.3589
  620TMC3     H 9241   1.520   3.781  13.755 -0.1588  0.5265 -0.3410
  620TMC3    H1 9242   1.810   4.087  13.681 -0.6553  0.8946  0.7604
  620TMC3    H2 9243   1.438   4.172  13.892 -0.0442  0.1400 -0.6111
  620TMC3    C7 9244   1.655   4.285  13.802 -0.3426 -0.0175 -0.1278
  620TMC3    C8 9245   1.326   3.941  13.838  0.2233  0.0799 -0.1926
  620TMC3    O1 9246   1.596   4.351  13.878  0.4990  0.4051 -0.0925
  620TMC3    O2 9247   1.250   4.035  13.852  0.7681 -0.1040  0.0388
  621MPD2     C 9248   1.961   3.969   9.321  0.7552  0.4717 -0.5190
  621MPD2    C1 9249   2.041   3.997   9.434  0.3737  0.1531 -0.1213
  621MPD2    C2 9250   2.104   4.117   9.437 -0.0319 -0.3131  0.2643
  621MPD2    C3 9251   2.106   4.203   9.330 -0.1507  0.3165 -0.1639
  621MPD2    C4 9252   2.049   4.169   9.214 -0.3284 -0.5083  0.2107
  621MPD2    C5 9253   1.966   4.059   9.218 -0.1889 -0.2481 -0.7099
  621MPD2     H 9254   2.148   4.153   9.529 -0.7841 -0.7776  0.8012
  621MPD2    H1 9255   2.038   4.226   9.123 -2.2569 -1.1223  0.0728
  621MPD2    H2 9256   1.904   3.878   9.309  1.8122 -0.0352 -1.7922
  621MPD2    H3 9257   1.903   4.045   9.131  0.0501  0.6362 -1.0217
  621MPD2     N 9258   2.175   4.323   9.337 -0.7133 -0.6511  0.4519
  621MPD2    H5 9259   2.223   4.332   9.426  1.0770 -5.0585 -0.0609
  621MPD2    N1 9260   2.043   3.912   9.549 -0.1085  0.0319 -0.3409
  621MPD2    H7 9261   2.084   3.952   9.632  2.3668  0.8004 -1.9342
  622TMC3    C1 9262   2.002   3.724   9.675 -0.5652 -0.6630 -0.4183
  622TMC3    C2 9263   1.985   3.593   9.676  0.7769 -0.1127 -0.7200
  622TMC3    C3 9264   1.944   3.537   9.793 -0.0953  0.2080  0.2549
  622TMC3    C4 9265   1.974   3.795   9.792 -0.2109 -0.5137 -0.0403
  622TMC3    C5 9266   1.938   3.735   9.908 -0.2013  0.2148  0.3595
  622TMC3    C6 9267   1.928   3.600   9.912 -0.2333  0.0599 -0.4171
  622TMC3     C 9268   1.998   3.781   9.546  0.5385  0.4522  0.2070
  622TMC3     O 9269   1.962   3.706   9.456  0.0188 -0.0923  0.1717
  622TMC3     H 9270   1.992   3.535   9.584 -2.7100 -1.6891  0.0274
  622TMC3    H1 9271   1.965   3.903   9.803 -0.6676 -0.6566  1.0444
  622TMC3    H2 9272   1.891   3.542   9.996 -1.5864  1.1985 -0.2283
  622TMC3    C7 9273   1.889   3.821  10.018  0.3063 -0.3751  0.3490
  622TMC3    C8 9274   1.860   3.424   9.776 -0.4982 -0.0696 -0.5093
  622TMC3    O1 9275   1.918   3.940  10.015 -0.7309  0.0838 -0.1046
  622TMC3    O2 9276   1.868   3.338   9.865  0.5995 -0.2551  0.0522
  623MPD2     C 9277   0.829   3.175  16.425 -1.1308  0.2927 -0.6130
  623MPD2    C1 9278   0.765   3.282  16.474  0.4270  0.3593 -0.0650
  623MPD2    C2 9279   0.806   3.334  16.595 -0.0573 -0.5151 -0.3714
  623MPD2    C3 9280   0.894   3.262  16.670 -0.0571 -0.5809  0.0675
  623MPD2    C4 9281   0.956   3.145  16.624  0.1435 -0.3508 -0.2111
  623MPD2    C5 9282   0.927   3.104  16.500 -0.6669 -0.0005  0.1426
  623MPD2     H 9283   0.754   3.421  16.633 -0.0631 -0.9189  0.5367
  623MPD2    H1 9284   1.024   3.087  16.685 -1.5526 -1.3468  0.7242
  623MPD2    H2 9285   0.809   3.144  16.324 -1.7933 -1.0286 -0.0719
  623MPD2    H3 9286   0.976   3.019  16.453  0.6812  0.7668  0.1838
  623MPD2     N 9287   0.919   3.307  16.800 -0.0504 -0.4237  0.3102
  623MPD2    H5 9288   0.900   3.405  16.818 -0.3392 -0.4310  0.0503
  623MPD2    N1 9289   0.656   3.344  16.406  0.5359 -0.3093  0.0540
  623MPD2    H7 9290   0.628   3.434  16.446 -0.6234 -1.2530  1.3585
  624TMC3    C1 9291   1.099   3.528  17.066 -1.0265  0.1531 -0.0315
  624TMC3    C2 9292   0.987   3.603  17.067 -0.2926 -0.4807 -0.4574
  624TMC3    C3 9293   0.867   3.540  17.048  0.3318  0.6233  0.2575
  624TMC3    C4 9294   1.106   3.396  17.028  0.0674 -0.0102  0.3008
  624TMC3    C5 9295   0.985   3.329  17.011 -1.0833 -0.1422 -0.1257
  624TMC3    C6 9296   0.867   3.405  17.036  0.0371  0.4061 -0.6424
  624TMC3     C 9297   1.225   3.594  17.096  0.4552 -0.2318  0.1320
  624TMC3     O 9298   1.220   3.715  17.102 -0.7688 -0.6864  0.1227
  624TMC3     H 9299   0.988   3.702  17.110  4.7207 -0.1195 -1.4246
  624TMC3    H1 9300   1.192   3.332  17.015  1.3341  1.2389  2.6877
  624TMC3    H2 9301   0.769   3.361  17.024 -0.3673  0.4915  2.3523
  624TMC3    C7 9302   0.983   3.241  16.902 -0.1113 -0.5988 -0.0635
  624TMC3    C8 9303   0.744   3.605  17.007  0.2199 -0.3708 -0.0818
  624TMC3    O1 9304   1.045   3.138  16.908 -0.1891  0.4819 -0.2084
  624TMC3    O2 9305   0.637   3.548  17.024 -0.2016 -0.1948 -0.3210
  625MPD2     C 9306   1.382   0.658   0.581 -0.7659 -0.2924 -0.4372
  625MPD2    C1 9307   1.467   0.768   0.583  0.0124  0.3375  0.5219
  625MPD2    C2 9308   1.605   0.736   0.608 -0.3015  0.2620  0.0060
  625MPD2    C3 9309   1.649   0.611   0.629  0.0782  0.0983 -0.1368
  625MPD2    C4 9310   1.560   0.506   0.616 -0.0456  0.2771  0.3230
  625MPD2    C5 9311   1.427   0.532   0.592  0.0907 -0.8730 -0.1745
  625MPD2     H 9312   1.675   0.819   0.619  0.2601 -0.2920  0.6186
  625MPD2    H1 9313   1.592   0.405   0.638 -1.8337 -0.6377 -1.2398
  625MPD2    H2 9314   1.275   0.666   0.566 -1.0173 -1.0682  1.0079
  625MPD2    H3 9315   1.361   0.447   0.592  0.2814 -1.0176 -0.6609
  625MPD2     N 9316   1.782   0.598   0.671 -0.7039  0.1758 -0.3214
  625MPD2    H5 9317   1.838   0.680   0.688 -0.4024  0.2703 -1.7778
  625MPD2    N1 9318   1.424   0.900   0.567 -0.4355 -0.1691 -0.2628
  625MPD2    H7 9319   1.489   0.975   0.587 -1.7483  1.1126 -0.8618
  626TMC3    C1 9320   1.272   1.079   0.540  0.7773 -0.0289  0.2391
  626TMC3    C2 9321   1.179   1.120   0.446  0.4529 -0.2377 -0.1528
  626TMC3    C3 9322   1.184   1.258   0.414 -0.0125 -0.6512 -0.2104
  626TMC3    C4 9323   1.354   1.168   0.608  0.4187 -0.5185  0.2744
  626TMC3    C5 9324   1.342   1.301   0.577  0.3985 -0.1758  0.1311
  626TMC3    C6 9325   1.271   1.342   0.475 -0.1166  0.1474 -0.3180
  626TMC3     C 9326   1.292   0.937   0.544 -0.4755  0.1498 -0.0439
  626TMC3     O 9327   1.202   0.860   0.508 -0.2076  0.4882 -0.3444
  626TMC3     H 9328   1.118   1.048   0.392  0.2282  1.5110 -2.2429
  626TMC3    H1 9329   1.414   1.139   0.694  1.5433  0.4422 -0.1936
  626TMC3    H2 9330   1.255   1.447   0.453  1.7561  0.4206 -0.3422
  626TMC3    C7 9331   1.353   1.388   0.688  0.7295  0.5500 -0.7443
  626TMC3    C8 9332   1.103   1.300   0.304  0.0436 -0.8503 -0.6419
  626TMC3    O1 9333   1.444   1.357   0.764 -0.0511 -0.7420  0.2250
  626TMC3    O2 9334   1.136   1.402   0.247  0.0934  0.1689  0.2137
  627MPD2     C 9335   4.315   0.689  14.475  0.5488  0.0352  0.7149
  627MPD2    C1 9336   4.349   0.642  14.602 -0.0318  0.4008  0.4407
  627MPD2    C2 9337   4.309   0.511  14.637 -0.5619  0.3823  0.2613
  627MPD2    C3 9338   4.221   0.440  14.554 -0.1246 -0.1211 -0.3357
  627MPD2    C4 9339   4.200   0.484  14.424  0.3327 -0.1647  0.5715
  627MPD2    C5 9340   4.241   0.611  14.393  0.2407  0.3316  0.0612
  627MPD2     H 9341   4.358   0.472  14.725 -0.9982  1.5578  1.0360
  627MPD2    H1 9342   4.141   0.438  14.346 -1.4774  2.9693  0.0985
  627MPD2    H2 9343   4.337   0.793  14.450 -2.4473  0.8167  1.4099
  627MPD2    H3 9344   4.205   0.655  14.301  0.1775  1.2702  0.5358
  627MPD2     N 9345   4.172   0.313  14.594  0.7850  0.1566  0.2020
  627MPD2    H5 9346   4.206   0.298  14.689  0.3733  1.5760  0.5805
  627MPD2    N1 9347   4.431   0.710  14.687 -0.2102 -0.3389  0.0219
  627MPD2    H7 9348   4.467   0.659  14.768 -1.5295  2.1269  2.1506
  628TMC3    C1 9349   4.599   0.869  14.754 -0.7111 -0.2847  0.0054
  628TMC3    C2 9350   4.696   0.776  14.779 -0.0109  0.6519 -0.0302
  628TMC3    C3 9351   0.080   0.816  14.834 -0.3069  0.2455  0.7939
  628TMC3    C4 9352   4.623   1.003  14.762 -0.1686 -0.5035 -0.2028
  628TMC3    C5 9353   0.016   1.043  14.810  0.9041  0.6974 -0.1832
  628TMC3    C6 9354   0.112   0.953  14.856 -0.1719  0.2222 -0.3966
  628TMC3     C 9355   4.481   0.840  14.673  0.3331  0.0997  0.6763
  628TMC3     O 9356   4.436   0.939  14.613  0.5342 -0.7276 -0.2243
  628TMC3     H 9357   4.674   0.671  14.795 -0.6053  0.6942 -0.5957
  628TMC3    H1 9358   4.542   1.076  14.766  1.5937  1.3722  1.0918
  628TMC3    H2 9359   0.195   0.990  14.915 -0.4874  0.5615 -0.1649
  628TMC3    C7 9360   0.047   1.185  14.830 -0.7659  0.3240 -0.0139
  628TMC3    C8 9361   0.188   0.718  14.824 -0.6275 -0.0324  0.0156
  628TMC3    O1 9362   0.137   1.222  14.897 -0.3568  0.3131 -1.0931
  628TMC3    O2 9363   0.164   0.600  14.855 -0.5152  0.0564 -0.2530
  629MPD2     C 9364   3.249   4.010  16.514  0.2129  0.8900 -0.3458
  629MPD2    C1 9365   3.156   4.057  16.601 -0.1027  0.4062 -0.0598
  629MPD2    C2 9366   3.030   3.997  16.607 -0.1533  0.1193  0.8372
  629MPD2    C3 9367   2.996   3.889  16.522  0.4544 -0.8796  0.3438
  629MPD2    C4 9368   3.097   3.840  16.442  0.0167  0.3793 -0.2748
  629MPD2    C5 9369   3.221   3.902  16.441 -0.4113  0.6284  0.8381
  629MPD2     H 9370   2.947   4.031  16.668  0.6102  0.9974  1.3743
  629MPD2    H1 9371   3.091   3.751  16.381  0.2862 -1.4021  2.2527
  629MPD2    H2 9372   3.340   4.067  16.498  0.4670  0.6996  0.4653
  629MPD2    H3 9373   3.290   3.861  16.369 -1.7032  0.7779 -0.4980
  629MPD2     N 9374   2.863   3.849  16.517  0.1100 -0.1360  0.2003
  629MPD2    H5 9375   2.804   3.931  16.531 -2.1602 -1.5353 -1.2599
  629MPD2    N1 9376   3.200   4.163  16.685  0.5261 -0.3033 -0.0418
  629MPD2    H7 9377   3.278   4.220  16.655 -1.4043  1.7974 -1.1005
  630TMC3    C1 9378   3.196   4.270  16.896  0.4563  0.0064 -0.4766
  630TMC3    C2 9379   3.263   4.374  16.848  0.1567 -0.8495 -0.1127
  630TMC3    C3 9380   3.349   4.449  16.924  0.7438  0.7962  0.4676
  630TMC3    C4 9381   3.224   4.230  17.026 -0.7915 -0.3873  0.2167
  630TMC3    C5 9382   3.312   4.300  17.100 -0.3744 -0.2884  0.0715
  630TMC3    C6 9383   3.378   4.410  17.054 -0.1723  0.3969  0.9577
  630TMC3     C 9384   3.134   4.182  16.806  0.8599  0.8428 -0.0558
  630TMC3     O 9385   3.048   4.111  16.862  0.3604 -0.1558  0.1708
  630TMC3     H 9386   3.238   4.398  16.745  1.7232 -1.2329 -0.5877
  630TMC3    H1 9387   3.200   4.129  17.058  2.4692 -0.9085  0.9836
  630TMC3    H2 9388   3.439   4.468  17.123 -2.2967  1.3834  2.0192
  630TMC3    C7 9389   3.362   4.245  17.226  0.7225 -0.3350  1.1347
  630TMC3    C8 9390   3.430   4.558  16.874  0.2272 -0.4461  0.1205
  630TMC3    O1 9391   3.281   4.201  17.304  0.0778  0.1001  0.2064
  630TMC3    O2 9392   3.521   4.603  16.950 -0.4271  0.2385  0.7480
  631MPD2     C 9393   1.283   4.305  15.733  0.3743 -0.1716 -0.5910
  631MPD2    C1 9394   1.357   4.399  15.673  0.3328 -0.3926  1.1772
  631MPD2    C2 9395   1.485   4.356  15.628 -0.3315 -0.1504  0.0451
  631MPD2    C3 9396   1.532   4.230  15.648  0.3913 -0.7592  0.2409
  631MPD2    C4 9397   1.444   4.135  15.700 -0.4660 -0.1075  0.3765
  631MPD2    C5 9398   1.331   4.180  15.759  0.1342 -0.6191 -0.2890
  631MPD2     H 9399   1.555   4.427  15.585  0.1759 -1.0646 -0.6537
  631MPD2    H1 9400   1.463   4.029  15.713 -0.1393 -0.1191 -0.1689
  631MPD2    H2 9401   1.192   4.336  15.783  1.6364  2.3600  0.1234
  631MPD2    H3 9402   1.264   4.111  15.809 -0.0003  0.0192  0.4096
  631MPD2     N 9403   1.662   4.203  15.601 -0.0921 -0.9005  0.3264
  631MPD2    H5 9404   1.710   4.277  15.551  1.1272 -1.5311  0.5652
  631MPD2    N1 9405   1.305   4.533  15.651  0.1656 -0.0865 -0.4007
  631MPD2    H7 9406   1.213   4.547  15.692 -0.7614 -1.9139 -1.8151
  632TMC3    C1 9407   1.263   4.718  15.518 -0.2344 -0.4091  0.4400
  632TMC3    C2 9408   1.135   4.690  15.544  0.2686  0.6291 -0.8919
  632TMC3    C3 9409   1.044   4.661  15.446  0.2223 -0.3932 -0.6087
  632TMC3    C4 9410   1.302   0.016  15.398  0.2162 -0.8857 -0.4095
  632TMC3    C5 9411   1.214   4.708  15.296  0.6492  0.2140  0.2886
  632TMC3    C6 9412   1.082   4.659  15.314  0.3214 -0.4045  0.4294
  632TMC3     C 9413   1.364   4.637  15.588 -1.1325 -0.1804  0.2907
  632TMC3     O 9414   1.479   4.645  15.549 -0.6126 -1.3255 -0.1890
  632TMC3     H 9415   1.106   4.671  15.646  0.8361 -1.0777 -1.0604
  632TMC3    H1 9416   1.397   0.059  15.368  0.2111  1.5137  3.0000
  632TMC3    H2 9417   1.011   4.648  15.233  0.9022  1.6347 -0.3337
  632TMC3    C7 9418   1.274   4.659  15.176 -0.5092  0.3493 -0.7974
  632TMC3    C8 9419   0.949   4.553  15.485  0.1522 -0.5828  0.6479
  632TMC3    O1 9420   1.192   4.634  15.085  0.2548  0.7982 -0.4193
  632TMC3    O2 9421   0.965   4.498  15.594 -0.3897 -0.1342 -0.0560
  633MPD2     C 9422   1.330   1.946  17.709 -0.3078 -0.3750  0.2111
  633MPD2    C1 9423   1.444   1.945  17.640  0.1417  0.2491 -0.1271
  633MPD2    C2 9424   1.522   1.830  17.647 -0.1049  0.9546 -0.4284
  633MPD2    C3 9425   1.481   1.709  17.704 -0.4135 -0.6954 -0.8840
  633MPD2    C4 9426   1.359   1.714   0.049  0.2306 -0.4052 -0.3434
  633MPD2    C5 9427   1.289   1.831   0.045 -0.6764  0.0300  0.4892
  633MPD2     H 9428   1.615   1.825  17.592  0.8408  0.0613  1.2625
  633MPD2    H1 9429   1.326   1.628   0.105  0.3499 -0.0396  0.2863
  633MPD2    H2 9430   1.265   2.034  17.710 -0.0521 -0.1852  0.0922
  633MPD2    H3 9431   1.188   1.827   0.085 -0.6220  0.4767  0.6741
  633MPD2     N 9432   1.541   1.589  17.697 -0.4551 -0.8752 -0.2388
  633MPD2    H5 9433   1.483   1.511   0.002  0.2216 -1.1965  0.2140
  633MPD2    N1 9434   1.477   2.042  17.542  0.2982  0.0559  0.1097
  633MPD2    H7 9435   1.560   2.020  17.488  0.3233  0.3473  0.0333
  634TMC3    C1 9436   1.483   2.250  17.438 -0.5087  0.3500  0.6139
  634TMC3    C2 9437   1.561   2.189  17.338  0.0688 -0.0154  0.1770
  634TMC3    C3 9438   1.622   2.263  17.242  0.0607  0.6085  0.1949
  634TMC3    C4 9439   1.455   2.385  17.433 -0.2050  0.2339 -0.5327
  634TMC3    C5 9440   1.516   2.457  17.329 -0.9896 -0.1130  0.3409
  634TMC3    C6 9441   1.607   2.402  17.244 -0.1622 -0.0268 -0.2786
  634TMC3     C 9442   1.415   2.164  17.530 -0.0225 -0.1267  1.0486
  634TMC3     O 9443   1.327   2.221  17.593 -0.3424  0.0538 -0.2996
  634TMC3     H 9444   1.569   2.081  17.338 -0.1745 -0.0357  0.4927
  634TMC3    H1 9445   1.379   2.425  17.500 -0.7640  1.3280 -1.8311
  634TMC3    H2 9446   1.669   2.472  17.189  1.7496  1.3027  3.5640
  634TMC3    C7 9447   1.460   2.579  17.279  0.0499 -0.0003  0.0295
  634TMC3    C8 9448   1.668   2.194  17.125 -0.3950 -0.2186  0.2730
  634TMC3    O1 9449   1.509   2.614  17.173  0.2569  0.4315  0.3949
  634TMC3    O2 9450   1.663   2.071  17.132 -0.2592  0.2343  0.2995
  635TMC3    C1 9451   0.888   3.690   0.454  0.2890  0.0116 -0.1450
  635TMC3    C2 9452   0.761   3.657   0.494  0.5531  0.5359 -0.1499
  635TMC3    C3 9453   0.750   3.533   0.556  0.6154 -0.1126  0.8720
  635TMC3    C4 9454   0.999   3.611   0.471 -0.1853 -0.4400  0.2165
  635TMC3    C5 9455   0.981   3.494   0.536 -0.4838  0.6233 -0.0055
  635TMC3    C6 9456   0.856   3.446   0.565  0.5506  0.0785 -0.0859
  635TMC3     C 9457   0.918   3.826   0.431 -0.1488  0.1599 -0.4796
  635TMC3     O 9458   1.032   3.864   0.467  0.2785 -0.0826 -0.3279
  635TMC3     H 9459   0.674   3.722   0.493  1.3367  1.5988  0.7125
  635TMC3    H1 9460   1.094   3.652   0.441 -1.2704  2.2598  0.4753
  635TMC3    H2 9461   0.848   3.355   0.624  0.8262 -0.0369 -0.2253
  635TMC3    C7 9462   1.081   3.393   0.528  0.3522  0.5345 -0.4696
  635TMC3    C8 9463   0.624   3.493   0.603  0.1052 -0.8413  0.2348
  635TMC3    O1 9464   1.047   3.277   0.532 -0.0396  0.3479  0.4825
  635TMC3    O2 9465   0.583   3.390   0.554 -0.4462 -0.7678 -0.0559
  636MPD2     C 9466   2.326   2.747  16.471 -0.2708  0.3265 -0.1636
  636MPD2    C1 9467   2.417   2.765  16.577  0.2373 -0.2900 -0.0173
  636MPD2    C2 9468   2.520   2.677  16.596 -0.4836 -0.4820  0.3202
  636MPD2    C3 9469   2.532   2.566  16.519 -0.0282  0.3943 -0.7584
  636MPD2    C4 9470   2.453   2.559  16.408  0.6642  0.4088  0.2773
  636MPD2    C5 9471   2.345   2.646  16.382  0.2230 -0.3466  0.2639
  636MPD2     H 9472   2.591   2.694  16.676 -1.0125 -0.5080  0.7904
  636MPD2    H1 9473   2.462   2.481  16.333 -0.7089 -0.2881  0.8351
  636MPD2    H2 9474   2.254   2.822  16.440  0.7371  0.9338 -1.0435
  636MPD2    H3 9475   2.279   2.627  16.299  2.3526 -2.0677 -1.0144
  636MPD2     N 9476   2.640   2.476  16.548  0.2113  0.3995  0.3336
  636MPD2    H5 9477   2.695   2.483  16.634 -1.2169  2.7862  1.0582
  636MPD2    N1 9478   2.407   2.888  16.657 -0.1879  0.4362 -0.2734
  636MPD2    H7 9479   2.490   2.912  16.711 -0.5549 -2.8627  1.7925
  637TMC3    C1 9480   2.773   2.291  16.538  0.0027  1.0249  0.0436
  637TMC3    C2 9481   2.758   2.302  16.675  0.3005 -0.1421 -0.3179
  637TMC3    C3 9482   2.869   2.325  16.751 -0.9337 -0.0922 -0.0893
  637TMC3    C4 9483   2.890   2.261  16.481  0.2684  0.1593  0.8300
  637TMC3    C5 9484   3.006   2.282  16.557 -1.0517 -0.3184  0.3751
  637TMC3    C6 9485   2.991   2.306  16.688  0.1469 -0.1562  0.3350
  637TMC3     C 9486   2.686   2.377  16.464  0.4727  0.2570  0.0777
  637TMC3     O 9487   2.667   2.374  16.342 -0.4717  0.0627  1.0635
  637TMC3     H 9488   2.657   2.311  16.714  0.1669 -2.4275 -0.1091
  637TMC3    H1 9489   2.895   2.240  16.375 -0.2621  1.7762  0.4859
  637TMC3    H2 9490   3.082   2.318  16.746  1.4862  3.0499 -2.4878
  637TMC3    C7 9491   3.130   2.227  16.512  0.6521  0.3070 -0.4347
  637TMC3    C8 9492   2.858   2.451  16.819  0.5971 -0.2590  0.3243
  637TMC3    O1 9493   3.166   2.148  16.597  0.4845 -0.0283 -0.2908
  637TMC3    O2 9494   2.756   2.510  16.788  0.2823 -0.4752 -0.5267
  638MPD2     C 9495   2.309   1.358  15.046 -0.0297 -0.0501  0.4077
  638MPD2    C1 9496   2.224   1.267  14.996  0.4962  0.0296  0.4416
  638MPD2    C2 9497   2.148   1.190  15.086  0.1678  0.5431 -0.7733
  638MPD2    C3 9498   2.179   1.193  15.223 -0.2066 -0.1648  0.7671
  638MPD2    C4 9499   2.275   1.282  15.271 -0.3383 -0.1904 -0.2760
  638MPD2    C5 9500   2.339   1.361  15.175  0.0075  0.3202 -0.3622
  638MPD2     H 9501   2.069   1.125  15.049  1.9556 -1.0196 -1.8463
  638MPD2    H1 9502   2.306   1.307  15.372 -0.9590  1.2435 -0.4428
  638MPD2    H2 9503   2.367   1.419  14.977 -1.2116 -1.8239 -2.1611
  638MPD2    H3 9504   2.408   1.437  15.211  0.5608 -0.0309 -0.6741
  638MPD2     N 9505   2.111   1.110  15.316  0.4460  0.0936  0.9361
  638MPD2    H5 9506   2.146   1.126  15.410 -2.2435  0.1293  1.9350
  638MPD2    N1 9507   2.218   1.257  14.856 -0.0298 -0.7694 -0.7993
  638MPD2    H7 9508   2.281   1.311  14.799  2.5293 -2.4470  0.4394
  639TMC3    C1 9509   1.987   0.921  15.372  0.1043 -0.2117 -0.3058
  639TMC3    C2 9510   1.891   0.832  15.326  0.1329 -0.0467 -0.0373
  639TMC3    C3 9511   1.939   0.705  15.298  0.5790  0.2191  0.0395
  639TMC3    C4 9512   2.108   0.877  15.421  0.1233  0.5135  0.5298
  639TMC3    C5 9513   2.132   0.747  15.403  0.2517 -0.7060  0.3614
  639TMC3    C6 9514   2.057   0.663  15.335  0.7230 -0.1899 -1.0661
  639TMC3     C 9515   1.997   1.035  15.284 -0.1790  0.2009  0.4610
  639TMC3     O 9516   1.914   1.049  15.197  0.4152 -0.5599  0.0014
  639TMC3     H 9517   1.793   0.864  15.291  1.6338  2.5434 -1.8650
  639TMC3    H1 9518   2.184   0.926  15.480 -0.8908  0.4927  1.8632
  639TMC3    H2 9519   2.096   0.562  15.339 -0.2112 -0.5181 -0.2742
  639TMC3    C7 9520   2.259   0.696  15.455 -0.0287 -0.3077 -0.4907
  639TMC3    C8 9521   1.860   0.601  15.233 -0.7829 -0.5731  0.5239
  639TMC3    O1 9522   2.302   0.740  15.557  0.2229  0.4814  0.0146
  639TMC3    O2 9523   1.923   0.540  15.150  0.2998 -0.0238  0.1862
  640MPD2     C 9524   2.154   0.265   9.846 -0.0842 -0.5684  0.3164
  640MPD2    C1 9525   2.224   0.378   9.818  0.4104 -0.4478 -0.2183
  640MPD2    C2 9526   2.215   0.488   9.899  0.0117  0.0100 -0.3968
  640MPD2    C3 9527   2.131   0.488  10.014 -0.1862  0.7620 -0.5384
  640MPD2    C4 9528   2.051   0.378  10.036 -0.3676  0.1500 -0.6298
  640MPD2    C5 9529   2.068   0.268   9.958 -0.2133 -0.2107 -0.3284
  640MPD2     H 9530   2.259   0.583   9.872  0.6082 -0.1182  0.1390
  640MPD2    H1 9531   1.989   0.363  10.124  0.9476  1.3431  0.4943
  640MPD2    H2 9532   2.160   0.170   9.795  1.4301 -0.0172 -0.5276
  640MPD2    H3 9533   2.005   0.181   9.971  0.0533 -0.4185 -0.4398
  640MPD2     N 9534   2.111   0.598  10.096  0.5790  0.3832 -0.1161
  640MPD2    H5 9535   2.049   0.584  10.175  0.5686 -0.4392 -0.2763
  640MPD2    N1 9536   2.304   0.373   9.707  0.4213 -0.3066 -0.4394
  640MPD2    H7 9537   2.273   0.306   9.638  1.2457 -1.3240  0.1813
  641TMC3    C1 9538   2.445   0.462   9.532  0.4559  0.6689  0.1708
  641TMC3    C2 9539   2.576   0.474   9.512 -0.3027  0.2902 -0.0530
  641TMC3    C3 9540   2.622   0.427   9.391  0.0193  0.2474 -0.2012
  641TMC3    C4 9541   2.356   0.405   9.438 -0.4995 -0.6908  0.0007
  641TMC3    C5 9542   2.414   0.348   9.326 -0.5873  0.3109 -0.1892
  641TMC3    C6 9543   2.548   0.355   9.303 -0.4791 -0.2638 -0.2759
  641TMC3     C 9544   2.402   0.461   9.668  1.0678  0.5895  0.0354
  641TMC3     O 9545   2.458   0.548   9.736 -0.4218  0.0325 -0.4162
  641TMC3     H 9546   2.636   0.513   9.593  1.5389 -1.1774 -0.7252
  641TMC3    H1 9547   2.253   0.395   9.471 -0.6208 -0.0341 -0.1884
  641TMC3    H2 9548   2.596   0.313   9.216 -0.2136  0.1980 -0.3497
  641TMC3    C7 9549   2.326   0.296   9.224 -0.3266  0.3162 -0.1750
  641TMC3    C8 9550   2.759   0.387   9.407  0.0921 -0.4950  1.0255
  641TMC3    O1 9551   2.212   0.328   9.222 -0.2925 -0.1434  0.6434
  641TMC3    O2 9552   2.795   0.269   9.397  0.2647  0.1624 -0.9087
  642TMC3    C1 9553   3.167   1.171  12.610  0.7499 -0.5041  0.0028
  642TMC3    C2 9554   3.296   1.175  12.654 -0.1563 -0.3606 -0.4504
  642TMC3    C3 9555   3.363   1.054  12.659  0.5510  0.3021  0.1413
  642TMC3    C4 9556   3.099   1.061  12.592  0.0063 -0.3235 -0.1367
  642TMC3    C5 9557   3.164   0.941  12.604 -0.5539  0.5276  0.0938
  642TMC3    C6 9558   3.296   0.932  12.633  0.1434 -0.7708 -0.2099
  642TMC3     C 9559   3.105   1.304  12.602 -0.1082 -0.3413 -0.2838
  642TMC3     O 9560   3.176   1.403  12.590  0.0132  0.2503 -0.8960
  642TMC3     H 9561   3.347   1.270  12.655  0.0212 -0.4599 -0.1724
  642TMC3    H1 9562   2.998   1.070  12.553 -0.5730 -0.9531  1.2100
  642TMC3    H2 9563   3.338   0.833  12.641  0.7354 -0.5631 -0.7400
  642TMC3    C7 9564   3.088   0.827  12.574 -0.0499 -0.7685 -0.1674
  642TMC3    C8 9565   3.506   1.047  12.652 -0.6794  0.0855  0.0897
  642TMC3    O1 9566   2.996   0.848  12.495 -0.0058 -0.0834  0.3434
  642TMC3    O2 9567   3.565   0.946  12.617 -0.7079  0.1003 -0.1293
  643TMC3    C1 9568   3.159   0.113   0.538  0.5318 -0.1790 -0.0099
  643TMC3    C2 9569   3.033   0.152   0.517 -0.4959  0.5021 -0.3463
  643TMC3    C3 9570   2.984   0.142   0.391  0.0613  0.2078  0.8864
  643TMC3    C4 9571   3.238   0.070   0.432 -0.0423 -0.4388  0.6400
  643TMC3    C5 9572   3.189   0.066   0.306 -0.4450  0.1749 -0.6152
  643TMC3    C6 9573   3.056   0.091   0.287 -0.5017 -0.4824 -0.0901
  643TMC3     C 9574   3.223   0.162   0.664 -0.1100 -0.5338  0.5508
  643TMC3     O 9575   3.158   0.247   0.726 -0.3377  0.3076  0.4970
  643TMC3     H 9576   2.964   0.190   0.591  0.5209 -0.7912  1.2705
  643TMC3    H1 9577   3.345   0.058   0.446  0.2559  0.2797 -1.0936
  643TMC3    H2 9578   3.004   0.099   0.192  2.8943 -1.3992 -2.0237
  643TMC3    C7 9579   3.284   0.044   0.193 -0.3706 -0.1733  0.2790
  643TMC3    C8 9580   2.875   0.238   0.368  0.1558  0.5427 -0.1298
  643TMC3    O1 9581   3.399   0.013   0.226  0.1235  0.4203  0.2567
  643TMC3    O2 9582   2.793   0.219   0.279  0.0781  0.4748  0.4199
  644MPD2     C 9583   3.129   4.016   8.750  0.1013  0.4400  0.0321
  644MPD2    C1 9584   3.141   4.130   8.831  0.1216  1.3329 -0.1121
  644MPD2    C2 9585   3.039   4.223   8.823  0.1038 -0.4147  0.4910
  644MPD2    C3 9586   2.927   4.206   8.741 -0.2395  0.6231  0.6612
  644MPD2    C4 9587   2.913   4.085   8.676 -0.7293  0.6297  0.0469
  644MPD2    C5 9588   3.009   3.989   8.681 -0.1916 -0.3539 -0.5193
  644MPD2     H 9589   3.050   4.320   8.871  1.8443 -0.1596 -0.4207
  644MPD2    H1 9590   2.837   4.072   8.600 -0.4060  3.3613 -0.7557
  644MPD2    H2 9591   3.194   3.930   8.752  0.4577  0.7152  0.2575
  644MPD2    H3 9592   2.993   3.891   8.637 -1.1973 -0.3466 -0.1610
  644MPD2     N 9593   2.830   4.307   8.733 -0.2443  0.1574 -0.5046
  644MPD2    H5 9594   2.853   4.386   8.793  0.7671 -0.1527 -0.4837
  644MPD2    N1 9595   3.262   4.154   8.896 -0.0423 -0.1929  0.1280
  644MPD2    H7 9596   3.331   4.085   8.869 -1.4736 -1.3426 -0.5846
  645TMC3    C1 9597   2.665   4.448   8.643 -0.2551 -0.2681  0.6422
  645TMC3    C2 9598   2.729   4.556   8.692 -0.0216  0.2692  0.6583
  645TMC3    C3 9599   2.665   4.680   8.679  0.5134 -0.2044  0.9157
  645TMC3    C4 9600   2.546   4.461   8.580 -0.4111 -0.3948  0.2739
  645TMC3    C5 9601   2.477   4.579   8.580 -0.4396 -0.4888 -0.8800
  645TMC3    C6 9602   2.533   4.692   8.633  0.3761  0.6357  0.3545
  645TMC3     C 9603   2.723   4.315   8.649  0.4923 -0.5872  0.5523
  645TMC3     O 9604   2.672   4.224   8.582  0.4887  1.1526  0.3624
  645TMC3     H 9605   2.832   4.556   8.726  1.0999  0.6439 -2.6636
  645TMC3    H1 9606   2.503   4.377   8.526 -2.3393 -0.0927  1.3465
  645TMC3    H2 9607   2.498   0.060   8.608 -1.0170 -0.2063 -1.0570
  645TMC3    C7 9608   2.339   4.569   8.532 -0.2745  0.1504 -0.0249
  645TMC3    C8 9609   2.730   0.058   8.739  0.3071 -0.6702  0.1928
  645TMC3    O1 9610   2.299   4.464   8.482  0.5378  0.7098 -0.8832
  645TMC3    O2 9611   2.856   0.061   8.738  0.3694  0.0242  0.2831
  646MPD2     C 9612   2.278   4.488  14.822 -0.1179 -0.7897 -0.0872
  646MPD2    C1 9613   2.187   4.513  14.924  0.2399  0.8537 -0.1068
  646MPD2    C2 9614   2.078   4.594  14.895  0.4982  0.3356  0.2030
  646MPD2    C3 9615   2.040   4.618  14.764 -0.0740  0.4826 -0.8002
  646MPD2    C4 9616   2.124   4.574  14.668 -0.1617 -0.2138 -0.5414
  646MPD2    C5 9617   2.244   4.511  14.692  0.0393  0.4351 -0.2771
  646MPD2     H 9618   2.024   4.641  14.976 -0.0889  0.6800 -0.3863
  646MPD2    H1 9619   2.105   4.603  14.565  1.3427 -0.4916 -0.9015
  646MPD2    H2 9620   2.365   4.423  14.835 -0.3906 -1.6768 -2.6172
  646MPD2    H3 9621   2.308   4.488  14.608  0.7806  1.7487 -0.0641
  646MPD2     N 9622   1.923   4.685  14.741 -0.1062  0.4719  0.6955
  646MPD2    H5 9623   1.882   0.002  14.821 -1.7071  0.0362  0.1370
  646MPD2    N1 9624   2.228   4.490  15.059 -0.0747  0.0386 -0.5703
  646MPD2    H7 9625   2.324   4.460  15.076 -0.6406 -1.6446 -0.3947
  647TMC3    C1 9626   2.219   4.484  15.296 -0.2531  0.1043  0.6866
  647TMC3    C2 9627   2.161   4.372  15.347  0.4478 -0.0790 -0.4715
  647TMC3    C3 9628   2.245   4.291  15.419  0.7103  1.3399 -0.5583
  647TMC3    C4 9629   2.352   4.512  15.305 -0.4074 -0.2652 -0.3890
  647TMC3    C5 9630   2.417   4.442  15.395 -0.1394 -0.5833  0.2203
  647TMC3    C6 9631   2.369   4.332  15.462 -0.3758  0.8902 -0.0628
  647TMC3     C 9632   2.152   4.517  15.171  0.1428  0.7511  0.3614
  647TMC3     O 9633   2.030   4.537  15.177 -0.2593  0.1806 -0.0643
  647TMC3     H 9634   2.060   4.339  15.323  0.8186 -0.6143 -1.3163
  647TMC3    H1 9635   2.399   4.589  15.245  1.7215  0.6469  2.3909
  647TMC3    H2 9636   2.434   4.274  15.526 -0.2167 -0.0862 -1.1098
  647TMC3    C7 9637   2.563   4.431  15.369 -0.1903  0.5230 -0.4071
  647TMC3    C8 9638   2.200   4.162  15.451  0.7503  0.4447 -0.2775
  647TMC3    O1 9639   2.603   4.315  15.363  0.0613 -0.1947 -0.5688
  647TMC3    O2 9640   2.080   4.140  15.424  0.4480  0.5236 -0.1168
  648TMC3    C1 9641   2.202   2.393  16.739  0.3407  0.9063 -0.2240
  648TMC3    C2 9642   2.278   2.294  16.696  0.5249  0.5533  0.1626
  648TMC3    C3 9643   2.277   2.254  16.564  0.3620 -0.3368  0.7394
  648TMC3    C4 9644   2.121   2.465  16.649  0.3692 -0.0619 -0.5530
  648TMC3    C5 9645   2.115   2.417  16.518  0.4817  0.1113 -0.0534
  648TMC3    C6 9646   2.195   2.313  16.473 -0.2247 -0.4578  0.1154
  648TMC3     C 9647   2.163   2.404  16.878  0.1391 -0.6554 -0.2523
  648TMC3     O 9648   2.127   2.516  16.921  0.3697  0.4050 -0.1591
  648TMC3     H 9649   2.355   2.261  16.764  1.4472  3.6961  0.6576
  648TMC3    H1 9650   2.031   2.514  16.684  0.5087 -0.7621  0.7659
  648TMC3    H2 9651   2.178   2.287  16.369  2.2530  1.0323 -0.6780
  648TMC3    C7 9652   2.005   2.447  16.427  0.3366  0.9231  0.0858
  648TMC3    C8 9653   2.392   2.173  16.519  0.3795  0.1963 -0.4348
  648TMC3    O1 9654   1.981   2.370  16.330 -0.3915  0.2895 -0.0431
  648TMC3    O2 9655   2.485   2.153  16.599 -0.2622  0.1875  0.5922
  649TMC3    C1 9656   0.392   3.433  12.636 -0.4730  0.0311  0.9650
  649TMC3    C2 9657   0.496   3.519  12.625  0.1055  0.8162 -0.2657
  649TMC3    C3 9658   0.590   3.516  12.724 -0.0046 -0.3735 -0.6072
  649TMC3    C4 9659   0.389   3.339  12.732 -0.0704 -0.1777 -0.2570
  649TMC3    C5 9660   0.484   3.352  12.832 -0.1866  0.3817  0.6493
  649TMC3    C6 9661   0.589   3.441  12.833  0.7024 -0.4530  0.5716
  649TMC3     C 9662   0.269   3.457  12.560 -0.3047 -0.6083 -0.4898
  649TMC3     O 9663   0.162   3.449  12.611 -0.2335 -0.3382 -0.3972
  649TMC3     H 9664   0.507   3.585  12.539 -3.3497  2.1000  0.2761
  649TMC3    H1 9665   0.300   3.281  12.754 -0.4535  0.9801  1.2309
  649TMC3    H2 9666   0.663   3.444  12.911 -0.2524  0.9113  1.4177
  649TMC3    C7 9667   0.483   3.264  12.948 -0.1186 -0.1870  0.2288
  649TMC3    C8 9668   0.703   3.611  12.704  0.1306 -0.2030 -0.2052
  649TMC3    O1 9669   0.525   3.309  13.055  0.0313 -0.3973 -0.0198
  649TMC3    O2 9670   0.680   3.708  12.631 -0.7947 -0.0972  0.3104
  650TMC3    C1 9671   2.348   0.389  12.554  0.0678 -0.2110 -0.1861
  650TMC3    C2 9672   2.247   0.476  12.589 -0.0911  0.1729 -0.4184
  650TMC3    C3 9673   2.170   0.528  12.493 -0.4326  0.4848 -0.2040
  650TMC3    C4 9674   2.382   0.356  12.426  0.0408  0.2398  0.3864
  650TMC3    C5 9675   2.312   0.427  12.334  0.2156  0.0830  1.0731
  650TMC3    C6 9676   2.206   0.507  12.366 -0.4967  0.0009 -0.1583
  650TMC3     C 9677   2.427   0.334  12.665  0.3846 -0.1246 -0.1652
  650TMC3     O 9678   2.408   0.382  12.774 -0.1933  0.4012 -0.2347
  650TMC3     H 9679   2.229   0.489  12.695  1.5071  1.9928 -0.3574
  650TMC3    H1 9680   2.465   0.291  12.399  1.0294  0.9167  1.7715
  650TMC3    H2 9681   2.148   0.540  12.281  1.1296  5.1417  0.7336
  650TMC3    C7 9682   2.398   0.485  12.233  1.1391 -0.3827  0.1331
  650TMC3    C8 9683   2.096   0.652  12.523  0.1718 -0.2949 -0.3622
  650TMC3    O1 9684   2.499   0.422  12.212 -0.2945  0.0009  0.0827
  650TMC3    O2 9685   2.085   0.728  12.427  0.4801 -0.0859 -0.4240
  651MPD2     C 9686   1.767   2.693  11.181 -0.9509 -0.1618 -0.4143
  651MPD2    C1 9687   1.704   2.762  11.079 -0.5596  0.1413  0.4116
  651MPD2    C2 9688   1.776   2.863  11.026 -0.0860 -0.3395 -0.1728
  651MPD2    C3 9689   1.909   2.891  11.056  0.1510 -0.0330 -0.0362
  651MPD2    C4 9690   1.977   2.809  11.146  0.6636 -0.2400  0.0071
  651MPD2    C5 9691   1.897   2.717  11.210 -0.7282 -0.6067  0.5877
  651MPD2     H 9692   1.729   2.914  10.942 -0.5614 -0.1720  0.1894
  651MPD2    H1 9693   2.081   2.812  11.177  0.8528 -2.1995 -0.3798
  651MPD2    H2 9694   1.720   2.612  11.236 -0.8936  0.2280  0.1981
  651MPD2    H3 9695   1.944   2.649  11.280  1.7858  1.8773  1.2636
  651MPD2     N 9696   1.968   3.008  11.011 -0.1468 -0.1681  0.5977
  651MPD2    H5 9697   1.910   3.061  10.946  0.4835  2.0314  1.8427
  651MPD2    N1 9698   1.566   2.739  11.034 -0.8498  0.3200 -0.6466
  651MPD2    H7 9699   1.538   2.784  10.947 -0.9396  1.6263  0.0565
  652TMC3    C1 9700   2.292   3.351  10.994 -0.4280  0.4454 -0.2342
  652TMC3    C2 9701   2.241   3.236  11.053  0.3332 -0.0262  0.1862
  652TMC3    C3 9702   2.147   3.170  10.980 -0.0007 -0.2186  0.2575
  652TMC3    C4 9703   2.272   3.377  10.860 -0.0960 -0.3520  0.3195
  652TMC3    C5 9704   2.193   3.292  10.788 -0.3382 -0.0340  0.6493
  652TMC3    C6 9705   2.114   3.198  10.855 -0.6109  0.5589 -0.0578
  652TMC3     C 9706   2.409   3.414  11.056  0.4461  0.1972  0.2606
  652TMC3     O 9707   2.499   3.471  10.995  0.5596 -0.2364 -0.5444
  652TMC3     H 9708   2.277   3.201  11.149  0.7006  0.6631  0.3041
  652TMC3    H1 9709   2.308   3.471  10.820  2.3405 -0.9759  1.0802
  652TMC3    H2 9710   2.034   3.146  10.803 -1.3723  1.1766  0.5002
  652TMC3    C7 9711   2.156   3.335  10.654  0.0155  0.2587  0.5371
  652TMC3    C8 9712   2.105   3.042  11.029 -0.0178 -0.0386 -0.0191
  652TMC3    O1 9713   2.040   3.306  10.616 -0.2310  0.2863 -0.1611
  652TMC3    O2 9714   2.189   2.992  11.104 -0.3426  0.9621  0.4768
  653MPD2     C 9715   0.671   2.125  17.724 -0.2319  0.3879  0.2879
  653MPD2    C1 9716   0.618   2.241  17.678  0.9343  0.2340 -0.9241
  653MPD2    C2 9717   0.536   2.232  17.559  0.0374  0.3125 -0.1119
  653MPD2    C3 9718   0.535   2.117  17.486 -0.2279 -0.4687  0.7335
  653MPD2    C4 9719   0.607   2.011  17.529  0.4225 -0.5175 -0.0095
  653MPD2    C5 9720   0.675   2.016  17.650 -0.0150  0.1657  0.3702
  653MPD2     H 9721   0.499   2.323  17.514  0.2179 -0.2602 -1.4017
  653MPD2    H1 9722   0.620   1.923  17.468 -1.9090 -0.9784  0.1604
  653MPD2    H2 9723   0.722   2.125   0.095 -0.6660  1.1239  0.5204
  653MPD2    H3 9724   0.713   1.925  17.696  0.4143 -0.6992 -1.6752
  653MPD2     N 9725   0.478   2.121  17.356 -0.3555 -0.2607  0.5812
  653MPD2    H5 9726   0.438   2.210  17.327  1.3249 -0.9049 -3.6674
  653MPD2    N1 9727   0.629   2.367   0.014 -0.1060 -0.2927 -0.4600
  653MPD2    H7 9728   0.572   2.443  17.702 -1.3010 -1.0191 -0.0901
  654TMC3    C1 9729   0.485   2.105  17.134  0.4797  0.2210  0.4897
  654TMC3    C2 9730   0.370   2.159  17.086 -0.1783 -0.5399 -0.0325
  654TMC3    C3 9731   0.353   2.164  16.950  0.2790 -0.0520 -0.0661
  654TMC3    C4 9732   0.582   2.066  17.046  0.5908  0.0630  0.7987
  654TMC3    C5 9733   0.565   2.090  16.913 -0.1522  0.1472  0.4142
  654TMC3    C6 9734   0.456   2.137  16.861  0.6635 -1.2660  0.1104
  654TMC3     C 9735   0.487   2.033  17.260  0.6348  0.6481 -0.0648
  654TMC3     O 9736   0.543   1.925  17.261  0.2777  0.4460  0.1934
  654TMC3     H 9737   0.289   2.178  17.155  0.8134 -3.1263  1.8417
  654TMC3    H1 9738   0.678   2.033  17.086  0.4620 -1.5481 -0.2068
  654TMC3    H2 9739   0.453   2.140  16.753 -1.8012 -1.0896  0.1967
  654TMC3    C7 9740   0.664   2.029  16.823  0.2676  0.3824  0.2103
  654TMC3    C8 9741   0.221   2.167  16.898 -0.2655  0.6610  0.3557
  654TMC3    O1 9742   0.677   2.066  16.713 -0.1249 -0.1990  0.3323
  654TMC3    O2 9743   0.139   2.221  16.973 -0.1328  0.2047 -0.1634
  655MPD2     C 9744   2.174   2.795  16.128  0.1825 -0.0449 -0.7681
  655MPD2    C1 9745   2.037   2.777  16.112  0.1216  0.2074 -0.3107
  655MPD2    C2 9746   1.994   2.687  16.016 -0.1816  0.0309  0.1440
  655MPD2    C3 9747   2.090   2.634  15.929 -0.0516  0.2717  0.2951
  655MPD2    C4 9748   2.222   2.641  15.955  0.1798  0.4818 -0.2959
  655MPD2    C5 9749   2.274   2.729  16.058  0.4964  0.2288  0.2733
  655MPD2     H 9750   1.889   2.676  15.991  0.2221 -0.0955 -1.5081
  655MPD2    H1 9751   2.300   2.610  15.887  1.3013  2.1236  0.2475
  655MPD2    H2 9752   2.222   2.868  16.192 -1.1272  0.3057 -0.1787
  655MPD2    H3 9753   2.381   2.747  16.056  0.2821  1.4354 -0.0366
  655MPD2     N 9754   2.064   2.554  15.816 -0.0152  0.0119 -0.5688
  655MPD2    H5 9755   2.146   2.531  15.762 -0.5961  0.9433 -1.8443
  655MPD2    N1 9756   1.942   2.845  16.192  0.1213 -0.0600  0.2512
  655MPD2    H7 9757   1.843   2.824  16.183 -0.7320  3.2873  1.9849
  656TMC3    C1 9758   1.873   3.009  16.353  0.2600  1.3976 -0.2029
  656TMC3    C2 9759   1.897   3.040  16.489 -0.2663  0.9919  0.0214
  656TMC3    C3 9760   1.854   3.161  16.535  0.6694 -0.4710 -0.5790
  656TMC3    C4 9761   1.787   3.085  16.277  0.1069 -0.4054  1.0902
  656TMC3    C5 9762   1.746   3.200  16.327  0.5165 -0.5325  0.1806
  656TMC3    C6 9763   1.786   3.245  16.451 -0.0118 -0.3709  0.1939
  656TMC3     C 9764   1.977   2.932  16.291  0.1536 -0.0254 -0.2116
  656TMC3     O 9765   2.084   2.949  16.341  0.2019 -0.0987  0.3269
  656TMC3     H 9766   1.951   2.968  16.549 -0.3420 -0.1726 -1.2888
  656TMC3    H1 9767   1.774   3.060  16.172  1.9796 -0.1924  0.8039
  656TMC3    H2 9768   1.747   3.340  16.486 -1.5491 -0.8791 -0.1432
  656TMC3    C7 9769   1.638   3.263  16.258 -0.4952  0.0367  0.0784
  656TMC3    C8 9770   1.803   3.162  16.668  0.5281 -0.4987  0.4446
  656TMC3    O1 9771   1.634   3.387  16.273  0.1887 -0.1859 -0.7000
  656TMC3    O2 9772   1.753   3.266  16.703  0.1386  0.7969  0.2656
  657TMC3    C1 9773   0.785   1.809  14.888  0.1737 -0.0712 -0.3373
  657TMC3    C2 9774   0.697   1.841  14.981 -0.4169  0.2781 -0.2306
  657TMC3    C3 9775   0.564   1.827  14.948 -0.0702 -0.2445  0.2013
  657TMC3    C4 9776   0.753   1.776  14.757 -0.2451 -0.2786  0.2677
  657TMC3    C5 9777   0.617   1.749  14.737  0.4440  0.0856 -0.5117
  657TMC3    C6 9778   0.521   1.787  14.825 -0.0222 -0.1292  0.3797
  657TMC3     C 9779   0.924   1.847  14.903 -0.0667  0.9033 -0.0976
  657TMC3     O 9780   0.945   1.967  14.895 -0.0627  0.4844  0.2919
  657TMC3     H 9781   0.729   1.889  15.073 -0.1522 -0.8603  0.2805
  657TMC3    H1 9782   0.839   1.761  14.692 -1.2899  0.7634 -1.3500
  657TMC3    H2 9783   0.422   1.742  14.816 -0.0271  0.1212 -0.8385
  657TMC3    C7 9784   0.575   1.679  14.617  0.3711 -0.0296  0.0677
  657TMC3    C8 9785   0.460   1.835  15.046 -0.8925 -0.7975 -0.0524
  657TMC3    O1 9786   0.462   1.690  14.572 -0.2336 -0.7315  0.1059
  657TMC3    O2 9787   0.344   1.844  15.001  0.6211 -0.5909  0.6526
  658MPD2     C 9788   2.269   2.449  15.017 -1.2156  0.5159 -0.4018
  658MPD2    C1 9789   2.188   2.531  15.095 -0.4187  0.1887 -0.1930
  658MPD2    C2 9790   2.138   2.647  15.047 -0.7131 -0.0421 -0.2831
  658MPD2    C3 9791   2.180   2.695  14.922 -0.0772 -0.6814  0.5244
  658MPD2    C4 9792   2.272   2.619  14.857  0.7049 -0.3666  0.3426
  658MPD2    C5 9793   2.316   2.501  14.906 -0.2631  0.1676  0.0262
  658MPD2     H 9794   2.067   2.705  15.105  1.8277  4.0630 -1.3061
  658MPD2    H1 9795   2.308   2.641  14.758  1.2078  0.1607  0.6399
  658MPD2    H2 9796   2.296   2.352  15.057 -2.8977  0.5113  0.7030
  658MPD2    H3 9797   2.395   2.449  14.853 -1.0925 -3.2671  2.0957
  658MPD2     N 9798   2.124   2.810  14.860  0.3835 -0.3447 -0.2033
  658MPD2    H5 9799   2.046   2.846  14.914 -0.0086 -1.0445 -0.2964
  658MPD2    N1 9800   2.153   2.489  15.228  0.8000  0.0714  0.2085
  658MPD2    H7 9801   2.180   2.395  15.252 -0.2943 -0.3533 -0.2118
  659TMC3    C1 9802   2.042   2.479  15.431 -0.6358 -0.1793 -0.9814
  659TMC3    C2 9803   2.036   2.540  15.551  0.0718 -0.1079  0.1552
  659TMC3    C3 9804   1.929   2.493  15.627 -0.3624 -0.2612  0.1809
  659TMC3    C4 9805   1.935   2.404  15.382 -0.1737 -0.4262  0.0754
  659TMC3    C5 9806   1.832   2.361  15.459  0.2957 -0.4529 -0.0877
  659TMC3    C6 9807   1.838   2.395  15.591 -1.4288 -0.4091 -0.5332
  659TMC3     C 9808   2.105   2.567  15.332  1.2686  0.4013  0.1082
  659TMC3     O 9809   2.102   2.689  15.359  1.0130 -0.0129 -0.3848
  659TMC3     H 9810   2.106   2.616  15.583 -3.2572  2.5538  1.1934
  659TMC3    H1 9811   1.921   2.386  15.276 -1.3693 -0.9008  0.3039
  659TMC3    H2 9812   1.759   2.356  15.655 -1.8321  2.3538  0.6326
  659TMC3    C7 9813   1.693   2.346  15.416  0.4513  0.0891 -0.2939
  659TMC3    C8 9814   1.938   2.515  15.771  0.0709  0.5745  0.5736
  659TMC3    O1 9815   1.601   2.357  15.495 -1.2740 -0.4714  0.0313
  659TMC3    O2 9816   1.839   2.491  15.840 -0.0760 -0.3197 -0.0745
  660MPD2     C 9817   4.722   1.446  12.770  0.2322  0.2285  0.0231
  660MPD2    C1 9818   4.592   1.437  12.812 -0.4809 -0.1718 -0.2422
  660MPD2    C2 9819   4.560   1.348  12.910 -0.3167 -0.5884 -0.2762
  660MPD2    C3 9820   4.654   1.259  12.959  0.3399 -0.0898 -0.7107
  660MPD2    C4 9821   0.053   1.259  12.913  0.4285  0.7933 -0.2052
  660MPD2    C5 9822   0.080   1.358  12.820  0.4934 -0.3255  0.2551
  660MPD2     H 9823   4.457   1.343  12.942 -0.7569 -0.6943 -1.7041
  660MPD2    H1 9824   0.120   1.183  12.951 -1.4282 -0.7033  0.0810
  660MPD2    H2 9825   0.020   1.519  12.695 -0.4092 -0.3921 -0.8311
  660MPD2    H3 9826   0.181   1.363  12.784  0.3088 -1.2484 -0.3769
  660MPD2     N 9827   4.622   1.157  13.054 -0.6943 -0.4343 -0.1396
  660MPD2    H5 9828   4.689   1.084  13.075  1.7482  1.3059 -1.8672
  660MPD2    N1 9829   4.494   1.520  12.758 -0.0705  0.0907  0.1500
  660MPD2    H7 9830   4.520   1.584  12.684  2.6523  0.3834  1.3681
  661TMC3    C1 9831   4.283   1.585  12.679  0.2071 -0.0858 -0.1849
  661TMC3    C2 9832   4.341   1.596  12.558 -0.8063 -0.6745  0.4257
  661TMC3    C3 9833   4.260   1.631  12.458  0.1284  0.0645  0.7956
  661TMC3    C4 9834   4.153   1.598  12.706 -0.1081  0.1332  0.2786
  661TMC3    C5 9835   4.072   1.633  12.599 -0.0164  0.4632  0.0566
  661TMC3    C6 9836   4.125   1.660  12.474  0.0429  0.2192  0.0920
  661TMC3     C 9837   4.359   1.524  12.784 -0.3458  0.6373  0.0027
  661TMC3     O 9838   4.300   1.463  12.875  0.1599 -0.6247  0.2724
  661TMC3     H 9839   4.432   1.541  12.539  0.1574  0.1379  2.6616
  661TMC3    H1 9840   4.110   1.586  12.805  1.0720 -1.2666  0.6129
  661TMC3    H2 9841   4.067   1.681  12.385  2.1378  2.7978 -0.6854
  661TMC3    C7 9842   3.934   1.605  12.612 -0.0194 -0.0506 -0.1717
  661TMC3    C8 9843   4.308   1.631  12.322 -0.3074 -0.0192 -0.5939
  661TMC3    O1 9844   3.889   1.620  12.722  0.3887  0.5939  0.4753
  661TMC3    O2 9845   4.405   1.559  12.294 -0.5760  0.9231  0.7390
  662MPD2     C 9846   0.585   0.781  17.116  0.3935 -0.3001 -0.5038
  662MPD2    C1 9847   0.542   0.690  17.211  0.4148  0.3207 -0.3830
  662MPD2    C2 9848   0.528   0.726  17.340  0.5821 -1.0152  0.0321
  662MPD2    C3 9849   0.535   0.860  17.374  0.0143 -0.2720  0.3581
  662MPD2    C4 9850   0.585   0.941  17.282  0.1087  0.6118 -0.4550
  662MPD2    C5 9851   0.609   0.907  17.152 -0.4167 -0.8695 -0.5803
  662MPD2     H 9852   0.484   0.651  17.404 -1.3343 -0.6601 -0.8754
  662MPD2    H1 9853   0.604   1.043  17.314  1.4019  1.2847 -3.4108
  662MPD2    H2 9854   0.598   0.758  17.011  1.1714 -1.2896 -0.1796
  662MPD2    H3 9855   0.643   0.977  17.077 -0.9056 -0.8340 -0.7697
  662MPD2     N 9856   0.497   0.907  17.501  0.0708  0.1580  0.5486
  662MPD2    H5 9857   0.487   1.007  17.515  0.1882  0.2785 -0.2735
  662MPD2    N1 9858   0.512   0.551  17.181  0.2332 -0.3479 -0.4437
  662MPD2    H7 9859   0.470   0.497  17.256 -0.6591  1.1621  0.1242
  663TMC3    C1 9860   0.490   0.346  17.086  0.6399 -0.0455 -0.3404
  663TMC3    C2 9861   0.520   0.282  17.206  0.2960 -0.7874  0.6211
  663TMC3    C3 9862   0.465   0.158  17.231  0.3210  0.0620  0.3729
  663TMC3    C4 9863   0.434   0.279  16.982  0.2954 -0.2631  0.3417
  663TMC3    C5 9864   0.374   0.160  17.014 -0.3692  0.4863  0.4798
  663TMC3    C6 9865   0.374   0.104  17.143  0.1428  0.3035  0.0269
  663TMC3     C 9866   0.529   0.485  17.064  0.2164 -0.4189  0.0032
  663TMC3     O 9867   0.543   0.525  16.950  0.0055 -0.5907  0.3570
  663TMC3     H 9868   0.533   0.345  17.293 -0.0148  0.1526 -0.0158
  663TMC3    H1 9869   0.428   0.318  16.881 -1.8082 -1.9566 -0.1818
  663TMC3    H2 9870   0.333   0.009  17.173 -0.3695 -0.3111 -2.6150
  663TMC3    C7 9871   0.314   0.083  16.910 -0.2464 -0.1140 -0.4740
  663TMC3    C8 9872   0.439   0.120  17.372  0.6002 -0.0196 -0.0100
  663TMC3    O1 9873   0.282   0.132  16.803  0.5916 -0.2026 -0.0251
  663TMC3    O2 9874   0.333   0.062  17.400  0.6613 -0.6673 -0.2763
  664MPD2     C 9875   2.825   3.975  17.674 -0.0068  0.3616 -0.5567
  664MPD2    C1 9876   2.930   3.989   0.035 -0.3272 -1.1368 -0.5039
  664MPD2    C2 9877   2.921   3.925   0.157  0.2935  0.1809  0.3986
  664MPD2    C3 9878   2.802   3.867   0.203  0.6287 -0.4022 -0.0830
  664MPD2    C4 9879   2.695   3.859   0.111  0.1796 -0.3211  0.4018
  664MPD2    C5 9880   2.706   3.914  17.707 -0.1505 -0.1269 -0.5323
  664MPD2     H 9881   3.004   3.926   0.227 -1.2522 -0.5079  2.2719
  664MPD2    H1 9882   2.597   3.816   0.129 -0.5978  1.1432 -0.3616
  664MPD2    H2 9883   2.819   4.035  17.584 -2.1041 -0.3564 -0.8933
  664MPD2    H3 9884   2.621   3.927  17.641  1.1696  1.5321 -1.9131
  664MPD2     N 9885   2.788   3.830   0.338 -0.1634  0.4564  0.0790
  664MPD2    H5 9886   2.870   3.843   0.397  0.1167  0.1211 -0.2293
  664MPD2    N1 9887   3.037   4.073   0.010 -0.1749 -0.8358  0.4515
  664MPD2    H7 9888   3.085   4.099   0.095  3.7946 -2.6644 -1.2391
  665TMC3    C1 9889   2.691   3.756   0.528  0.4511  0.5929 -0.2208
  665TMC3    C2 9890   2.585   3.794   0.604 -0.0914 -0.8390 -0.2858
  665TMC3    C3 9891   2.617   3.855   0.722 -0.3736 -0.5542 -0.3804
  665TMC3    C4 9892   2.822   3.773   0.573 -0.0257 -0.2950  0.5124
  665TMC3    C5 9893   2.847   3.839   0.693  0.2794  0.1525 -0.2060
  665TMC3    C6 9894   2.742   3.873   0.766 -0.7918 -0.2945  0.6784
  665TMC3     C 9895   2.670   3.777   0.387 -0.2818  0.2974 -0.2249
  665TMC3     O 9896   2.556   3.755   0.341  0.2971  0.7258  0.3190
  665TMC3     H 9897   2.489   3.773   0.560 -1.0332  0.5382  1.1202
  665TMC3    H1 9898   2.904   3.739   0.512 -2.0886 -2.7547 -0.8677
  665TMC3    H2 9899   2.753   3.928   0.858  0.0032 -0.3313  0.6124
  665TMC3    C7 9900   2.947   3.944   0.671 -0.1280 -0.4213  0.6023
  665TMC3    C8 9901   2.513   3.873   0.827  1.0201  0.3319  1.1149
  665TMC3    O1 9902   2.998   3.941   0.559 -0.3632  0.5720  0.4002
  665TMC3    O2 9903   2.539   3.926   0.933 -0.0330  0.5371  0.3615
  666TMC3    C1 9904   2.262   4.532   9.272  0.0335  0.1517 -0.2562
  666TMC3    C2 9905   2.378   4.485   9.334 -0.5908  0.7205  0.1150
  666TMC3    C3 9906   2.429   4.560   9.435  0.3106 -0.0547 -0.4210
  666TMC3    C4 9907   2.203   4.650   9.300  0.5051  0.1218  0.0584
  666TMC3    C5 9908   2.256   4.721   9.403 -0.2624 -0.4975 -0.1796
  666TMC3    C6 9909   2.367   4.677   9.471 -0.1787 -0.4994 -0.1335
  666TMC3     C 9910   2.175   4.425   9.244  0.4176 -0.3994  0.4306
  666TMC3     O 9911   2.120   4.434   9.137  0.1970  0.3071  0.2828
  666TMC3     H 9912   2.411   4.383   9.318 -0.4121  1.0453 -1.5283
  666TMC3    H1 9913   2.107   4.663   9.252  0.6496 -1.4356 -0.6448
  666TMC3    H2 9914   2.391   4.722   9.567 -0.6643  0.1071 -0.3018
  666TMC3    C7 9915   2.168   0.088   9.469  0.4597  0.0056 -0.4018
  666TMC3    C8 9916   2.522   4.489   9.535  0.1544 -0.1467  0.7652
  666TMC3    O1 9917   2.202   0.135   9.577 -0.4593  0.0421 -0.4143
  666TMC3    O2 9918   2.538   4.366   9.519 -0.3932 -0.2185 -0.6409
  667MPD2     C 9919   4.006   3.041  14.729 -0.6773  0.2859 -0.3314
  667MPD2    C1 9920   3.900   3.100  14.796  0.3707 -0.0289 -0.4889
  667MPD2    C2 9921   3.783   3.034  14.823 -0.1626 -0.5134  0.2387
  667MPD2    C3 9922   3.769   2.905  14.787  0.6665 -0.0252  0.1096
  667MPD2    C4 9923   3.872   2.850  14.711  0.0004  0.2335  0.0951
  667MPD2    C5 9924   3.987   2.915  14.678 -0.1783 -0.1080 -0.2888
  667MPD2     H 9925   3.710   3.087  14.883 -1.9303 -2.0025 -0.5665
  667MPD2    H1 9926   3.856   2.753  14.667 -0.8351 -0.1161  1.1579
  667MPD2    H2 9927   4.101   3.089  14.708  0.5374 -2.4865 -1.2374
  667MPD2    H3 9928   4.075   2.870  14.633 -0.6596 -1.4196  0.1052
  667MPD2     N 9929   3.653   2.827  14.806  0.0873  0.1827  0.6747
  667MPD2    H5 9930   3.659   2.737  14.760 -0.5449  0.6510 -0.3289
  667MPD2    N1 9931   3.903   3.232  14.836  0.2664  0.7732 -0.4478
  667MPD2    H7 9932   3.819   3.259  14.887  0.3077 -0.8315  0.4779
  668TMC3    C1 9933   3.969   3.460  14.850 -0.6915  0.5656 -0.8685
  668TMC3    C2 9934   4.061   3.554  14.845  0.1827 -0.7570 -0.2744
  668TMC3    C3 9935   4.028   3.686  14.828 -0.2590  0.2258  0.9207
  668TMC3    C4 9936   3.832   3.485  14.849  0.0712 -0.2259 -0.0001
  668TMC3    C5 9937   3.796   3.624  14.832  0.0710 -0.7907  0.5130
  668TMC3    C6 9938   3.891   3.722  14.832  0.0317 -0.5943  0.6859
  668TMC3     C 9939   4.007   3.324  14.812  0.2160  0.4731  0.3012
  668TMC3     O 9940   4.116   3.311  14.759 -0.3426 -0.2559 -0.1351
  668TMC3     H 9941   4.166   3.527  14.848  0.2185 -0.7805 -1.6422
  668TMC3    H1 9942   3.753   3.411  14.847  0.1737 -0.3584  0.7785
  668TMC3    H2 9943   3.857   3.824  14.820  2.3314  0.0701 -0.1037
  668TMC3    C7 9944   3.658   3.669  14.817 -0.2690 -0.1598 -0.3101
  668TMC3    C8 9945   4.117   3.781  14.885 -0.4273 -0.1275  0.1104
  668TMC3    O1 9946   3.637   3.791  14.814  0.6491  0.3493  0.2128
  668TMC3    O2 9947   4.199   3.737  14.965  0.5207  0.2349  0.0967
  669TMC3    C1 9948   1.910   3.635  14.931  0.4657 -0.0451  0.8708
  669TMC3    C2 9949   1.780   3.630  14.896  0.2106 -0.0008 -0.1623
  669TMC3    C3 9950   1.752   3.681  14.770  0.5671  0.4345 -0.1268
  669TMC3    C4 9951   2.007   3.684  14.850  0.1667  0.1606 -0.2433
  669TMC3    C5 9952   1.974   3.726  14.725  0.2575 -0.2938 -0.7639
  669TMC3    C6 9953   1.845   3.725  14.682 -0.1373 -0.1169 -0.3796
  669TMC3     C 9954   1.947   3.565  15.052  0.4349  0.3828 -0.2541
  669TMC3     O 9955   1.854   3.533  15.128  0.2016  0.3919  0.4904
  669TMC3     H 9956   1.703   3.595  14.965  1.4175 -2.1638  0.0768
  669TMC3    H1 9957   2.108   3.689  14.888  0.4807 -3.0437 -0.6326
  669TMC3    H2 9958   1.816   3.771  14.588 -0.9383  0.4267  0.1326
  669TMC3    C7 9959   2.084   3.769  14.637 -0.4907  0.2952 -1.2468
  669TMC3    C8 9960   1.640   3.622  14.689 -0.8047  0.0492  0.5198
  669TMC3    O1 9961   2.195   3.776  14.689 -0.4819  0.2220 -0.0077
  669TMC3    O2 9962   1.656   3.613  14.567  0.0576 -0.3430  0.7676
  670MPD2     C 9963   0.185   1.600  13.836 -0.0724  0.2710 -0.2660
  670MPD2    C1 9964   0.160   1.468  13.834 -0.1648  0.8224 -0.2168
  670MPD2    C2 9965   0.126   1.411  13.953  0.6228 -0.3232 -0.3706
  670MPD2    C3 9966   0.129   1.488  14.076 -0.3767  0.0762  0.6633
  670MPD2    C4 9967   0.176   1.620  14.072  0.0966 -0.4228 -0.3076
  670MPD2    C5 9968   0.215   1.666  13.955 -0.1386 -0.3908  0.6542
  670MPD2     H 9969   0.103   1.306  13.952  0.0550 -0.2024  0.2304
  670MPD2    H1 9970   0.185   1.685  14.159  1.9864 -2.4102  0.9737
  670MPD2    H2 9971   0.216   1.656  13.749  1.0130  0.3999  0.2112
  670MPD2    H3 9972   0.260   1.765  13.950 -0.1939 -0.3637  0.6969
  670MPD2     N 9973   0.096   1.422  14.189  0.0857  0.1896 -0.2775
  670MPD2    H5 9974   0.062   1.329  14.169 -0.3077  0.1890  0.3964
  670MPD2    N1 9975   0.174   1.383  13.721 -0.2784  0.3466 -0.7338
  670MPD2    H7 9976   0.166   1.284  13.740 -0.6614  0.3704 -0.7719
  671TMC3    C1 9977   0.127   1.330  14.402 -0.6386  0.2498 -0.3374
  671TMC3    C2 9978   0.226   1.313  14.492  0.1481 -0.4714  0.0565
  671TMC3    C3 9979   0.243   1.182  14.540  0.0466 -0.5321  0.5480
  671TMC3    C4 9980   0.043   1.229  14.361  0.3817  0.4667 -0.4580
  671TMC3    C5 9981   0.070   1.104  14.399  0.3478  0.1110  0.0702
  671TMC3    C6 9982   0.175   1.072  14.484 -0.5557  0.5863  0.0560
  671TMC3     C 9983   0.134   1.444  14.321 -0.0793 -0.5492 -0.0941
  671TMC3     O 9984   0.190   1.544  14.372 -0.2590  0.5625 -0.1956
  671TMC3     H 9985   0.306   1.385  14.503  1.8644 -2.2567 -0.5937
  671TMC3    H1 9986   4.711   1.238  14.273 -0.5078  0.2679  0.1674
  671TMC3    H2 9987   0.201   0.971  14.515  1.9839  0.9629 -0.8478
  671TMC3    C7 9988   0.030   0.989  14.315 -0.4770 -0.1079 -0.1008
  671TMC3    C8 9989   0.360   1.153  14.615 -0.1451  0.5020  0.0560
  671TMC3    O1 9990   0.123   0.911  14.288 -0.0543 -0.0968 -0.1485
  671TMC3    O2 9991   0.350   1.082  14.715  0.3595 -0.2799 -0.1588
  672MPD2     C 9992   0.482   2.626   0.565 -0.0424  0.1140  0.0934
  672MPD2    C1 9993   0.583   2.549   0.508  0.0263 -0.1840  0.5024
  672MPD2    C2 9994   0.712   2.591   0.506  0.2288  0.6992  0.2663
  672MPD2    C3 9995   0.746   2.709   0.569  0.7609 -0.2936 -0.0988
  672MPD2    C4 9996   0.649   2.786   0.626  0.2633 -0.3434 -0.4271
  672MPD2    C5 9997   0.519   2.742   0.622  0.1760  0.7126  0.6915
  672MPD2     H 9998   0.781   2.520   0.463 -0.9199  1.4226 -2.7556
  672MPD2    H1 9999   0.667   2.886   0.664 -1.5686  1.0702 -3.2900
  672MPD2    H210000   0.375   2.606   0.563 -0.1619  0.8725 -1.0735
  672MPD2    H310001   0.437   2.795   0.669 -0.3528  0.1820  0.3747
  672MPD2     N10002   0.877   2.764   0.576 -0.0796  0.2617 -0.1182
  672MPD2    H510003   0.889   2.857   0.617  1.2324  1.1587 -2.4952
  672MPD2    N110004   0.547   2.426   0.452  0.2329  0.0734 -0.1805
  672MPD2    H710005   0.618   2.354   0.452 -0.1439 -0.2951 -0.1797
  673TMC3    C110006   0.404   2.257   0.402  0.0238 -0.8083  0.1140
  673TMC3    C210007   0.507   2.174   0.370  0.5091 -0.4656 -0.1127
  673TMC3    C310008   0.485   2.039   0.350  0.0268 -0.2452  0.0664
  673TMC3    C410009   0.283   2.202   0.439 -0.4546 -0.3750 -0.3631
  673TMC3    C510010   0.258   2.071   0.410  0.4490  0.0619 -0.0079
  673TMC3    C610011   0.357   1.988   0.364  0.6378  0.2157  0.5255
  673TMC3     C10012   0.420   2.396   0.411  0.0620  0.2270 -0.0804
  673TMC3     O10013   0.322   2.467   0.399  0.0660  0.2740 -0.1855
  673TMC3     H10014   0.601   2.222   0.342  2.5467 -3.0349  2.3326
  673TMC3    H110015   0.207   2.262   0.488 -0.7159 -0.3997 -0.7402
  673TMC3    H210016   0.327   1.888   0.335 -0.4771 -0.4395  3.9387
  673TMC3    C710017   0.108   2.036   0.408  0.3342  1.1493  0.4072
  673TMC3    C810018   0.591   1.944   0.308  0.1697 -0.0282 -0.1134
  673TMC3    O110019   0.061   1.925   0.423  0.3677  0.0149 -0.4087
  673TMC3    O210020   0.552   1.847   0.240  0.3358 -0.0876 -0.2472
  674MPD2     C10021   0.342   1.498  17.164 -0.1242  0.0938 -0.5247
  674MPD2    C110022   0.391   1.480  17.293  0.2678 -0.2475 -0.2516
  674MPD2    C210023   0.362   1.574  17.391 -0.1349 -0.1189 -0.8203
  674MPD2    C310024   0.289   1.684  17.367 -0.4135  0.1432 -0.5650
  674MPD2    C410025   0.259   1.709  17.237  0.4590 -0.4984  0.1546
  674MPD2    C510026   0.282   1.612  17.139  0.3407 -0.6518 -0.2955
  674MPD2     H10027   0.386   1.557  17.495  0.2083 -0.4250 -0.9475
  674MPD2    H110028   0.212   1.801  17.204 -0.1772 -0.7816  0.2662
  674MPD2    H210029   0.362   1.419  17.092 -0.5244 -0.1940 -0.3173
  674MPD2    H310030   0.252   1.636  17.038  0.5428 -2.0628 -0.6895
  674MPD2     N10031   0.276   1.780  17.470 -0.2044  0.9399 -0.4033
  674MPD2    H510032   0.292   1.738  17.561  1.3884  2.4706  0.0408
  674MPD2    N110033   0.449   1.353  17.318 -0.0915  0.3239 -0.6848
  674MPD2    H710034   0.446   1.288  17.240 -0.8286 -0.4300 -0.0388
  675TMC3    C110035   0.529   1.387  17.543 -0.2342 -0.2691  0.2082
  675TMC3    C210036   0.499   1.374  17.675  0.0761  0.0292  0.2304
  675TMC3    C310037   0.538   1.467   0.040 -0.0182 -0.1494 -0.5200
  675TMC3    C410038   0.627   1.485  17.505 -0.3803 -0.3727 -0.4595
  675TMC3    C510039   0.681   1.560  17.603  0.5342  0.2122 -0.1825
  675TMC3    C610040   0.631   1.559   0.007 -0.3524  0.0009  0.3149
  675TMC3     C10041   0.483   1.293  17.439 -0.4139 -0.3302  0.4118
  675TMC3     O10042   0.472   1.176  17.478 -0.3502 -0.8472  0.1393
  675TMC3     H10043   0.437   1.289  17.701 -0.0965  0.3743  0.9294
  675TMC3    H110044   0.652   1.491  17.400 -1.5866  0.0723 -0.7245
  675TMC3    H210045   0.669   1.631   0.079 -0.1188  2.0187 -1.8388
  675TMC3    C710046   0.795   1.646  17.581 -0.2738 -0.2751 -0.3842
  675TMC3    C810047   0.525   1.428   0.176  0.0333 -0.3118  0.4310
  675TMC3    O110048   0.840   1.698  17.682 -0.1114  0.5553 -0.0821
  675TMC3    O210049   0.519   1.308   0.204 -0.5230 -0.0012  0.3639
  676MPD2     C10050   2.575   0.694  11.004  0.5945  0.0500 -0.0158
  676MPD2    C110051   2.584   0.601  11.104 -0.4220 -0.3255  0.1897
  676MPD2    C210052   2.642   0.472  11.077  0.5128 -0.8846 -0.3843
  676MPD2    C310053   2.692   0.451  10.951 -0.1169 -0.4684  0.1604
  676MPD2    C410054   2.686   0.550  10.857 -0.0029  0.0646  0.5458
  676MPD2    C510055   2.630   0.673  10.885 -0.2141 -0.0079  0.8410
  676MPD2     H10056   2.637   0.392  11.150 -2.0621  0.1183  0.5087
  676MPD2    H110057   2.716   0.531  10.754 -0.0614 -1.2791  0.7701
  676MPD2    H210058   2.547   0.794  11.032  0.5643 -0.2428  0.9868
  676MPD2    H310059   2.638   0.750  10.809 -3.6861 -2.5530 -2.0711
  676MPD2     N10060   2.735   0.330  10.899  0.1974 -0.6480  0.2438
  676MPD2    H510061   2.773   0.333  10.805  1.6951 -0.0169  0.8716
  676MPD2    N110062   2.519   0.625  11.230  1.1164  0.0692 -0.7276
  676MPD2    H710063   2.508   0.544  11.290  1.3533 -0.1928 -1.0317
  677TMC3    C110064   2.474   0.761  11.433 -0.8479 -0.2252 -0.1789
  677TMC3    C210065   2.395   0.662  11.487  0.5307  0.0199 -0.0759
  677TMC3    C310066   2.357   0.668  11.616 -0.3614  0.3621  0.0715
  677TMC3    C410067   2.503   0.871  11.506  0.2626 -0.2773  0.7613
  677TMC3    C510068   2.465   0.873  11.641 -0.9276  0.2104 -0.0925
  677TMC3    C610069   2.386   0.777  11.693  0.6366 -1.0279 -0.7597
  677TMC3     C10070   2.523   0.751  11.290 -0.9335  0.6273  0.1905
  677TMC3     O10071   2.577   0.856  11.251  0.4708  0.1733  0.6486
  677TMC3     H10072   2.357   0.582  11.424 -2.1878 -0.7076  2.5103
  677TMC3    H110073   2.575   0.941  11.466  0.2847 -1.0837 -0.6100
  677TMC3    H210074   2.371   0.772  11.801 -0.4286 -1.1501 -0.9156
  677TMC3    C710075   2.471   0.991  11.721  0.0399  0.5716  0.0122
  677TMC3    C810076   2.323   0.538  11.677  0.0902  0.4579 -0.2806
  677TMC3    O110077   2.382   1.013  11.797 -0.3606 -0.5204  0.2265
  677TMC3    O210078   2.348   0.438  11.613  0.7798  0.0267  0.8277
  678MPD2     C10079   4.439   0.139   1.181  0.2436 -0.6458  0.1432
  678MPD2    C110080   4.404   0.006   1.177 -0.4488  0.1469 -0.1296
  678MPD2    C210081   4.280   4.699   1.139  0.2711  0.8577 -0.0573
  678MPD2    C310082   4.182   0.063   1.110  0.0880  0.4301 -0.1140
  678MPD2    C410083   4.218   0.195   1.121  0.3083 -0.2257  0.3044
  678MPD2    C510084   4.348   0.231   1.146 -0.3586 -0.1758  0.5078
  678MPD2     H10085   4.258   4.595   1.119 -1.1587  0.8546  1.5512
  678MPD2    H110086   4.153   0.281   1.107 -0.9368 -1.4126 -1.1955
  678MPD2    H210087   4.531   0.179   1.222 -0.7659  0.9841  0.8492
  678MPD2    H310088   4.370   0.337   1.137  0.6892 -0.4076  0.4314
  678MPD2     N10089   4.053   0.021   1.088  0.0930 -0.0133  0.2329
  678MPD2    H510090   4.043   4.653   1.067  0.4853 -0.0158  0.0642
  678MPD2    N110091   4.502   4.632   1.203  0.3129  0.0552  0.1002
  678MPD2    H710092   4.462   4.541   1.225 -1.7369  0.9356  0.0005
  679TMC3    C110093   4.715   4.276   1.281  0.4211 -0.3066  0.6360
  679TMC3    C210094   4.641   4.393   1.277  0.0151 -0.9031 -0.7846
  679TMC3    C310095   4.708   4.517   1.266 -0.1043 -0.6905  0.2933
  679TMC3    C410096   0.119   4.283   1.254 -0.2377 -1.1668 -0.2853
  679TMC3    C510097   0.184   4.402   1.255 -0.3302 -0.6961 -0.1039
  679TMC3    C610098   0.114   4.515   1.256  0.8498 -0.2614 -0.6349
  679TMC3     C10099   4.655   4.169   1.211 -0.7212  0.0773 -0.5162
  679TMC3     O10100   4.547   4.116   1.232  0.0399  0.2118 -0.4378
  679TMC3     H10101   4.533   4.385   1.277 -0.1785  1.6632  0.2323
  679TMC3    H110102   0.180   4.194   1.255 -1.3205 -1.9280 -1.5640
  679TMC3    H210103   0.163   4.612   1.248 -0.8955  0.5152 -1.7933
  679TMC3    C710104   0.308   4.414   1.179  0.6814  0.0187  0.8733
  679TMC3    C810105   4.637   4.646   1.238 -0.0627 -0.0652  0.1350
  679TMC3    O110106   0.415   4.375   1.227 -0.2573 -0.2394 -0.0163
  679TMC3    O210107   4.704   0.018   1.239  0.0569 -0.0886 -0.0401
  680MPD2     C10108   0.581   3.629  13.535  0.5424 -0.4044 -1.3462
  680MPD2    C110109   0.546   3.585  13.659  0.2303  0.3326  0.2389
  680MPD2    C210110   0.543   3.665  13.769  0.0554  0.0581  0.9205
  680MPD2    C310111   0.574   3.804  13.754 -0.1061  0.0159  0.0136
  680MPD2    C410112   0.614   3.846  13.627  0.6528  0.1989 -0.0537
  680MPD2    C510113   0.625   3.759  13.521  0.5463 -0.3769 -0.4587
  680MPD2     H10114   0.507   3.629  13.864  1.0818  0.0649  1.3065
  680MPD2    H110115   0.632   3.951  13.612 -0.2734  0.5458  1.2908
  680MPD2    H210116   0.577   3.578  13.439 -0.2464  0.1817 -1.6256
  680MPD2    H310117   0.656   3.807  13.429  3.1017  0.5991  0.8956
  680MPD2     N10118   0.558   3.898  13.854 -0.1415  0.1757  0.2283
  680MPD2    H510119   0.570   3.995  13.824  1.2767 -0.1203 -0.1419
  680MPD2    N110120   0.506   3.452  13.685 -0.1801  0.0722  0.2717
  680MPD2    H710121   0.491   3.430  13.783 -1.7198  1.6468  0.3991
  681TMC3    C110122   0.427   3.237  13.649  0.6518  0.5490  0.4242
  681TMC3    C210123   0.313   3.270  13.719  0.3844  0.0004 -0.1904
  681TMC3    C310124   0.229   3.164  13.738 -0.6326  0.7508  0.1934
  681TMC3    C410125   0.443   3.120  13.582 -0.3052  0.5413  0.2367
  681TMC3    C510126   0.357   3.020  13.600  0.1512 -0.1503 -1.0627
  681TMC3    C610127   0.249   3.036  13.679 -0.0692 -0.0721 -0.1112
  681TMC3     C10128   0.502   3.353  13.596 -0.0061  0.3548 -0.1945
  681TMC3     O10129   0.557   3.336  13.490 -0.3438  0.6169  0.0666
  681TMC3     H10130   0.303   3.363  13.775 -0.2519  0.3942 -0.9620
  681TMC3    H110131   0.531   3.109  13.519 -0.3757  1.3903 -0.0071
  681TMC3    H210132   0.175   2.957  13.675  0.4667 -0.6881  2.3920
  681TMC3    C710133   0.330   2.936  13.489  0.4051  0.1701  0.7700
  681TMC3    C810134   0.128   3.181  13.838 -0.4677  0.1300 -0.3423
  681TMC3    O110135   0.273   2.828  13.507 -0.3829  0.0334 -0.3057
  681TMC3    O210136   0.087   3.300  13.859 -0.1670  0.1917  0.2007
  682MPD2     C10137   1.850   0.658  10.488 -0.2639 -0.8696 -0.2595
  682MPD2    C110138   1.764   0.549  10.498  0.6369  0.2608  0.6653
  682MPD2    C210139   1.702   0.529  10.621 -0.2458 -0.1036 -0.2572
  682MPD2    C310140   1.716   0.621  10.723  0.7680  0.4978 -0.2182
  682MPD2    C410141   1.787   0.736  10.704  0.3952  0.0189 -1.2505
  682MPD2    C510142   1.864   0.748  10.590 -0.9187 -0.4196 -0.3056
  682MPD2     H10143   1.638   0.443  10.630 -1.7044  1.0809  0.6844
  682MPD2    H110144   1.798   0.818  10.775 -2.8828  1.0147 -1.8880
  682MPD2    H210145   1.902   0.672  10.394  0.1418 -1.0015 -0.0573
  682MPD2    H310146   1.930   0.831  10.568  1.1879 -1.7637  0.9526
  682MPD2     N10147   1.663   0.598  10.854  0.4926  0.1009 -0.5388
  682MPD2    H510148   1.684   0.671  10.921  0.1725  0.5203 -0.8965
  682MPD2    N110149   1.732   0.457  10.394 -0.2031  0.2572  0.0863
  682MPD2    H710150   1.673   0.377  10.414 -1.1137  0.9627  0.1873
  683TMC3    C110151   1.570   0.611  11.251  0.0287 -0.2877 -0.1736
  683TMC3    C210152   1.571   0.483  11.311  0.8079  1.0421  0.2943
  683TMC3    C310153   1.552   0.371  11.238 -0.2283 -0.5277 -0.4417
  683TMC3    C410154   1.569   0.615  11.118  0.1971  0.1930 -0.2108
  683TMC3    C510155   1.571   0.499  11.046  0.1060  0.0519  0.1959
  683TMC3    C610156   1.564   0.378  11.102  1.0880  0.4476  0.3193
  683TMC3     C10157   1.599   0.728  11.334  0.4232  0.1095  0.6020
  683TMC3     O10158   1.590   0.719  11.456 -0.0919 -0.8725 -0.0425
  683TMC3     H10159   1.564   0.474  11.419 -1.2903  0.5846  0.1029
  683TMC3    H110160   1.564   0.709  11.065  1.1422  0.2692 -0.1589
  683TMC3    H210161   1.566   0.285  11.047  1.2999  1.0614 -0.7124
  683TMC3    C710162   1.585   0.500  10.902  0.0906  0.0301 -0.3352
  683TMC3    C810163   1.605   0.253  11.299 -0.7094 -0.5919  0.6149
  683TMC3    O110164   1.544   0.394  10.843 -0.0450 -0.0360  0.6902
  683TMC3    O210165   1.681   0.264  11.393  0.0960  0.6888 -0.6975
  684MPD2     C10166   0.495   4.005  16.360 -0.4059 -0.1453 -0.2127
  684MPD2    C110167   0.442   3.971  16.233 -0.3447  1.0487 -0.0185
  684MPD2    C210168   0.446   4.062  16.130 -0.1282  0.5374 -0.9522
  684MPD2    C310169   0.507   4.189  16.154 -0.0724 -0.0641  0.7546
  684MPD2    C410170   0.552   4.217  16.284 -0.2028  0.5346 -0.4255
  684MPD2    C510171   0.546   4.126  16.384 -0.4773  0.4644  0.5339
  684MPD2     H10172   0.424   4.029  16.030  0.6950 -2.2081 -0.2124
  684MPD2    H110173   0.583   4.316  16.315 -0.3240  0.6026 -0.5211
  684MPD2    H210174   0.487   3.940  16.447  0.2074 -0.3120 -0.2801
  684MPD2    H310175   0.570   4.158  16.485  0.2327  0.2220  0.4410
  684MPD2     N10176   0.529   4.284  16.053  0.2093 -0.3003  0.1770
  684MPD2    H510177   0.571   4.371  16.084  0.1565 -0.2541  0.1192
  684MPD2    N110178   0.390   3.843  16.210  0.2958 -0.3201 -0.7757
  684MPD2    H710179   0.363   3.821  16.115 -1.6861  1.8606 -0.6956
  685TMC3    C110180   0.382   3.608  16.238 -0.3770  0.0138 -0.3455
  685TMC3    C210181   0.271   3.567  16.160 -0.7790 -1.0185  0.4042
  685TMC3    C310182   0.270   3.432  16.137 -0.3823 -0.1069  0.0609
  685TMC3    C410183   0.490   3.529  16.286 -0.7159  0.0793  0.1589
  685TMC3    C510184   0.487   3.393  16.252 -0.8571  0.0763 -0.2268
  685TMC3    C610185   0.385   3.353  16.170 -0.2963  0.0347  0.4118
  685TMC3     C10186   0.389   3.742  16.306 -0.5463  0.1621 -0.0251
  685TMC3     O10187   0.429   3.735  16.420  0.3975  0.2028  0.0396
  685TMC3     H10188   0.211   3.644  16.112 -0.3112 -1.5305 -1.0298
  685TMC3    H110189   0.575   3.583  16.327  0.4580 -3.2933  2.2277
  685TMC3    H210190   0.391   3.251  16.135  1.5040  0.0686  0.5828
  685TMC3    C710191   0.583   3.294  16.304 -0.6189 -0.2152 -0.3205
  685TMC3    C810192   0.152   3.376  16.062  0.2633 -0.3126 -0.3060
  685TMC3    O110193   0.592   3.188  16.248 -0.2941 -0.0004  0.0181
  685TMC3    O210194   0.159   3.260  16.030 -0.6359  0.7956 -0.0274
  686MPD2     C10195   1.595   4.498  15.892 -0.4407  0.2549  0.1149
  686MPD2    C110196   1.690   4.407  15.933  0.1401  0.5142  0.5273
  686MPD2    C210197   1.814   4.406  15.884 -0.6147  0.4255 -1.0814
  686MPD2    C310198   1.857   4.513  15.804 -0.6156  0.3536  0.3426
  686MPD2    C410199   1.774   4.620  15.784 -0.5429  0.6164 -0.1560
  686MPD2    C510200   1.643   4.602  15.821 -0.1619 -0.0097  0.0402
  686MPD2     H10201   1.884   4.327  15.911 -2.5421 -1.3092 -1.2160
  686MPD2    H110202   1.800   4.708  15.726 -0.1367  0.2050 -0.6023
  686MPD2    H210203   1.492   4.497  15.927 -0.9655 -0.3375 -1.4571
  686MPD2    H310204   1.581   4.684  15.788  0.9234  1.3427  1.3514
  686MPD2     N10205   1.991   4.522  15.753  0.0251 -0.1722  0.5202
  686MPD2    H510206   2.031   4.610  15.721  0.2356 -0.1138  0.9293
  686MPD2    N110207   1.632   4.311  16.016  0.1413 -0.1381 -0.1409
  686MPD2    H710208   1.537   4.340  16.038  1.1654  1.5450  2.0693
  687TMC3    C110209   2.037   4.283  15.724  0.3183 -0.0859 -0.2031
  687TMC3    C210210   1.926   4.246  15.646 -0.1400 -0.2205 -0.6283
  687TMC3    C310211   1.876   4.114  15.651  0.7879 -0.1231 -0.1618
  687TMC3    C410212   2.104   4.193  15.793 -0.4474  0.0034  0.1137
  687TMC3    C510213   2.055   4.067  15.798  0.4310 -0.3431  0.3440
  687TMC3    C610214   1.949   4.018  15.719 -0.2776  0.0442  0.2877
  687TMC3     C10215   2.082   4.418  15.724  0.3137 -0.3875  0.2077
  687TMC3     O10216   2.204   4.429  15.721  0.3967  0.0327  0.1437
  687TMC3     H10217   1.877   4.323  15.588  1.1514  0.9089 -0.2335
  687TMC3    H110218   2.184   4.212  15.863 -0.8827 -0.2011  0.6611
  687TMC3    H210219   1.907   3.918  15.725  0.9807 -0.5669 -1.0030
  687TMC3    C710220   2.114   3.973  15.892  0.4477  0.4751 -0.6131
  687TMC3    C810221   1.735   4.091  15.638  0.0953  0.2757 -0.0899
  687TMC3    O110222   2.155   4.019  16.000 -0.6566 -0.4864 -0.4200
  687TMC3    O210223   1.693   3.994  15.701 -0.7285  0.3187 -0.2884
  688MPD2     C10224   1.222   2.931   0.275  0.6204  0.7483  0.9322
  688MPD2    C110225   1.198   2.825   0.190  0.0457 -0.1206  0.1177
  688MPD2    C210226   1.305   2.781   0.111  0.3806 -0.0824  0.0378
  688MPD2    C310227   1.429   2.832   0.118 -0.1552  0.1946 -0.2510
  688MPD2    C410228   1.455   2.937   0.201 -0.6408  0.8523  0.6210
  688MPD2    C510229   1.349   2.993   0.268  0.6093  0.5153 -0.2169
  688MPD2     H10230   1.286   2.685   0.064  1.5628 -0.0395 -0.5247
  688MPD2    H110231   1.554   2.980   0.214 -0.3639  0.1482  0.8358
  688MPD2    H210232   1.150   2.977   0.341  0.2618  0.0898  1.0014
  688MPD2    H310233   1.369   3.077   0.333  0.2023 -1.8479  2.9518
  688MPD2     N10234   1.539   2.792   0.039  0.7569 -0.2600 -0.2158
  688MPD2    H510235   1.624   2.848   0.044  1.3045 -1.1459  0.4965
  688MPD2    N110236   1.076   2.757   0.178 -0.3233  0.3487  0.2335
  688MPD2    H710237   1.082   2.679   0.113  0.0366  2.8309 -2.7388
  689TMC3    C110238   0.836   2.744   0.190  0.2206 -0.2823  0.2988
  689TMC3    C210239   0.721   2.814   0.189  0.7340  0.2223 -0.2145
  689TMC3    C310240   0.603   2.748   0.163  0.1629  0.1539  0.6711
  689TMC3    C410241   0.839   2.605   0.172  0.7993  0.3469 -0.0586
  689TMC3    C510242   0.716   2.549   0.133  0.0436  0.1596  0.9851
  689TMC3    C610243   0.600   2.614   0.132 -1.1557  0.7094  0.3554
  689TMC3     C10244   0.960   2.812   0.227  0.9797 -0.6969 -0.3088
  689TMC3     O10245   0.943   2.918   0.287  0.6230 -0.2494  0.1423
  689TMC3     H10246   0.720   2.917   0.224  1.4301  0.1751 -0.0451
  689TMC3    H110247   0.928   2.543   0.183  1.1526  0.8051 -0.3104
  689TMC3    H210248   0.506   2.561   0.122 -0.9767 -0.0366  2.5592
  689TMC3    C710249   0.728   2.403   0.103  0.5921  0.5400  0.2459
  689TMC3    C810250   0.486   2.818   0.213  0.3116  0.0323  0.2238
  689TMC3    O110251   0.813   2.333   0.153 -0.2231  0.6078  0.6961
  689TMC3    O210252   0.492   2.937   0.244 -0.7149 -0.3770 -0.7324
  690MPD2     C10253   3.383   0.113  15.946  0.3274  0.3088 -0.3135
  690MPD2    C110254   3.391   0.123  15.811  0.0045  0.1815  0.2662
  690MPD2    C210255   3.498   0.151  15.745  0.2094  0.3154 -0.1208
  690MPD2    C310256   3.607   0.200  15.815 -0.6707 -0.1641  0.1157
  690MPD2    C410257   3.612   0.191  15.956 -0.9048 -0.7744 -0.5496
  690MPD2    C510258   3.495   0.144  16.016  0.3202 -0.5397  0.2317
  690MPD2     H10259   3.505   0.151  15.637 -1.7999  0.3122 -0.2400
  690MPD2    H110260   3.696   0.225  16.015 -1.8028  0.7887 -0.1569
  690MPD2    H210261   3.297   0.075  16.000 -0.5506  0.1635 -1.8073
  690MPD2    H310262   3.486   0.148  16.124 -1.7637 -1.0123  0.0703
  690MPD2     N10263   3.720   0.254  15.738  0.8085  0.6272  0.3026
  690MPD2    H510264   3.703   0.269  15.639  0.6490 -2.1631 -0.0817
  690MPD2    N110265   3.282   0.090  15.728 -0.1308  0.2992  0.3993
  690MPD2    H710266   3.305   0.075  15.630  0.1265 -1.5259  0.7353
  691TMC3    C110267   3.069   4.705  15.699 -0.0760 -0.6749 -0.1918
  691TMC3    C210268   2.936   4.731  15.712  0.3542 -0.2059  0.0709
  691TMC3    C310269   2.848   4.624  15.715  0.6442  0.7429  0.1087
  691TMC3    C410270   3.125   4.581  15.696 -0.0993  0.1422  0.9820
  691TMC3    C510271   3.036   4.476  15.709  0.3700 -0.1364 -0.1653
  691TMC3    C610272   2.899   4.493  15.716 -0.7081  0.3620 -0.5177
  691TMC3     C10273   3.144   0.077  15.766 -0.9311 -0.5738  0.3961
  691TMC3     O10274   3.093   0.123  15.867  0.2065  0.2984  0.0056
  691TMC3     H10275   2.909   0.105  15.704 -0.0378 -0.3733 -0.7807
  691TMC3    H110276   3.233   4.571  15.703 -0.1950 -0.4931  1.5495
  691TMC3    H210277   2.829   4.410  15.721 -0.7608  0.3937 -0.7190
  691TMC3    C710278   3.088   4.372  15.780  0.1423  0.1878 -0.1128
  691TMC3    C810279   2.702   4.652  15.725  0.0335  0.6760 -0.0167
  691TMC3    O110280   3.193   4.392  15.841 -0.1042 -0.4177 -0.5652
  691TMC3    O210281   2.636   4.553  15.715  0.4849  0.2933 -0.0749
  692TMC3    C110282   0.071   0.776  15.650  0.3367  0.8698  0.0259
  692TMC3    C210283   0.191   0.794  15.724  0.0922 -0.1375 -0.4993
  692TMC3    C310284   0.265   0.683  15.768 -0.0839  0.5772  1.1056
  692TMC3    C410285   0.025   0.649  15.633  0.4172  0.0001  0.3590
  692TMC3    C510286   0.099   0.551  15.687  0.1997 -0.0253  0.2260
  692TMC3    C610287   0.211   0.559  15.760 -0.5179 -0.1042 -0.5078
  692TMC3     C10288   4.710   0.881  15.628  0.6900 -0.2504 -0.5092
  692TMC3     O10289   4.598   0.842  15.599 -0.2426 -0.3232  0.1233
  692TMC3     H10290   0.246   0.884  15.701  1.3369 -0.3334  1.7669
  692TMC3    H110291   4.673   0.628  15.567  2.0985 -0.0097 -1.7784
  692TMC3    H210292   0.273   0.473  15.782  0.1818  0.8358  1.2555
  692TMC3    C710293   0.051   0.425  15.650 -0.2906  0.4282  0.1561
  692TMC3    C810294   0.343   0.701  15.892  0.2497  0.0182 -0.0819
  692TMC3    O110295   4.664   0.423  15.618 -0.2663 -0.1315  0.2513
  692TMC3    O210296   0.371   0.610  15.971 -0.0414  0.1739 -0.6331
  693MPD2     C10297   4.367   4.138  10.875  0.5207  0.3724 -0.2966
  693MPD2    C110298   4.254   4.105  10.944 -0.6842  1.1389 -0.5405
  693MPD2    C210299   4.262   4.016  11.050 -0.1642  0.4559 -0.3838
  693MPD2    C310300   4.379   3.967  11.093 -0.4637 -0.2772 -0.2512
  693MPD2    C410301   4.495   3.996  11.021  0.0985 -0.3921 -0.2970
  693MPD2    C510302   4.484   4.074  10.913  0.6839  0.6630 -0.1733
  693MPD2     H10303   4.170   3.989  11.101 -0.7087  3.2433  0.1407
  693MPD2    H110304   4.591   3.951  11.046  1.7526  3.3329  0.0901
  693MPD2    H210305   4.369   4.199  10.785  0.7266  0.0790 -0.4903
  693MPD2    H310306   4.573   4.101  10.857  1.6234 -2.1659  0.0038
  693MPD2     N10307   4.388   3.870  11.200  0.7508  0.5316 -0.5833
  693MPD2    H510308   4.477   3.825  11.216  0.4940  0.2347  0.0028
  693MPD2    N110309   4.125   4.146  10.900 -1.0152 -0.0286  0.1339
  693MPD2    H710310   4.048   4.137  10.965 -0.7052 -2.7296  0.1201
  694TMC3    C110311   3.964   4.207  10.745  0.7929  0.2238  0.0285
  694TMC3    C210312   3.925   4.214  10.617 -0.2963  0.3951 -1.1124
  694TMC3    C310313   3.814   4.285  10.583  0.0653 -0.3423 -0.0942
  694TMC3    C410314   3.887   4.264  10.840 -0.3876 -0.0246 -0.0211
  694TMC3    C510315   3.768   4.322  10.809  0.3812  0.3155 -0.6752
  694TMC3    C610316   3.725   4.338  10.678  0.3563  0.0909 -0.3424
  694TMC3     C10317   4.108   4.195  10.769  0.2299 -0.0470 -0.2239
  694TMC3     O10318   4.176   4.191  10.668  0.5972 -0.3000  0.6158
  694TMC3     H10319   3.984   4.161  10.543 -0.3985 -0.7243 -0.3834
  694TMC3    H110320   3.925   4.263  10.942  0.0319 -1.7663 -0.1880
  694TMC3    H210321   3.625   4.369  10.648 -0.2094  0.8809  2.3368
  694TMC3    C710322   3.671   4.323  10.908 -0.3355  0.5550  0.2238
  694TMC3    C810323   3.747   4.225  10.470  1.1868  0.0069  0.0012
  694TMC3    O110324   3.573   4.393  10.890 -0.4620 -0.1650 -0.1200
  694TMC3    O210325   3.783   4.109  10.440 -0.1327 -0.2030 -0.3040
  695MPD2     C10326   0.895   0.852  13.554 -0.1250 -0.0688  0.4249
  695MPD2    C110327   0.831   0.839  13.675  0.6650  0.1359 -0.7992
  695MPD2    C210328   0.685   0.832  13.677  0.2274 -0.1035 -0.1388
  695MPD2    C310329   0.617   0.821  13.561 -0.2855  0.0344  0.1638
  695MPD2    C410330   0.683   0.850  13.436 -0.4055 -0.0950 -0.5147
  695MPD2    C510331   0.822   0.858  13.435  0.1476 -0.0364  0.6970
  695MPD2     H10332   0.633   0.828  13.772 -0.7405  0.2396 -0.6511
  695MPD2    H110333   0.634   0.865  13.340 -0.5796 -2.4559 -0.8004
  695MPD2    H210334   1.004   0.853  13.548 -0.0766  1.2366  1.5919
  695MPD2    H310335   0.875   0.869  13.341  1.5273  0.9042  1.5900
  695MPD2     N10336   0.472   0.833  13.567 -0.0247 -0.1725  0.2169
  695MPD2    H510337   0.436   0.836  13.662 -0.2695 -3.2441  0.2286
  695MPD2    N110338   0.888   0.845  13.804  0.3629 -0.2744  0.1758
  695MPD2    H710339   0.827   0.824  13.882  0.0490  1.6848  0.4660
  696TMC3    C110340   0.249   0.847  13.527  0.1267  0.1820  0.1259
  696TMC3    C210341   0.210   0.809  13.655 -0.8962 -0.8436 -0.2383
  696TMC3    C310342   0.080   0.831  13.691  0.5548 -0.3888 -0.0745
  696TMC3    C410343   0.164   0.922  13.450 -0.4698  0.1920 -0.4835
  696TMC3    C510344   0.049   0.961  13.506 -0.3301 -0.5115 -0.2351
  696TMC3    C610345   4.722   0.904  13.615 -0.0437 -0.1047  0.2749
  696TMC3     C10346   0.380   0.833  13.472 -0.4745  0.3130  0.2656
  696TMC3     O10347   0.391   0.838  13.350  0.5009  0.3547 -0.1952
  696TMC3     H10348   0.277   0.754  13.720 -0.1781 -1.7588 -1.7614
  696TMC3    H110349   0.204   0.959  13.356  0.1466 -2.2025 -1.1570
  696TMC3    H210350   4.625   0.937  13.649 -1.0848 -1.6886 -1.1500
  696TMC3    C710351   4.729   1.084  13.441 -0.9070  0.1210  0.2113
  696TMC3    C810352   0.046   0.804  13.829 -0.2838  0.4388 -0.5609
  696TMC3    O110353   0.017   1.102  13.322 -0.3745  0.0903  0.5453
  696TMC3    O210354   0.137   0.797  13.910 -0.0188 -0.1065  0.3188
  697MPD2     C10355   3.970   3.032  15.332 -0.4334  0.0092 -0.3678
  697MPD2    C110356   3.975   2.956  15.218 -0.6152  0.8874  0.2054
  697MPD2    C210357   4.057   2.998  15.117 -0.3983 -0.3718  0.1514
  697MPD2    C310358   4.136   3.112  15.117 -0.8084 -0.3380  0.4982
  697MPD2    C410359   4.120   3.191  15.228  0.3308 -0.4961  0.3800
  697MPD2    C510360   4.048   3.151  15.335  0.4344 -0.2539  0.1802
  697MPD2     H10361   4.069   2.922  15.041  1.6291 -0.6283  0.7430
  697MPD2    H110362   4.188   3.273  15.247 -2.7049  2.1370  0.0441
  697MPD2    H210363   3.917   3.015  15.425 -1.3310 -1.4736 -1.1445
  697MPD2    H310364   4.038   3.221  15.418  0.1511  0.5143 -0.4974
  697MPD2     N10365   4.230   3.130  15.012  0.7911 -0.1997 -0.1183
  697MPD2    H510366   4.229   3.069  14.931  0.3617 -0.1282 -0.1678
  697MPD2    N110367   3.917   2.825  15.218  0.4483  0.1813  0.0555
  697MPD2    H710368   3.924   2.772  15.132 -2.0315 -1.3546  0.8128
  698TMC3    C110369   4.428   3.192  14.923  0.0927  0.2197  0.2999
  698TMC3    C210370   4.552   3.191  14.984  0.0386  0.1867  0.4068
  698TMC3    C310371   4.636   3.089  14.936 -0.1034 -0.3984  0.4333
  698TMC3    C410372   4.385   3.106  14.821  0.5194  0.3539  0.0759
  698TMC3    C510373   4.476   3.011  14.773  0.0368 -0.1782  0.3544
  698TMC3    C610374   4.594   3.003  14.838  0.1293 -0.3166 -0.3117
  698TMC3     C10375   4.316   3.234  15.003  0.2771  0.2230 -0.0345
  698TMC3     O10376   4.336   3.329  15.075  0.2647  0.1929  0.4545
  698TMC3     H10377   4.579   3.260  15.064 -0.4958  0.3127  0.4812
  698TMC3    H110378   4.292   3.128  14.771  0.3321  0.3910  0.4447
  698TMC3    H210379   4.666   2.925  14.816  0.2143 -0.1964 -0.4526
  698TMC3    C710380   4.433   2.929  14.661 -0.5305 -0.2089  0.3948
  698TMC3    C810381   0.030   3.073  15.002  0.4992  0.4687  0.5969
  698TMC3    O110382   4.395   2.994  14.569  0.7046  0.2845  0.8409
  698TMC3    O210383   0.079   2.958  14.997 -0.0827  0.2908  0.2901
  699TMC3    C110384   4.487   1.012  13.188  0.4834  0.4606 -0.0948
  699TMC3    C210385   4.532   0.904  13.121 -0.3274  0.3411  0.5063
  699TMC3    C310386   4.455   0.788  13.100 -0.3530  0.1394  0.2862
  699TMC3    C410387   4.367   1.001  13.246  0.6357  1.0914  0.4121
  699TMC3    C510388   4.287   0.888  13.218  0.5595 -0.7129  0.2743
  699TMC3    C610389   4.329   0.784  13.141  0.5905  0.3644 -0.3671
  699TMC3     C10390   4.503   1.144  13.119 -0.0043  0.1301 -0.0405
  699TMC3     O10391   4.404   1.220  13.108  0.2438  0.0538 -0.2153
  699TMC3     H10392   4.628   0.908  13.071  1.4710 -2.3790  3.7751
  699TMC3    H110393   4.336   1.092  13.297 -0.6340  1.4221 -0.9461
  699TMC3    H210394   4.272   0.692  13.136  3.1780 -1.1930 -0.9183
  699TMC3    C710395   4.156   0.876  13.279 -0.1012  0.0219  0.3087
  699TMC3    C810396   4.513   0.661  13.146 -0.4354 -0.3775  0.8214
  699TMC3    O110397   4.114   0.761  13.295  0.3820  0.0607  0.0924
  699TMC3    O210398   4.439   0.564  13.140  0.5230  0.0431 -0.4686
  700TMC3    C110399   3.430   3.028  17.244  0.4105 -0.3154 -0.2830
  700TMC3    C210400   3.506   2.931  17.191 -0.0951 -0.1824 -0.4960
  700TMC3    C310401   3.600   2.874  17.272  0.8128 -0.0479  0.3573
  700TMC3    C410402   3.437   3.063  17.375  0.6615 -0.2033 -0.0110
  700TMC3    C510403   3.516   2.986  17.455 -0.1563  0.0132  0.0513
  700TMC3    C610404   3.595   2.884  17.405 -0.2319  0.3165  0.0748
  700TMC3     C10405   3.388   3.120  17.139 -0.2543  0.4399 -0.2083
  700TMC3     O10406   3.276   3.111  17.092  0.4717 -0.2628  0.3648
  700TMC3     H10407   3.494   2.909  17.086 -2.2707 -2.6275  0.2772
  700TMC3    H110408   3.386   3.152  17.412  2.0302  0.8290 -0.5853
  700TMC3    H210409   3.659   2.823  17.466 -2.1298 -0.1616  1.5889
  700TMC3    C710410   3.564   3.044  17.585 -0.0908  0.0019 -0.9571
  700TMC3    C810411   3.690   2.791  17.204 -0.7466  1.1654 -0.5514
  700TMC3    O110412   3.674   3.011  17.632  0.8153  0.5539  0.0523
  700TMC3    O210413   3.662   2.745  17.095  0.3925 -0.2235  0.0598
  701TMC3    C110414   3.403   2.141  15.803  0.0011 -0.2407  0.6485
  701TMC3    C210415   3.393   2.093  15.676 -0.7576  0.2119  0.3393
  701TMC3    C310416   3.380   2.183  15.574  0.5116  0.4538  0.1745
  701TMC3    C410417   3.380   2.272  15.834  0.1942  0.7022  0.0339
  701TMC3    C510418   3.353   2.358  15.732 -0.8394 -1.1835 -0.3002
  701TMC3    C610419   3.354   2.317  15.602  0.6378 -0.2764  0.1107
  701TMC3     C10420   3.386   2.058  15.916 -0.3407  0.2397  0.0110
  701TMC3     O10421   3.416   2.096  16.028  1.0408 -0.1770  0.0787
  701TMC3     H10422   3.405   1.989  15.647  2.8278  0.2992  1.5334
  701TMC3    H110423   3.376   2.301  15.939 -0.0450  1.1049 -0.0871
  701TMC3    H210424   3.351   2.388  15.520  2.2772 -0.9184 -0.5068
  701TMC3    C710425   3.357   2.503  15.750  0.1787  0.1455 -0.0508
  701TMC3    C810426   3.384   2.147  15.430  0.3349 -0.1519 -0.3027
  701TMC3    O110427   3.373   2.570  15.651 -0.7611 -0.4407 -0.1368
  701TMC3    O210428   3.400   2.242  15.357 -0.6948  0.2886 -0.0741
  702MPD2     C10429   3.048   0.138  10.269  0.1090 -0.8043 -0.3756
  702MPD2    C110430   2.913   0.117  10.272 -0.0248 -0.3230  0.2201
  702MPD2    C210431   2.841   0.142  10.157  0.6158 -0.2988 -0.4349
  702MPD2    C310432   2.899   0.198  10.046 -0.1648 -0.4312 -1.0839
  702MPD2    C410433   3.035   0.216  10.046  0.2224 -0.2925  0.1588
  702MPD2    C510434   3.109   0.185  10.155  0.0944  0.6920  0.0179
  702MPD2     H10435   2.733   0.138  10.153  0.6612 -2.4626  0.8279
  702MPD2    H110436   3.086   0.257   9.959 -0.5525 -0.3630 -0.3329
  702MPD2    H210437   3.111   0.126  10.357 -0.3507 -0.2697  0.0281
  702MPD2    H310438   3.217   0.193  10.141 -0.1996  1.4066 -1.8707
  702MPD2     N10439   2.829   0.250   9.937 -0.4248  0.7161 -0.1056
  702MPD2    H510440   2.883   0.315   9.881 -1.4466  1.3302 -0.3669
  702MPD2    N110441   2.837   0.097  10.389  0.0572  0.8433  0.1152
  702MPD2    H710442   2.738   0.090  10.367  0.0543  0.5822  0.2072
  703TMC3    C110443   2.622   0.358   9.920  0.2509  0.9666 -0.4930
  703TMC3    C210444   2.502   0.337   9.966 -0.2506  0.0110 -1.0733
  703TMC3    C310445   2.478   0.352  10.099 -0.2254  0.2320 -0.4354
  703TMC3    C410446   2.697   0.449   9.995  0.2200  0.8162  0.1537
  703TMC3    C510447   2.665   0.478  10.123  0.0520 -0.5492 -0.2258
  703TMC3    C610448   2.563   0.411  10.185 -0.0818  0.4458 -0.9143
  703TMC3     C10449   2.693   0.234   9.923  0.6071  0.6251  0.0591
  703TMC3     O10450   2.624   0.135   9.948 -0.5837  0.1162 -0.1024
  703TMC3     H10451   2.437   0.270   9.910 -0.7813 -0.2295 -0.1673
  703TMC3    H110452   2.789   0.494   9.959 -0.0737 -0.0044 -1.6059
  703TMC3    H210453   2.554   0.406  10.293 -2.1607 -0.9995 -1.1605
  703TMC3    C710454   2.775   0.539  10.207  0.3991  0.3502 -0.3708
  703TMC3    C810455   2.381   0.253  10.148 -0.1385 -0.6420  0.0533
  703TMC3    O110456   2.851   0.610  10.150  1.0032  0.0625 -0.4219
  703TMC3    O210457   2.403   0.140  10.101  0.0130 -0.3993  0.5466
  704TMC3    C110458   0.966   2.685  12.438  0.6829  0.4540 -0.0300
  704TMC3    C210459   1.093   2.711  12.404 -0.2999  0.5344 -0.2745
  704TMC3    C310460   1.194   2.682  12.489  0.5326 -0.9804  0.2020
  704TMC3    C410461   0.940   2.639  12.561  0.3764  0.4611 -0.9398
  704TMC3    C510462   1.038   2.599  12.642  0.5459  0.1403 -1.3950
  704TMC3    C610463   1.170   2.623  12.608  0.1735 -0.1230  0.1213
  704TMC3     C10464   0.906   2.593  12.339 -0.0531  0.0978  0.1194
  704TMC3     O10465   0.841   2.497  12.372  0.0623  0.0567 -0.4034
  704TMC3     H10466   1.121   2.743  12.304  0.2567  0.4633 -0.1409
  704TMC3    H110467   0.839   2.603  12.576  0.7214 -0.4106 -0.6870
  704TMC3    H210468   1.255   2.612  12.675 -0.1471  1.9759  0.8592
  704TMC3    C710469   1.007   2.502  12.741  0.0171  0.2734  0.1696
  704TMC3    C810470   1.324   2.660  12.428  0.9359  0.1427 -0.3478
  704TMC3    O110471   0.898   2.507  12.797 -0.0318 -0.6701  0.4074
  704TMC3    O210472   1.373   2.762  12.387  0.5954 -0.0702  0.1246
  705MPD2     C10473   0.368   0.199  16.196 -0.5896  0.3641  0.1472
  705MPD2    C110474   0.379   0.330  16.162 -1.0196 -1.0171  1.1517
  705MPD2    C210475   0.307   0.425  16.229  0.5806  0.0397 -0.1194
  705MPD2    C310476   0.207   0.390  16.323 -0.2905  1.3364 -0.5829
  705MPD2    C410477   0.191   0.257  16.352 -0.8370  1.1303  0.4050
  705MPD2    C510478   0.268   0.164  16.285 -0.1739  0.3536 -0.0451
  705MPD2     H10479   0.314   0.530  16.200  1.0878  0.3268  1.0185
  705MPD2    H110480   0.115   0.224  16.422 -2.2744  0.4539 -1.4756
  705MPD2    H210481   0.437   0.123  16.162 -1.1627  0.5853 -1.5133
  705MPD2    H310482   0.264   0.062  16.321 -1.8455  1.1630  2.0754
  705MPD2     N10483   0.132   0.479  16.397 -0.2239 -0.4869  0.4463
  705MPD2    H510484   0.038   0.451  16.422  0.1316 -1.9806  0.1147
  705MPD2    N110485   0.467   0.379  16.061  0.1627  0.2081 -0.3167
  705MPD2    H710486   0.468   0.478  16.039 -0.9261  0.4634  0.8497
  706TMC3    C110487   0.722   0.362  15.668 -0.2794  0.0672 -0.6931
  706TMC3    C210488   0.754   0.493  15.686 -0.6482 -0.4406  0.4603
  706TMC3    C310489   0.708   0.559  15.793 -0.1874 -0.1953 -0.1025
  706TMC3    C410490   0.634   0.299  15.747 -0.5367 -0.2268  0.3062
  706TMC3    C510491   0.598   0.369  15.865 -0.0720  0.2257 -0.3932
  706TMC3    C610492   0.643   0.497  15.894 -0.5609  0.2668  0.5657
  706TMC3     C10493   0.777   0.288  15.556 -0.0034 -0.1555 -0.0836
  706TMC3     O10494   0.729   0.176  15.533 -0.3865 -0.2569  0.1658
  706TMC3     H10495   0.818   0.547  15.617 -1.2633 -1.0526 -0.5886
  706TMC3    H110496   0.618   0.192  15.740  1.2554 -0.4237 -0.7646
  706TMC3    H210497   0.607   0.556  15.978  0.0001 -0.7320  1.4978
  706TMC3    C710498   0.524   0.302  15.966 -1.2431  0.4644 -0.1332
  706TMC3    C810499   0.720   0.705  15.793 -0.7811  0.9084 -0.6756
  706TMC3    O110500   0.513   0.182  15.947 -0.3738 -0.1793  0.0715
  706TMC3    O210501   0.715   0.759  15.683  0.3226 -0.2297  0.2444
  707TMC3    C110502   1.766   0.130   0.912  0.7480  0.3806  0.3373
  707TMC3    C210503   1.738   0.083   1.030  0.3399 -0.6914 -0.5426
  707TMC3    C310504   1.607   0.063   1.065 -0.3782 -0.5413 -0.1077
  707TMC3    C410505   1.675   0.158   0.811  0.5213  0.7526  0.6683
  707TMC3    C510506   1.538   0.137   0.843  0.6478 -0.2969  0.3441
  707TMC3    C610507   1.504   0.099   0.972  0.5169 -0.0479 -0.3014
  707TMC3     C10508   1.909   0.146   0.883  0.6071  0.4212 -0.5176
  707TMC3     O10509   1.969   0.182   0.985 -0.3048 -0.2000  0.4183
  707TMC3     H10510   1.816   0.060   1.101 -0.0603  0.4115  0.2383
  707TMC3    H110511   1.710   0.185   0.712 -3.6552 -3.1177 -1.8611
  707TMC3    H210512   1.402   0.072   0.996 -0.0524  1.5450 -0.8886
  707TMC3    C710513   1.447   0.166   0.733  0.2033 -0.0094 -0.5390
  707TMC3    C810514   1.565   0.039   1.197  0.1385  0.0937  0.5278
  707TMC3    O110515   1.498   0.193   0.621  0.4174 -0.0523  0.7084
  707TMC3    O210516   1.455   0.070   1.245 -0.1632  0.4655  0.4016
  708MPD2     C10517   3.913   3.522  13.713  0.6210  0.5094  0.7158
  708MPD2    C110518   3.787   3.571  13.753  0.0407 -0.2374 -0.3036
  708MPD2    C210519   3.704   3.483  13.822  0.7360 -0.1020  0.7353
  708MPD2    C310520   3.742   3.352  13.850 -0.0369 -0.3665  0.8271
  708MPD2    C410521   3.868   3.312  13.816  0.3915 -0.4623 -0.3616
  708MPD2    C510522   3.952   3.396  13.755 -0.1718 -0.8864 -0.7489
  708MPD2     H10523   3.607   3.518  13.855 -0.3671 -0.2044 -2.4597
  708MPD2    H110524   3.898   3.208  13.823 -2.1379 -1.1446  0.2730
  708MPD2    H210525   3.974   3.576  13.642 -0.9382  0.7845 -0.4227
  708MPD2    H310526   4.043   3.350  13.718 -0.1204 -0.7293 -0.8156
  708MPD2     N10527   3.647   3.278  13.922  0.8334  0.3625  0.2941
  708MPD2    H510528   3.554   3.316  13.937  0.0510 -0.4542 -2.3825
  708MPD2    N110529   3.735   3.694  13.714 -0.6426  0.1134 -0.2225
  708MPD2    H710530   3.795   3.748  13.652 -0.6555  1.0367  0.5545
  709TMC3    C110531   3.577   3.877  13.684  0.8585  0.0448  0.6804
  709TMC3    C210532   3.638   3.904  13.563  0.5845  0.4882  0.0900
  709TMC3    C310533   3.555   3.945  13.465  0.0010  0.4428  0.5350
  709TMC3    C410534   3.451   3.914  13.713  0.6780 -0.2818  0.0366
  709TMC3    C510535   3.368   3.923  13.607 -0.3267  0.4428  0.4072
  709TMC3    C610536   3.420   3.957  13.483 -0.0927 -0.0350 -0.3756
  709TMC3     C10537   3.624   3.763  13.765 -0.7089  0.3614  0.1217
  709TMC3     O10538   3.548   3.742  13.857  0.1273 -0.4129  0.5596
  709TMC3     H10539   3.743   3.893  13.537  0.7178 -0.6968  1.1501
  709TMC3    H110540   3.402   3.912  13.810 -0.2365  0.5844 -0.4082
  709TMC3    H210541   3.360   3.937  13.395 -0.2628 -0.1117 -0.2412
  709TMC3    C710542   3.257   3.829  13.597 -0.0620 -0.3639 -0.1237
  709TMC3    C810543   3.603   3.947  13.325  0.1771  0.2889 -0.0818
  709TMC3    O110544   3.174   3.847  13.509 -0.0186  0.3000  0.1094
  709TMC3    O210545   3.700   3.877  13.303 -0.1402 -0.4095  0.1637
  710TMC3    C110546   4.671   4.727   0.331 -0.5878 -0.5738  0.4155
  710TMC3    C210547   0.026   0.063   0.247 -0.5163  0.6552  0.1373
  710TMC3    C310548   0.160   0.046   0.265  0.4498  0.2432 -0.2790
  710TMC3    C410549   4.713   4.649   0.436 -0.0853  0.5981  0.3763
  710TMC3    C510550   0.116   4.632   0.446  0.1031  0.4970 -0.3488
  710TMC3    C610551   0.210   4.684   0.355  0.3169 -0.2019  0.6175
  710TMC3     C10552   4.532   0.045   0.346  0.4287 -0.7888  0.1983
  710TMC3     O10553   4.451   4.707   0.406 -0.4979 -0.0998 -0.3641
  710TMC3     H10554   4.720   0.122   0.164 -0.9768  0.5823  0.2908
  710TMC3    H110555   4.636   4.602   0.497 -1.7900  2.4959 -0.2741
  710TMC3    H210556   0.315   4.665   0.376 -0.4325 -2.7633  2.0433
  710TMC3    C710557   0.164   4.570   0.571  0.4001  0.0865 -0.8639
  710TMC3    C810558   0.242   0.080   0.146  0.2126 -1.2043 -0.0226
  710TMC3    O110559   0.085   4.502   0.631  0.1333 -0.3591 -0.4563
  710TMC3    O210560   0.182   0.128   0.052 -0.2793  0.2978  0.1708
  711TMC3    C110561   4.230   1.612  15.005 -0.4760  1.0734 -0.2382
  711TMC3    C210562   4.248   1.651  15.137  0.3441 -0.0698  0.5518
  711TMC3    C310563   4.371   1.664  15.193  0.8872  0.0491  0.1699
  711TMC3    C410564   4.341   1.580  14.932 -0.4227  0.1538  0.5972
  711TMC3    C510565   4.463   1.582  14.990 -0.1327  0.1875 -0.1100
  711TMC3    C610566   4.484   1.634  15.116  0.1236 -0.5391 -0.1729
  711TMC3     C10567   4.110   1.543  14.972  0.0121  0.8676  0.1296
  711TMC3     O10568   4.117   1.436  14.909  0.4182 -0.1094  0.0250
  711TMC3     H10569   4.161   1.644  15.201  1.0293  2.8217  1.8200
  711TMC3    H110570   4.327   1.559  14.826 -0.0536 -0.3534  0.6541
  711TMC3    H210571   4.582   1.643  15.161 -0.7513  0.2576  1.5681
  711TMC3    C710572   4.521   1.447  14.993 -0.8355 -0.2193  0.3798
  711TMC3    C810573   4.385   1.709  15.339 -0.6868  0.5266 -1.0011
  711TMC3    O110574   4.600   1.429  15.081  0.0349 -0.6348 -0.6161
  711TMC3    O210575   4.283   1.710  15.404 -0.3564  0.6343  0.0856
  712MPD2     C10576   0.805   3.023  13.932  0.0505  0.0390  0.7292
  712MPD2    C110577   0.908   2.941  13.902 -0.0683 -0.2353  0.1547
  712MPD2    C210578   1.002   2.981  13.810 -0.0513  0.0029  0.0976
  712MPD2    C310579   0.981   3.098  13.734  0.0026  0.1448  0.1450
  712MPD2    C410580   0.866   3.168  13.756 -0.1192  0.1492 -0.3540
  712MPD2    C510581   0.779   3.135  13.861 -0.9642 -0.7044  0.4292
  712MPD2     H10582   1.095   2.925  13.799 -1.2924 -2.0209 -0.1043
  712MPD2    H110583   0.832   3.256  13.702 -1.3719 -0.4936 -0.6188
  712MPD2    H210584   0.735   2.998  14.011  0.0607 -2.6301 -0.0742
  712MPD2    H310585   0.689   3.194  13.872  0.4168  1.4608  0.1626
  712MPD2     N10586   1.065   3.139  13.623 -0.1660 -0.2859  0.0061
  712MPD2    H510587   1.040   3.230  13.586  1.7035  0.8955  1.6445
  712MPD2    N110588   0.921   2.821  13.972  0.1179  0.4428  0.0434
  712MPD2    H710589   1.014   2.781  13.960  0.0519 -0.0772  1.2791
  713TMC3    C110590   1.232   3.118  13.453 -0.5234 -0.2509 -0.1533
  713TMC3    C210591   1.368   3.112  13.430 -0.3320 -0.3550 -0.9004
  713TMC3    C310592   1.430   3.166  13.328 -0.0239  0.0269  0.3935
  713TMC3    C410593   1.163   3.209  13.378 -0.0958 -0.3202  1.2359
  713TMC3    C510594   1.230   3.275  13.280 -0.8857 -0.2117  0.1838
  713TMC3    C610595   1.357   3.249  13.249 -1.3545 -0.2241  0.8720
  713TMC3     C10596   1.185   3.078  13.588 -0.6630  0.4608 -0.5263
  713TMC3     O10597   1.245   2.993  13.649  0.5136 -0.3018 -0.7080
  713TMC3     H10598   1.430   3.064  13.505 -1.5358 -2.7104 -1.4221
  713TMC3    H110599   1.060   3.226  13.410 -0.7003 -1.0633 -0.3068
  713TMC3    H210600   1.394   3.307  13.165 -0.1775  0.6071  1.9665
  713TMC3    C710601   1.180   3.400  13.223 -0.6910 -0.1810 -0.3206
  713TMC3    C810602   1.565   3.209  13.353 -0.0705 -0.3419  0.6245
  713TMC3    O110603   1.265   3.472  13.175  0.1533  0.0125  0.5156
  713TMC3    O210604   1.666   3.174  13.288  0.3236 -0.0961 -0.3503
  714MPD2     C10605   3.456   0.766   1.031 -0.0233 -0.2856  0.1724
  714MPD2    C110606   3.487   0.892   1.067  0.3647 -0.1402 -0.3270
  714MPD2    C210607   3.388   0.976   1.103  0.6973  0.1791 -0.8018
  714MPD2    C310608   3.256   0.938   1.077  0.2723 -0.3318 -0.6880
  714MPD2    C410609   3.231   0.812   1.032 -0.0846 -0.4592  0.7672
  714MPD2    C510610   3.328   0.722   1.025 -0.2126  0.4758 -0.3296
  714MPD2     H10611   3.408   1.070   1.153 -4.2690  0.8050  0.0046
  714MPD2    H110612   3.131   0.776   1.011  0.0130 -0.0102 -0.4863
  714MPD2    H210613   3.529   0.697   0.990 -1.4206 -0.3125 -2.2270
  714MPD2    H310614   3.306   0.620   0.996 -2.5855 -0.0325  3.2216
  714MPD2     N10615   3.152   1.029   1.104  0.4153  0.1578 -0.6102
  714MPD2    H510616   3.195   1.113   1.141  1.9268 -0.6105 -0.5921
  714MPD2    N110617   3.625   0.915   1.086 -0.2233 -0.2470  0.0900
  714MPD2    H710618   3.692   0.845   1.055  0.5247  1.1563 -1.4542
  715TMC3    C110619   3.825   1.026   1.142  1.0425 -0.3777  0.3615
  715TMC3    C210620   3.889   0.912   1.100 -0.6773 -0.1082  0.5592
  715TMC3    C310621   4.023   0.928   1.073  0.1376 -0.2907  0.8772
  715TMC3    C410622   3.883   1.149   1.154  0.1263  0.4655  0.4863
  715TMC3    C510623   4.018   1.152   1.121 -0.1685  0.4887 -0.2054
  715TMC3    C610624   4.088   1.044   1.081 -0.2228 -0.2438  0.2481
  715TMC3     C10625   3.681   1.026   1.140  0.6822  0.0606  0.5306
  715TMC3     O10626   3.621   1.131   1.169 -0.0369 -0.0832  0.2250
  715TMC3     H10627   3.835   0.818   1.091  1.6067 -1.3857 -0.0180
  715TMC3    H110628   3.824   1.230   1.195 -1.3988 -0.0528 -0.6792
  715TMC3    H210629   4.195   1.058   1.070 -0.0831 -0.6811  1.0673
  715TMC3    C710630   4.095   1.274   1.153  0.6921  0.0703  0.4929
  715TMC3    C810631   4.080   0.818   0.994 -0.7396  0.3549  0.2115
  715TMC3    O110632   4.215   1.268   1.183 -0.3774  0.3233 -0.4717
  715TMC3    O210633   4.008   0.732   0.952 -0.1048  0.5776  0.0743
  716MPD2     C10634   3.038   0.610   9.382  0.1430 -0.2657 -0.7077
  716MPD2    C110635   2.981   0.499   9.419  0.3166  0.8377  0.2673
  716MPD2    C210636   3.054   0.392   9.456  0.2970  0.4412  0.0982
  716MPD2    C310637   3.192   0.403   9.453  0.1482  0.6197  0.1749
  716MPD2    C410638   3.248   0.522   9.408  0.7554  0.3224  0.4325
  716MPD2    C510639   3.170   0.628   9.369  0.0745 -0.2704  0.1188
  716MPD2     H10640   3.014   0.301   9.500 -1.8621  1.3511  0.0474
  716MPD2    H110641   3.355   0.538   9.402  0.7313  0.7286  0.9889
  716MPD2    H210642   2.978   0.696   9.353 -0.5385 -0.4182  0.2634
  716MPD2    H310643   3.212   0.722   9.338  2.6250 -0.9605  1.5701
  716MPD2     N10644   3.274   0.300   9.498 -0.2491  0.0367  0.4387
  716MPD2    H510645   3.233   0.224   9.552  0.4687  0.4314  1.5483
  716MPD2    N110646   2.838   0.502   9.418  0.3547  0.5534 -0.0371
  716MPD2    H710647   2.798   0.594   9.415 -1.2392 -0.1598 -0.4200
  717TMC3    C110648   3.452   0.156   9.526  0.8678 -0.6774 -0.4950
  717TMC3    C210649   3.385   0.045   9.472  0.5636  0.1905 -0.8483
  717TMC3    C310650   3.444   4.652   9.499  0.0401 -0.6544 -0.4483
  717TMC3    C410651   3.573   0.146   9.587 -0.1696  0.3217  0.2285
  717TMC3    C510652   3.636   0.023   9.601 -0.5525 -0.0742 -0.2369
  717TMC3    C610653   3.569   4.640   9.559 -0.5540 -1.0611  0.1854
  717TMC3     C10654   3.414   0.291   9.487 -0.3417 -0.5188  0.4212
  717TMC3     O10655   3.493   0.370   9.435  0.0811  0.1084  0.2470
  717TMC3     H10656   3.303   0.062   9.403 -1.3201 -0.2468  1.2873
  717TMC3    H110657   3.616   0.239   9.622 -0.1867  0.8661 -1.1856
  717TMC3    H210658   3.604   4.540   9.581  1.3096 -0.0081  2.0395
  717TMC3    C710659   3.733   0.005   9.699 -0.4137 -0.6823  0.2877
  717TMC3    C810660   3.365   4.542   9.448 -0.0299  0.0747 -0.0030
  717TMC3    O110661   3.754   4.623   9.745 -0.2164  0.3445  0.1667
  717TMC3    O210662   3.262   4.566   9.383  0.5147 -0.1545 -0.6583
  718MPD2     C10663   2.500   3.117  12.683  0.0523  1.0701 -0.3702
  718MPD2    C110664   2.384   3.178  12.631 -0.2711  0.0231 -0.6193
  718MPD2    C210665   2.280   3.094  12.607 -0.1428 -0.1725  0.6083
  718MPD2    C310666   2.281   2.960  12.645 -0.0628  0.1574 -0.2295
  718MPD2    C410667   2.392   2.901  12.692 -0.8340 -0.3539 -0.9757
  718MPD2    C510668   2.501   2.984  12.712 -0.6164  0.4112 -0.3514
  718MPD2     H10669   2.191   3.124  12.552  1.2543  0.5982 -1.2291
  718MPD2    H110670   2.401   2.794  12.703  0.9526 -0.1861 -0.8989
  718MPD2    H210671   2.590   3.176  12.694  0.1153  0.9130 -0.0454
  718MPD2    H310672   2.595   2.944  12.748 -0.8807 -1.4622 -1.7734
  718MPD2     N10673   2.173   2.891  12.593  0.2989 -0.6894  0.1926
  718MPD2    H510674   2.103   2.943  12.542  0.4448  0.2176  0.9289
  718MPD2    N110675   2.392   3.299  12.563  0.1307  0.0842 -0.0018
  718MPD2    H710676   2.305   3.344  12.537  0.2739  0.9243  0.9862
  719TMC3    C110677   2.474   3.481  12.451  0.8903 -0.8417 -0.5896
  719TMC3    C210678   2.348   3.521  12.459 -0.3033  0.3735 -0.3837
  719TMC3    C310679   2.270   3.551  12.350  0.3398 -0.4342  0.5290
  719TMC3    C410680   2.538   3.502  12.337  0.0976  0.7848  0.2433
  719TMC3    C510681   2.477   3.555  12.232  0.2151  0.0278  0.4037
  719TMC3    C610682   2.340   3.578  12.230  0.3633 -0.1712 -0.5170
  719TMC3     C10683   2.506   3.355  12.514  0.3783 -0.3269  0.1155
  719TMC3     O10684   2.624   3.321  12.521 -0.0450  0.1947 -0.7009
  719TMC3     H10685   2.306   3.516  12.559 -1.6462 -0.9625 -1.0137
  719TMC3    H110686   2.629   3.445  12.319 -1.2199 -1.6044  1.1984
  719TMC3    H210687   2.287   3.595  12.137 -0.0373  0.3524 -0.1925
  719TMC3    C710688   2.562   3.649  12.160  0.7013  0.3272  0.0627
  719TMC3    C810689   2.159   3.451  12.349 -0.7792 -0.6151  0.2978
  719TMC3    O110690   2.680   3.623  12.163 -0.6685 -0.2432  0.0083
  719TMC3    O210691   2.145   3.397  12.456 -0.0472 -0.2744  0.3312
  720MPD2     C10692   0.804   4.088  14.041  0.5634 -0.6198 -0.1531
  720MPD2    C110693   0.848   4.215  14.010 -0.2313  0.0416  0.7606
  720MPD2    C210694   0.954   4.262  14.084 -0.3403 -0.4514 -0.0486
  720MPD2    C310695   1.007   4.194  14.190 -0.4136  0.1813 -0.1625
  720MPD2    C410696   0.964   4.062  14.216 -0.7163  0.1273  0.0588
  720MPD2    C510697   0.861   4.016  14.142 -0.1211  0.3971 -0.7547
  720MPD2     H10698   0.991   4.364  14.072 -0.4439 -0.6342 -1.9462
  720MPD2    H110699   1.008   4.005  14.296 -0.4114 -0.0804 -0.2603
  720MPD2    H210700   0.720   4.041  13.991  0.0083 -1.6424  1.7489
  720MPD2    H310701   0.830   3.913  14.154  2.0376 -0.1983 -0.2405
  720MPD2     N10702   1.121   4.248  14.256 -0.4421  0.0150  0.2147
  720MPD2    H510703   1.154   4.335  14.216  2.0097 -1.0044  0.0491
  720MPD2    N110704   0.790   4.304  13.911 -0.1791  0.1471  0.1926
  720MPD2    H710705   0.819   4.401  13.904  2.2366 -0.6482 -0.8668
  721TMC3    C110706   1.318   4.253  14.370 -0.3145  0.7728 -0.0673
  721TMC3    C210707   1.352   4.283  14.498 -0.6823  0.1227  0.1527
  721TMC3    C310708   1.482   4.316  14.528 -0.0028  0.0448 -0.4989
  721TMC3    C410709   1.410   4.249  14.270 -0.0258 -0.2953 -0.0429
  721TMC3    C510710   1.541   4.283  14.306  0.3921  0.3251 -0.3132
  721TMC3    C610711   1.574   4.319  14.429  0.0256 -0.0120 -0.2784
  721TMC3     C10712   1.194   4.185  14.349  0.9960  0.3701 -0.1352
  721TMC3     O10713   1.198   4.076  14.402 -0.0779  0.0332  0.2990
  721TMC3     H10714   1.279   4.286  14.578 -0.5739  1.5507  0.2088
  721TMC3    H110715   1.379   4.195  14.181 -1.3087  0.1125  0.1534
  721TMC3    H210716   1.671   4.357  14.460 -0.2126 -0.5509  1.1308
  721TMC3    C710717   1.649   4.284  14.211  0.1498 -0.5187 -0.3258
  721TMC3    C810718   1.539   4.335  14.666 -0.3488  0.0073 -0.2469
  721TMC3    O110719   1.737   4.368  14.214  0.1825  0.8090 -0.0093
  721TMC3    O210720   1.653   4.290  14.670 -0.0946 -0.3771 -0.2350
  722MPD2     C10721   4.731   3.153  13.436 -0.5486  0.1805 -0.0250
  722MPD2    C110722   4.681   3.272  13.380 -0.9135 -0.2105 -0.7965
  722MPD2    C210723   4.548   3.275  13.338  0.2540  0.7961  0.2491
  722MPD2    C310724   4.471   3.154  13.341 -0.6538  0.0724  0.2822
  722MPD2    C410725   4.524   3.042  13.399  0.0730 -0.5453 -0.0588
  722MPD2    C510726   4.651   3.043  13.450  0.4421 -0.7549  0.5222
  722MPD2     H10727   4.515   3.365  13.288  0.7867  0.9793  0.2357
  722MPD2    H110728   4.464   2.952  13.404 -0.7052  0.0339  0.9102
  722MPD2    H210729   0.102   3.149  13.470 -1.1756 -1.2810  1.6762
  722MPD2    H310730   4.683   2.946  13.485  1.7386 -0.6632 -0.4368
  722MPD2     N10731   4.343   3.166  13.274  0.2795 -0.1499 -0.2630
  722MPD2    H510732   4.303   3.255  13.248  0.2286  0.0911  0.6346
  722MPD2    N110733   0.033   3.383  13.348 -0.3668 -0.0204  0.1483
  722MPD2    H710734   4.723   3.467  13.308  1.5115  0.9773  0.2686
  723TMC3    C110735   4.156   3.105  13.162  0.0124 -0.3988  0.3228
  723TMC3    C210736   4.035   3.051  13.187 -0.4868  0.4878 -0.0423
  723TMC3    C310737   3.932   3.106  13.127  0.2602 -0.0027 -0.1579
  723TMC3    C410738   4.169   3.194  13.063  0.4021 -0.2158  0.5220
  723TMC3    C510739   4.059   3.249  13.001 -0.2088 -0.5709 -0.5096
  723TMC3    C610740   3.933   3.212  13.035 -0.0563 -0.8089 -0.2405
  723TMC3     C10741   4.263   3.058  13.244  0.3283  0.2250 -0.1192
  723TMC3     O10742   4.278   2.939  13.276  0.2608  0.2958  0.2233
  723TMC3     H10743   4.028   2.964  13.252 -1.1576  0.8580  0.3807
  723TMC3    H110744   4.266   3.240  13.047  1.2976 -1.1919  3.1581
  723TMC3    H210745   3.849   3.272  13.002 -0.5115  0.2605  2.8518
  723TMC3    C710746   4.076   3.365  12.918 -0.5314 -0.4751 -0.0686
  723TMC3    C810747   3.804   3.042  13.148  0.4510  0.8983 -0.3085
  723TMC3    O110748   4.170   3.444  12.932  0.0352  0.4769 -0.1881
  723TMC3    O210749   3.797   2.974  13.247 -0.1649  0.7621 -0.6549
  724TMC3    C110750   4.348   1.817  10.929 -0.3882  0.0689  0.8675
  724TMC3    C210751   4.321   1.748  10.816  0.2186  0.7935  0.1327
  724TMC3    C310752   4.355   1.811  10.698 -0.9698  0.5230  0.4073
  724TMC3    C410753   4.404   1.935  10.935 -0.4569 -0.3623 -0.3042
  724TMC3    C510754   4.426   2.009  10.820  0.0344 -0.1941 -0.2557
  724TMC3    C610755   4.398   1.942  10.699 -0.6532 -0.3489  1.1237
  724TMC3     C10756   4.344   1.752  11.054  0.4441 -0.1300  0.2117
  724TMC3     O10757   4.423   1.772  11.146  0.2006  0.2026 -0.0994
  724TMC3     H10758   4.311   1.640  10.808  1.0919  0.7807 -0.7961
  724TMC3    H110759   4.432   1.975  11.032 -2.8533  2.5041 -0.7885
  724TMC3    H210760   4.400   2.003  10.609 -0.0506 -2.3279 -0.2072
  724TMC3    C710761   4.539   2.095  10.807 -0.5212 -0.1405 -0.1034
  724TMC3    C810762   4.386   1.719  10.590  0.7938  0.1205  0.0629
  724TMC3    O110763   4.614   2.076  10.713 -0.0507  0.0532 -0.8881
  724TMC3    O210764   4.324   1.613  10.586 -0.3843 -0.5488 -0.0641
  725TMC3    C110765   1.622   0.183  12.772 -0.1107 -0.4426  0.4852
  725TMC3    C210766   1.533   0.261  12.705  0.2235 -0.0399 -0.2208
  725TMC3    C310767   1.504   0.217  12.586 -0.0585  0.4223 -0.5020
  725TMC3    C410768   1.676   0.071  12.723  0.2300 -0.2370 -0.4831
  725TMC3    C510769   1.647   0.039  12.592 -0.5418 -0.1575  0.1077
  725TMC3    C610770   1.559   0.111  12.519 -0.5255 -0.0733  0.3992
  725TMC3     C10771   1.678   0.248  12.885  0.8179 -0.2827  0.6922
  725TMC3     O10772   1.696   0.370  12.870  0.1914  0.2461  0.3819
  725TMC3     H10773   1.494   0.344  12.762  2.3025  0.6188  0.2171
  725TMC3    H110774   1.754   0.023  12.781  0.0931  0.9692  0.7061
  725TMC3    H210775   1.536   0.092  12.414  3.5066  0.4220 -0.5794
  725TMC3    C710776   1.725   4.678  12.515 -0.5345 -0.6017 -0.2333
  725TMC3    C810777   1.372   0.258  12.537  0.0191  0.1614 -0.3631
  725TMC3    O110778   1.714   4.683  12.395 -0.0199 -0.1389 -0.3731
  725TMC3    O210779   1.294   0.293  12.624 -0.3910  0.6246  0.4354
  726MPD2     C10780   3.566   2.040  10.080 -0.3643 -0.4530  0.3335
  726MPD2    C110781   3.570   2.143  10.170 -0.0013 -0.9122 -0.0689
  726MPD2    C210782   3.541   2.111  10.301 -0.4933 -0.1281  0.6600
  726MPD2    C310783   3.499   1.983  10.331 -0.2476  0.7868 -0.1882
  726MPD2    C410784   3.511   1.882  10.244 -0.0633 -0.5264  0.0534
  726MPD2    C510785   3.547   1.913  10.116  0.7087 -0.3460  0.0699
  726MPD2     H10786   3.530   2.195  10.369  0.2906  0.7073 -0.2566
  726MPD2    H110787   3.486   1.779  10.266  1.8917 -1.5953 -2.8116
  726MPD2    H210788   3.568   2.053   9.973 -1.7091 -0.1518  0.3393
  726MPD2    H310789   3.560   1.838  10.039 -0.9706  0.0036 -0.5543
  726MPD2     N10790   3.447   1.944  10.457  0.1351  0.3745 -0.1013
  726MPD2    H510791   3.397   1.856  10.456  1.2724 -0.2822  1.4127
  726MPD2    N110792   3.606   2.272  10.134 -0.4240 -0.0288 -0.0376
  726MPD2    H710793   3.632   2.344  10.201 -0.2976 -0.9242  0.8693
  727TMC3    C110794   3.671   2.455  10.011 -0.0814 -0.1282 -0.5491
  727TMC3    C210795   3.718   2.503  10.129  0.0418  0.4954 -0.0148
  727TMC3    C310796   3.776   2.626  10.126 -0.0184  0.0446 -0.4672
  727TMC3    C410797   3.660   2.534   9.897 -0.0452 -1.1370 -0.4103
  727TMC3    C510798   3.715   2.656   9.898  0.2998 -0.4906 -0.5250
  727TMC3    C610799   3.772   2.708  10.014 -0.5329  0.3619 -0.1249
  727TMC3     C10800   3.609   2.325  10.006  0.2173 -0.2711  0.4183
  727TMC3     O10801   3.568   2.276   9.901  0.4104 -0.1701  0.0696
  727TMC3     H10802   3.717   2.445  10.221 -2.4463 -0.0554 -0.3930
  727TMC3    H110803   3.617   2.488   9.809 -2.9598  1.5329 -0.3780
  727TMC3    H210804   3.829   2.800  10.008 -1.9773  1.2065 -0.8144
  727TMC3    C710805   3.697   2.747   9.778  0.2345 -0.1929  0.3995
  727TMC3    C810806   3.862   2.658  10.230  0.4662 -0.8809 -0.1318
  727TMC3    O110807   3.704   2.697   9.666  0.2297 -0.0462  0.3035
  727TMC3    O210808   3.889   2.574  10.308 -0.0729 -0.0493 -0.0982
  728TMC3    C110809   3.926   0.361  15.674 -0.3057  0.7334 -0.4223
  728TMC3    C210810   3.970   0.493  15.689 -0.1124 -0.4877  0.1988
  728TMC3    C310811   3.998   0.563  15.572 -0.6396 -0.5989  0.2149
  728TMC3    C410812   3.905   0.301  15.544  0.4744  0.5207 -0.4025
  728TMC3    C510813   3.943   0.376  15.437  0.5205  0.5450  0.0397
  728TMC3    C610814   3.986   0.505  15.447 -0.4036 -0.3462 -0.1691
  728TMC3     C10815   3.839   0.306  15.787  0.4452 -0.1049  0.0871
  728TMC3     O10816   3.868   0.336  15.905 -0.0338 -0.2126  0.0844
  728TMC3     H10817   3.968   0.543  15.785 -2.7153 -3.2413  1.5776
  728TMC3    H110818   3.870   0.200  15.530  1.7007  0.1353 -0.6960
  728TMC3    H210819   4.022   0.554  15.357  1.0291  0.0642  0.6397
  728TMC3    C710820   3.872   0.333  15.319 -0.3258  0.0472  0.4619
  728TMC3    C810821   3.972   0.701  15.587  0.5766  0.3178 -0.0371
  728TMC3    O110822   3.826   0.221  15.317 -0.0510  0.2198  0.0361
  728TMC3    O210823   3.996   0.744  15.698 -0.3059  0.2578 -0.6863
  729MPD2     C10824   1.275   1.628  17.037 -0.0154 -0.3272 -0.1417
  729MPD2    C110825   1.381   1.556  17.003 -0.2330  0.3427  0.3634
  729MPD2    C210826   1.453   1.487  17.103  0.4548 -0.3214  0.5397
  729MPD2    C310827   1.403   1.478  17.234  0.1674 -0.0074  0.2078
  729MPD2    C410828   1.283   1.539  17.263  0.2828  0.1942 -0.7046
  729MPD2    C510829   1.224   1.614  17.169 -0.4242 -0.9166 -0.1903
  729MPD2     H10830   1.553   1.446  17.088  0.3812 -0.1424 -0.4338
  729MPD2    H110831   1.228   1.528  17.355 -1.3072  2.3946 -1.3972
  729MPD2    H210832   1.229   1.689  16.960 -0.5743  2.2011  2.1885
  729MPD2    H310833   1.132   1.668  17.191 -0.2778 -0.4428 -0.7451
  729MPD2     N10834   1.463   1.397  17.336  0.8041  0.5556 -0.1897
  729MPD2    H510835   1.414   1.380  17.424 -0.3955  0.9009 -0.7884
  729MPD2    N110836   1.438   1.570  16.874 -0.2327 -0.0371  0.2522
  729MPD2    H710837   1.411   1.652  16.821  1.6096  0.6098  0.2977
  730TMC3    C110838   1.647   1.300  17.461  0.4888  0.6978  0.4882
  730TMC3    C210839   1.778   1.268  17.448  0.2525 -0.0031  0.0998
  730TMC3    C310840   1.866   1.328  17.532  0.5737  0.2245  0.6806
  730TMC3    C410841   1.594   1.369  17.571  0.4764  0.7735 -0.7692
  730TMC3    C510842   1.684   1.415  17.656  0.3019  0.5451 -0.2955
  730TMC3    C610843   1.819   1.404  17.638 -0.8111 -0.0125 -0.3355
  730TMC3     C10844   1.593   1.346  17.334  0.2967  0.1863  0.4380
  730TMC3     O10845   1.680   1.375  17.260 -0.0350  0.4082  0.6317
  730TMC3     H10846   1.809   1.221  17.354 -0.1790  1.7193 -0.9034
  730TMC3    H110847   1.491   1.404  17.572  0.8093  1.7182  0.6817
  730TMC3    H210848   1.898   1.446  17.699 -1.1469  0.0761  0.0377
  730TMC3    C710849   1.670   1.558  17.663 -0.9250  0.4096  0.0290
  730TMC3    C810850   1.972   1.388  17.453  0.0719 -0.6353  0.5548
  730TMC3    O110851   1.763   1.634  17.631 -0.6644 -0.0521  0.1551
  730TMC3    O210852   2.009   1.329  17.352  0.5189  0.3018  0.1826
  731MPD2     C10853   1.439   4.469  12.249  0.1267 -0.2598  0.3868
  731MPD2    C110854   1.316   4.537  12.245  0.8480  0.0253 -0.5778
  731MPD2    C210855   1.267   4.577  12.367 -0.4433  0.4535 -0.4836
  731MPD2    C310856   1.323   4.535  12.487  0.7499  0.1235  0.5792
  731MPD2    C410857   1.442   4.471  12.486  0.3548 -0.3276  0.2881
  731MPD2    C510858   1.497   4.434  12.366  1.2314  0.5149 -0.1613
  731MPD2     H10859   1.186   4.649  12.372  0.1194  1.0665 -0.3458
  731MPD2    H110860   1.473   4.429  12.582 -2.3071 -0.1919  1.1991
  731MPD2    H210861   1.486   4.428  12.160  0.0135  0.6544 -0.0976
  731MPD2    H310862   1.594   4.388  12.373 -0.0348 -2.0691  0.3015
  731MPD2     N10863   1.254   4.567  12.602 -0.0453 -0.1454 -0.3251
  731MPD2    H510864   1.165   4.611  12.581 -0.0576  0.6946  1.4419
  731MPD2    N110865   1.264   4.581  12.124 -0.3110 -0.1304 -0.4042
  731MPD2    H710866   1.327   4.589  12.045  1.1793 -0.5196  0.7316
  732TMC3    C110867   1.134   4.716  11.986 -0.2791  0.0237  0.1511
  732TMC3    C210868   1.006   4.731  11.933  0.0434 -0.0492  0.0132
  732TMC3    C310869   0.973   0.082  11.826 -0.4490 -0.2800 -0.1202
  732TMC3    C410870   1.233   0.064  11.944 -0.1597  0.0733  0.7715
  732TMC3    C510871   1.199   0.151  11.843  0.1371  0.4063 -0.0217
  732TMC3    C610872   1.078   0.156  11.779  0.0544 -0.1578  0.1306
  732TMC3     C10873   1.140   4.637  12.109  0.1708  0.3073 -0.5993
  732TMC3     O10874   1.034   4.614  12.171  0.0761 -0.4666 -0.1070
  732TMC3     H10875   0.922   4.672  11.968 -0.2127  0.7321  0.7171
  732TMC3    H110876   1.325   0.063  12.000 -0.3030 -0.3533  1.0022
  732TMC3    H210877   1.067   0.229  11.700  0.1113 -1.6486 -1.2393
  732TMC3    C710878   1.307   0.227  11.792  0.4625 -0.9348 -0.0773
  732TMC3    C810879   0.883   0.032  11.719 -0.6079  0.1715 -0.0727
  732TMC3    O110880   1.271   0.338  11.748 -0.2111  0.3824  0.1015
  732TMC3    O210881   0.934   0.016  11.608 -0.4135  0.1322 -0.4018
  733TMC3    C110882   1.864   2.582  12.453  0.4095 -0.2324  0.0759
  733TMC3    C210883   1.987   2.602  12.517 -0.0971  0.3421  0.0310
  733TMC3    C310884   2.055   2.714  12.491  0.5515 -0.2235 -0.1056
  733TMC3    C410885   1.813   2.678  12.361  0.5460  0.7405  0.2054
  733TMC3    C510886   1.882   2.797  12.349  0.6313 -0.0325  0.5446
  733TMC3    C610887   1.995   2.817  12.424 -0.6565  0.7904 -0.3541
  733TMC3     C10888   1.765   2.521  12.536  0.3298  0.3649 -0.3234
  733TMC3     O10889   1.666   2.585  12.560  0.6212  0.0351 -0.3368
  733TMC3     H10890   2.022   2.533  12.593  1.9538  1.9093  0.5380
  733TMC3    H110891   1.714   2.665  12.318  0.4262  2.0431  0.0960
  733TMC3    H210892   2.051   2.900  12.382 -1.1192  0.2039 -2.1247
  733TMC3    C710893   1.819   2.908  12.284 -0.1172  0.2205  0.4990
  733TMC3    C810894   2.165   2.755  12.583  0.0944 -0.1890  0.6059
  733TMC3    O110895   1.728   2.878  12.206  0.0767 -0.4555 -0.4895
  733TMC3    O210896   2.237   2.665  12.636  0.0621  0.0234  0.1485
  734MPD2     C10897   3.447   0.487  12.628  0.1491 -0.5391  0.6990
  734MPD2    C110898   3.426   0.380  12.544 -0.3212 -0.2899  0.9062
  734MPD2    C210899   3.455   0.412  12.407 -0.4938 -0.1088 -0.3073
  734MPD2    C310900   3.515   0.531  12.359  0.5081  0.0875 -0.1013
  734MPD2    C410901   3.539   0.629  12.453 -1.0913  0.1685  0.1973
  734MPD2    C510902   3.490   0.612  12.581  0.4935 -1.1195 -0.3955
  734MPD2     H10903   3.451   0.330  12.335 -0.4984  1.4083 -2.0343
  734MPD2    H110904   3.597   0.718  12.429 -0.8320  0.1599  0.7763
  734MPD2    H210905   3.413   0.486  12.731 -1.2445 -0.5196  0.2356
  734MPD2    H310906   3.503   0.696  12.648 -1.0407 -2.0276  1.0308
  734MPD2     N10907   3.542   0.540  12.218 -0.1927 -0.0202 -0.0832
  734MPD2    H510908   3.517   0.458  12.164  0.0859 -0.6673  0.7708
  734MPD2    N110909   3.364   0.259  12.586 -0.6260 -0.3825  0.3689
  734MPD2    H710910   3.363   0.236  12.685  1.7798  0.4222  0.5769
  735TMC3    C110911   3.277   0.037  12.545  0.6484  0.3566 -0.8995
  735TMC3    C210912   3.174   4.706  12.478  0.2048  0.4499  0.3666
  735TMC3    C310913   3.218   4.593  12.407  0.0693 -0.1863 -1.1600
  735TMC3    C410914   3.402   4.708  12.563 -0.5196  0.4266  0.0438
  735TMC3    C510915   3.430   4.583  12.507  0.0721  0.4348  0.3059
  735TMC3    C610916   3.340   4.533  12.417  1.2093  0.2940 -0.3080
  735TMC3     C10917   3.299   0.170  12.498 -0.8492 -0.0679 -0.7580
  735TMC3     O10918   3.259   0.201  12.384  0.5189 -0.0165 -0.3517
  735TMC3     H10919   3.087   0.031  12.444  2.0149  4.6197  2.6525
  735TMC3    H110920   3.481   0.034  12.610  1.4699 -1.4680 -0.9677
  735TMC3    H210921   3.372   4.446  12.360 -0.2676 -1.7579  1.9530
  735TMC3    C710922   3.571   4.579  12.454 -0.6040 -0.6831 -0.7022
  735TMC3    C810923   3.174   4.596  12.272 -0.4274  0.5390  0.7655
  735TMC3    O110924   3.631   4.682  12.432 -0.1171 -0.1285 -0.1102
  735TMC3    O210925   3.141   4.490  12.217  0.0078  0.0537  0.2657
  736MPD2     C10926   3.784   4.281  12.433  0.0566 -0.2337  0.6764
  736MPD2    C110927   3.746   4.408  12.403  0.5704 -0.0422 -0.3404
  736MPD2    C210928   3.837   4.502  12.348 -0.2136 -0.1954 -0.1669
  736MPD2    C310929   3.966   4.460  12.318 -0.9969  0.3551  0.1667
  736MPD2    C410930   4.002   4.331  12.349 -0.0249  0.0757  0.4618
  736MPD2    C510931   3.911   4.245  12.410 -0.2592 -0.5755  0.5098
  736MPD2     H10932   3.791   4.592  12.310 -0.3000 -0.1246  0.1051
  736MPD2    H110933   4.098   4.287  12.324 -0.3006  0.7273 -1.7417
  736MPD2    H210934   3.718   4.205  12.473 -0.4565  0.3375  0.9099
  736MPD2    H310935   3.957   4.151  12.440  0.9870 -0.1030  0.1059
  736MPD2     N10936   4.060   4.533  12.246 -0.1947 -0.3592  0.0270
  736MPD2    H510937   4.140   4.478  12.216  0.2950  0.2971  0.1235
  736MPD2    N110938   3.612   4.446  12.432  0.1406 -1.2358  0.1516
  736MPD2    H710939   3.554   4.369  12.464 -1.6555 -0.1185 -0.3878
  737TMC3    C110940   4.156   4.693  12.109 -0.2130 -0.1843 -0.0167
  737TMC3    C210941   4.159   0.087  12.048 -1.3246 -0.1369  0.2116
  737TMC3    C310942   4.248   0.109  11.947 -0.8926 -0.0705 -0.5515
  737TMC3    C410943   4.219   4.588  12.048  0.3902 -0.1605 -0.2739
  737TMC3    C510944   4.308   4.624  11.945 -0.0301  0.2323 -0.3381
  737TMC3    C610945   4.334   0.016  11.899  0.4851  0.9534  0.7582
  737TMC3     C10946   4.054   4.664  12.202 -0.3604  0.7021  0.2233
  737TMC3     O10947   3.974   0.017  12.232  0.3979 -0.1592  0.1646
  737TMC3     H10948   4.091   0.161  12.088 -0.5231  0.1884  0.9813
  737TMC3    H110949   4.214   4.485  12.080  1.4771 -0.2346 -0.3319
  737TMC3    H210950   4.392   0.026  11.808  1.1808 -1.6927  0.9141
  737TMC3    C710951   4.387   4.511  11.901  0.2926 -0.0049 -0.7828
  737TMC3    C810952   4.217   0.217  11.856  0.8516 -0.0895  0.3262
  737TMC3    O110953   4.348   4.395  11.927 -0.0410  0.9320  0.4754
  737TMC3    O210954   4.208   0.191  11.736 -0.5060  0.1452 -0.3690
  738MPD2     C10955   0.261   3.082  15.194  0.4194 -0.5154 -0.6028
  738MPD2    C110956   0.201   3.192  15.141 -0.1203  0.2871  0.4867
  738MPD2    C210957   0.263   3.322  15.161 -0.0959 -0.1537  0.1436
  738MPD2    C310958   0.387   3.328  15.220  0.1333  0.7323 -0.8143
  738MPD2    C410959   0.444   3.212  15.264 -0.1056  0.6995  1.9246
  738MPD2    C510960   0.378   3.095  15.253 -0.2009  0.0412 -0.6632
  738MPD2     H10961   0.203   3.406  15.127 -1.0400 -2.1066 -2.9538
  738MPD2    H110962   0.536   3.223  15.320  1.2518  1.1818 -0.3718
  738MPD2    H210963   0.213   2.985  15.192  1.0624 -0.8957  2.1809
  738MPD2    H310964   0.409   3.001  15.298  0.5637  1.0779  1.0174
  738MPD2     N10965   0.465   3.447  15.227  0.1470 -0.0713 -0.0325
  738MPD2    H510966   0.561   3.419  15.246  0.3029  1.2165  1.0551
  738MPD2    N110967   0.083   3.183  15.062 -0.0838 -0.0066 -0.0751
  738MPD2    H710968   0.055   3.279  15.041  1.2241  0.8476  2.1418
  739TMC3    C110969   0.554   3.653  15.149  0.1585  0.1490  1.0968
  739TMC3    C210970   0.549   3.728  15.039 -0.3172 -1.0510  0.1654
  739TMC3    C310971   0.632   3.842  15.033  0.6566  0.9745  0.5132
  739TMC3    C410972   0.637   3.680  15.254 -0.4910  0.3112 -0.7458
  739TMC3    C510973   0.724   3.789  15.243 -0.3660  0.9686  0.3561
  739TMC3    C610974   0.726   3.867  15.129 -0.4717 -0.1091 -0.1514
  739TMC3     C10975   0.436   3.570  15.168 -0.1673 -1.2051 -0.8213
  739TMC3     O10976   0.335   3.602  15.101 -0.6854  0.2594 -0.2147
  739TMC3     H10977   0.474   3.718  14.961  0.4055 -2.1644 -0.3960
  739TMC3    H110978   0.631   3.628  15.349  1.2094  0.2597 -0.6747
  739TMC3    H210979   0.797   3.949  15.123  1.2938 -1.8656 -3.6760
  739TMC3    C710980   0.799   3.837  15.354  1.0965 -0.1122  0.1843
  739TMC3    C810981   0.618   3.929  14.911  0.0389  0.6262 -0.0634
  739TMC3    O110982   0.838   3.955  15.356 -0.1664 -0.1020  0.2535
  739TMC3    O210983   0.562   3.875  14.811 -0.2334 -0.3277 -0.4749
  740TMC3    C110984   0.781   0.157  14.224 -0.1042 -0.0844  0.5739
  740TMC3    C210985   0.846   0.090  14.318 -0.5862 -0.4136 -0.0378
  740TMC3    C310986   0.893   4.692  14.301 -0.3542 -0.4614 -0.3228
  740TMC3    C410987   0.780   0.110  14.092 -0.7195  0.1345  0.3547
  740TMC3    C510988   0.850   4.719  14.072 -0.3797  0.4002  0.4835
  740TMC3    C610989   0.885   4.634  14.175 -0.4225  0.0058 -0.8855
  740TMC3     C10990   0.677   0.251  14.269 -0.2062 -0.0333  0.0330
  740TMC3     O10991   0.720   0.354  14.318  0.2374 -0.0859  0.1545
  740TMC3     H10992   0.846   0.129  14.419  0.1751  0.3021 -0.3225
  740TMC3    H110993   0.744   0.176  14.013 -0.4057  0.5673  0.5725
  740TMC3    H210994   0.950   4.550  14.153 -1.2206 -0.1683 -2.5294
  740TMC3    C710995   0.874   4.675  13.939 -0.2498  0.4377 -0.3014
  740TMC3    C810996   0.907   4.616  14.422 -0.2112  1.1354 -0.2632
  740TMC3    O110997   0.886   4.554  13.935 -0.2445  0.0628  0.4187
  740TMC3    O210998   0.929   4.694  14.516 -0.3335  0.2096 -0.2396
  741TMC3    C110999   0.221   4.007  14.664 -0.1032 -0.3110 -0.1781
  741TMC3    C211000   0.152   3.888  14.655  0.1199  0.0514  0.5271
  741TMC3    C311001   0.145   3.823  14.775  0.2960  0.2619  0.0732
  741TMC3    C411002   0.275   4.054  14.783 -0.4032 -0.3571 -0.0538
  741TMC3    C511003   0.268   3.980  14.894 -0.1244  0.8822  0.5780
  741TMC3    C611004   0.198   3.863  14.892 -0.9886 -0.4232 -0.3573
  741TMC3     C11005   0.208   4.101  14.560  0.6161  0.5499  0.5420
  741TMC3     O11006   0.221   4.215  14.597 -0.4548 -0.1292  0.4515
  741TMC3     H11007   0.114   3.845  14.564  0.7708  1.7644 -0.5503
  741TMC3    H111008   0.322   4.152  14.786  0.8956 -0.9844  0.0793
  741TMC3    H211009   0.164   3.810  14.980 -3.0758  2.4939  0.5694
  741TMC3    C711010   0.282   4.051  15.021 -0.0147  0.3822 -0.2715
  741TMC3    C811011   0.079   3.692  14.763 -0.1646  0.0380 -0.2096
  741TMC3    O111012   0.274   4.172  15.023  0.3040  0.0954  0.1522
  741TMC3    O211013   0.126   3.608  14.836  0.2290  0.7825  0.1532
  742TMC3    C111014   4.533   2.151  15.608  0.2187 -0.0793  0.5343
  742TMC3    C211015   4.451   2.119  15.508  0.4804 -0.5944  0.6101
  742TMC3    C311016   4.502   2.147  15.388 -0.5330 -0.2510  1.1285
  742TMC3    C411017   4.647   2.223  15.595 -0.0581  1.1261  0.1782
  742TMC3    C511018   4.691   2.262  15.471  0.2580  0.5486 -0.0012
  742TMC3    C611019   4.622   2.219  15.358 -0.1756 -1.2917  0.2871
  742TMC3     C11020   4.496   2.080  15.729  0.5293 -0.0658 -0.0997
  742TMC3     O11021   4.378   2.057  15.742 -0.8881  0.5167  0.6361
  742TMC3     H11022   4.383   2.034  15.512  2.1790 -2.0593 -1.7235
  742TMC3    H111023   4.705   2.255  15.681  2.8465 -1.2034 -0.9025
  742TMC3    H211024   4.638   2.245  15.254 -1.6565  1.7919  0.8162
  742TMC3    C711025   0.100   2.279  15.448 -0.5874  0.4569  0.1460
  742TMC3    C811026   4.444   2.085  15.275 -0.2122 -0.1681 -0.1864
  742TMC3    O111027   0.173   2.268  15.550 -0.5685 -0.0134 -0.3198
  742TMC3    O211028   4.519   2.072  15.183 -0.1665 -0.4469  0.4681
  743MPD2     C11029   2.457   4.341   1.955  0.0684  0.9628 -0.5217
  743MPD2    C111030   2.474   4.294   1.827  0.1766  1.0862  0.1031
  743MPD2    C211031   2.601   4.298   1.771 -0.0597  0.6069 -0.3131
  743MPD2    C311032   2.712   4.338   1.849  0.5481 -0.0701 -0.4878
  743MPD2    C411033   2.686   4.375   1.978  0.0004 -0.1473  0.0067
  743MPD2    C511034   2.561   4.387   2.034 -0.2787  0.0937 -1.1536
  743MPD2     H11035   2.625   4.250   1.676  1.2530  2.0209 -0.6966
  743MPD2    H111036   2.767   4.416   2.037 -0.5207  1.6248 -0.4992
  743MPD2    H211037   2.358   4.351   1.997  0.5629  0.1300  0.8548
  743MPD2    H311038   2.553   4.427   2.134 -0.8332  0.8699 -1.5074
  743MPD2     N11039   2.841   4.325   1.793  0.2474  0.4180  0.1068
  743MPD2    H511040   2.844   4.301   1.695  2.3819 -3.0170  1.0311
  743MPD2    N111041   2.364   4.248   1.753  0.7783 -0.2125  0.5332
  743MPD2    H711042   2.278   4.236   1.806  0.7551 -0.0709  0.5285
  744TMC3    C111043   2.231   4.142   1.586  0.1545 -0.0565  0.6342
  744TMC3    C211044   2.126   4.229   1.574 -0.0594  0.2303  0.5109
  744TMC3    C311045   2.032   4.210   1.473 -0.8240 -0.3103 -0.0991
  744TMC3    C411046   2.245   4.042   1.492  0.4646 -0.2966 -0.2125
  744TMC3    C511047   2.154   4.023   1.395 -0.7844 -0.1200 -0.5464
  744TMC3    C611048   2.045   4.106   1.388 -0.4659  0.5135  0.1505
  744TMC3     C11049   2.361   4.195   1.623 -0.4216 -0.0162 -0.3699
  744TMC3     O11050   2.449   4.187   1.538 -0.1517  0.0393  0.6952
  744TMC3     H11051   2.139   4.326   1.620  1.2888  1.4489 -2.4007
  744TMC3    H111052   2.339   3.989   1.494 -0.2690 -1.5730  0.6924
  744TMC3    H211053   1.983   4.094   1.300  1.9952 -0.1787 -1.4898
  744TMC3    C711054   2.205   3.973   1.268 -0.6800  0.3556 -0.9350
  744TMC3    C811055   1.961   4.327   1.419  0.0937 -0.0032  0.1111
  744TMC3    O111056   2.322   3.943   1.257  0.1131  0.2527  0.1960
  744TMC3    O211057   1.943   4.333   1.297 -0.1092 -0.5869  0.1083
  745TMC3    C111058   0.882   2.621  14.097 -0.0930 -0.3894  0.3816
  745TMC3    C211059   0.868   2.591  14.232 -0.1333  0.3121 -0.1529
  745TMC3    C311060   0.935   2.484  14.284 -0.1993  0.6231  0.0389
  745TMC3    C411061   0.965   2.554  14.011  0.4849  0.3405 -0.0587
  745TMC3    C511062   1.038   2.447  14.063  0.1746 -1.3555 -0.0489
  745TMC3    C611063   1.027   2.418  14.200 -1.0268  0.4737  0.0267
  745TMC3     C11064   0.827   2.744  14.044  0.1570 -0.1794 -0.4049
  745TMC3     O11065   0.708   2.759  14.059  0.1083  0.5288  0.0479
  745TMC3     H11066   0.795   2.650  14.286 -0.0394  0.5104 -0.2444
  745TMC3    H111067   0.979   2.577  13.906  0.0850  1.3969  0.1180
  745TMC3    H211068   1.088   2.342  14.247  1.1136  0.9986 -1.8859
  745TMC3    C711069   1.146   2.392  13.988  0.2802  0.4664 -0.5397
  745TMC3    C811070   0.902   2.431  14.415  0.1555 -0.4984  0.3021
  745TMC3    O111071   1.248   2.359  14.053 -0.4147 -0.1388  0.0338
  745TMC3    O211072   0.913   2.314  14.436 -0.2387 -0.0801 -0.0865
  746TMC3    C111073   2.768   0.099  10.862 -0.7976  0.0945  0.5156
  746TMC3    C211074   2.829   0.143  10.748  0.9018  0.0543  0.1030
  746TMC3    C311075   2.784   0.091  10.622 -0.0052 -0.4512  0.5354
  746TMC3    C411076   2.677   4.728  10.852 -0.5609 -0.1070  0.5251
  746TMC3    C511077   2.647   4.663  10.730 -0.8114  0.0706  0.4233
  746TMC3    C611078   2.691   4.723  10.619  0.0794  0.8375 -0.1810
  746TMC3     C11079   2.741   0.206  10.960 -0.1673 -0.0348 -0.4184
  746TMC3     O11080   2.699   0.171  11.068  0.1275  0.1246  0.3305
  746TMC3     H11081   2.902   0.222  10.739 -1.0041  1.5646 -2.3169
  746TMC3    H111082   2.628   4.705  10.946 -1.7568 -1.2118 -0.3810
  746TMC3    H211083   2.675   4.678  10.522 -2.1737  0.8016  0.1887
  746TMC3    C711084   2.552   4.565  10.715  0.0812  0.6359  0.2361
  746TMC3    C811085   2.884   0.107  10.517 -0.3808  0.5729 -0.4687
  746TMC3    O111086   2.485   4.569  10.610  0.2095  0.0552 -0.5971
  746TMC3    O211087   2.997   0.135  10.555  0.0554  0.8410 -0.0311
  747TMC3    C111088   0.550   4.550  11.319  0.4846  0.3615  0.7511
  747TMC3    C211089   0.451   4.471  11.371  0.2246 -0.3528 -0.2845
  747TMC3    C311090   0.375   4.522  11.471 -1.0493 -0.1836  0.6561
  747TMC3    C411091   0.576   4.678  11.360 -0.2758  0.1748  0.3668
  747TMC3    C511092   0.495   4.720  11.459  0.2870 -0.0319  0.0439
  747TMC3    C611093   0.391   4.650  11.516 -0.2779 -0.1357  0.1980
  747TMC3     C11094   0.595   4.524  11.182 -0.1570 -0.3761  0.1789
  747TMC3     O11095   0.655   4.608  11.115 -0.0903 -0.0710 -0.4111
  747TMC3     H11096   0.431   4.373  11.328 -0.0956  0.3004 -1.6141
  747TMC3    H111097   0.647   0.012  11.311 -1.8677 -0.1318 -2.3416
  747TMC3    H211098   0.335   4.686  11.602 -0.3999 -0.7738  0.3900
  747TMC3    C711099   0.521   0.116  11.523 -0.1070 -0.8888 -0.5707
  747TMC3    C811100   0.285   4.424  11.530  0.3959 -0.0209 -0.0109
  747TMC3    O111101   0.421   0.169  11.578  0.3285 -0.3654 -0.0580
  747TMC3    O211102   0.282   4.310  11.482  0.2247 -0.6687 -0.2360
  748MPD2     C11103   1.739   0.299   1.349 -0.0626 -0.0885 -0.0872
  748MPD2    C111104   1.783   0.379   1.253 -0.2720 -0.0546 -0.2399
  748MPD2    C211105   1.918   0.392   1.232 -0.0159  0.1445 -0.0444
  748MPD2    C311106   2.008   0.317   1.304  0.4096 -0.1490 -0.6823
  748MPD2    C411107   1.957   0.246   1.415 -0.1340 -0.4649  0.8412
  748MPD2    C511108   1.825   0.241   1.438  0.9062 -0.4057 -0.0367
  748MPD2     H11109   1.962   0.460   1.160  1.7762 -0.8286  0.1208
  748MPD2    H111110   2.026   0.187   1.475 -1.4837 -3.5416 -0.6495
  748MPD2    H211111   1.633   0.276   1.350 -0.2260  0.6390 -1.0041
  748MPD2    H311112   1.784   0.179   1.517 -1.4304 -0.6579 -1.4218
  748MPD2     N11113   2.146   0.333   1.278 -0.1599  0.1705 -0.0553
  748MPD2    H511114   2.159   0.368   1.183  2.7358 -2.1447 -0.4801
  748MPD2    N111115   1.692   0.438   1.163  0.1831  0.2475 -0.0601
  748MPD2    H711116   1.592   0.428   1.181 -0.0288 -0.1126 -1.4403
  749TMC3    C111117   2.387   0.312   1.310 -0.6163  0.5445 -0.4680
  749TMC3    C211118   2.490   0.272   1.394 -0.1287  0.2478  0.4847
  749TMC3    C311119   2.618   0.324   1.374 -0.9483 -0.3200 -0.9626
  749TMC3    C411120   2.414   0.409   1.217  0.4611  0.0465  0.8649
  749TMC3    C511121   2.543   0.452   1.208  0.2864  0.0304 -0.3036
  749TMC3    C611122   2.649   0.408   1.271  0.3203  0.0599 -0.5131
  749TMC3     C11123   2.252   0.278   1.356  1.0755 -0.2522 -0.4694
  749TMC3     O11124   2.241   0.213   1.460 -0.1200  0.1164 -0.2417
  749TMC3     H11125   2.473   0.192   1.466  0.1718 -1.9324 -1.8715
  749TMC3    H111126   2.331   0.444   1.156  1.7325  0.1581 -0.8121
  749TMC3    H211127   2.744   0.457   1.250 -0.2560  0.4035 -2.2962
  749TMC3    C711128   2.575   0.525   1.088  0.7660  0.3875 -0.9916
  749TMC3    C811129   2.722   0.264   1.456 -0.5812 -0.1795 -0.4450
  749TMC3    O111130   2.655   0.612   1.078  0.0935  0.7752  0.0577
  749TMC3    O211131   2.701   0.153   1.502 -0.3607  0.1603 -0.3118
  750MPD2     C11132   2.365   1.964  11.253  0.4223 -0.2051  0.4373
  750MPD2    C111133   2.271   1.882  11.310 -0.2253 -0.9793  0.5464
  750MPD2    C211134   2.274   1.749  11.272  0.6022  0.0839 -0.5857
  750MPD2    C311135   2.360   1.702  11.177  0.1560 -0.7453  0.4708
  750MPD2    C411136   2.457   1.790  11.127 -0.3309 -0.2241  0.7105
  750MPD2    C511137   2.461   1.918  11.171  0.2552 -0.2447 -0.0412
  750MPD2     H11138   2.195   1.679  11.298 -0.7267  1.9247  0.3187
  750MPD2    H111139   2.543   1.756  11.072 -0.5274  0.1474  0.1801
  750MPD2    H211140   2.368   2.068  11.283  0.3094 -0.5281  1.5797
  750MPD2    H311141   2.538   1.991  11.149  0.7656 -0.9506 -0.6525
  750MPD2     N11142   2.373   1.570  11.130  0.4754 -0.2248  0.8720
  750MPD2    H511143   2.452   1.542  11.073 -2.4547 -0.6144 -3.0227
  750MPD2    N111144   2.173   1.942  11.392  0.0481 -0.0163 -0.1077
  750MPD2    H711145   2.179   2.042  11.408  1.1858 -0.2284  0.7362
  751TMC3    C111146   2.331   1.342  11.103  0.6902  0.2600 -0.3435
  751TMC3    C211147   2.298   1.229  11.168 -0.8728  0.2935 -0.2074
  751TMC3    C311148   2.362   1.114  11.133  0.5984  0.4995 -0.1953
  751TMC3    C411149   2.400   1.344  10.991  0.3611  1.1237 -0.1738
  751TMC3    C511150   2.445   1.225  10.947  0.3334 -0.2637 -0.2177
  751TMC3    C611151   2.435   1.104  11.013  0.3206  0.1330 -0.4993
  751TMC3     C11152   2.282   1.465  11.152 -0.4773 -0.0980 -0.1104
  751TMC3     O11153   2.185   1.469  11.227  0.1892 -0.8850 -0.1510
  751TMC3     H11154   2.228   1.234  11.250 -0.9274 -2.8392 -0.0804
  751TMC3    H111155   2.392   1.430  10.926 -1.1905  0.0961 -1.3313
  751TMC3    H211156   2.484   1.017  10.972 -1.0393  0.6927 -3.3171
  751TMC3    C711157   2.486   1.219  10.804 -0.4640 -0.0215 -0.0773
  751TMC3    C811158   2.284   0.993  11.156  0.1369  0.2022  0.1930
  751TMC3    O111159   2.500   1.321  10.739 -0.5531 -0.6636  0.0742
  751TMC3    O211160   2.272   0.919  11.057 -0.0855  0.2630 -0.1575
  752TMC3    C111161   2.258   0.815  16.823  0.2963  0.2229 -0.5267
  752TMC3    C211162   2.316   0.692  16.837 -0.1823 -0.1072 -0.1887
  752TMC3    C311163   2.304   0.629  16.959  0.0633 -0.0740  0.2108
  752TMC3    C411164   2.215   0.879  16.941 -0.6643 -0.1573  0.1614
  752TMC3    C511165   2.203   0.812  17.056 -0.1597 -0.1188  0.2712
  752TMC3    C611166   2.244   0.685  17.073 -0.2468  0.2238 -0.8445
  752TMC3     C11167   2.239   0.875  16.688  0.3915 -0.1792  0.3680
  752TMC3     O11168   2.262   0.801  16.591 -0.8496  0.0671  0.2052
  752TMC3     H11169   2.349   0.651  16.742  2.0156 -0.0713  0.5566
  752TMC3    H111170   2.199   0.986  16.946 -0.6836 -0.1490 -0.0430
  752TMC3    H211171   2.243   0.634  17.169  1.1959 -1.3032 -1.6586
  752TMC3    C711172   2.111   0.877  17.154 -0.0963  1.0470  0.0623
  752TMC3    C811173   2.300   0.483  16.963 -0.0140 -0.2910  0.1729
  752TMC3    O111174   2.090   0.996  17.151 -0.2283 -0.6430 -0.5360
  752TMC3    O211175   2.229   0.428  17.044 -0.3814 -0.3846  0.0373
  753TMC3    C111176   3.381   2.412  13.173 -0.0614  0.1145 -0.0649
  753TMC3    C211177   3.366   2.407  13.310 -0.5953  0.2620  0.1551
  753TMC3    C311178   3.256   2.340  13.359  0.1766 -0.6779 -0.3706
  753TMC3    C411179   3.280   2.365  13.091 -0.1693  0.5171  0.8372
  753TMC3    C511180   3.176   2.301  13.143  0.6712 -0.1999 -0.3447
  753TMC3    C611181   3.160   2.286  13.279  0.6378  0.3025  0.3481
  753TMC3     C11182   3.504   2.473  13.118 -0.1365 -0.6373 -0.7751
  753TMC3     O11183   3.501   2.522  13.005 -0.5341  0.1109 -0.4559
  753TMC3     H11184   3.435   2.466  13.369  0.3641 -0.6241 -0.0592
  753TMC3    H111185   3.288   2.396  12.988  0.7477 -0.3103  0.6611
  753TMC3    H211186   3.066   2.249  13.318  0.3811  1.1518  0.5379
  753TMC3    C711187   3.090   2.227  13.052  0.0336  0.1451 -0.0669
  753TMC3    C811188   3.255   2.289  13.496 -1.0087 -0.2924  0.0414
  753TMC3    O111189   3.064   2.279  12.947  0.6614  0.1557  0.5374
  753TMC3    O211190   3.180   2.192  13.519  0.2593  0.0482  0.4628
  754MPD2     C11191   2.780   1.101  13.234  0.1009 -0.1289  0.1990
  754MPD2    C111192   2.749   0.963  13.238  0.2841 -0.1519 -0.0443
  754MPD2    C211193   2.622   0.918  13.226 -0.3892  0.1840 -0.7614
  754MPD2    C311194   2.527   1.015  13.215 -0.2627 -0.4495  0.2033
  754MPD2    C411195   2.551   1.147  13.204 -0.8481  0.3096 -0.3046
  754MPD2    C511196   2.681   1.190  13.212  0.0349 -0.2388  0.5037
  754MPD2     H11197   2.599   0.813  13.213 -0.3828 -0.1928  2.2808
  754MPD2    H111198   2.469   1.215  13.182 -1.3482  0.2834  1.4946
  754MPD2    H211199   2.878   1.146  13.245  1.2291 -2.2489 -0.9980
  754MPD2    H311200   2.703   1.296  13.200 -1.0561 -0.0816 -0.0608
  754MPD2     N11201   2.390   0.978  13.221 -0.1688  0.3157  0.6632
  754MPD2    H511202   2.316   1.046  13.209  2.3605  2.8195 -0.6878
  754MPD2    N111203   2.863   0.881  13.235 -0.1793  0.0663  0.4306
  754MPD2    H711204   2.948   0.936  13.221  0.5398 -0.9810  0.7169
  755MPD2     C11205   1.859   1.598  13.247  0.2509 -0.3769 -0.5781
  755MPD2    C111206   1.812   1.499  13.337 -0.1422  0.3888 -0.4016
  755MPD2    C211207   1.826   1.361  13.310  0.1870 -0.6726  0.0902
  755MPD2    C311208   1.918   1.323  13.215  0.0122 -0.4016 -0.0650
  755MPD2    C411209   1.981   1.419  13.136  0.3593 -1.3306 -0.2812
  755MPD2    C511210   1.945   1.550  13.155 -0.1737  0.5999 -0.0374
  755MPD2     H11211   1.780   1.292  13.379 -0.3301 -0.1231  0.3020
  755MPD2    H111212   2.054   1.399  13.057  0.2819 -0.0628 -0.6763
  755MPD2    H211213   1.840   1.703  13.266  2.1420 -0.1829  0.2002
  755MPD2    H311214   1.990   1.628  13.095 -0.1886  0.2969 -0.4341
  755MPD2     N11215   1.962   1.188  13.197  0.0018  0.3323  0.0524
  755MPD2    H511216   2.025   1.172  13.119  1.0758 -2.4914  1.5261
  755MPD2    N111217   1.737   1.530  13.454  0.8348 -0.1660  0.1014
  755MPD2    H711218   1.718   1.453  13.518  1.5248  0.1482  0.6793
  756MPD2     C11219   2.952   2.655   9.668  0.0766 -0.4429  0.0770
  756MPD2    C111220   2.947   2.655   9.807 -0.5209 -0.4689  0.2183
  756MPD2    C211221   2.949   2.526   9.864 -0.4326  0.2034  0.6180
  756MPD2    C311222   2.963   2.413   9.777  0.8348  0.3694 -0.3656
  756MPD2    C411223   2.974   2.426   9.642 -0.4345 -0.0962 -0.0333
  756MPD2    C511224   2.969   2.549   9.588  0.4245  0.9801  0.3509
  756MPD2     H11225   2.938   2.504   9.970 -0.3950  0.1032  0.6005
  756MPD2    H111226   2.971   2.342   9.573 -0.8728 -1.1358  1.2627
  756MPD2    H211227   2.956   2.756   9.631 -1.6882 -1.3502 -2.5708
  756MPD2    H311228   2.974   2.554   9.479 -1.1496  0.7316  0.2646
  756MPD2     N11229   2.947   2.281   9.830 -0.2512  0.1165 -0.5375
  756MPD2    H511230   2.930   2.287   9.930 -0.0430  1.2563 -0.5696
  756MPD2    N111231   2.950   2.765   9.894  0.1558  0.2353  0.2413
  756MPD2    H711232   2.966   2.750   9.994 -0.6025  0.2024  0.3565
  757MPD2     C11233   2.264   1.874  10.413  0.7503  0.1051  0.6774
  757MPD2    C111234   2.277   1.787  10.311 -0.3653  0.9839  0.1393
  757MPD2    C211235   2.358   1.821  10.203 -0.1957  0.2709 -0.2564
  757MPD2    C311236   2.449   1.918  10.219  0.7983  0.0324  0.2463
  757MPD2    C411237   2.440   2.010  10.320  0.0882  0.1608  0.2244
  757MPD2    C511238   2.353   1.980  10.420  0.0324 -0.0738 -0.2553
  757MPD2     H11239   2.350   1.770  10.108 -0.0365  0.9615 -0.6381
  757MPD2    H111240   2.499   2.100  10.331  0.9031 -0.1135 -1.9106
  757MPD2    H211241   2.190   1.854  10.490  1.0566 -1.6001  0.5146
  757MPD2    H311242   2.338   2.053  10.499 -1.6107 -0.6190 -0.0595
  757MPD2     N11243   2.553   1.922  10.125 -0.1171 -0.3396 -0.3559
  757MPD2    H511244   2.543   1.841  10.065  0.0397  0.4982 -1.5153
  757MPD2    N111245   2.195   1.669  10.302 -0.5580 -0.6586 -0.0863
  757MPD2    H711246   2.133   1.656  10.381  2.0569 -1.2629  1.8804
  758MPD2     C11247   2.830   1.001  15.787  0.1513  0.5887  0.2607
  758MPD2    C111248   2.808   0.914  15.884  0.7536 -0.2179 -0.0533
  758MPD2    C211249   2.722   0.947  15.985 -0.2637  0.3408  0.7964
  758MPD2    C311250   2.680   1.084  16.004 -0.5421 -0.3585 -0.2371
  758MPD2    C411251   2.704   1.170  15.897 -0.3164  0.0030 -0.5031
  758MPD2    C511252   2.774   1.129  15.786  0.3570  0.0887  0.2457
  758MPD2     H11253   2.703   0.867  16.057 -0.5536 -0.9047 -0.6628
  758MPD2    H111254   2.677   1.275  15.890  0.6176  0.3769  1.2365
  758MPD2    H211255   2.902   0.985  15.708  0.4750  1.0888  0.4546
  758MPD2    H311256   2.795   1.207  15.713  1.2666  0.7993  1.2549
  758MPD2     N11257   2.616   1.125  16.126 -0.5478  0.3742 -0.0254
  758MPD2    H511258   2.596   1.224  16.138  0.2225  0.5194  0.0770
  758MPD2    N111259   2.873   0.788  15.875 -0.0440 -0.2655  0.5121
  758MPD2    H711260   2.912   0.767  15.784  0.3865  1.8482  0.2067
  759MPD2     C11261   1.087   4.085   9.031  0.1058 -0.3885 -0.6235
  759MPD2    C111262   1.203   4.023   9.074 -0.6818  0.3100 -0.0208
  759MPD2    C211263   1.318   4.098   9.072 -0.7834 -1.1664  0.0885
  759MPD2    C311264   1.310   4.237   9.041 -0.3434 -0.0672 -0.4377
  759MPD2    C411265   1.187   4.291   8.995 -0.0877  0.1521  0.4975
  759MPD2    C511266   1.079   4.216   8.983  0.6086 -0.5983 -0.1982
  759MPD2     H11267   1.411   4.055   9.105  0.3035 -1.1004 -2.9427
  759MPD2    H111268   1.167   4.391   8.958 -1.4038  0.9855  3.4455
  759MPD2    H211269   0.995   4.029   9.025 -0.6433  0.5202  2.3087
  759MPD2    H311270   0.987   4.255   8.939  1.0938  1.2681  0.4392
  759MPD2     N11271   1.430   4.301   9.031  0.2849  0.0934  0.1093
  759MPD2    H511272   1.515   4.249   9.049 -0.3856 -1.0620 -0.0632
  759MPD2    N111273   1.200   3.885   9.121 -0.0382  0.3607 -0.6349
  759MPD2    H711274   1.289   3.845   9.150 -1.7300 -2.2783  0.8931
  760MPD2     C11275   0.341   1.049  12.131  0.4013  0.5415 -1.0164
  760MPD2    C111276   0.455   1.127  12.093 -1.0832 -0.2707  0.1138
  760MPD2    C211277   0.566   1.068  12.037  1.2351 -0.5918 -0.6846
  760MPD2    C311278   0.575   0.927  12.026 -0.0206  0.7855 -0.3518
  760MPD2    C411279   0.474   0.858  12.090  0.2591  0.1466  0.1191
  760MPD2    C511280   0.358   0.911  12.136  0.7220  0.1538 -0.4536
  760MPD2     H11281   0.642   1.133  11.994  0.6674 -0.1343 -0.9885
  760MPD2    H111282   0.476   0.750  12.088  0.8836  0.1572  0.1400
  760MPD2    H211283   0.244   1.092  12.154  0.2296 -0.5075  0.2700
  760MPD2    H311284   0.277   0.846  12.166 -0.3111  1.6411 -0.0092
  760MPD2     N11285   0.682   0.855  11.966  0.2695 -0.5112 -0.0353
  760MPD2    H511286   0.673   0.754  11.970 -0.5437 -0.4129  0.4898
  760MPD2    N111287   0.461   1.265  12.100  0.2763  0.3847  0.0843
  760MPD2    H711288   0.546   1.309  12.066  0.1679  0.7016  0.2227
  761MPD2     C11289   1.993   0.676  11.435 -0.6575  0.2040 -0.1987
  761MPD2    C111290   2.033   0.672  11.304 -0.1085 -0.2002  0.7986
  761MPD2    C211291   2.117   0.770  11.246  0.3038  0.0139 -0.1005
  761MPD2    C311292   2.147   0.881  11.324 -0.9020  0.4691  0.0408
  761MPD2    C411293   2.108   0.883  11.454 -0.1916  0.6132 -0.0384
  761MPD2    C511294   2.028   0.786  11.508 -0.7900  0.7489  0.9400
  761MPD2     H11295   2.155   0.755  11.146 -1.9288 -0.2404 -0.9249
  761MPD2    H111296   2.129   0.969  11.516 -2.7750  1.4325 -0.2869
  761MPD2    H211297   1.935   0.597  11.480 -0.6523  0.6891  0.6625
  761MPD2    H311298   1.991   0.787  11.610  0.8874  0.0433  1.5537
  761MPD2     N11299   2.229   0.988  11.284  0.1643  0.4182 -0.3618
  761MPD2    H511300   2.260   1.064  11.344  2.6758 -0.8101 -0.0921
  761MPD2    N111301   1.997   0.557  11.231 -1.3367  0.4786  0.1299
  761MPD2    H711302   1.954   0.477  11.276  1.1492 -0.9676 -0.0827
  762MPD2     C11303   1.968   0.093  10.408  0.0383  0.5207 -0.4648
  762MPD2    C111304   2.019   0.211  10.468 -0.9891  0.1158  1.2709
  762MPD2    C211305   2.127   0.275  10.411  0.6153  0.1112 -0.5534
  762MPD2    C311306   2.185   0.221  10.299  0.3494 -0.7201 -0.5360
  762MPD2    C411307   2.136   0.107  10.237  0.1233  0.8136 -0.6027
  762MPD2    C511308   2.025   0.046  10.293 -0.4841  0.1027 -0.3335
  762MPD2     H11309   2.167   0.370  10.445 -1.0890  0.5285  0.2940
  762MPD2    H111310   2.201   0.060  10.163 -1.4790 -4.4015  1.2988
  762MPD2    H211311   1.896   0.029  10.456  0.0140  0.4290 -0.6223
  762MPD2    H311312   1.992   4.681  10.255 -0.7346 -0.5330  1.5188
  762MPD2     N11313   2.294   0.292  10.252 -0.0909 -0.4897  0.0130
  762MPD2    H511314   2.319   0.380  10.296  0.5110 -1.3295  1.3488
  762MPD2    N111315   1.971   0.241  10.593 -0.0675  0.3573 -0.3355
  762MPD2    H711316   1.886   0.196  10.624  1.5051 -1.9559  0.5897
  763MPD2     C11317   4.676   0.637  15.992 -0.1678 -0.3223 -0.3979
  763MPD2    C111318   4.586   0.734  15.952  0.1585 -0.6679 -0.0072
  763MPD2    C211319   4.598   0.865  15.993 -0.3911  0.3048 -0.4765
  763MPD2    C311320   4.714   0.901  16.063  0.2323 -0.2383 -0.0921
  763MPD2    C411321   0.072   0.808  16.099  1.3664 -0.4984  0.9711
  763MPD2    C511322   0.039   0.678  16.078  0.6993 -0.5605  0.3381
  763MPD2     H11323   4.529   0.934  15.947 -2.7747 -1.1658  0.8938
  763MPD2    H111324   0.165   0.827  16.150  1.7566  0.1243  0.0312
  763MPD2    H211325   4.670   0.530  15.973 -1.3654 -0.1204 -1.1149
  763MPD2    H311326   0.114   0.604  16.103  1.2994  0.0514  0.3509
  763MPD2     N11327   0.016   1.039  16.090 -0.1453  0.0319 -0.1079
  763MPD2    H511328   0.110   1.064  16.119  0.0448 -2.2991  1.2461
  763MPD2    N111329   4.482   0.704  15.858 -0.0669 -0.1182  0.0912
  763MPD2    H711330   4.428   0.780  15.818 -2.4335 -1.6658  0.3431
  764MPD2     C11331   2.827   2.582   0.413 -0.1083 -0.1552  0.2940
  764MPD2    C111332   2.690   2.588   0.412 -0.3549  0.3320  0.6013
  764MPD2    C211333   2.625   2.562   0.527  0.2102  0.0907  0.2441
  764MPD2    C311334   2.697   2.526   0.642 -0.4217  0.3979 -0.0825
  764MPD2    C411335   2.836   2.523   0.643  0.0939 -0.1448 -0.3582
  764MPD2    C511336   2.900   2.550   0.527  0.0829  0.4134 -0.2508
  764MPD2     H11337   2.517   2.567   0.540  0.3710  1.1221  1.2841
  764MPD2    H111338   2.896   2.491   0.727 -0.4886 -4.0320 -1.3895
  764MPD2    H211339   2.889   2.593   0.325 -0.3498 -2.2546 -0.1270
  764MPD2    H311340   3.008   2.548   0.533  0.1083  1.1633 -0.5639
  764MPD2     N11341   2.625   2.477   0.754 -0.1078  0.6711  0.3833
  764MPD2    H511342   2.526   2.464   0.733  0.3302  0.1880 -1.3972
  764MPD2    N111343   2.609   2.590   0.303 -0.3917  0.2366  0.2365
  764MPD2    H711344   2.510   2.594   0.325  0.0870 -0.9989  2.6219
  765MPD2     C11345   2.282   0.197  15.774  0.0332  0.5861 -0.5763
  765MPD2    C111346   2.387   0.272  15.808  0.1063  0.0542 -0.4328
  765MPD2    C211347   2.512   0.219  15.809  0.3773 -0.4817 -0.7244
  765MPD2    C311348   2.529   0.087  15.770  0.4242  0.2375  0.3421
  765MPD2    C411349   2.421   0.002  15.745 -0.3607  0.3736 -0.3777
  765MPD2    C511350   2.301   0.066  15.743  0.5062 -0.2531  0.7820
  765MPD2     H11351   2.598   0.282  15.829  0.0902 -0.6299  0.9816
  765MPD2    H111352   2.433   4.629  15.715  0.0487 -0.0526  1.2790
  765MPD2    H211353   2.182   0.237  15.763 -0.4650 -0.4980 -0.0488
  765MPD2    H311354   2.212   0.012  15.710  0.8576 -0.5058  0.2512
  765MPD2     N11355   2.665   0.048  15.774  0.2211  0.6215 -1.2317
  765MPD2    H511356   2.728   0.120  15.809  0.8369 -0.5128 -0.0042
  765MPD2    N111357   2.359   0.404  15.847  0.2731  0.2972 -0.2591
  765MPD2    H711358   2.264   0.432  15.869  0.3916  0.3321  0.2090
  766MPD2     C11359   1.860   0.535  15.702  0.1918  0.4050  0.2980
  766MPD2    C111360   1.998   0.522  15.685  0.2465 -0.0771  0.5765
  766MPD2    C211361   2.050   0.440  15.587  0.0121 -0.1601 -0.2528
  766MPD2    C311362   1.956   0.371  15.499 -0.2400  0.0794  0.5494
  766MPD2    C411363   1.820   0.396  15.513  0.0186  0.6904  0.3281
  766MPD2    C511364   1.775   0.475  15.609 -0.2761 -0.7048 -0.3880
  766MPD2     H11365   2.157   0.442  15.568  0.0470  0.0817 -0.0311
  766MPD2    H111366   1.748   0.344  15.451  1.0814 -0.8943  0.3970
  766MPD2    H211367   1.822   0.622  15.756 -1.2954  1.7589 -2.8894
  766MPD2    H311368   1.673   0.511  15.617 -0.1002  0.4511 -3.2714
  766MPD2     N11369   2.001   0.297  15.392  0.0467  0.7812  0.2406
  766MPD2    H511370   1.929   0.257  15.332  1.9704  0.6019 -1.9467
  766MPD2    N111371   2.087   0.589  15.760  0.4189  0.0512  0.3000
  766MPD2    H711372   2.187   0.576  15.746  0.2752 -3.9713  3.0363
  767MPD2     C11373   1.539   0.456  15.325 -0.7226 -0.2029  0.0746
  767MPD2    C111374   1.641   0.487  15.242 -0.5410 -0.4770 -0.4257
  767MPD2    C211375   1.650   0.416  15.121  0.7973 -0.3871  0.3576
  767MPD2    C311376   1.565   0.309  15.092 -0.9159 -0.2107 -0.4220
  767MPD2    C411377   1.466   0.281  15.179  0.2193 -0.3326  0.9802
  767MPD2    C511378   1.449   0.356  15.286  0.4384  0.7875 -0.0746
  767MPD2     H11379   1.728   0.442  15.050  0.4077 -2.5508 -0.8471
  767MPD2    H111380   1.406   0.194  15.155  2.5581 -1.5899 -0.2516
  767MPD2    H211381   1.522   0.508  15.419  0.3207 -3.1098  1.8456
  767MPD2    H311382   1.361   0.349  15.349 -1.4844  3.3810 -2.4301
  767MPD2     N11383   1.587   0.246  14.966 -0.6317 -0.5612 -0.0874
  767MPD2    H511384   1.678   0.267  14.928 -1.7311  0.7481 -1.9980
  767MPD2    N111385   1.733   0.589  15.276 -0.6603 -0.2962 -0.4200
  767MPD2    H711386   1.710   0.646  15.357 -1.7806  0.7333 -1.4648
  768MPD2     C11387   2.479   4.281  10.213  0.0998  0.4599  1.1671
  768MPD2    C111388   2.462   4.169  10.293 -0.2183  0.0141  0.7209
  768MPD2    C211389   2.553   4.149  10.394 -0.5707  0.0368 -1.0990
  768MPD2    C311390   2.661   4.237  10.421  0.0130 -0.4586  0.7835
  768MPD2    C411391   2.676   4.336  10.333  0.1674  0.0190  0.8317
  768MPD2    C511392   2.591   4.356  10.229  0.1417  0.4605 -0.2200
  768MPD2     H11393   2.527   4.071  10.466  1.3526 -1.0502 -1.6047
  768MPD2    H111394   2.762   4.401  10.336  0.3609 -0.1996 -0.0279
  768MPD2    H211395   2.407   4.314  10.139  0.7419  2.2387  1.3367
  768MPD2    H311396   2.608   4.440  10.163  1.1339  0.2696 -0.2177
  768MPD2     N11397   2.746   4.218  10.526  0.2766  0.7837 -0.3572
  768MPD2    H511398   2.807   4.298  10.543  0.3077  1.0377 -1.6491
  768MPD2    N111399   2.354   4.079  10.282  0.3253 -0.3461  0.0495
  768MPD2    H711400   2.350   4.016  10.362  0.7660 -2.2794 -1.4609
  769MPD2     C11401   3.411   1.860  15.015 -0.0202 -0.4628  0.3739
  769MPD2    C111402   3.348   1.784  15.109  0.2427  0.9762 -0.7089
  769MPD2    C211403   3.342   1.834  15.238 -0.1621 -0.5197 -0.1061
  769MPD2    C311404   3.393   1.959  15.275  0.3350 -0.4909  0.1803
  769MPD2    C411405   3.438   2.032  15.162  0.4373 -0.9310 -0.4864
  769MPD2    C511406   3.455   1.978  15.043 -0.0503 -0.7174  0.6479
  769MPD2     H11407   3.286   1.785  15.318 -0.1048  2.0720  1.5144
  769MPD2    H111408   3.481   2.129  15.182  0.4134 -0.9656 -0.2628
  769MPD2    H211409   3.425   1.830  14.912  0.2906  1.7949 -0.2309
  769MPD2    H311410   3.497   2.043  14.968 -1.5947 -0.4937 -0.0319
  769MPD2     N11411   3.372   2.013  15.403  0.1231 -0.5827 -0.0411
  769MPD2    H511412   3.339   1.954  15.478 -1.6830 -1.3793 -1.4745
  769MPD2    N111413   3.304   1.660  15.068  0.4888 -0.0725  0.3769
  769MPD2    H711414   3.314   1.634  14.970  0.1017 -1.2464  0.6429
  770MPD2     C11415   3.326   0.586  15.076 -0.0337  0.4391 -0.4903
  770MPD2    C111416   3.222   0.620  14.996 -0.0486 -0.3871 -0.0269
  770MPD2    C211417   3.194   0.755  14.969  0.4986  0.4124  0.4924
  770MPD2    C311418   3.270   0.855  15.024  0.4223 -0.6125 -0.2252
  770MPD2    C411419   3.372   0.820  15.114 -0.2302 -0.2186  0.0260
  770MPD2    C511420   3.406   0.689  15.127 -0.5610 -0.1499 -0.2288
  770MPD2     H11421   3.113   0.788  14.905 -0.8088 -3.6636 -0.0177
  770MPD2    H111422   3.428   0.894  15.169 -1.3786 -0.7125  1.8555
  770MPD2    H211423   3.347   0.480  15.092 -1.7776  0.3901  1.3897
  770MPD2    H311424   3.489   0.661  15.190  0.2543  0.0120 -1.2320
  770MPD2     N11425   3.233   0.987  14.997  0.1394 -0.1280  0.2269
  770MPD2    H511426   3.163   1.002  14.925 -0.2465  0.3857  0.6995
  770MPD2    N111427   3.139   0.515  14.946 -0.0353 -0.1653 -0.5912
  770MPD2    H711428   3.172   0.419  14.943  4.5134  1.3521  2.1332
  771MPD2     C11429   4.437   4.228  13.459 -0.4260 -0.1801  0.1451
  771MPD2    C111430   4.357   4.338  13.438 -0.3434  0.6206 -0.1277
  771MPD2    C211431   4.254   4.332  13.342 -0.4104 -0.5847  0.4338
  771MPD2    C311432   4.217   4.210  13.287  0.2793 -0.3422  0.6423
  771MPD2    C411433   4.293   4.102  13.317  0.7795 -0.5600 -0.8326
  771MPD2    C511434   4.407   4.111  13.392  0.4622  0.3392 -0.1609
  771MPD2     H11435   4.193   4.417  13.315 -1.2152 -0.6269  2.1127
  771MPD2    H111436   4.280   4.004  13.272 -0.6087 -1.4547  1.5300
  771MPD2    H211437   4.515   4.227  13.534 -0.1985 -0.3700 -0.0963
  771MPD2    H311438   4.470   4.023  13.404  0.4806  0.2943 -0.6039
  771MPD2     N11439   4.103   4.202  13.201  0.0007 -0.2926 -0.4374
  771MPD2    H511440   4.065   4.293  13.180  2.1453  0.9340  0.9805
  771MPD2    N111441   4.357   4.463  13.505 -0.3184 -0.0878  0.0468
  771MPD2    H711442   4.295   4.538  13.477 -1.3825 -1.6739 -1.8382
  772MPD2     C11443   4.022   0.218  13.941 -0.3152  0.1621 -0.6759
  772MPD2    C111444   3.992   0.110  13.861  0.5731  0.1678  1.0335
  772MPD2    C211445   3.897   0.023  13.897 -0.2832  0.0818  0.2304
  772MPD2    C311446   3.810   0.057  14.002 -0.0370  0.1065 -0.1325
  772MPD2    C411447   3.838   0.161  14.089 -1.0094 -0.4471 -0.1502
  772MPD2    C511448   3.955   0.231  14.060  0.0103 -0.4058 -0.5427
  772MPD2     H11449   3.879   4.663  13.842  0.5720  0.8041 -1.2552
  772MPD2    H111450   3.779   0.195  14.174 -0.1593  1.1098 -0.1880
  772MPD2    H211451   4.090   0.300  13.918  0.5527 -0.3154  0.1550
  772MPD2    H311452   3.978   0.317  14.122 -1.9173 -0.9594  0.9214
  772MPD2     N11453   3.692   4.721  14.033  0.1256 -0.2075  0.0203
  772MPD2    H511454   3.638   0.020  14.113 -2.7549  1.3055 -2.4905
  772MPD2    N111455   4.079   0.067  13.760 -0.5744  0.1747 -0.3494
  772MPD2    H711456   4.088   4.700  13.737  2.8277  0.8918 -2.0929
  773MPD2     C11457   3.565   1.028   0.693 -0.4489  0.2303 -1.3089
  773MPD2    C111458   3.452   0.960   0.668  0.3482 -0.0913  0.3583
  773MPD2    C211459   3.461   0.824   0.661 -0.4844 -0.2178  0.2458
  773MPD2    C311460   3.581   0.758   0.674  0.1805 -0.8194  0.0637
  773MPD2    C411461   3.689   0.825   0.720  0.1332 -0.5773  0.6069
  773MPD2    C511462   3.679   0.959   0.725 -1.1605 -0.1617  0.2952
  773MPD2     H11463   3.370   0.775   0.628  0.7646 -1.0796 -1.8855
  773MPD2    H111464   3.789   0.785   0.733  0.8191  0.5337 -1.1799
  773MPD2    H211465   3.561   1.136   0.688  1.5918  0.3903  0.2941
  773MPD2    H311466   3.762   1.021   0.758 -1.1245 -2.4694  4.6306
  773MPD2     N11467   3.567   0.624   0.635 -0.7847  0.0470 -0.1457
  773MPD2    H511468   3.475   0.590   0.609  0.3377 -2.8396 -0.4029
  773MPD2    N111469   3.335   1.017   0.616  0.0996 -0.2645 -0.2958
  773MPD2    H711470   3.253   0.958   0.615  1.0185 -1.6015  2.3625
  774MPD2     C11471   2.365   4.622  13.407 -0.2632  0.1309 -0.0870
  774MPD2    C111472   2.374   4.686  13.528 -0.0231  0.0442 -0.0155
  774MPD2    C211473   2.426   0.076  13.534  0.7889 -0.1791  0.2650
  774MPD2    C311474   2.492   0.131  13.425  0.1872  0.0390  0.9367
  774MPD2    C411475   2.483   0.066  13.299 -0.0680  0.5252  0.4270
  774MPD2    C511476   2.416   4.677  13.292 -0.2039 -0.1781  0.5716
  774MPD2     H11477   2.435   0.132  13.626  1.0500  0.0238  0.1169
  774MPD2    H111478   2.524   0.108  13.208 -1.1753 -1.5812 -1.0365
  774MPD2    H211479   2.333   4.521  13.386  0.1986 -0.4486  1.9965
  774MPD2    H311480   2.412   4.627  13.196  0.4789  0.1181  0.3910
  774MPD2     N11481   2.557   0.256  13.444  0.2415 -0.1689  0.0632
  774MPD2    H511482   2.582   0.290  13.536 -0.5196  2.0201 -0.5432
  774MPD2    N111483   2.333   4.608  13.639 -0.1776  0.1996  0.3118
  774MPD2    H711484   2.308   4.510  13.629 -3.1082  0.9987 -0.2822
  775MPD2     C11485   3.690   1.798  15.522 -0.3533 -0.0790  0.4739
  775MPD2    C111486   3.721   1.897  15.610  0.1617  0.0507 -0.3457
  775MPD2    C211487   3.751   2.026  15.569 -0.4472 -0.0225  0.1479
  775MPD2    C311488   3.754   2.056  15.429  0.0493 -0.4035 -0.1564
  775MPD2    C411489   3.729   1.954  15.341 -0.3957  0.1851  0.3363
  775MPD2    C511490   3.696   1.827  15.389 -0.2151 -0.3457 -0.2438
  775MPD2     H11491   3.768   2.106  15.640 -1.2357 -0.2978  0.6424
  775MPD2    H111492   3.723   1.974  15.234  1.1489  1.3061  0.4639
  775MPD2    H211493   3.635   1.711  15.557 -0.6694  0.7040  1.9381
  775MPD2    H311494   3.661   1.746  15.325  0.2792 -0.1720 -0.7361
  775MPD2     N11495   3.757   2.185  15.365 -0.7651  0.2137 -0.1081
  775MPD2    H511496   3.751   2.189  15.264  2.7728  1.2541 -0.2646
  775MPD2    N111497   3.706   1.849  15.748  0.1174  0.3292 -0.5551
  775MPD2    H711498   3.666   1.756  15.752 -0.9632  0.8167 -0.1994
  776MPD2     C11499   1.642   2.574  11.605 -0.1104 -0.1132  0.7151
  776MPD2    C111500   1.765   2.520  11.594  0.5992  0.0622  0.1686
  776MPD2    C211501   1.875   2.605  11.587  0.7510  0.4399 -0.7393
  776MPD2    C311502   1.854   2.740  11.589 -0.2716  0.2028  0.0681
  776MPD2    C411503   1.728   2.793  11.597  0.0999  0.4085 -1.1037
  776MPD2    C511504   1.623   2.708  11.606  0.1961  0.4243 -0.7544
  776MPD2     H11505   1.972   2.557  11.581  2.4575  3.8302 -0.2157
  776MPD2    H111506   1.715   2.901  11.593 -2.2848  0.0769 -2.3281
  776MPD2    H211507   1.557   2.509  11.622  1.2693 -2.0984  0.0457
  776MPD2    H311508   1.524   2.748  11.625 -0.1978 -1.3258  0.8638
  776MPD2     N11509   1.950   2.829  11.562 -0.1425  0.2456  0.1184
  776MPD2    H511510   1.927   2.928  11.571 -0.5358  0.4510 -2.9132
  776MPD2    N111511   1.777   2.382  11.584 -0.3862  0.3339 -0.5891
  776MPD2    H711512   1.693   2.325  11.587 -0.4365  0.4904  0.7081
  777MPD2     C11513   3.343   4.244   0.821 -0.2283 -0.0592  0.9076
  777MPD2    C111514   3.259   4.213   0.929  0.3879 -0.7833 -0.1730
  777MPD2    C211515   3.147   4.136   0.916  0.2669  0.4583 -0.1253
  777MPD2    C311516   3.107   4.086   0.790  0.0655 -0.0554 -0.1687
  777MPD2    C411517   3.196   4.101   0.687 -0.3839  0.0372  0.3932
  777MPD2    C511518   3.312   4.183   0.701 -0.1864 -0.1022  1.1984
  777MPD2     H11519   3.082   4.117   1.001  1.0175  0.0062  0.3497
  777MPD2    H111520   3.180   4.060   0.587  2.2620 -2.5194  1.0407
  777MPD2    H211521   3.434   4.302   0.821  0.9811 -1.9549 -0.1865
  777MPD2    H311522   3.379   4.192   0.617  1.4493  0.8182  2.5982
  777MPD2     N11523   2.996   4.002   0.787 -0.3672  0.1924 -0.1970
  777MPD2    H511524   2.951   3.975   0.874 -1.7871  0.9926 -0.6821
  777MPD2    N111525   3.290   4.272   1.049 -0.4290  0.3468 -0.1343
  777MPD2    H711526   3.379   4.322   1.044  0.5835 -1.5731 -1.4017
  778MPD2     C11527   4.238   4.033  14.982  0.9629  0.4705 -1.0204
  778MPD2    C111528   4.168   4.018  14.866 -0.9763  0.0450  0.0975
  778MPD2    C211529   4.189   4.115  14.774  0.2304  0.4002  0.1179
  778MPD2    C311530   4.270   4.229  14.797 -0.1252 -0.4828  0.7268
  778MPD2    C411531   4.328   4.242  14.920  0.4071  0.0386  0.0986
  778MPD2    C511532   4.313   4.140  15.008 -0.6351  0.3390 -0.2805
  778MPD2     H11533   4.131   4.110  14.682  1.6893 -1.4604 -0.6996
  778MPD2    H111534   4.392   4.324  14.951 -0.6062  0.5094  0.9404
  778MPD2    H211535   4.233   3.953  15.054  1.1268  0.0736 -1.4458
  778MPD2    H311536   4.358   4.147  15.107 -2.9520  0.1657  0.7965
  778MPD2     N11537   4.278   4.325  14.691 -0.2252  0.3266 -0.5510
  778MPD2    H511538   4.238   4.301  14.601  0.5110 -0.2949 -0.7155
  778MPD2    N111539   4.103   3.904  14.830 -0.6245 -0.2313 -0.0901
  778MPD2    H711540   4.048   3.908  14.744 -2.1522  0.3002  0.9048
  779MPD2     C11541   4.207   3.101  13.723 -0.4841 -0.0165 -0.3754
  779MPD2    C111542   4.181   3.096  13.860 -0.7918 -0.3522 -0.2397
  779MPD2    C211543   4.199   3.214  13.939 -0.4661 -0.0307  0.0991
  779MPD2    C311544   4.254   3.326  13.885 -0.4110  0.8385 -0.1948
  779MPD2    C411545   4.295   3.318  13.751  0.3070 -0.5530 -0.1861
  779MPD2    C511546   4.272   3.207  13.673  0.2847  0.8941 -0.1113
  779MPD2     H11547   4.180   3.214  14.045  0.3837  3.4055  0.2491
  779MPD2    H111548   4.345   3.404  13.707  0.4041  0.4972  1.9699
  779MPD2    H211549   4.202   3.015  13.657  2.5044  0.1052 -0.7433
  779MPD2    H311550   4.288   3.195  13.567  0.1347 -0.0768 -0.0256
  779MPD2     N11551   4.253   3.442  13.965  0.2307 -0.0328 -0.2002
  779MPD2    H511552   4.224   3.426  14.061  0.6285  3.1699  0.4330
  779MPD2    N111553   4.108   2.995  13.923  0.2981 -0.4540 -0.2588
  779MPD2    H711554   4.066   3.016  14.013  1.0878 -1.1658  0.2749
  780MPD2     C11555   2.770   3.403   0.374 -0.1561 -0.5890 -0.4672
  780MPD2    C111556   2.801   3.326   0.265 -0.3282  0.7870 -0.2565
  780MPD2    C211557   2.918   3.255   0.257  0.0285  0.0384  0.1693
  780MPD2    C311558   3.004   3.248   0.364  0.5451  0.0165  0.3656
  780MPD2    C411559   2.971   3.321   0.483  0.6068  0.3675 -0.0940
  780MPD2    C511560   2.851   3.396   0.486 -0.0089 -0.2686 -0.3998
  780MPD2     H11561   2.953   3.213   0.164  0.0614  2.8947 -1.1097
  780MPD2    H111562   3.037   3.316   0.569 -0.4938 -0.8453  0.6743
  780MPD2    H211563   2.674   3.453   0.374  0.1847  0.0618  0.6655
  780MPD2    H311564   2.819   3.449   0.575 -2.2697 -0.5432 -1.0712
  780MPD2     N11565   3.115   3.161   0.353  0.4908  0.2655  0.2363
  780MPD2    H511566   3.107   3.093   0.278  3.6630 -1.5746  1.5802
  780MPD2    N111567   2.724   3.347   0.151 -0.6165 -0.8100 -0.2204
  780MPD2    H711568   2.649   3.413   0.170 -0.8665 -0.5156 -2.3160
  781MPD2     C11569   4.546   0.767  12.253  0.7456  0.0483  0.0781
  781MPD2    C111570   4.670   0.704  12.266 -0.0854  0.1466  0.6053
  781MPD2    C211571   0.032   0.726  12.160  0.0102  0.0233 -0.1663
  781MPD2    C311572   4.715   0.792  12.052 -0.5606 -0.4071  0.3504
  781MPD2    C411573   4.588   0.838  12.047  0.4611 -0.4792 -0.5015
  781MPD2    C511574   4.508   0.836  12.146 -0.2055  1.2367  0.2427
  781MPD2     H11575   0.135   0.693  12.164  0.2162  0.7088  0.1615
  781MPD2    H111576   4.547   0.887  11.960 -0.5988 -0.5574 -0.0475
  781MPD2    H211577   4.478   0.744  12.334  1.1130 -0.8500  0.1346
  781MPD2    H311578   4.405   0.870  12.142 -0.4640  0.0893 -3.0341
  781MPD2     N11579   0.052   0.803  11.931  0.4607  0.0129 -0.6778
  781MPD2    H511580   0.020   0.878  11.871 -0.0379  0.4570  0.1556
  781MPD2    N111581   4.715   0.620  12.370 -0.4656 -0.3289 -0.0967
  781MPD2    H711582   0.078   0.582  12.362 -0.7786 -1.1534  0.0837
  782MPD2     C11583   2.677   1.685  10.326  0.4076 -0.3541  0.0029
  782MPD2    C111584   2.799   1.632  10.300 -0.2797 -0.3669  0.1183
  782MPD2    C211585   2.906   1.680  10.374  0.9365  0.8722  0.1618
  782MPD2    C311586   2.892   1.771  10.474 -1.0237  0.0403 -0.2461
  782MPD2    C411587   2.767   1.820  10.501 -0.1671  0.3531  0.1802
  782MPD2    C511588   2.663   1.793  10.418  0.7282 -0.0105 -0.8082
  782MPD2     H11589   3.002   1.633  10.356 -0.2066 -1.4112 -0.0004
  782MPD2    H111590   2.754   1.893  10.581  0.5037  0.3677  0.2692
  782MPD2    H211591   2.583   1.659  10.277 -0.1687  0.5181  0.6325
  782MPD2    H311592   2.564   1.835  10.435  0.5902 -0.7535  0.2088
  782MPD2     N11593   3.008   1.803  10.545 -0.0442 -1.0567  0.0862
  782MPD2    H511594   3.100   1.769  10.520  1.0714  2.0948 -0.0931
  782MPD2    N111595   2.809   1.524  10.208 -0.2651 -0.1597  0.4597
  782MPD2    H711596   2.729   1.467  10.184 -2.0282  1.8949  1.5462
  783MPD2     C11597   2.429   0.908  10.614  0.6906 -0.0560 -0.5174
  783MPD2    C111598   2.470   1.041  10.633  0.2465  0.4651  0.1485
  783MPD2    C211599   2.548   1.104  10.535  0.0057 -0.0172  0.1467
  783MPD2    C311600   2.580   1.035  10.422  0.2366 -0.0993  0.3880
  783MPD2    C411601   2.526   0.912  10.403  0.4070  0.4151  0.1610
  783MPD2    C511602   2.452   0.850  10.495  0.4065  1.2253  0.8913
  783MPD2     H11603   2.576   1.208  10.547 -0.0560  0.3439 -2.8107
  783MPD2    H111604   2.554   0.853  10.316  0.3034  0.1035  0.3417
  783MPD2    H211605   2.369   0.853  10.686  2.3150 -2.3197 -0.8965
  783MPD2    H311606   2.406   0.754  10.478  2.1500  0.9951 -2.5006
  783MPD2     N11607   2.665   1.105  10.331 -0.0919 -0.3020 -0.6193
  783MPD2    H511608   2.706   1.189  10.369 -1.5388 -0.2126  0.7362
  783MPD2    N111609   2.442   1.098  10.754  0.0938 -0.2114  0.1319
  783MPD2    H711610   2.383   1.039  10.811 -0.0955 -0.7641 -0.6338
  784MPD2     C11611   1.069   1.753   0.316 -0.3926  0.4167 -0.3445
  784MPD2    C111612   1.060   1.853   0.405  0.6696 -0.3007 -0.6252
  784MPD2    C211613   0.945   1.933   0.405 -0.2909 -0.3982 -0.2187
  784MPD2    C311614   0.835   1.902   0.337  0.2454  0.3130 -0.3551
  784MPD2    C411615   0.841   1.790   0.253 -0.0639 -0.0192 -0.0471
  784MPD2    C511616   0.955   1.711   0.252 -0.4375 -0.0944 -0.3083
  784MPD2     H11617   0.943   2.009   0.481  0.9571  0.2862 -0.8740
  784MPD2    H111618   0.759   1.764   0.188  0.5618 -0.9008 -0.4865
  784MPD2    H211619   1.153   1.685   0.305 -1.5455 -0.9273 -0.7342
  784MPD2    H311620   0.955   1.625   0.186  1.8745  0.7111 -1.3549
  784MPD2     N11621   0.719   1.980   0.350 -0.1018  0.2287  0.0674
  784MPD2    H511622   0.725   2.058   0.415 -0.9600  0.5490 -0.2423
  784MPD2    N111623   1.158   1.880   0.502  0.2942  0.3006  0.3235
  784MPD2    H711624   1.150   1.946   0.579 -3.3134  2.4983 -1.9832
  785MPD2     C11625   1.358   4.137  10.855  0.8350 -0.1171  0.0851
  785MPD2    C111626   1.264   4.238  10.838 -0.0400 -0.5545  0.0621
  785MPD2    C211627   1.231   4.273  10.706  0.1715 -0.2194 -0.2229
  785MPD2    C311628   1.291   4.217  10.597 -0.0624 -0.7117 -0.4721
  785MPD2    C411629   1.388   4.122  10.617 -0.2424 -0.5213  0.1887
  785MPD2    C511630   1.417   4.085  10.746  0.0982 -0.2627  1.0474
  785MPD2     H11631   1.167   4.360  10.701  2.3289  1.4507  1.0327
  785MPD2    H111632   1.444   4.077  10.535 -0.5789 -1.5609  0.5372
  785MPD2    H211633   1.371   4.090  10.951  1.4854  2.7686  1.3806
  785MPD2    H311634   1.498   4.014  10.760  0.7982  0.0931 -1.1880
  785MPD2     N11635   1.238   4.254  10.467  0.1576  0.3823  0.1635
  785MPD2    H511636   1.156   4.314  10.462  0.2554  0.4748 -0.2749
  785MPD2    N111637   1.195   4.298  10.943 -0.1897 -0.5216  0.1386
  785MPD2    H711638   1.114   4.352  10.915  0.2462  0.3571  0.5829
  786MPD2     C11639   4.050   1.922  14.985 -0.4155 -0.2435  0.2005
  786MPD2    C111640   4.178   1.955  14.953  0.3341  0.2018  0.4474
  786MPD2    C211641   4.268   1.996  15.055 -0.5148 -0.4749 -0.5336
  786MPD2    C311642   4.229   2.020  15.184 -0.4723 -0.0609  0.2297
  786MPD2    C411643   4.097   1.983  15.213 -0.2135 -0.0953 -0.4737
  786MPD2    C511644   4.008   1.937  15.118  0.1423  0.6823  0.7466
  786MPD2     H11645   4.369   2.010  15.019 -1.0572  0.7138 -1.5674
  786MPD2    H111646   4.063   1.997  15.315 -1.0593 -0.1335 -0.7463
  786MPD2    H211647   3.979   1.899  14.907  0.7867 -3.1227 -0.0306
  786MPD2    H311648   3.909   1.905  15.148  0.0079 -1.1452 -1.6368
  786MPD2     N11649   4.310   2.071  15.285  0.0931 -0.4271  0.1599
  786MPD2    H511650   4.260   2.110  15.364 -0.7683 -0.5823 -0.3142
  786MPD2    N111651   4.226   1.958  14.822 -0.5354  0.1452 -0.4721
  786MPD2    H711652   4.308   2.016  14.807 -2.0513  2.3707 -0.1248
  787MPD2     C11653   0.064   2.217  14.721 -0.1748 -0.3260 -0.2229
  787MPD2    C111654   0.049   2.115  14.636 -0.2703 -0.0865  0.1744
  787MPD2    C211655   0.161   2.052  14.578 -0.8629 -0.0174 -0.4151
  787MPD2    C311656   0.285   2.112  14.595  0.0075  0.2828 -0.3521
  787MPD2    C411657   0.301   2.218  14.681  1.1521  0.5206 -0.1618
  787MPD2    C511658   0.190   2.264  14.752 -0.1890 -0.8807 -1.1481
  787MPD2     H11659   0.148   1.965  14.515  0.1804  0.7172 -1.6535
  787MPD2    H111660   0.395   2.265  14.707 -0.1014  2.3672  0.9974
  787MPD2    H211661   4.714   2.264  14.776 -0.7646  2.8899 -3.8614
  787MPD2    H311662   0.204   2.348  14.819  0.3825 -1.8918  0.0060
  787MPD2     N11663   0.387   2.062  14.512  0.4412  0.4860  0.0254
  787MPD2    H511664   0.360   1.979  14.460  2.3254  0.8071 -1.4409
  787MPD2    N111665   4.643   2.069  14.618  0.0743 -0.9074 -0.3754
  787MPD2    H711666   4.574   2.109  14.681  0.5576 -1.3901  0.4641
  788MPD2     C11667   2.397   0.890   0.979 -0.1839  0.1931  0.3027
  788MPD2    C111668   2.307   0.926   0.876 -0.0069  0.0242 -0.1778
  788MPD2    C211669   2.274   1.062   0.867  0.6180 -0.5016  0.1161
  788MPD2    C311670   2.327   1.156   0.950 -0.0815 -0.5358 -0.6039
  788MPD2    C411671   2.424   1.125   1.043  0.2541  0.2456  0.6480
  788MPD2    C511672   2.464   0.997   1.047 -0.7110  0.0087 -0.1863
  788MPD2     H11673   2.198   1.090   0.795  1.6113  1.4245 -0.1592
  788MPD2    H111674   2.478   1.198   1.102 -0.2322  0.3990  0.9013
  788MPD2    H211675   2.423   0.785   0.992  0.1389 -0.0057 -2.0118
  788MPD2    H311676   2.548   0.967   1.109 -0.6168 -2.8787 -1.6681
  788MPD2     N11677   2.287   1.290   0.954  0.5833  0.1632  0.2443
  788MPD2    H511678   2.347   1.348   1.013 -1.9533  1.6692  1.3258
  788MPD2    N111679   2.232   0.821   0.811  0.1030 -0.0437  0.3562
  788MPD2    H711680   2.249   0.732   0.857 -3.9820 -0.4961  0.9843
  789MPD2     C11681   2.458   0.368  16.302  0.0007  0.0166  0.8914
  789MPD2    C111682   2.332   0.363  16.239 -0.8560 -0.5719 -0.2734
  789MPD2    C211683   2.241   0.468  16.250 -1.0041  0.0861  0.3294
  789MPD2    C311684   2.261   0.568  16.344 -0.1329  0.6193  0.4786
  789MPD2    C411685   2.382   0.572  16.417 -0.0540 -0.3691 -0.4010
  789MPD2    C511686   2.474   0.475  16.381 -0.3062  0.4267  0.1071
  789MPD2     H11687   2.145   0.460  16.200 -0.3032 -0.7744 -0.8695
  789MPD2    H111688   2.417   0.643  16.491 -0.1282 -0.3784 -0.3563
  789MPD2    H211689   2.531   0.289  16.296  2.0156  1.7004  3.3472
  789MPD2    H311690   2.574   0.481  16.421  0.1835  0.1342 -1.0591
  789MPD2     N11691   2.166   0.670  16.370  0.3624 -0.0152  1.1685
  789MPD2    H511692   2.182   0.733  16.448  1.8320 -0.3806  1.1759
  789MPD2    N111693   2.293   0.249  16.163 -0.3272 -0.1169  0.4321
  789MPD2    H711694   2.195   0.248  16.137 -0.4499  0.8097  0.8597
  790MPD2     C11695   2.841   2.472  13.409  0.4857 -0.2368 -0.0239
  790MPD2    C111696   2.792   2.347  13.417 -0.3098 -0.5408  0.8179
  790MPD2    C211697   2.756   2.278  13.301 -0.3677  0.5955  0.2044
  790MPD2    C311698   2.769   2.340  13.181  0.6629 -0.5552 -0.1060
  790MPD2    C411699   2.825   2.460  13.172  0.5553 -0.0096 -0.1791
  790MPD2    C511700   2.876   2.521  13.286 -0.3969  0.0177  0.2421
  790MPD2     H11701   2.708   2.182  13.310 -0.3548  0.4759 -1.0822
  790MPD2    H111702   2.829   2.510  13.076  1.2910  0.7386  0.2447
  790MPD2    H211703   2.871   2.529  13.496  0.1541 -0.6482  0.3582
  790MPD2    H311704   2.923   2.617  13.265 -2.6559  0.6780 -1.8443
  790MPD2     N11705   2.730   2.276  13.058  0.2105 -0.5488  0.6035
  790MPD2    H511706   2.683   2.186  13.066 -0.6564 -0.1284  0.1220
  790MPD2    N111707   2.759   2.304  13.547  0.0626 -0.1861  0.1890
  790MPD2    H711708   2.769   2.368  13.625  0.5359 -1.3639  1.0955
  791MPD2     C11709   2.213   2.008  13.118  0.1996  0.2039 -0.6641
  791MPD2    C111710   2.228   1.990  12.979 -0.5138  0.2196  0.3254
  791MPD2    C211711   2.121   1.935  12.908 -0.6162 -0.1408  0.2339
  791MPD2    C311712   2.002   1.903  12.964 -0.1388  0.0903  0.0794
  791MPD2    C411713   1.989   1.934  13.099 -0.3212  0.5122 -0.4092
  791MPD2    C511714   2.092   1.986  13.173 -0.6206 -0.3288  0.2456
  791MPD2     H11715   2.134   1.902  12.806  1.6875  0.3332  0.3683
  791MPD2    H111716   1.897   1.913  13.152  1.0046  1.9712  2.4815
  791MPD2    H211717   2.298   2.025  13.184 -1.4162  0.6507  1.2979
  791MPD2    H311718   2.071   1.991  13.279 -1.0315  0.0974  0.1415
  791MPD2     N11719   1.903   1.834  12.892  0.2920 -0.0232  0.0671
  791MPD2    H511720   1.921   1.804  12.797 -0.8439  0.5695 -0.3437
  791MPD2    N111721   2.344   2.025  12.919 -0.4432  0.1968  0.3247
  791MPD2    H711722   2.430   2.040  12.972  0.9039  0.5320 -1.9838
  792MPD2     C11723   2.976   2.541  10.969 -0.2131  0.4709 -0.5075
  792MPD2    C111724   2.951   2.680  10.958  0.6082  0.7701 -1.4643
  792MPD2    C211725   2.821   2.717  10.931  0.4894 -0.3572 -0.1628
  792MPD2    C311726   2.714   2.626  10.910  0.0168  0.3770  0.2904
  792MPD2    C411727   2.739   2.496  10.919 -0.0142  0.0986 -0.1025
  792MPD2    C511728   2.868   2.454  10.953 -0.5981  0.0241  0.3074
  792MPD2     H11729   2.806   2.824  10.939 -1.1664 -0.4095 -2.7890
  792MPD2    H111730   2.660   2.422  10.919 -0.3291  0.4422 -2.2921
  792MPD2    H211731   3.074   2.500  10.989 -0.3515  1.1021  1.4711
  792MPD2    H311732   2.878   2.348  10.974 -1.3856  0.2707  1.9171
  792MPD2     N11733   2.585   2.661  10.864  0.1595  0.2387 -0.3551
  792MPD2    H511734   2.512   2.590  10.853 -0.9426  1.6504 -2.1434
  792MPD2    N111735   3.059   2.767  10.997 -0.0041  0.1592  0.4063
  792MPD2    H711736   3.130   2.731  11.060 -0.5750 -0.2908  0.8013
  793MPD2     C11737   2.532   3.312  10.197 -0.7241  0.4242 -0.3179
  793MPD2    C111738   2.609   3.218  10.255  0.1108  0.0642 -0.0176
  793MPD2    C211739   2.556   3.141  10.350 -0.1300 -0.6258 -0.7176
  793MPD2    C311740   2.423   3.140  10.374  0.4125 -0.0418 -0.4231
  793MPD2    C411741   2.337   3.234  10.315  0.2395  0.4585  0.3071
  793MPD2    C511742   2.396   3.323  10.229 -0.9340 -0.1650 -0.0151
  793MPD2     H11743   2.625   3.078  10.405 -0.3793  0.8979  1.3623
  793MPD2    H111744   2.233   3.248  10.340 -0.7633 -2.2519 -2.3095
  793MPD2    H211745   2.569   3.389  10.132  0.4754 -0.7488 -1.0124
  793MPD2    H311746   2.331   3.398  10.186  0.3422  1.3076  0.6311
  793MPD2     N11747   2.378   3.044  10.462  0.0003 -0.0387  0.4335
  793MPD2    H511748   2.455   2.984  10.489  1.2578  1.2979 -0.1268
  793MPD2    N111749   2.743   3.201  10.213  0.2336  0.5456  0.1575
  793MPD2    H711750   2.787   3.122  10.260  1.9059  1.7266  0.5937
  794MPD2     C11751   2.946   1.627   0.120 -0.1828  0.0114  0.4547
  794MPD2    C111752   2.987   1.524   0.038  0.5136 -1.1089  0.6748
  794MPD2    C211753   2.954   1.523  17.629  0.6413 -0.2168 -0.3607
  794MPD2    C311754   2.882   1.633  17.579 -0.4479 -0.3889  0.1312
  794MPD2    C411755   2.837   1.730  17.664  0.2655 -0.3419 -0.2279
  794MPD2    C511756   2.876   1.727   0.069 -0.6355 -0.1490  1.1039
  794MPD2     H11757   3.008   1.449  17.571 -1.9367 -0.3644 -2.5390
  794MPD2    H111758   2.776   1.816  17.639  1.2116 -0.5300 -3.1548
  794MPD2    H211759   2.958   1.623   0.228 -1.3177  1.8846  0.6590
  794MPD2    H311760   2.842   1.810   0.130  2.9382  0.2700  2.5297
  794MPD2     N11761   2.849   1.647  17.441 -0.2578  0.1939 -0.9060
  794MPD2    H511762   2.801   1.735  17.424  0.6279  1.1163  1.3443
  794MPD2    N111763   3.055   1.412   0.089 -0.0218 -0.0219 -0.0040
  794MPD2    H711764   3.069   1.331   0.029  0.5692  0.9475 -1.1562
  795MPD2     C11765   0.781   3.726  13.161 -0.3028  0.1976 -0.7692
  795MPD2    C111766   0.734   3.595  13.149 -0.2558  0.0245 -0.3072
  795MPD2    C211767   0.816   3.490  13.181  0.0239  0.3191 -0.5113
  795MPD2    C311768   0.956   3.509  13.200 -0.9718  0.1197  0.1789
  795MPD2    C411769   1.000   3.640  13.192  0.2476  0.3066  0.5388
  795MPD2    C511770   0.914   3.742  13.173  0.4724 -0.0759 -0.4898
  795MPD2     H11771   0.771   3.391  13.185  0.4080  0.1398 -0.6210
  795MPD2    H111772   1.105   3.660  13.208  0.2482  0.1148  0.7723
  795MPD2    H211773   0.712   3.810  13.160 -2.2490 -1.3914  0.4439
  795MPD2    H311774   0.965   3.838  13.168  2.7101 -1.3178 -1.4811
  795MPD2     N11775   1.041   3.404  13.233  0.6547  0.1955 -0.0557
  795MPD2    H511776   0.990   3.318  13.250 -0.6380  1.1725  1.0466
  795MPD2    N111777   0.597   3.559  13.143  0.0428  0.0044  0.1866
  795MPD2    H711778   0.561   3.464  13.138  0.4819 -0.0859 -1.2120
  796MPD2     C11779   0.094   4.649  15.634 -1.8287 -0.2127 -0.2518
  796MPD2    C111780   0.218   4.697  15.646  1.6600  0.3563  0.0167
  796MPD2    C211781   0.235   0.101  15.640 -0.3537 -0.7319 -0.4969
  796MPD2    C311782   0.127   0.188  15.646 -0.1461 -0.2067 -0.1119
  796MPD2    C411783   4.731   0.136  15.633  0.0668  0.2285  0.0227
  796MPD2    C511784   4.716   4.730  15.620  0.4673  0.2672 -0.3122
  796MPD2     H11785   0.329   0.155  15.640 -0.7808  0.0099 -1.2340
  796MPD2    H111786   4.636   0.188  15.636 -0.7455 -1.1034 -2.8248
  796MPD2    H211787   0.072   4.543  15.618 -0.4426 -0.4257 -0.7082
  796MPD2    H311788   4.613   4.698  15.623  0.2973  0.8707  0.3039
  796MPD2     N11789   0.148   0.326  15.656 -0.6358 -0.0917  0.1245
  796MPD2    H511790   0.246   0.351  15.669 -1.6000  2.7123  2.1850
  796MPD2    N111791   0.326   4.607  15.660 -0.1205  0.2836 -0.4140
  796MPD2    H711792   0.314   4.514  15.699 -1.6979  0.9966  0.7763
  797MPD2     C11793   0.798   0.103  17.052  0.0347 -0.4439 -0.4970
  797MPD2    C111794   0.829   0.233  17.039  0.0770  0.3019  0.1911
  797MPD2    C211795   0.797   0.297  16.924  0.3463 -0.7382  0.1681
  797MPD2    C311796   0.738   0.230  16.822 -0.5094 -0.0754  0.2930
  797MPD2    C411797   0.715   0.096  16.838 -0.1235  0.1185  0.7077
  797MPD2    C511798   0.733   0.031  16.962 -0.1776 -0.5885 -0.4712
  797MPD2     H11799   0.828   0.401  16.931  1.1553 -0.8827 -1.1979
  797MPD2    H111800   0.668   0.032  16.764  1.8685  0.9833 -1.3127
  797MPD2    H211801   0.825   0.062  17.149  1.7794  0.2896 -0.6660
  797MPD2    H311802   0.708   4.659  16.985 -0.3731 -0.6554 -0.9760
  797MPD2     N11803   0.706   0.286  16.698 -0.2410 -0.1136 -0.4237
  797MPD2    H511804   0.650   0.234  16.631  0.8847  0.2582 -1.6471
  797MPD2    N111805   0.894   0.314  17.138 -0.3331  0.1606  0.4083
  797MPD2    H711806   0.928   0.405  17.109 -1.2633  0.8545  1.4983
  798MPD2     C11807   0.862   0.981  16.783  0.3114 -0.0800 -0.5479
  798MPD2    C111808   0.832   0.844  16.789 -0.1423 -0.1311  0.5577
  798MPD2    C211809   0.847   0.777  16.909  0.5114 -0.5210 -0.4483
  798MPD2    C311810   0.908   0.840  17.013  0.2464  0.1967 -0.3904
  798MPD2    C411811   0.945   0.975  17.001  0.2956 -0.0409 -0.3275
  798MPD2    C511812   0.919   1.042  16.886 -0.6190 -0.1603  0.0483
  798MPD2     H11813   0.828   0.670  16.906 -3.3162  0.1941 -1.7018
  798MPD2    H111814   0.983   1.032  17.085  0.2131 -1.8250  0.9251
  798MPD2    H211815   0.837   1.032  16.690 -0.2622  1.2246  0.3244
  798MPD2    H311816   0.957   1.141  16.867  0.8814 -0.6491  0.5390
  798MPD2     N11817   0.932   0.754  17.121 -0.0772  0.5792 -0.5454
  798MPD2    H511818   0.910   0.657  17.103  3.0545 -0.2519  0.1026
  798MPD2    N111819   0.788   0.762  16.686  0.3203  0.2685 -0.1368
  798MPD2    H711820   0.777   0.663  16.704 -1.6050  0.9118  2.1434
  799MPD2     C11821   0.059   1.488  14.795  0.6486  0.6639 -0.1363
  799MPD2    C111822   4.717   1.402  14.720 -0.6418  0.4505 -0.5279
  799MPD2    C211823   4.652   1.456  14.604 -0.3788 -0.4820 -0.3900
  799MPD2    C311824   4.659   1.587  14.561 -0.9758 -0.3809  0.3097
  799MPD2    C411825   0.006   1.667  14.640  0.2655 -0.7376  0.0030
  799MPD2    C511826   0.078   1.616  14.749  0.0135  0.9109  0.2501
  799MPD2     H11827   4.600   1.387  14.539  1.2142 -2.7475  0.7317
  799MPD2    H111828   0.014   1.773  14.618 -1.4479 -0.5096  0.4253
  799MPD2    H211829   0.106   1.450  14.885  0.8268 -0.0129 -0.5207
  799MPD2    H311830   0.134   1.680  14.816 -0.0773  0.6687  0.5598
  799MPD2     N11831   4.614   1.643  14.437  0.1764  0.4472 -0.5314
  799MPD2    H511832   4.631   1.741  14.421  1.4982  0.2796 -0.1146
  799MPD2    N111833   4.701   1.259  14.744 -0.6189 -0.1046  0.0813
  799MPD2    H711834   4.644   1.209  14.677 -2.8870 -0.4578  2.2588
  800MPD2     C11835   0.651   2.471  14.871  0.7003 -0.4550  0.1743
  800MPD2    C111836   0.656   2.596  14.808  0.0042  0.9103  0.3813
  800MPD2    C211837   0.712   2.610  14.683  0.3443 -0.1670  0.2379
  800MPD2    C311838   0.772   2.503  14.620 -0.3543 -0.3423 -0.5073
  800MPD2    C411839   0.779   2.383  14.685  0.4820 -0.0121  0.3956
  800MPD2    C511840   0.713   2.368  14.804  0.0644  0.0996 -0.0653
  800MPD2     H11841   0.708   2.705  14.632 -0.2101  0.7294  1.9402
  800MPD2    H111842   0.824   2.296  14.638  1.6682  0.4116  0.7493
  800MPD2    H211843   0.607   2.449  14.967 -0.4768 -0.2826 -0.3289
  800MPD2    H311844   0.706   2.263  14.832  1.9339 -0.0223 -0.0787
  800MPD2     N11845   0.841   2.524  14.496 -0.1714  0.2212 -0.1165
  800MPD2    H511846   0.855   2.620  14.463 -2.6981  0.5752 -0.1081
  800MPD2    N111847   0.615   2.708  14.878 -0.1732  0.1209  0.0213
  800MPD2    H711848   0.645   2.789  14.824  1.8844 -1.6620 -1.5158
  801MPD2     C11849   0.104   3.092  14.571 -0.3395  0.2095  0.3295
  801MPD2    C111850   0.148   2.971  14.627  0.3305  0.3420  0.3153
  801MPD2    C211851   0.092   2.860  14.572 -0.1133 -0.1041  0.5166
  801MPD2    C311852   0.005   2.858  14.468  0.0952  0.5444  0.0196
  801MPD2    C411853   4.691   2.978  14.421 -0.2285  0.6333 -0.0975
  801MPD2    C511854   0.011   3.090  14.470  0.7053  0.1779  0.2900
  801MPD2     H11855   0.131   2.769  14.614  0.2392 -0.4859 -0.6329
  801MPD2    H111856   4.609   2.978  14.350 -0.2656 -2.2448 -0.0808
  801MPD2    H211857   0.140   3.190  14.600 -0.5964  0.4235 -0.0719
  801MPD2    H311858   4.724   3.190  14.432 -1.7284 -0.3741  0.0178
  801MPD2     N11859   4.678   2.737  14.420  0.2865  0.4125 -0.0697
  801MPD2    H511860   4.621   2.748  14.337  1.2592 -3.6432 -1.2777
  801MPD2    N111861   0.236   2.963  14.733  0.3239  1.0595  0.1113
  801MPD2    H711862   0.250   2.868  14.764  0.2700  0.4090 -1.8731
  802MPD2     C11863   4.079   2.889  16.970  0.3153 -0.2856 -0.9346
  802MPD2    C111864   4.188   2.891  17.055 -0.3029 -0.6050 -0.5346
  802MPD2    C211865   4.299   2.821  17.019  0.5236 -0.3791  0.2349
  802MPD2    C311866   4.310   2.756  16.901 -0.7299 -0.0323 -0.2702
  802MPD2    C411867   4.199   2.764  16.817 -0.3768 -0.3894 -0.2151
  802MPD2    C511868   4.088   2.831  16.853 -0.7446  0.5547  0.2563
  802MPD2     H11869   4.384   2.824  17.087 -1.4259  0.6990  2.6459
  802MPD2    H111870   4.205   2.718  16.720  0.2242 -0.1866 -0.2797
  802MPD2    H211871   3.989   2.948  16.983  0.9085  0.4958 -0.3697
  802MPD2    H311872   3.998   2.835  16.792  0.1170  1.3057 -0.9667
  802MPD2     N11873   4.428   2.682  16.876  0.5993  0.0481 -0.2000
  802MPD2    H511874   4.488   2.673  16.958 -0.7841  0.9620  0.9115
  802MPD2    N111875   4.183   2.965  17.178 -0.5758  0.0126  0.1748
  802MPD2    H711876   4.265   2.972  17.238 -0.1385 -0.8838 -0.3216
  803MPD2     C11877   0.388   2.342  12.635  0.6128 -0.9732  0.5099
  803MPD2    C111878   0.469   2.232  12.633 -0.0864  0.4325 -0.8454
  803MPD2    C211879   0.488   2.162  12.745  0.9894 -0.0883  0.3947
  803MPD2    C311880   0.426   2.198  12.865  0.1541 -0.2040  0.9041
  803MPD2    C411881   0.345   2.312  12.869  0.1630 -0.5371  0.1536
  803MPD2    C511882   0.325   2.382  12.756 -0.0406 -0.5161  0.4523
  803MPD2     H11883   0.557   2.077  12.746 -0.6370 -1.3971  1.4052
  803MPD2    H111884   0.291   2.350  12.955 -0.6271  0.9309 -0.9936
  803MPD2    H211885   0.374   2.412  12.554 -1.8153 -1.3579  0.5955
  803MPD2    H311886   0.263   2.472  12.759 -1.4579 -1.5251  1.2612
  803MPD2     N11887   0.466   2.132  12.987 -0.3240  0.3901 -0.2700
  803MPD2    H511888   0.456   2.183  13.074  0.9594 -0.2333  0.2383
  803MPD2    N111889   0.549   2.204  12.519  1.1840  0.2594 -0.1728
  803MPD2    H711890   0.615   2.127  12.530 -0.8371 -1.2641  1.1208
  804MPD2     C11891   1.079   3.252   0.145  0.7754  0.8297 -0.1869
  804MPD2    C111892   0.963   3.291   0.083  0.4025  0.5875 -0.3885
  804MPD2    C211893   0.926   3.423   0.069  0.3511  0.4601  0.7199
  804MPD2    C311894   1.016   3.521   0.104  0.3329 -0.4688 -0.0165
  804MPD2    C411895   1.131   3.479   0.173 -0.8826  0.4413 -0.1033
  804MPD2    C511896   1.169   3.347   0.191  0.5934 -0.1728 -0.3289
  804MPD2     H11897   0.840   3.451   0.010  2.2246 -0.0861 -2.3118
  804MPD2    H111898   1.210   3.544   0.207  1.0939 -3.3271  2.4401
  804MPD2    H211899   1.113   3.151   0.166  0.7106  0.4943 -1.6878
  804MPD2    H311900   1.263   3.321   0.238  1.0798  0.7694 -0.7817
  804MPD2     N11901   0.999   3.663   0.077 -0.1384  0.1602  0.2089
  804MPD2    H511902   0.912   3.681   0.026 -1.8595 -1.4900  2.5846
  804MPD2    N111903   0.877   3.196   0.020 -0.3775  0.4364 -0.3045
  804MPD2    H711904   0.789   3.235  17.715 -1.0551 -1.0196 -0.2283
  805MPD2     C11905   4.503   1.754  15.603 -0.5562 -0.1426 -0.7396
  805MPD2    C111906   4.579   1.741  15.490 -0.2088 -0.6584  0.4133
  805MPD2    C211907   4.708   1.715  15.501  0.2545  0.2165 -0.1523
  805MPD2    C311908   0.043   1.693  15.617 -0.2942  0.1028 -0.1242
  805MPD2    C411909   4.697   1.722  15.733  0.2069  0.1242  0.2168
  805MPD2    C511910   4.558   1.743  15.726 -0.2357  0.4782  0.1782
  805MPD2     H11911   0.034   1.694  15.411 -0.1431 -2.1629  0.1735
  805MPD2    H111912   0.007   1.716  15.833  0.3759 -1.1599  0.0611
  805MPD2    H211913   4.395   1.759  15.599 -0.5685  0.0151 -0.1548
  805MPD2    H311914   4.498   1.769  15.812 -0.6971  0.6525 -0.1969
  805MPD2     N11915   0.179   1.657  15.615 -0.2468 -0.5782  0.2766
  805MPD2    H511916   0.225   1.653  15.524 -2.3310 -0.5829 -0.7700
  805MPD2    N111917   4.517   1.738  15.367  0.4705  0.2805 -0.2617
  805MPD2    H711918   4.584   1.724  15.292  0.9163  1.5404 -0.0899
  806MPD2     C11919   0.457   1.494   0.686  0.1492 -0.0417  0.1566
  806MPD2    C111920   0.498   1.615   0.629 -0.8782  0.4179  0.3869
  806MPD2    C211921   0.517   1.629   0.492 -0.6539  0.3173 -0.0467
  806MPD2    C311922   0.515   1.518   0.409  0.6116  0.4100  0.0627
  806MPD2    C411923   0.466   1.404   0.473  0.4671  0.5150 -1.0549
  806MPD2    C511924   0.439   1.393   0.606  0.3658  0.7155 -0.0182
  806MPD2     H11925   0.537   1.729   0.455 -0.2119  0.3514  0.2827
  806MPD2    H111926   0.473   1.307   0.425 -0.7241 -0.7628  1.3535
  806MPD2    H211927   0.444   1.481   0.793 -0.5823  0.7535  0.1592
  806MPD2    H311928   0.417   1.293   0.641 -1.4715  0.7886 -0.9084
  806MPD2     N11929   0.538   1.532   0.268  0.2261  0.0245  0.1564
  806MPD2    H511930   0.538   1.625   0.227 -0.2746  0.6826  1.6489
  806MPD2    N111931   0.520   1.722   0.721  0.5291 -0.1747  0.3601
  806MPD2    H711932   0.499   1.704   0.819 -1.2522 -0.6670 -0.1024
  807MPD2     C11933   0.378   1.751   1.387 -0.2863  0.3328 -0.0757
  807MPD2    C111934   0.446   1.684   1.289  0.4476 -0.1145 -0.6706
  807MPD2    C211935   0.413   1.553   1.265  0.6582  0.3778  0.0851
  807MPD2    C311936   0.334   1.481   1.349  0.1062 -0.9358  0.2553
  807MPD2    C411937   0.273   1.551   1.455 -0.7139 -0.4390  0.8398
  807MPD2    C511938   0.286   1.686   1.474  0.0282  0.3985  0.9129
  807MPD2     H11939   0.454   1.500   1.180 -1.5142 -1.4085  0.1512
  807MPD2    H111940   0.202   1.499   1.520 -0.5050  1.1243  2.3061
  807MPD2    H211941   0.372   1.860   1.386 -0.2513  0.3362  1.1598
  807MPD2    H311942   0.216   1.745   1.533  2.0541  1.8726  1.8255
  807MPD2     N11943   0.286   1.350   1.329 -0.1973 -0.5449 -0.7795
  807MPD2    H511944   0.195   1.332   1.372  0.6941  0.0806  1.3967
  807MPD2    N111945   0.524   1.747   1.190  0.1418  0.1463 -0.0491
  807MPD2    H711946   0.554   1.689   1.112  0.8549  0.4940 -0.0392
  808MPD2     C11947   0.199   2.489   9.799  0.0389  0.0811 -0.4442
  808MPD2    C111948   0.306   2.476   9.885 -0.4934 -0.3735 -0.5369
  808MPD2    C211949   0.372   2.596   9.922  0.0977 -0.3606  0.5938
  808MPD2    C311950   0.327   2.723   9.876  0.7745 -0.2027 -0.8750
  808MPD2    C411951   0.221   2.727   9.789  0.4981  1.1767  0.6707
  808MPD2    C511952   0.165   2.614   9.750  0.2290  0.2425 -0.2597
  808MPD2     H11953   0.467   2.586   9.975 -0.2634 -0.2220  1.2715
  808MPD2    H111954   0.184   2.821   9.747 -0.5430  1.3465  1.9688
  808MPD2    H211955   0.141   2.402   9.770  1.2668 -1.0776  0.5560
  808MPD2    H311956   0.081   2.634   9.684  1.4773 -1.0038 -2.2430
  808MPD2     N11957   0.394   2.847   9.912 -0.1145 -0.9318  0.4717
  808MPD2    H511958   0.375   2.932   9.859 -0.4831  0.0824  2.2494
  808MPD2    N111959   0.339   2.350   9.941  0.0415 -0.6587  0.2955
  808MPD2    H711960   0.421   2.355  10.001 -0.1189 -0.2408  0.4795
  809MPD2     C11961   1.171   2.856  10.556 -0.0063 -0.9255 -0.2557
  809MPD2    C111962   1.165   2.987  10.512  0.2536  0.1846 -0.0687
  809MPD2    C211963   1.071   3.025  10.420 -0.2462 -0.0901  0.0492
  809MPD2    C311964   0.973   2.936  10.376 -0.1735 -0.0828  0.0405
  809MPD2    C411965   0.983   2.802  10.417 -0.2169 -0.7455  1.0253
  809MPD2    C511966   1.084   2.764  10.504  0.6051 -0.5100 -0.2969
  809MPD2     H11967   1.075   3.127  10.383 -0.1752 -0.2022 -0.2545
  809MPD2    H111968   0.911   2.729  10.383  1.1683 -1.5032 -0.2719
  809MPD2    H211969   1.246   2.826  10.628  1.4282  1.5896 -0.6937
  809MPD2    H311970   1.087   2.663  10.543 -0.7882 -1.2057 -1.9719
  809MPD2     N11971   0.868   2.967  10.286  0.1163 -0.0183  0.3669
  809MPD2    H511972   0.806   2.895  10.248  0.6976  0.1256 -0.8692
  809MPD2    N111973   1.269   3.084  10.552  0.3907 -0.3818 -0.3927
  809MPD2    H711974   1.258   3.175  10.510 -0.8999 -0.0599  0.6590
  810MPD2     C11975   4.594   2.124  10.171  0.9344 -0.2147  0.7580
  810MPD2    C111976   4.481   2.110  10.243  0.3918 -0.0582 -0.5590
  810MPD2    C211977   4.474   2.169  10.365 -0.3606 -0.0566  0.0118
  810MPD2    C311978   4.571   2.263  10.401  0.2326  0.1150 -0.1113
  810MPD2    C411979   4.682   2.269  10.328 -0.0354  0.0176 -0.6089
  810MPD2    C511980   4.694   2.204  10.211 -0.0070 -0.1561  0.1608
  810MPD2     H11981   4.383   2.156  10.422 -0.4103 -0.2572 -0.1141
  810MPD2    H111982   0.043   2.322  10.352 -0.2370  1.0876 -2.1841
  810MPD2    H211983   4.613   2.063  10.083 -0.3323 -0.3579  0.5839
  810MPD2    H311984   0.058   2.205  10.160  0.2556 -1.0682  0.6335
  810MPD2     N11985   4.569   2.339  10.521 -0.4291 -0.3681 -0.5006
  810MPD2    H511986   4.653   2.395  10.535 -0.2469 -0.0873 -2.8269
  810MPD2    N111987   4.373   2.030  10.196 -1.2068  0.7936  0.0086
  810MPD2    H711988   4.386   1.985  10.106 -0.4362 -1.4632  1.2523
  811MPD2     C11989   3.975   2.368   9.813 -0.2541 -0.1315  0.1008
  811MPD2    C111990   3.988   2.353   9.943  0.6011 -0.1521 -0.0070
  811MPD2    C211991   4.040   2.456  10.017 -0.8934  0.1378  0.6899
  811MPD2    C311992   4.078   2.576   9.956 -0.9951 -0.4099  0.2536
  811MPD2    C411993   4.056   2.592   9.819  0.2260 -0.2592 -0.7490
  811MPD2    C511994   4.003   2.486   9.755 -0.2632 -0.3852  0.3379
  811MPD2     H11995   4.049   2.448  10.125 -0.5809  2.6375  0.8630
  811MPD2    H111996   4.090   2.673   9.755  0.1197  0.0658 -0.3964
  811MPD2    H211997   3.931   2.288   9.755  0.5514 -1.1368  0.8547
  811MPD2    H311998   3.990   2.500   9.648  0.1921 -0.2679  0.2992
  811MPD2     N11999   4.129   2.681  10.032 -0.0934 -0.3608  0.4680
  811MPD2    H512000   4.155   2.658  10.127  0.1751 -0.8943  0.2657
  811MPD2    N112001   3.961   2.225   9.993  0.2730  0.2130  0.8347
  811MPD2    H712002   3.956   2.153   9.921  0.6810  1.3071 -0.2938
  812MPD2     C12003   2.951   2.189  12.133 -0.5895 -0.1389 -0.1542
  812MPD2    C112004   3.058   2.265  12.180  0.2638 -0.1553  0.1822
  812MPD2    C212005   3.120   2.229  12.297 -0.3680 -0.4297  0.5533
  812MPD2    C312006   3.065   2.125  12.367  0.1388 -0.2843 -0.5228
  812MPD2    C412007   2.960   2.050  12.318 -0.6545 -0.5591 -0.2865
  812MPD2    C512008   2.901   2.079  12.202 -0.6635  0.3916  0.1887
  812MPD2     H12009   3.203   2.282  12.343  0.7571  0.1534 -2.1214
  812MPD2    H112010   2.903   1.972  12.367 -0.2619 -0.5860  0.1363
  812MPD2    H212011   2.897   2.223  12.046 -0.2216  0.4786 -0.1404
  812MPD2    H312012   2.815   2.027  12.162 -1.1261  0.0826  1.5651
  812MPD2     N12013   3.124   2.107  12.493 -0.5283  0.3354  0.6424
  812MPD2    H512014   3.191   2.177  12.525 -0.1106  0.2362 -0.0127
  812MPD2    N112015   3.084   2.386  12.117  0.3541 -0.0792 -0.0725
  812MPD2    H712016   3.032   2.401  12.031 -1.5185  0.7896  1.2083
  813MPD2     C12017   3.050   3.866  12.587  1.1649  0.8557 -0.0566
  813MPD2    C112018   2.996   3.989  12.616  0.6315  0.3546 -1.3279
  813MPD2    C212019   2.923   4.003  12.731 -0.0182 -0.2488  0.3190
  813MPD2    C312020   2.891   3.883  12.804  0.2746 -0.0349 -0.7222
  813MPD2    C412021   2.958   3.765  12.773 -0.1768 -0.2453 -0.3367
  813MPD2    C512022   3.043   3.761  12.669  0.1769 -0.8755 -0.3822
  813MPD2     H12023   2.868   4.092  12.760  1.1497  0.5281  0.1297
  813MPD2    H112024   2.939   3.672  12.826 -1.3880  1.0074  1.4392
  813MPD2    H212025   3.116   3.859  12.501  0.1917  2.6096 -0.9560
  813MPD2    H312026   3.094   3.667  12.650  0.2075 -1.4310  2.4768
  813MPD2     N12027   2.792   3.885  12.904  0.4840 -0.1031 -0.3876
  813MPD2    H512028   2.736   3.970  12.899 -1.2562 -1.2532 -0.1700
  813MPD2    N112029   3.044   4.109  12.551 -0.0007 -0.1465 -0.5287
  813MPD2    H712030   3.125   4.103  12.491 -0.7923 -0.6972 -1.5351
  814MPD2     C12031   2.974   0.338  12.546  0.2227  0.0595  0.1513
  814MPD2    C112032   2.960   0.429  12.446 -1.1144  0.3050 -0.3456
  814MPD2    C212033   3.012   0.557  12.473 -0.1275  0.3283  0.5058
  814MPD2    C312034   3.081   0.581  12.591 -0.1496  0.8884 -0.5227
  814MPD2    C412035   3.091   0.488  12.683 -0.7296  0.0528 -0.1146
  814MPD2    C512036   3.033   0.368  12.667  0.6790  0.0558  0.3607
  814MPD2     H12037   3.004   0.635  12.398 -3.0324 -1.5528 -1.1485
  814MPD2    H112038   3.158   0.503  12.767 -2.1725  1.9940  0.7068
  814MPD2    H212039   2.940   0.235  12.535 -0.7731  0.6294 -2.0436
  814MPD2    H312040   3.040   0.294  12.745 -1.0923 -0.4382  0.0600
  814MPD2     N12041   3.125   0.708  12.629  0.5864  0.2713 -0.3139
  814MPD2    H512042   3.179   0.721  12.714  0.6163  1.4916 -0.5072
  814MPD2    N112043   2.895   0.412  12.316 -0.1437 -0.1795  0.3606
  814MPD2    H712044   2.901   0.487  12.248  0.6076 -0.7438 -0.1993
  815MPD2     C12045   3.892   4.105  11.501  0.1461 -0.3275  0.4980
  815MPD2    C112046   3.845   3.979  11.502  0.2348  0.6271 -0.3518
  815MPD2    C212047   3.728   3.948  11.561  0.3001  0.0434  0.4078
  815MPD2    C312048   3.649   4.053  11.609  1.0810 -0.1636 -1.3481
  815MPD2    C412049   3.707   4.179  11.629  0.4992  0.5224 -0.2381
  815MPD2    C512050   3.831   4.204  11.563  0.0329  0.0568  0.0440
  815MPD2     H12051   3.688   3.848  11.567  1.5858 -0.6477 -2.5379
  815MPD2    H112052   3.661   4.262  11.682 -2.0752 -1.1726  0.2085
  815MPD2    H212053   3.984   4.136  11.452  0.3496  0.0212  1.0945
  815MPD2    H312054   3.886   4.296  11.578  0.4127 -0.4626  1.8164
  815MPD2     N12055   3.519   4.021  11.653 -0.1443 -0.3355  0.1630
  815MPD2    H512056   3.480   3.928  11.640 -0.9650 -0.2604  1.9869
  815MPD2    N112057   3.906   3.880  11.421  0.0419 -0.0263 -0.0930
  815MPD2    H712058   3.975   3.908  11.352 -1.2363  3.6436  0.1264
  816MPD2     C12059   4.028   2.693  17.329 -0.8091  0.5402 -0.3756
  816MPD2    C112060   3.917   2.692  17.247  0.7207 -0.0710  0.4921
  816MPD2    C212061   3.921   2.614  17.131 -0.4802  0.4696  0.1765
  816MPD2    C312062   4.037   2.549  17.093 -0.6420  0.1601  0.1668
  816MPD2    C412063   4.143   2.551  17.179  0.4028  0.0620 -0.3083
  816MPD2    C512064   4.141   2.620  17.303  0.2266 -0.1552 -0.3371
  816MPD2     H12065   3.836   2.609  17.065 -0.4468  0.3304  0.1450
  816MPD2    H112066   4.234   2.496  17.158  0.9292  0.6930  0.3058
  816MPD2    H212067   4.030   2.757  17.416  2.5721  1.3509 -1.0342
  816MPD2    H312068   4.231   2.628  17.363 -0.4788 -1.4661  0.9001
  816MPD2     N12069   4.045   2.475  16.973  0.8182  0.5247  0.6914
  816MPD2    H512070   3.968   2.478  16.907  1.7517 -1.7552 -0.4908
  816MPD2    N112071   3.804   2.776  17.280  0.2365  0.1773 -0.9103
  816MPD2    H712072   3.820   2.835  17.361  1.4733 -0.3516 -0.7641
  817MPD2     C12073   3.944   0.131   9.430 -0.1340 -1.1030  0.0702
  817MPD2    C112074   3.987   0.001   9.459  0.2583  0.5691 -0.3246
  817MPD2    C212075   3.919   4.625   9.403 -0.1138 -0.0375 -0.1625
  817MPD2    C312076   3.815   4.638   9.306 -0.2800  0.4230  0.5392
  817MPD2    C412077   3.773   0.042   9.285 -0.7796 -0.1108  0.4545
  817MPD2    C512078   3.843   0.145   9.343  0.2322 -0.3842  0.0405
  817MPD2     H12079   3.944   4.521   9.420 -0.3797 -0.1389 -0.4057
  817MPD2    H112080   3.696   0.070   9.214  0.9434  0.5424 -1.1825
  817MPD2    H212081   3.980   0.224   9.472 -1.0358 -1.1650  0.9838
  817MPD2    H312082   3.815   0.247   9.321  2.2433 -0.6159 -3.5978
  817MPD2     N12083   3.747   4.528   9.249 -0.5325  0.0387  0.1332
  817MPD2    H512084   3.769   4.444   9.302 -1.3746 -1.3172 -1.6676
  817MPD2    N112085   4.099   4.705   9.540 -0.7086 -0.0291 -0.1942
  817MPD2    H712086   4.105   4.608   9.571 -1.6465 -0.3266 -0.9775
  818MPD2     C12087   1.752   0.370   9.535 -0.1911 -0.4545  0.5875
  818MPD2    C112088   1.815   0.281   9.620  0.0755  0.0508 -0.7012
  818MPD2    C212089   1.927   0.207   9.572  0.4212  0.5529  0.5148
  818MPD2    C312090   1.965   0.218   9.441  0.2785  0.4927  0.2484
  818MPD2    C412091   1.892   0.295   9.351 -0.4409  0.0014  0.4828
  818MPD2    C512092   1.785   0.365   9.403  0.3673 -0.0437 -0.1442
  818MPD2     H12093   1.977   0.142   9.643  1.3601  1.5353  0.7592
  818MPD2    H112094   1.918   0.300   9.246 -2.3302 -0.9748 -0.0288
  818MPD2    H212095   1.663   0.424   9.564 -1.3964 -3.0872  1.8043
  818MPD2    H312096   1.723   0.420   9.334 -0.9532 -3.4378 -1.6971
  818MPD2     N12097   2.072   0.137   9.383  0.5324 -0.0255 -0.2991
  818MPD2    H512098   2.085   0.126   9.283 -2.0018  2.7539 -0.9513
  818MPD2    N112099   1.766   0.251   9.749  0.2440 -0.1000 -0.6323
  818MPD2    H712100   1.803   0.167   9.794 -2.8450 -0.0603  1.9427
  819MPD2     C12101   0.569   1.074  15.234  0.1009  0.8401  0.6661
  819MPD2    C112102   0.533   0.972  15.327 -0.4263  0.1739 -0.3072
  819MPD2    C212103   0.611   0.937  15.435  0.0180 -0.6295 -0.5053
  819MPD2    C312104   0.726   1.014  15.455 -0.1604 -0.2492  0.3620
  819MPD2    C412105   0.764   1.117  15.369 -0.6478  0.2118 -0.0655
  819MPD2    C512106   0.683   1.143  15.260 -0.1716 -0.6180  0.7005
  819MPD2     H12107   0.602   0.866  15.516 -0.0706  0.3405  0.3274
  819MPD2    H112108   0.854   1.176  15.384 -0.7937  0.6496 -0.9328
  819MPD2    H212109   0.497   1.109  15.160 -0.2379  0.9948  1.0704
  819MPD2    H312110   0.716   1.226  15.199 -2.1181 -0.5878 -0.3353
  819MPD2     N12111   0.807   0.974  15.562 -0.5102  0.0320  0.6119
  819MPD2    H512112   0.787   0.880  15.594 -0.8103 -0.1030  0.0362
  819MPD2    N112113   0.398   0.924  15.306 -0.0764  0.4525 -0.6977
  819MPD2    H712114   0.350   0.963  15.225 -0.9745  2.4018  0.7756
  820MPD2     C12115   4.309   1.169  14.898 -0.7545  0.2684 -0.0804
  820MPD2    C112116   4.421   1.222  14.946 -0.7663 -0.0354 -0.9229
  820MPD2    C212117   4.502   1.150  15.026  0.3423  0.0074 -0.1233
  820MPD2    C312118   4.480   1.014  15.049 -0.4940 -0.0388  0.5848
  820MPD2    C412119   4.368   0.957  14.991 -0.3986  0.6416 -0.9006
  820MPD2    C512120   4.290   1.035  14.911  0.6563 -0.2708  0.0526
  820MPD2     H12121   4.584   1.205  15.070 -0.0063  0.6685 -0.2895
  820MPD2    H112122   4.339   0.857  15.023  1.8602  0.6300  1.1072
  820MPD2    H212123   4.244   1.232  14.838 -0.4265 -0.8824 -1.6318
  820MPD2    H312124   4.198   1.003  14.863 -0.0671 -0.3968  1.5111
  820MPD2     N12125   4.550   0.926  15.124 -0.3027  0.3772 -0.9868
  820MPD2    H512126   4.523   0.828  15.124 -2.4002  0.9594 -1.1121
  820MPD2    N112127   4.433   1.361  14.928  0.2552  0.0351 -0.3930
  820MPD2    H712128   4.358   1.401  14.872  0.5024 -0.3248 -0.9880
  821MPD2     C12129   1.315   2.253  13.786  0.1212  0.3349 -0.3607
  821MPD2    C112130   1.233   2.361  13.760  0.0752 -0.6179 -0.0105
  821MPD2    C212131   1.241   2.423  13.635  0.3693  0.0283  0.4304
  821MPD2    C312132   1.335   2.380  13.546 -0.0853  0.3653  0.0081
  821MPD2    C412133   1.416   2.270  13.574  0.3721  0.2131 -0.5604
  821MPD2    C512134   1.393   2.205  13.689  0.2097 -0.6166 -0.3180
  821MPD2     H12135   1.177   2.507  13.610  1.4512  0.7275 -0.0009
  821MPD2    H112136   1.491   2.229  13.508  0.6319 -0.3436  0.0813
  821MPD2    H212137   1.305   2.207  13.884 -2.4699  0.3815 -0.6156
  821MPD2    H312138   1.448   2.116  13.716  1.3947  0.1761 -0.1357
  821MPD2     N12139   1.362   2.448  13.421  0.4472 -0.5369  0.0372
  821MPD2    H512140   1.438   2.411  13.365  1.9839  2.4918  0.0966
  821MPD2    N112141   1.141   2.408  13.851  0.0778 -0.3853  0.2456
  821MPD2    H712142   1.053   2.442  13.814 -0.7576 -1.3684  1.3239
  822MPD2     C12143   1.787   2.577  16.271  0.0852 -0.2820 -0.3425
  822MPD2    C112144   1.821   2.609  16.399  0.3441 -0.4997 -0.5202
  822MPD2    C212145   1.749   2.694  16.473 -0.3045  1.3237 -0.4972
  822MPD2    C312146   1.635   2.755  16.415 -0.6125  0.1323 -1.1310
  822MPD2    C412147   1.594   2.727  16.289  0.2524 -0.2008 -0.7742
  822MPD2    C512148   1.673   2.636  16.222  0.1575 -0.5269 -0.3144
  822MPD2     H12149   1.784   2.719  16.572 -0.8113  1.9889 -0.4880
  822MPD2    H112150   1.514   2.779  16.236  1.1876  0.9758 -1.0347
  822MPD2    H212151   1.843   2.511  16.205  0.8467 -2.5365  2.5832
  822MPD2    H312152   1.642   2.605  16.123 -2.6488 -0.3622  0.5151
  822MPD2     N12153   1.564   2.831  16.506  0.2855 -0.2250  0.2296
  822MPD2    H512154   1.587   2.824  16.605 -0.4290  1.2630  0.5085
  822MPD2    N112155   1.941   2.563  16.459  0.0960 -0.4869  0.1492
  822MPD2    H712156   1.969   2.605  16.547 -2.1341  0.4518  0.4240
  823MPD2     C12157   1.149   2.969  17.233 -0.2740 -0.5746 -0.2154
  823MPD2    C112158   1.213   2.895  17.148 -0.0055 -0.0588  0.6863
  823MPD2    C212159   1.273   2.779  17.187  0.3664  0.5158 -0.9040
  823MPD2    C312160   1.278   2.734  17.318  0.2290 -0.2131 -0.0648
  823MPD2    C412161   1.203   2.807  17.408 -0.0660 -1.1050 -0.5791
  823MPD2    C512162   1.142   2.925  17.367 -0.7382 -0.7307 -1.1086
  823MPD2     H12163   1.323   2.719  17.111  2.8245 -0.5562  1.5554
  823MPD2    H112164   1.199   2.782  17.514 -1.8919  0.0610 -0.3823
  823MPD2    H212165   1.086   3.052  17.201 -3.6553 -2.5610  1.2736
  823MPD2    H312166   1.073   2.975  17.434  2.6260  2.9226 -0.3907
  823MPD2     N12167   1.371   2.634  17.359  0.4927 -0.1320  0.9309
  823MPD2    H512168   1.355   2.597  17.453 -0.5994 -0.3760  0.6458
  823MPD2    N112169   1.210   2.933  17.009  0.4105  0.6304 -0.8851
  823MPD2    H712170   1.177   3.023  16.977 -3.2276 -0.8857 -1.3605
  824MPD2     C12171   2.600   1.999  16.386 -0.6711  0.2611 -0.3043
  824MPD2    C112172   2.489   2.041  16.321  0.4902 -0.0326  0.1286
  824MPD2    C212173   2.472   2.010  16.188 -0.0248  0.3680 -0.4778
  824MPD2    C312174   2.565   1.931  16.122 -0.1813  0.6483  0.0160
  824MPD2    C412175   2.673   1.892  16.192  0.0971 -0.1914  0.2902
  824MPD2    C512176   2.688   1.923  16.322 -0.0071  0.3580 -0.2583
  824MPD2     H12177   2.388   2.035  16.125 -0.0229 -1.6856 -1.2926
  824MPD2    H112178   2.755   1.834  16.151  0.8209  0.8322  0.2929
  824MPD2    H212179   2.631   2.017  16.488 -3.1457  0.1504  0.4578
  824MPD2    H312180   2.770   1.884  16.380  0.2782  0.4839 -0.5772
  824MPD2     N12181   2.554   1.900  15.985 -0.0880  0.1591  0.2263
  824MPD2    H512182   2.515   1.972  15.925 -0.5145 -1.1875 -1.0988
  824MPD2    N112183   2.390   2.128  16.388 -0.1166  0.0312  0.0748
  824MPD2    H712184   2.306   2.141  16.332  0.6974  4.6078 -0.0942
  825MPD2     C12185   2.645   2.115  15.156  0.3963 -0.5253  0.0882
  825MPD2    C112186   2.605   2.142  15.279 -0.1774  0.6219 -0.6894
  825MPD2    C212187   2.568   2.269  15.314 -0.3115  0.4158  0.1611
  825MPD2    C312188   2.565   2.368  15.215  0.5782  0.3259  0.0483
  825MPD2    C412189   2.591   2.330  15.082  0.1232  0.7521  0.3035
  825MPD2    C512190   2.633   2.206  15.054  0.0623 -0.2369 -0.0724
  825MPD2     H12191   2.525   2.295  15.409 -1.6915 -1.5939  0.0771
  825MPD2    H112192   2.597   2.405  15.004  0.8856 -0.9193 -1.2257
  825MPD2    H212193   2.671   2.012  15.133 -0.8091  0.0252 -3.6429
  825MPD2    H312194   2.653   2.174  14.952 -1.3298  0.9392 -0.7108
  825MPD2     N12195   2.526   2.501  15.243 -0.0909  0.1924 -0.7415
  825MPD2    H512196   2.510   2.564  15.164 -4.4139  2.8281  2.2270
  825MPD2    N112197   2.603   2.036  15.374  0.0375  0.0375 -0.5199
  825MPD2    H712198   2.627   1.946  15.333 -2.0325 -0.2804 -1.0233
  826MPD2     C12199   2.035   1.656  13.961 -0.8722 -0.1650  0.2324
  826MPD2    C112200   2.020   1.731  13.842  0.7204  0.0500  0.2731
  826MPD2    C212201   1.963   1.859  13.851 -0.0806  0.9645 -0.3478
  826MPD2    C312202   1.925   1.919  13.970 -0.7540 -0.3027  0.5639
  826MPD2    C412203   1.950   1.849  14.084 -0.2459 -0.0577  0.0674
  826MPD2    C512204   2.000   1.718  14.080 -0.0502  0.1149 -0.2452
  826MPD2     H12205   1.939   1.898  13.753  0.6861 -0.0938 -0.9618
  826MPD2    H112206   1.920   1.886  14.182  0.8011 -1.3660  0.8833
  826MPD2    H212207   2.079   1.557  13.967  0.0975  0.2600  0.0391
  826MPD2    H312208   2.003   1.676  14.180 -1.9581  2.2595  0.7056
  826MPD2     N12209   1.855   2.035  13.982 -0.2246  0.0975 -0.4467
  826MPD2    H512210   1.839   2.077  14.074  0.8098 -2.1317  0.7498
  826MPD2    N112211   2.054   1.666  13.722  0.4996 -1.0822 -0.2872
  826MPD2    H712212   2.105   1.581  13.742 -1.3202 -1.8652  1.0062
  827MPD2     C12213   2.921   3.823   9.835  0.0993  0.6415 -0.5398
  827MPD2    C112214   2.946   3.700   9.895  0.5819  0.3343  0.3692
  827MPD2    C212215   2.872   3.594   9.859  0.4560 -0.0841 -0.0219
  827MPD2    C312216   2.766   3.604   9.773 -0.0410  0.1216  0.4414
  827MPD2    C412217   2.736   3.735   9.721  0.1000 -0.5293 -0.3134
  827MPD2    C512218   2.813   3.842   9.750 -0.8901  0.0244 -0.2878
  827MPD2     H12219   2.892   3.491   9.888  1.6507 -0.2109 -1.2901
  827MPD2    H112220   2.651   3.760   9.659 -1.4706 -1.7808  1.3101
  827MPD2    H212221   2.979   3.910   9.860  1.1136 -0.1743 -0.0509
  827MPD2    H312222   2.779   3.940   9.718  1.8255  0.7275 -1.0118
  827MPD2     N12223   2.690   3.492   9.753  0.2564  0.1799  0.6004
  827MPD2    H512224   2.710   3.408   9.805  1.6322  0.6310  0.7959
  827MPD2    N112225   3.054   3.697   9.991  0.5353  0.1524 -0.2046
  827MPD2    H712226   3.102   3.779  10.026 -0.5173  0.5363  0.3325
  828MPD2     C12227   1.355   3.086  12.486  0.3038 -0.2818  0.0174
  828MPD2    C112228   1.232   3.121  12.435  0.5745 -0.6766  0.2720
  828MPD2    C212229   1.228   3.195  12.320  0.4573 -0.4863  0.0426
  828MPD2    C312230   1.343   3.237  12.257  0.2009 -0.8201  0.2398
  828MPD2    C412231   1.470   3.211  12.317  0.3247  0.1618 -0.2725
  828MPD2    C512232   1.469   3.138  12.433 -0.2876  0.0462 -0.0573
  828MPD2     H12233   1.135   3.212  12.267  0.4021  2.2766  0.9900
  828MPD2    H112234   1.564   3.251  12.280  0.6868  1.7803  2.4026
  828MPD2    H212235   1.362   3.035  12.581 -4.5475  0.1985  0.6305
  828MPD2    H312236   1.565   3.122  12.480 -1.6269 -0.3438  2.5482
  828MPD2     N12237   1.343   3.307  12.133 -0.2710  0.3978  0.3515
  828MPD2    H512238   1.433   3.333  12.094  0.3099  0.2485  1.5921
  828MPD2    N112239   1.105   3.092  12.498  0.1261 -0.1198  0.8498
  828MPD2    H712240   1.019   3.123  12.453  0.0446  1.6672  2.2207
  829MPD2     C12241   0.341   3.185  12.200 -0.3418 -0.0357 -0.9831
  829MPD2    C112242   0.296   3.148  12.326 -0.3528  0.2896 -0.4576
  829MPD2    C212243   0.389   3.127  12.433  0.2692  0.1324  0.2654
  829MPD2    C312244   0.519   3.149  12.410 -0.4763  0.5612  0.2405
  829MPD2    C412245   0.558   3.189  12.285 -0.2617  0.5789  0.1653
  829MPD2    C512246   0.470   3.202  12.185 -0.0839  0.4680 -0.2908
  829MPD2     H12247   0.353   3.088  12.528 -1.2321  0.8184 -0.0249
  829MPD2    H112248   0.662   3.216  12.270  0.3015 -1.4690  0.3296
  829MPD2    H212249   0.274   3.210  12.119 -0.9898 -1.4548 -0.8884
  829MPD2    H312250   0.514   3.231  12.090  1.0629 -1.1281 -0.2529
  829MPD2     N12251   0.618   3.121  12.504  0.5312 -0.1543  0.2769
  829MPD2    H512252   0.704   3.169  12.481  0.4702  1.2112  2.8221
  829MPD2    N112253   0.150   3.138  12.337 -0.3750 -0.0574  0.0544
  829MPD2    H712254   0.107   3.157  12.247 -0.8804 -0.8751  0.1261
  830MPD2     C12255   1.461   0.661  15.791 -0.4493  0.1475  0.1688
  830MPD2    C112256   1.357   0.700  15.713 -0.0012  0.4503 -0.6774
  830MPD2    C212257   1.344   0.824  15.646  0.6200  0.5234  0.0153
  830MPD2    C312258   1.428   0.919  15.690  0.2381 -0.4822  0.3894
  830MPD2    C412259   1.537   0.890  15.774  0.3571  0.3965 -0.2356
  830MPD2    C512260   1.555   0.755  15.813  0.4353 -0.4533 -0.4586
  830MPD2     H12261   1.269   0.843  15.570  0.8943 -0.3058 -0.4643
  830MPD2    H112262   1.616   0.962  15.792  0.1974 -0.2228  2.9382
  830MPD2    H212263   1.475   0.558  15.821  2.1136  0.2201 -0.7033
  830MPD2    H312264   1.646   0.732  15.867  1.5325  3.9441 -0.3686
  830MPD2     N12265   1.400   1.058  15.664 -0.6157  0.0923 -0.4425
  830MPD2    H512266   1.473   1.120  15.699 -0.6616  0.2750 -0.6669
  830MPD2    N112267   1.258   0.599  15.688 -0.3691 -0.3285  0.6206
  830MPD2    H712268   1.289   0.503  15.698 -2.1305 -0.9596  0.0633
  831MPD2     C12269   1.654   3.081  16.916  0.1651 -0.0690  0.3035
  831MPD2    C112270   1.714   2.995  16.828 -0.5639 -0.9933 -0.1669
  831MPD2    C212271   1.694   2.857  16.827 -0.0825  0.2537  1.0052
  831MPD2    C312272   1.619   2.793  16.923  0.3255 -0.1029 -0.8694
  831MPD2    C412273   1.572   2.875  17.020  0.1880 -0.5314  0.5098
  831MPD2    C512274   1.591   3.013  17.015  1.1002  0.5351 -0.5680
  831MPD2     H12275   1.742   2.804  16.746  0.2155  1.8869  0.1312
  831MPD2    H112276   1.515   2.828  17.100  0.4574  0.3462  1.2211
  831MPD2    H212277   1.666   3.189  16.910 -0.8827  0.0029 -0.4234
  831MPD2    H312278   1.558   3.068  17.103 -0.3394  2.3787 -2.2353
  831MPD2     N12279   1.576   2.662  16.919  0.0472 -0.3779  0.4796
  831MPD2    H512280   1.528   2.637  17.005 -2.0007 -1.8886 -1.0857
  831MPD2    N112281   1.797   3.039  16.722  0.0976 -0.0829  0.1917
  831MPD2    H712282   1.834   2.962  16.668  0.3969 -0.0082  0.2937
  832MPD2     C12283   4.682   3.466  17.203  0.4445 -0.0473 -0.3755
  832MPD2    C112284   4.675   3.591  17.150  0.2478  0.7147  0.9101
  832MPD2    C212285   4.557   3.647  17.104  0.3372  0.1595  0.0325
  832MPD2    C312286   4.439   3.576  17.126 -0.2465 -0.3350  0.3691
  832MPD2    C412287   4.443   3.449  17.181  0.7583  0.1162 -0.1121
  832MPD2    C512288   4.566   3.398  17.208 -0.5227 -0.2712  0.3149
  832MPD2     H12289   4.559   3.748  17.065 -0.1667  1.3887  3.1350
  832MPD2    H112290   4.352   3.391  17.193  1.3988 -0.5654  1.4555
  832MPD2    H212291   0.049   3.429  17.228 -0.1708 -1.2548  0.2019
  832MPD2    H312292   4.571   3.300  17.254  0.0787  0.6747  2.2546
  832MPD2     N12293   4.312   3.622  17.078  0.0340 -0.4967 -0.5736
  832MPD2    H512294   4.237   3.554  17.086  0.0314 -0.3955  0.2833
  832MPD2    N112295   0.070   3.653  17.131 -0.0847  0.0106  0.8407
  832MPD2    H712296   0.144   3.621  17.192 -0.6473 -0.9966  1.0001
  833MPD2     C12297   1.629   1.303  12.610 -0.5040 -0.7602 -1.2936
  833MPD2    C112298   1.592   1.179  12.555 -0.1613  0.1318 -0.7405
  833MPD2    C212299   1.605   1.165  12.419 -0.6303  0.1285 -0.7751
  833MPD2    C312300   1.621   1.280  12.337 -0.1414  0.2564 -0.1421
  833MPD2    C412301   1.644   1.401  12.397 -0.2094  0.1344 -0.2383
  833MPD2    C512302   1.664   1.404  12.536  0.5173  0.1126  0.0604
  833MPD2     H12303   1.587   1.066  12.380 -0.4677 -1.1285  2.3588
  833MPD2    H112304   1.643   1.497  12.346  2.0562  0.5624  0.5236
  833MPD2    H212305   1.635   1.316  12.717 -1.0723  1.3460 -1.5177
  833MPD2    H312306   1.692   1.496  12.587  0.1786  0.8733 -1.1156
  833MPD2     N12307   1.586   1.266  12.201  0.2765 -0.5118 -0.2557
  833MPD2    H512308   1.561   1.170  12.178  2.4505 -1.1375 -0.0000
  833MPD2    N112309   1.557   1.061  12.628  0.3984 -0.0156  0.1620
  833MPD2    H712310   1.530   0.978  12.577  0.3918  0.3735 -0.4621
  834MPD2     C12311   1.682   1.075  11.223 -0.2681 -0.1412  0.5174
  834MPD2    C112312   1.625   0.978  11.304  0.2599  0.3618 -0.1317
  834MPD2    C212313   1.574   1.015  11.426  0.1070 -0.5574  0.4140
  834MPD2    C312314   1.563   1.149  11.467  0.3290 -0.0511  0.1393
  834MPD2    C412315   1.606   1.243  11.385 -0.1239  0.4334  0.5131
  834MPD2    C512316   1.665   1.205  11.263  0.4397 -1.0643 -0.9755
  834MPD2     H12317   1.540   0.944  11.500 -0.1148 -0.4637  0.4024
  834MPD2    H112318   1.583   1.344  11.418 -0.7245 -0.1807  1.9607
  834MPD2    H212319   1.722   1.046  11.127  2.2471  1.3271  1.1284
  834MPD2    H312320   1.696   1.288  11.200 -0.2212  0.8943  1.2838
  834MPD2     N12321   1.506   1.177  11.596  0.0233  0.3516 -0.4628
  834MPD2    H512322   1.469   1.096  11.646 -2.5750  2.1151  0.4943
  834MPD2    N112323   1.627   0.841  11.253 -0.2276  0.3998  0.0220
  834MPD2    H712324   1.674   0.837  11.163 -0.8609  1.3490 -0.3457
  835MPD2     C12325   1.658   3.748  10.876  0.1155  0.2998  0.6082
  835MPD2    C112326   1.561   3.758  10.969 -0.3528  0.3822 -0.3259
  835MPD2    C212327   1.591   3.752  11.103  0.0374 -0.6028  0.7085
  835MPD2    C312328   1.712   3.707  11.150  0.7565 -0.4994 -0.4161
  835MPD2    C412329   1.811   3.695  11.058  0.1540 -0.1196 -0.4005
  835MPD2    C512330   1.780   3.707  10.924 -0.4276 -0.2244 -0.2037
  835MPD2     H12331   1.517   3.781  11.177  1.4544 -2.6288  2.9202
  835MPD2    H112332   1.911   3.665  11.087  0.7534  2.4184  0.1555
  835MPD2    H212333   1.646   3.780  10.773  0.0692 -0.3077  0.4255
  835MPD2    H312334   1.870   3.698  10.865 -0.1336  1.2516  0.0300
  835MPD2     N12335   1.743   3.689  11.286 -0.3315  0.8556  0.0804
  835MPD2    H512336   1.830   3.639  11.305 -0.3750  0.8527  0.2706
  835MPD2    N112337   1.432   3.799  10.942 -0.3930  0.0620  0.0789
  835MPD2    H712338   1.365   3.817  11.016  2.5352  2.1433  2.2166
  836MPD2     C12339   1.324   3.908  11.916  0.9522  0.3450  0.1085
  836MPD2    C112340   1.393   3.801  11.958  0.1903  0.4285  0.2845
  836MPD2    C212341   1.370   3.735  12.074  0.5241 -1.0682 -0.1517
  836MPD2    C312342   1.265   3.788  12.154 -0.7516  0.4707 -0.9503
  836MPD2    C412343   1.185   3.888  12.111 -0.0378 -0.1567  0.2408
  836MPD2    C512344   1.218   3.947  11.989  0.2103  0.7033  0.8519
  836MPD2     H12345   1.439   3.664  12.117  1.4274  0.4599  0.9130
  836MPD2    H112346   1.106   3.934  12.170 -1.6931 -1.5910 -0.8563
  836MPD2    H212347   1.326   3.964  11.823 -1.7510  0.9156  0.3772
  836MPD2    H312348   1.143   4.010  11.942  0.9371  0.0643 -1.1405
  836MPD2     N12349   1.230   3.734  12.275  0.0217  0.7253 -0.1521
  836MPD2    H512350   1.141   3.754  12.318  0.5823  2.6577  0.0906
  836MPD2    N112351   1.493   3.759  11.867 -0.1482 -0.7635 -0.1901
  836MPD2    H712352   1.492   3.806  11.778  0.4567  2.0628  1.3103
  837MPD2     C12353   4.676   2.993  10.512 -0.3069 -0.4248  0.4563
  837MPD2    C112354   4.617   3.081  10.435  1.1197  0.3619 -0.2845
  837MPD2    C212355   4.659   3.214  10.433  0.3590 -0.4837  0.2083
  837MPD2    C312356   0.028   3.251  10.516  0.0608  0.5377  0.0272
  837MPD2    C412357   0.100   3.162  10.588  0.1019 -0.2940 -0.1941
  837MPD2    C512358   0.055   3.034  10.587 -0.2110  0.6790 -0.3353
  837MPD2     H12359   4.607   3.287  10.372 -0.3826 -0.1123  1.2740
  837MPD2    H112360   0.171   3.195  10.662  0.5102 -1.7150  0.0473
  837MPD2    H212361   4.634   2.893  10.519 -2.0718  0.2355 -0.5412
  837MPD2    H312362   0.103   2.968  10.660 -0.4681  1.1335  0.2442
  837MPD2     N12363   0.046   3.391  10.527  0.4646 -0.0967  0.5491
  837MPD2    H512364   4.722   3.441  10.458  1.1765 -0.9731 -0.6757
  837MPD2    N112365   4.509   3.046  10.351 -0.7725  0.1047  0.1801
  837MPD2    H712366   4.473   3.117  10.288 -1.0417  0.0200  0.2354
  838MPD2     C12367   3.175   1.510  12.192 -0.3368  0.0694 -0.6518
  838MPD2    C112368   3.118   1.457  12.083 -0.1171  0.4100  0.2105
  838MPD2    C212369   2.987   1.426  12.085 -0.3243 -0.3670  0.7196
  838MPD2    C312370   2.902   1.466  12.185  0.1696 -0.0546 -0.0256
  838MPD2    C412371   2.960   1.543  12.287 -0.3146  0.5161  0.6442
  838MPD2    C512372   3.098   1.562  12.292  0.2022 -0.3203  0.1943
  838MPD2     H12373   2.935   1.379  12.003  0.4207  0.9199 -0.4899
  838MPD2    H112374   2.898   1.580  12.368 -1.9764 -0.6903 -0.0606
  838MPD2    H212375   3.280   1.538  12.194 -0.2875 -0.2465  1.1781
  838MPD2    H312376   3.150   1.607  12.376  0.5947 -0.6486  0.1246
  838MPD2     N12377   2.762   1.436  12.181 -0.5322  0.0954 -0.6669
  838MPD2    H512378   2.740   1.353  12.127 -3.0586  0.8448 -0.7963
  838MPD2    N112379   3.191   1.436  11.966 -0.1623  0.2391 -0.2375
  838MPD2    H712380   3.134   1.387  11.898 -0.0329  2.1387 -1.7304
  839MPD2     C12381   2.522   1.282  11.765 -0.2555 -0.0153 -0.1687
  839MPD2    C112382   2.617   1.195  11.722  0.1221  0.0224 -0.7187
  839MPD2    C212383   2.743   1.239  11.684 -0.7271  0.4635 -1.8139
  839MPD2    C312384   2.781   1.370  11.717  0.0393 -0.2422 -0.3293
  839MPD2    C412385   2.685   1.455  11.768 -0.8681  0.5686  0.0293
  839MPD2    C512386   2.552   1.408  11.781  0.2013  0.0597  0.2812
  839MPD2     H12387   2.812   1.168  11.641 -1.2355 -0.5851 -0.8919
  839MPD2    H112388   2.700   1.561  11.785  2.6331 -0.1742  1.5897
  839MPD2    H212389   2.422   1.250  11.792 -0.4092  1.5672  1.1263
  839MPD2    H312390   2.472   1.472  11.815 -0.4962  0.1997 -1.6626
  839MPD2     N12391   2.903   1.429  11.693 -0.2914 -0.2953 -0.2715
  839MPD2    H512392   2.920   1.526  11.719 -0.0406 -0.3176 -0.3460
  839MPD2    N112393   2.593   1.057  11.695  0.5212  0.0722 -0.2306
  839MPD2    H712394   2.669   1.003  11.655  0.5823  0.3578 -0.5040
  840MPD2     C12395   3.347   4.223  10.166  0.2438  0.4158  0.0726
  840MPD2    C112396   3.413   4.116  10.234  0.2511 -0.2001  0.1089
  840MPD2    C212397   3.511   4.156  10.323 -1.1423 -0.3110  0.7016
  840MPD2    C312398   3.566   4.278  10.321 -0.2054  0.4563  1.0946
  840MPD2    C412399   3.521   4.369  10.229  0.0367  0.5015  0.7918
  840MPD2    C512400   3.415   4.344  10.148 -0.2253  0.3852 -0.1618
  840MPD2     H12401   3.543   4.077  10.390  1.3009 -0.0609 -0.1611
  840MPD2    H112402   3.572   4.464  10.225  0.1869  0.2785 -2.8240
  840MPD2    H212403   3.254   4.211  10.113 -1.1710  1.6114  2.3308
  840MPD2    H312404   3.369   4.421  10.087  3.2341  1.6513 -1.1412
  840MPD2     N12405   3.658   4.314  10.417 -0.3097  0.3071 -0.2738
  840MPD2    H512406   3.669   4.413  10.439 -2.1569  0.6012 -0.6224
  840MPD2    N112407   3.360   3.983  10.219 -0.0304  0.0461  0.1858
  840MPD2    H712408   3.276   3.974  10.163  0.5694 -0.8312 -0.5750
  841MPD2     C12409   2.909   2.742  14.195 -0.5786 -0.0854  0.3205
  841MPD2    C112410   2.842   2.724  14.314 -0.0453  0.4868 -0.4211
  841MPD2    C212411   2.906   2.700  14.433 -1.1143 -0.1851  0.0499
  841MPD2    C312412   3.044   2.692  14.440 -0.0430 -0.6824 -0.0239
  841MPD2    C412413   3.110   2.707  14.323  0.1756 -0.1897  0.1594
  841MPD2    C512414   3.042   2.729  14.202  0.2103 -0.4892 -0.0172
  841MPD2     H12415   2.851   2.667  14.521 -0.4496 -1.2383  0.0713
  841MPD2    H112416   3.217   2.696  14.316  0.0886 -0.1349 -1.3369
  841MPD2    H212417   2.859   2.759  14.100  0.7253  1.9793  0.0046
  841MPD2    H312418   3.099   2.735  14.109 -0.4469 -3.9797 -0.6445
  841MPD2     N12419   3.103   2.677  14.564  0.1548  0.4544  0.0525
  841MPD2    H512420   3.056   2.707  14.649 -0.3825  1.1673 -0.4988
  841MPD2    N112421   2.698   2.720  14.328  0.7608  0.3436 -0.3695
  841MPD2    H712422   2.663   2.688  14.418  0.8315  1.2644 -0.0173
  842MPD2     C12423   3.728   4.244  17.291  0.0539  0.3183 -0.3087
  842MPD2    C112424   3.595   4.214  17.316 -0.9857 -0.5894  0.0495
  842MPD2    C212425   3.558   4.198  17.447 -0.1223  0.2502  0.9080
  842MPD2    C312426   3.647   4.206  17.553 -0.3211 -0.1143 -0.5085
  842MPD2    C412427   3.778   4.234  17.520  0.2462 -0.4515 -0.0956
  842MPD2    C512428   3.822   4.248  17.389  0.1120  0.0535 -0.4653
  842MPD2     H12429   3.458   4.159  17.465 -0.6083  2.3488  2.7048
  842MPD2    H112430   3.845   4.249  17.604  0.0538  1.6999 -0.3413
  842MPD2    H212431   3.761   4.230  17.188 -0.8850  1.1179 -0.7183
  842MPD2    H312432   3.927   4.256  17.361  0.6318 -1.7199  0.9536
  842MPD2     N12433   3.625   4.182  17.689 -0.3182 -1.2407  0.0379
  842MPD2    H512434   3.710   4.171   0.019  0.6207 -0.0827 -1.1698
  842MPD2    N112435   3.501   4.243  17.217 -0.4560 -0.3678 -0.1683
  842MPD2    H712436   3.540   4.260  17.125 -0.5017 -0.7647 -0.2620
  843MPD2     C12437   0.846   0.753  17.632  0.2092  0.1380 -0.0103
  843MPD2    C112438   0.891   0.661  17.720 -0.2567  0.1302 -0.3105
  843MPD2    C212439   1.014   0.686   0.048 -0.5551  0.7819  0.9174
  843MPD2    C312440   1.094   0.785  17.725  0.1279  0.8925 -0.3889
  843MPD2    C412441   1.048   0.870  17.627 -0.2324  0.6935 -0.0314
  843MPD2    C512442   0.917   0.859  17.581 -0.1025 -0.1708  0.1784
  843MPD2     H12443   1.050   0.627   0.132  2.7229 -0.2112 -1.2003
  843MPD2    H112444   1.106   0.950  17.583 -0.2378 -0.3788 -1.9890
  843MPD2    H212445   0.746   0.753  17.590  0.8287 -2.8229 -1.4737
  843MPD2    H312446   0.866   0.928  17.515  0.1965  0.9991  1.1674
  843MPD2     N12447   1.218   0.814   0.048  0.3927 -0.1965 -0.0820
  843MPD2    H512448   1.271   0.885  17.724  2.2950 -1.4188  0.1949
  843MPD2    N112449   0.789   0.569   0.047  0.3814 -0.4777 -0.0883
  843MPD2    H712450   0.697   0.574   0.006  0.2944  0.5766  0.2399
  844MPD2     C12451   3.714   3.321  16.493 -0.0329  0.2963 -0.2297
  844MPD2    C112452   3.806   3.308  16.386  0.7127 -0.9124  0.3035
  844MPD2    C212453   3.926   3.382  16.388 -0.7399 -0.2765  1.1910
  844MPD2    C312454   3.968   3.453  16.501 -0.7435  0.2987 -0.7062
  844MPD2    C412455   3.875   3.461  16.603  0.0574 -0.2718 -0.7080
  844MPD2    C512456   3.756   3.392  16.601  0.5662  0.2249  0.0832
  844MPD2     H12457   3.992   3.373  16.302 -2.3948 -2.4988  0.1483
  844MPD2    H112458   3.902   3.507  16.697  2.5145 -1.1252 -0.9807
  844MPD2    H212459   3.616   3.278  16.509  0.2150 -0.2400 -0.1180
  844MPD2    H312460   3.694   3.391  16.690  0.5889 -0.4088  0.0938
  844MPD2     N12461   4.102   3.503  16.508  0.0024 -0.3791 -0.5636
  844MPD2    H512462   4.147   3.518  16.418 -0.5405 -2.2025 -1.1464
  844MPD2    N112463   3.787   3.223  16.273  0.1995  0.5541  0.4552
  844MPD2    H712464   3.856   3.212  16.200 -1.0355 -2.0203 -0.3063
  845MPD2     C12465   4.612   4.337  16.865 -0.0652  0.2378  0.8664
  845MPD2    C112466   4.644   4.243  16.961 -0.3839 -0.4566  0.8701
  845MPD2    C212467   4.614   4.109  16.943  0.5876  0.0126  0.5673
  845MPD2    C312468   4.557   4.075  16.819 -0.1229 -0.0699  0.0602
  845MPD2    C412469   4.527   4.172  16.721 -0.3701 -0.8317  0.0677
  845MPD2    C512470   4.545   4.300  16.753 -0.3876  0.4683 -0.4144
  845MPD2     H12471   4.638   4.027  17.009 -0.0054  0.1347  0.9300
  845MPD2    H112472   4.488   4.153  16.621 -0.0301  0.0881 -0.2408
  845MPD2    H212473   4.634   4.442  16.874  2.5766 -0.2094 -0.3492
  845MPD2    H312474   4.525   4.392  16.699 -2.8255 -0.4384 -1.0273
  845MPD2     N12475   4.536   3.938  16.786  0.4179 -0.4277  0.3193
  845MPD2    H512476   4.549   3.877  16.866  0.4432  1.4837  1.7704
  845MPD2    N112477   4.694   4.289  17.082 -0.5227 -0.3523  0.0124
  845MPD2    H712478   4.701   4.388  17.100 -1.7080  0.0829 -1.9342
  846MPD2     C12479   0.870   4.719  13.422  0.0948  0.0049  0.5818
  846MPD2    C112480   0.866   0.113  13.485 -0.2811  0.1612  0.1490
  846MPD2    C212481   0.867   0.129  13.619 -1.1679 -0.8778 -0.6241
  846MPD2    C312482   0.889   0.017  13.704  0.8553 -0.2282  0.3912
  846MPD2    C412483   0.893   4.628  13.645 -0.1680 -0.2250  0.2324
  846MPD2    C512484   0.882   4.610  13.509  0.2739 -0.5621 -0.0010
  846MPD2     H12485   0.849   0.225  13.666  0.6201  0.1968 -2.1322
  846MPD2    H112486   0.906   4.541  13.708  0.1650 -0.0510  0.3993
  846MPD2    H212487   0.865   4.697  13.316  2.6984 -1.3899  0.7317
  846MPD2    H312488   0.894   4.510  13.469 -1.9274  0.4597 -3.2580
  846MPD2     N12489   0.887   0.043  13.843  0.1810  0.1452 -0.1685
  846MPD2    H512490   0.882   0.142  13.863 -2.0587  0.4429 -2.1602
  846MPD2    N112491   0.859   0.234  13.405  0.4913 -0.6511 -0.4193
  846MPD2    H712492   0.878   0.324  13.446 -3.8810  0.3211 -0.6012
  847MPD2     C12493   1.367   1.131  14.558  0.7804 -0.5396 -0.0212
  847MPD2    C112494   1.437   1.159  14.676  0.6783  0.1567  0.6210
  847MPD2    C212495   1.449   1.063  14.771  0.4866 -0.8071  0.0092
  847MPD2    C312496   1.377   0.948  14.758  0.9010 -0.2694 -0.6337
  847MPD2    C412497   1.310   0.926  14.640  0.3523  0.3232  0.4615
  847MPD2    C512498   1.320   1.009  14.537  0.1228 -0.3377 -0.7808
  847MPD2     H12499   1.498   1.093  14.863 -0.7183 -0.1120  0.4272
  847MPD2    H112500   1.260   0.829  14.635  1.2556 -0.0227 -2.2088
  847MPD2    H212501   1.364   1.191  14.468 -1.1249 -0.5550  0.0226
  847MPD2    H312502   1.267   0.988  14.445 -1.6877  0.3540  0.0990
  847MPD2     N12503   1.383   0.856  14.866 -0.0647  0.2394 -0.0974
  847MPD2    H512504   1.426   0.889  14.952  0.0320 -1.7185  0.6151
  847MPD2    N112505   1.509   1.269  14.706 -0.1850 -0.0481  0.3260
  847MPD2    H712506   1.553   1.267  14.798  0.6470 -0.7742 -0.0832
  848MPD2     C12507   4.001   4.108  16.430  0.2625 -0.8061  0.1525
  848MPD2    C112508   4.063   4.129  16.553 -0.4656  0.3590 -0.3651
  848MPD2    C212509   4.107   4.257  16.577  0.0439  0.4105 -0.1086
  848MPD2    C312510   4.108   4.352  16.478  0.1358 -0.4115  0.6400
  848MPD2    C412511   4.059   4.328  16.354 -0.2255  0.5292 -0.1126
  848MPD2    C512512   4.011   4.203  16.325 -0.1987 -0.0559 -0.4425
  848MPD2     H12513   4.142   4.275  16.678 -1.5272  1.4098  0.2558
  848MPD2    H112514   4.058   4.403  16.276  0.8335  1.8850  1.1773
  848MPD2    H212515   3.963   4.011  16.402  1.4953 -0.8810 -1.2655
  848MPD2    H312516   3.968   4.174  16.230 -0.5829  0.0636 -0.3040
  848MPD2     N12517   4.149   4.483  16.494 -0.1946  0.3735 -0.0966
  848MPD2    H512518   4.141   4.554  16.421  1.7335  1.0234  0.3167
  848MPD2    N112519   4.069   4.038  16.660 -0.1843 -0.5234 -0.4668
  848MPD2    H712520   4.104   4.075  16.748  1.0584 -0.6062 -0.9322
  849MPD2     C12521   3.135   3.560  13.602  0.0568 -0.0382 -0.2646
  849MPD2    C112522   3.217   3.608  13.699 -0.1154  0.2845 -0.2199
  849MPD2    C212523   3.252   3.533  13.810 -0.5624 -0.0196  0.1908
  849MPD2    C312524   3.193   3.404  13.822  0.0788 -0.4601  0.1073
  849MPD2    C412525   3.110   3.359  13.720  0.1205  0.5504 -0.2570
  849MPD2    C512526   3.090   3.430  13.611  0.4562  0.1662  0.1223
  849MPD2     H12527   3.329   3.561  13.881  1.6109 -1.2929 -1.6382
  849MPD2    H112528   3.064   3.261  13.727  0.8734  0.2174  0.0846
  849MPD2    H212529   3.118   3.613  13.509  0.0406  0.0009 -0.2393
  849MPD2    H312530   3.029   3.392  13.531  0.2785 -0.7128  0.6766
  849MPD2     N12531   3.236   3.318  13.922  1.0450 -0.2603  1.0119
  849MPD2    H512532   3.206   3.222  13.910  1.0007 -0.4684  2.7850
  849MPD2    N112533   3.283   3.731  13.690 -0.3818 -0.5847 -1.0726
  849MPD2    H712534   3.360   3.751  13.752  0.9029 -0.5764 -2.6584
  850MPD2     C12535   1.331   2.202  15.070 -0.5389 -0.5752  0.1835
  850MPD2    C112536   1.324   2.226  15.202  0.4995 -0.2643  0.2273
  850MPD2    C212537   1.444   2.247  15.273 -0.4097 -0.5108  0.2777
  850MPD2    C312538   1.565   2.279  15.209 -0.2895 -0.6412  0.3416
  850MPD2    C412539   1.563   2.269  15.067  0.0540 -0.2067  0.4294
  850MPD2    C512540   1.452   2.217  15.002  0.1998 -0.4141 -0.1501
  850MPD2     H12541   1.443   2.247  15.381  1.4041 -0.8941  0.2982
  850MPD2    H112542   1.649   2.302  15.011  1.0292 -0.7495  1.5939
  850MPD2    H212543   1.239   2.213  15.014 -0.5535  0.3922  0.3977
  850MPD2    H312544   1.457   2.218  14.894  0.1038  1.7491 -0.1406
  850MPD2     N12545   1.684   2.322  15.282  0.2610  0.1618 -0.4555
  850MPD2    H512546   1.772   2.329  15.232 -0.2581 -0.3187 -1.4479
  850MPD2    N112547   1.193   2.225  15.261 -0.2509 -1.0177 -0.2699
  850MPD2    H712548   1.121   2.200  15.195 -0.0672 -0.1213 -0.7977
  851MPD2     C12549   1.124   1.985  15.952 -0.1610 -1.2134 -0.6892
  851MPD2    C112550   1.069   1.953  15.831 -0.6135  0.1738  0.3012
  851MPD2    C212551   1.104   1.839  15.758 -0.5008 -0.4488 -0.6437
  851MPD2    C312552   1.186   1.749  15.816 -0.8615  0.4400 -0.3477
  851MPD2    C412553   1.207   1.770  15.948 -0.1052  1.2475  1.1377
  851MPD2    C512554   1.168   1.881  16.019  0.0761 -0.2040  0.5566
  851MPD2     H12555   1.070   1.823  15.657  0.6007 -0.7642 -0.9623
  851MPD2    H112556   1.264   1.696  16.003  1.5632  0.0248 -2.2686
  851MPD2    H212557   1.092   2.071  16.009 -1.7661 -1.4658 -1.1993
  851MPD2    H312558   1.190   1.897  16.124  0.0348 -2.2693  0.8867
  851MPD2     N12559   1.253   1.654  15.737  0.3275 -0.7878  0.3199
  851MPD2    H512560   1.213   1.648  15.644  0.9569 -0.0771  0.0019
  851MPD2    N112561   0.984   2.045  15.768  0.0113 -0.0174  0.2168
  851MPD2    H712562   0.958   2.128  15.821 -0.4882 -2.3774  3.6325
  852MPD2     C12563   1.333   0.213  10.130 -0.3736 -0.0958 -0.2186
  852MPD2    C112564   1.312   0.148  10.252  0.8133  0.0323  0.7080
  852MPD2    C212565   1.322   0.226  10.365  0.5616 -0.4249  0.5466
  852MPD2    C312566   1.332   0.365  10.354 -0.7441  0.1449 -0.2573
  852MPD2    C412567   1.335   0.431  10.231  0.1522  0.3168  0.0198
  852MPD2    C512568   1.346   0.351  10.120  0.6033  0.3975 -0.3948
  852MPD2     H12569   1.314   0.177  10.461 -1.3032  0.6703  0.9379
  852MPD2    H112570   1.331   0.538  10.213 -2.3991 -0.0462 -1.4464
  852MPD2    H212571   1.339   0.148  10.044  0.6702 -0.0834 -0.1626
  852MPD2    H312572   1.375   0.405  10.031 -0.3425 -1.7927 -2.0327
  852MPD2     N12573   1.339   0.430  10.479  0.4673  0.7144  0.0597
  852MPD2    H512574   1.341   0.383  10.568 -0.9694  0.6012  0.0357
  852MPD2    N112575   1.285   0.010  10.268  0.0042 -0.1235 -0.4672
  852MPD2    H712576   1.262   4.708  10.361  0.5054 -1.2969 -0.7646
  853MPD2     C12577   2.717   4.411  12.296  0.9637  0.3260  0.0840
  853MPD2    C112578   2.612   4.499  12.257 -0.0870  0.5045 -0.0956
  853MPD2    C212579   2.615   4.542  12.120 -0.1750  0.3178  0.8199
  853MPD2    C312580   2.709   4.493  12.031 -0.3259  0.0720 -1.2271
  853MPD2    C412581   2.814   4.417  12.075 -0.1551 -0.5100  0.3050
  853MPD2    C512582   2.812   4.372  12.207 -0.6766 -0.2856 -0.1845
  853MPD2     H12583   2.545   4.619  12.088  0.1829  0.2112 -0.2213
  853MPD2    H112584   2.898   4.388  12.013 -1.1451 -0.6191 -0.9979
  853MPD2    H212585   2.740   4.381  12.398 -0.0861 -1.1708 -0.1155
  853MPD2    H312586   2.901   4.318  12.237 -0.4066 -0.9225 -2.1115
  853MPD2     N12587   2.707   4.521  11.894  0.0820  0.1470 -0.1286
  853MPD2    H512588   2.788   4.483  11.846  0.5240  0.1962  0.5773
  853MPD2    N112589   2.524   4.550  12.354 -0.0975  0.0937 -0.3406
  853MPD2    H712590   2.532   4.518  12.450  1.3430 -0.9704 -0.8210
  854MPD2     C12591   4.081   4.446  12.758 -0.4426  0.0437  0.5428
  854MPD2    C112592   4.090   4.478  12.892  0.1136  0.1642  0.0294
  854MPD2    C212593   4.197   4.424  12.963 -0.3380  0.2507 -0.1524
  854MPD2    C312594   4.293   4.342  12.900 -0.2144  0.9272 -0.8418
  854MPD2    C412595   4.269   4.294  12.771  0.7644 -0.3526  0.0684
  854MPD2    C512596   4.159   4.344  12.703 -0.0108  0.5042  0.1181
  854MPD2     H12597   4.222   4.442  13.067 -1.7943  3.2521 -0.3118
  854MPD2    H112598   4.332   4.231  12.710 -0.4606 -0.6003 -0.9400
  854MPD2    H212599   3.998   4.475  12.695 -0.8513  1.2003  1.6029
  854MPD2    H312600   4.157   4.320  12.597  0.0106 -3.1019  0.9358
  854MPD2     N12601   4.415   4.295  12.965  0.5666  0.5383  0.7415
  854MPD2    H512602   4.455   4.215  12.918  2.9849  1.1770  1.7126
  854MPD2    N112603   3.998   4.566  12.943  0.4678 -0.0352 -0.1610
  854MPD2    H712604   3.930   4.587  12.870  0.4121  2.6416  0.6946
  855MPD2     C12605   0.280   4.537  13.820 -0.5435 -1.1496 -0.2494
  855MPD2    C112606   0.257   4.406  13.797  0.2457  0.2071  0.0301
  855MPD2    C212607   0.203   4.370  13.676 -0.0527 -0.2653  0.9680
  855MPD2    C312608   0.164   4.459  13.580 -0.4476  0.3080 -0.8731
  855MPD2    C412609   0.182   4.590  13.607  0.4536 -0.4318 -0.4357
  855MPD2    C512610   0.247   4.626  13.722 -0.2792  0.2295 -0.0536
  855MPD2     H12611   0.185   4.265  13.655 -1.4598  0.4138 -1.2432
  855MPD2    H112612   0.138   4.658  13.535  1.0184 -0.1630 -0.5317
  855MPD2    H212613   0.324   4.588  13.905  0.1090 -1.1037 -0.6137
  855MPD2    H312614   0.250   0.000  13.746 -0.5068  0.0502  0.7763
  855MPD2     N12615   0.105   4.423  13.455  0.4902  0.6558  0.3204
  855MPD2    H512616   0.078   4.506  13.403  2.2150 -0.9593 -3.1239
  855MPD2    N112617   0.301   4.302  13.882  0.4335 -0.2654 -0.0196
  855MPD2    H712618   0.284   4.205  13.858 -2.0811  0.2867 -0.5261
  856MPD2     C12619   1.747   0.271  14.174  0.3120 -0.2912  0.2941
  856MPD2    C112620   1.815   0.394  14.196  0.9599  0.3826 -0.0679
  856MPD2    C212621   1.751   0.509  14.162  0.3633 -0.0362 -0.6308
  856MPD2    C312622   1.626   0.506  14.106 -0.0924 -0.8750 -1.0176
  856MPD2    C412623   1.566   0.383  14.078 -1.1228 -0.3211  0.4271
  856MPD2    C512624   1.620   0.265  14.124  0.3306 -0.0186  0.5844
  856MPD2     H12625   1.792   0.608  14.179  0.0488 -0.2655  1.4353
  856MPD2    H112626   1.470   0.381  14.028 -0.6580  1.1337 -0.5064
  856MPD2    H212627   1.787   0.173  14.198 -0.8385 -0.9225 -0.3412
  856MPD2    H312628   1.559   0.177  14.112 -1.6294  1.4906 -0.5801
  856MPD2     N12629   1.554   0.621  14.064 -0.1149 -0.5443 -0.6301
  856MPD2    H512630   1.468   0.607  14.012 -1.1760 -0.3681  1.0812
  856MPD2    N112631   1.944   0.396  14.255 -0.3253  0.5173  0.4058
  856MPD2    H712632   1.975   0.491  14.273  0.7691  0.5494 -1.6362
  857MPD2     C12633   3.356   2.874  12.945  0.2558  0.4393 -0.0484
  857MPD2    C112634   3.424   2.945  12.851 -0.0338 -0.2847  0.2048
  857MPD2    C212635   3.546   2.988  12.881  0.4998 -0.1571 -0.4856
  857MPD2    C312636   3.594   2.980  13.009  0.1963 -0.1454 -0.5843
  857MPD2    C412637   3.525   2.909  13.106  0.7567  0.1174  0.1488
  857MPD2    C512638   3.404   2.859  13.075 -0.5598  0.6839  0.2666
  857MPD2     H12639   3.605   3.051  12.815 -1.1992  2.0913  0.1165
  857MPD2    H112640   3.561   2.883  13.205 -0.5760 -2.9997 -0.1693
  857MPD2    H212641   3.253   2.849  12.922 -0.2306  2.0552  0.3637
  857MPD2    H312642   3.358   2.795  13.149 -0.2763 -0.0967 -0.2344
  857MPD2     N12643   3.725   3.031  13.032 -0.9355 -0.1226 -0.0331
  857MPD2    H512644   3.783   3.060  12.954 -3.4316 -0.0088 -1.8463
  857MPD2    N112645   3.375   2.973  12.723 -0.4762  0.0287  0.1595
  857MPD2    H712646   3.435   3.031  12.666  0.0890 -0.3960  0.3288
  858MPD2     C12647   4.381   1.571  16.434 -0.8489  0.4049  0.1742
  858MPD2    C112648   4.505   1.534  16.487  0.2861  0.5188 -0.2636
  858MPD2    C212649   4.545   1.594  16.604 -0.0325 -0.2386  0.2037
  858MPD2    C312650   4.467   1.696  16.657  0.3691 -0.2863  0.3471
  858MPD2    C412651   4.338   1.725  16.601  0.9073 -0.4988 -1.0463
  858MPD2    C512652   4.295   1.663  16.488 -0.9785  0.6988  0.2581
  858MPD2     H12653   4.639   1.565  16.650  0.9399  1.9134 -0.4188
  858MPD2    H112654   4.288   1.815  16.636 -2.0281 -3.1908  1.5988
  858MPD2    H212655   4.360   1.532  16.336 -0.9890  2.0849 -0.4666
  858MPD2    H312656   4.207   1.700  16.437 -2.2448  0.7251  2.4254
  858MPD2     N12657   4.501   1.759  16.775 -0.3188  0.2542  0.0517
  858MPD2    H512658   4.432   1.819  16.820 -0.6006  2.0959 -2.8784
  858MPD2    N112659   4.593   1.446  16.414  0.1280 -0.0521  0.1868
  858MPD2    H712660   4.547   1.385  16.347 -2.4865  0.2058  1.7592
  859MPD2     C12661   3.292   3.877  15.888  0.1403  1.0093 -0.6030
  859MPD2    C112662   3.235   3.875  15.761 -0.6498  0.1255  0.7424
  859MPD2    C212663   3.164   3.759  15.724  0.4277  0.0693 -0.5993
  859MPD2    C312664   3.140   3.661  15.823 -0.3274 -0.0278  0.0722
  859MPD2    C412665   3.196   3.672  15.950 -1.1735 -0.2307 -0.2291
  859MPD2    C512666   3.270   3.783  15.982  0.6268  0.8105 -0.2089
  859MPD2     H12667   3.121   3.744  15.626  0.6280  0.0679 -0.6857
  859MPD2    H112668   3.171   3.600  16.027 -0.8432 -0.1923 -0.0867
  859MPD2    H212669   3.340   3.963  15.931  0.3870  0.9150 -0.6906
  859MPD2    H312670   3.315   3.798  16.079 -0.5165 -2.8400  0.8701
  859MPD2     N12671   3.059   3.546  15.804  0.4676 -0.2165 -0.5163
  859MPD2    H512672   3.078   3.471  15.869 -0.5069  1.9588  2.2724
  859MPD2    N112673   3.271   3.980  15.679 -0.2330 -0.0664 -0.1470
  859MPD2    H712674   3.339   4.049  15.710 -1.3777  0.1842  1.7911
  860MPD2     C12675   0.739   4.523  11.632  0.4642 -0.3030  0.0000
  860MPD2    C112676   0.701   4.602  11.739  0.5364 -0.2872  1.2961
  860MPD2    C212677   0.597   4.557  11.823 -0.0483 -0.2969  0.3123
  860MPD2    C312678   0.536   4.432  11.799  0.3945  0.3610  0.0015
  860MPD2    C412679   0.579   4.360  11.689  0.4102 -0.2191  0.1324
  860MPD2    C512680   0.678   4.403  11.606 -0.2138  0.1988 -0.0505
  860MPD2     H12681   0.573   4.623  11.905  0.4894 -0.4049  0.5503
  860MPD2    H112682   0.544   4.259  11.672  0.5249 -0.2627  0.1522
  860MPD2    H212683   0.826   4.548  11.572  0.4941 -1.8170 -0.5969
  860MPD2    H312684   0.716   4.333  11.533 -1.0511  0.4585 -0.7283
  860MPD2     N12685   0.432   4.389  11.883 -0.4593 -0.2936 -0.0091
  860MPD2    H512686   0.397   4.457  11.949 -0.3579  0.2516 -0.5187
  860MPD2    N112687   0.770   4.713  11.779 -0.2661  0.7573 -0.4755
  860MPD2    H712688   0.742   0.022  11.868 -1.3360 -1.1206  0.0294
  861MPD2     C12689   4.192   2.225  10.994 -0.5214  0.2851  0.1547
  861MPD2    C112690   4.172   2.349  11.043  0.3045  0.5545  0.2283
  861MPD2    C212691   4.092   2.435  10.976  0.0004 -0.3592  0.3917
  861MPD2    C312692   4.020   2.397  10.864 -0.8595  0.5202  0.4341
  861MPD2    C412693   4.034   2.265  10.822 -0.5619 -0.1425  0.5781
  861MPD2    C512694   4.125   2.188  10.884 -0.9448 -0.2467 -0.2211
  861MPD2     H12695   4.081   2.537  11.012  1.0406 -0.5402  1.2315
  861MPD2    H112696   3.972   2.220  10.745 -1.2211  2.7269 -0.5612
  861MPD2    H212697   4.243   2.148  11.051  0.2298  1.0473  0.5104
  861MPD2    H312698   4.140   2.089  10.844 -1.2831 -0.2968 -0.2192
  861MPD2     N12699   3.923   2.477  10.795 -0.4776  0.0084 -0.1252
  861MPD2    H512700   3.874   2.433  10.717 -1.2619  1.4842 -0.4570
  861MPD2    N112701   4.226   2.394  11.164 -0.6135 -0.2681 -0.3648
  861MPD2    H712702   4.200   2.490  11.185 -1.0331 -0.3647 -0.4269
  862MPD2     C12703   3.357   2.518  10.371  0.4756  0.3855  0.8918
  862MPD2    C112704   3.424   2.492  10.486  0.8185 -0.3807 -0.1987
  862MPD2    C212705   3.381   2.394  10.574  0.1556  0.6113  0.0594
  862MPD2    C312706   3.250   2.352  10.561  0.1507  0.2698 -0.1112
  862MPD2    C412707   3.180   2.373  10.439 -0.8842 -0.6208  0.7937
  862MPD2    C512708   3.237   2.453  10.346 -0.7882  0.5099  0.1674
  862MPD2     H12709   3.437   2.369  10.663  0.8614 -2.2000 -1.1676
  862MPD2    H112710   3.081   2.335  10.417 -0.6077 -0.7487 -0.2088
  862MPD2    H212711   3.390   2.589  10.297 -0.2424  1.5065  1.6470
  862MPD2    H312712   3.194   2.469  10.248 -0.2804 -3.3378 -0.6535
  862MPD2     N12713   3.172   2.295  10.663  0.6743  0.1250  0.5700
  862MPD2    H512714   3.087   2.247  10.635  2.2879 -0.8917 -2.5793
  862MPD2    N112715   3.541   2.550  10.520 -0.2064 -0.1218  0.1490
  862MPD2    H712716   3.583   2.511  10.604 -1.6619  0.1681  1.0133
  863MPD2     C12717   2.608   0.875  16.936  0.4387 -0.1939 -0.3266
  863MPD2    C112718   2.721   0.875  16.856 -0.3228 -0.1509 -0.2651
  863MPD2    C212719   2.820   0.781  16.878 -0.5111 -0.0241  0.1886
  863MPD2    C312720   2.814   0.698  16.991 -0.0369  0.3879 -0.2064
  863MPD2    C412721   2.698   0.697  17.068  0.2515 -0.2185  0.5481
  863MPD2    C512722   2.599   0.784  17.041 -0.3175  0.2015 -1.1585
  863MPD2     H12723   2.905   0.787  16.812 -0.5981 -0.9609 -0.0163
  863MPD2    H112724   2.701   0.635  17.157  0.8602 -0.5553  0.2948
  863MPD2    H212725   2.521   0.933  16.907 -0.1360 -0.7582  0.2592
  863MPD2    H312726   2.521   0.788  17.116  0.1667 -0.1158 -0.6354
  863MPD2     N12727   2.923   0.621  17.041 -0.3450  0.6854 -0.2388
  863MPD2    H512728   2.912   0.572  17.129 -2.8250  2.5618  0.4999
  863MPD2    N112729   2.734   0.957  16.739 -0.0239 -0.7568  0.4293
  863MPD2    H712730   2.817   0.932  16.685  0.7652  1.2859  0.6880
  864MPD2     C12731   3.543   1.572  17.184 -0.2431 -0.1016 -0.4125
  864MPD2    C112732   3.649   1.526  17.111  0.2208 -0.0637 -0.0578
  864MPD2    C212733   3.717   1.614  17.042 -0.0892 -0.3437  0.6848
  864MPD2    C312734   3.701   1.752  17.045 -0.2904  0.1946  0.3867
  864MPD2    C412735   3.603   1.797  17.134  0.3171  0.2948 -0.8384
  864MPD2    C512736   3.516   1.704  17.192  0.4708  0.2273 -0.0530
  864MPD2     H12737   3.795   1.579  16.974  0.2970  1.0157  0.4254
  864MPD2    H112738   3.585   1.904  17.137 -1.3992 -0.1069  2.5109
  864MPD2    H212739   3.474   1.510  17.240  1.5363  0.0430  1.9530
  864MPD2    H312740   3.429   1.745  17.243  0.1099 -1.1606  0.4588
  864MPD2     N12741   3.764   1.838  16.952 -0.3066  0.0950 -0.0204
  864MPD2    H512742   3.731   1.934  16.955 -1.2451 -0.1463 -2.1837
  864MPD2    N112743   3.660   1.384  17.094 -0.3429  0.6392 -0.0606
  864MPD2    H712744   3.589   1.321  17.131 -0.8684  0.0006 -2.1369
  865MPD2     C12745   3.552   2.352  16.284 -0.5894  0.2175 -0.5138
  865MPD2    C112746   3.576   2.233  16.353  0.3737  0.2852 -0.2155
  865MPD2    C212747   3.635   2.244  16.481 -0.3020 -0.4687  0.1549
  865MPD2    C312748   3.674   2.361  16.540  0.4671 -0.1912 -0.4191
  865MPD2    C412749   3.638   2.478  16.467 -0.3223  0.3942  0.2266
  865MPD2    C512750   3.575   2.475  16.349  0.1026  0.2354  0.0870
  865MPD2     H12751   3.649   2.153  16.539 -0.3913 -1.1109 -0.8269
  865MPD2    H112752   3.657   2.575  16.512 -0.2847  1.3003 -1.7440
  865MPD2    H212753   3.527   2.355  16.179 -0.1455 -0.9964 -0.6587
  865MPD2    H312754   3.549   2.568  16.298 -0.2689 -1.1396 -2.2407
  865MPD2     N12755   3.739   2.376  16.668 -0.0820  0.2472  0.6373
  865MPD2    H512756   3.735   2.471  16.703  1.4811 -0.3542  2.4364
  865MPD2    N112757   3.570   2.111  16.279 -0.2579 -0.7383 -0.0177
  865MPD2    H712758   3.539   2.120  16.183 -0.5537 -1.3876  0.0164
  866MPD2     C12759   0.065   2.855  11.503 -0.0803 -0.9216 -0.0787
  866MPD2    C112760   0.083   2.779  11.394 -0.5860 -0.2647 -0.7270
  866MPD2    C212761   4.726   2.799  11.289  0.9086 -0.7301 -0.0530
  866MPD2    C312762   4.626   2.900  11.290  0.2348  0.5775 -0.1371
  866MPD2    C412763   4.625   2.991  11.395  0.2813  0.6209 -0.4499
  866MPD2    C512764   4.705   2.958  11.508  1.2533 -0.5388  0.2648
  866MPD2     H12765   4.717   2.724  11.212 -3.5142  0.7558 -0.9804
  866MPD2    H112766   4.555   3.073  11.402  0.5038  0.8115 -0.4462
  866MPD2    H212767   0.140   2.857  11.581  1.1544  1.0108 -1.2961
  866MPD2    H312768   4.692   3.018  11.597 -0.1400 -0.6092  0.1096
  866MPD2     N12769   4.539   2.929  11.181  0.0598 -1.0391  0.1631
  866MPD2    H512770   4.501   3.023  11.184  1.0941 -0.7555  3.9870
  866MPD2    N112771   0.185   2.688  11.405 -0.2847  0.7190 -0.2068
  866MPD2    H712772   0.220   2.685  11.501 -2.2811 -1.2816  0.4810
  867MPD2     C12773   2.596   2.265  17.001  0.0920 -0.1449  0.4048
  867MPD2    C112774   2.660   2.211  17.113 -0.0138  0.1354 -0.3480
  867MPD2    C212775   2.647   2.271  17.235 -0.8298 -0.5794  0.4373
  867MPD2    C312776   2.580   2.391  17.245  0.6452  0.6161  0.0772
  867MPD2    C412777   2.523   2.446  17.134  0.5472  0.0832 -0.3598
  867MPD2    C512778   2.534   2.388  17.012 -0.3547  0.4124 -0.3060
  867MPD2     H12779   2.686   2.231  17.328  0.4962  0.8038  0.4830
  867MPD2    H112780   2.464   2.536  17.146  0.2773 -0.1518  0.0547
  867MPD2    H212781   2.603   2.216  16.905  0.4809 -0.0308  0.3763
  867MPD2    H312782   2.499   2.438  16.922 -0.2000  0.4305 -0.3561
  867MPD2     N12783   2.568   2.470  17.361  0.1896 -0.2329 -1.1129
  867MPD2    H512784   2.520   2.558  17.345 -0.8177  0.2021  4.1361
  867MPD2    N112785   2.716   2.081  17.087 -0.1930 -0.8936  0.2602
  867MPD2    H712786   2.708   2.051  16.990  0.1250  0.7584 -0.2829
  868MPD2     C12787   3.904   1.115  13.377  0.2099  0.3500  0.6584
  868MPD2    C112788   3.982   1.003  13.378  0.3155  0.5289 -0.8033
  868MPD2    C212789   3.948   0.906  13.468  0.2906  0.1345 -0.0240
  868MPD2    C312790   3.841   0.912  13.548 -0.4420  0.1842  0.1164
  868MPD2    C412791   3.757   1.022  13.540 -0.1300  0.0047  0.3117
  868MPD2    C512792   3.792   1.127  13.454  0.8205  0.3546  0.0210
  868MPD2     H12793   4.013   0.821  13.481  1.3071  0.7596 -1.0483
  868MPD2    H112794   3.665   1.033  13.596  0.7982  1.8329  1.5020
  868MPD2    H212795   3.916   1.195  13.305 -1.0596  0.2820  0.3569
  868MPD2    H312796   3.719   1.207  13.449  0.5530  0.0037 -1.6818
  868MPD2     N12797   3.807   0.796  13.619 -0.5161 -0.0608 -0.3079
  868MPD2    H512798   3.881   0.727  13.619 -0.5781 -0.1268 -0.1480
  868MPD2    N112799   4.087   0.990  13.288 -0.4605  0.0909 -0.3427
  868MPD2    H712800   4.117   1.075  13.240 -3.7184  1.6799  0.4261
  869MPD2     C12801   4.593   4.553   0.050  0.6163 -0.7968  0.2125
  869MPD2    C112802   4.556   4.456   0.144  0.1489 -0.3783  0.1983
  869MPD2    C212803   4.647   4.363   0.187  0.8637 -0.5420 -0.3874
  869MPD2    C312804   0.053   4.381   0.153 -0.3145 -0.5357 -0.5693
  869MPD2    C412805   0.092   4.478   0.071  0.0818  0.1806 -0.1602
  869MPD2    C512806   4.728   4.562   0.022 -0.5564  0.3764 -0.2309
  869MPD2     H12807   4.623   4.293   0.266  0.6279  1.0594  0.9506
  869MPD2    H112808   0.193   4.506   0.042 -0.3462  0.8186 -1.0244
  869MPD2    H212809   4.523   4.630   0.016 -0.3840 -1.2802  1.1656
  869MPD2    H312810   0.039   4.640  17.684  0.1319 -0.3200 -0.6332
  869MPD2     N12811   0.159   4.306   0.206  0.4230  0.1922  0.2158
  869MPD2    H512812   0.250   4.339   0.176  0.1009 -1.1765 -2.3486
  869MPD2    N112813   4.419   4.460   0.183  0.4744  0.2211  0.1421
  869MPD2    H712814   4.361   4.524   0.130  3.4442  1.2683 -1.8293
  870MPD2     C12815   0.342   2.943   1.149 -0.3121  0.0309  0.5401
  870MPD2    C112816   0.260   2.847   1.102  0.4954 -1.2260  0.0296
  870MPD2    C212817   0.118   2.870   1.120  0.2315 -0.8070 -0.9837
  870MPD2    C312818   0.075   2.977   1.191 -0.0914 -0.0821  0.2794
  870MPD2    C412819   0.163   3.074   1.240  0.4587  0.5832  0.2201
  870MPD2    C512820   0.295   3.060   1.212 -0.2883  0.3319  0.2819
  870MPD2     H12821   0.047   2.796   1.084 -0.8012  0.2999 -1.1961
  870MPD2    H112822   0.134   3.159   1.302 -0.3885  1.8597 -1.9340
  870MPD2    H212823   0.447   2.933   1.126 -1.3774 -1.5466 -3.6602
  870MPD2    H312824   0.370   3.136   1.232  0.5631 -0.5941  0.6101
  870MPD2     N12825   4.671   2.997   1.195 -0.9180  0.4428 -0.1549
  870MPD2    H512826   4.615   2.934   1.140 -0.3665 -0.6824  0.5617
  870MPD2    N112827   0.317   2.736   1.038 -0.4946 -0.1644 -0.3015
  870MPD2    H712828   0.418   2.735   1.051 -0.5450 -0.2765  0.0858
  871MPD2     C12829   1.792   2.313  16.797 -0.1135  0.3084  0.0754
  871MPD2    C112830   1.753   2.224  16.894  0.2297 -0.1367  0.1561
  871MPD2    C212831   1.742   2.095  16.854 -0.5181 -0.0106 -0.0517
  871MPD2    C312832   1.760   2.053  16.724 -0.2178  0.4253  0.2872
  871MPD2    C412833   1.791   2.145  16.625  0.0420 -0.1820  0.4420
  871MPD2    C512834   1.804   2.275  16.666  0.7701  1.6312  0.6212
  871MPD2     H12835   1.714   2.020  16.927  1.4239  1.5098  2.2428
  871MPD2    H112836   1.810   2.130  16.519  0.6979  0.2828  0.5015
  871MPD2    H212837   1.807   2.418  16.819 -0.3524  0.0578  1.3942
  871MPD2    H312838   1.843   2.346  16.594  0.2595  1.4224  0.1457
  871MPD2     N12839   1.734   1.919  16.702 -0.3780 -0.1857 -0.0573
  871MPD2    H512840   1.704   1.858  16.777 -1.3342  0.5981  0.1991
  871MPD2    N112841   1.717   2.274  17.023  0.1784 -0.2762  0.0714
  871MPD2    H712842   1.740   2.371  17.045 -1.2037  0.9796 -4.0650
  872MPD2     C12843   1.970   4.007  13.933 -0.4286  0.2726 -0.1370
  872MPD2    C112844   1.970   4.148  13.957 -0.0295 -0.3507 -0.0803
  872MPD2    C212845   1.860   4.194  14.026  0.6539 -0.5777 -0.3072
  872MPD2    C312846   1.760   4.114  14.075 -0.3417  0.0695 -0.2094
  872MPD2    C412847   1.766   3.985  14.042 -0.2392 -0.3611 -0.2839
  872MPD2    C512848   1.866   3.932  13.977  0.3032 -0.1654 -0.3775
  872MPD2     H12849   1.863   4.298  14.055  0.2600  0.0666 -2.5378
  872MPD2    H112850   1.702   3.902  14.069 -1.1360 -0.4871 -2.7981
  872MPD2    H212851   2.053   3.951  13.891 -0.7440  0.0048 -0.3897
  872MPD2    H312852   1.847   3.826  13.961  1.4974 -0.7934  2.2820
  872MPD2     N12853   1.651   4.164  14.153  0.7348  0.0554 -0.0250
  872MPD2    H512854   1.570   4.104  14.167  0.5439  0.4221  0.4192
  872MPD2    N112855   2.072   4.232  13.915 -0.1798 -0.8454 -0.1973
  872MPD2    H712856   2.061   4.333  13.926 -0.3075 -0.9077  0.2171
  873MPD2     C12857   3.789   4.390   0.668  0.1393 -0.5062 -0.5915
  873MPD2    C112858   3.728   4.354   0.791  0.7224 -0.3497  0.9370
  873MPD2    C212859   3.659   4.237   0.799  0.1577 -0.0044  0.3363
  873MPD2    C312860   3.658   4.150   0.689 -0.1157 -0.2032 -0.0577
  873MPD2    C412861   3.727   4.181   0.572  0.3716  0.3017  0.0738
  873MPD2    C512862   3.797   4.301   0.568  0.1062  0.4758 -0.2337
  873MPD2     H12863   3.603   4.207   0.887 -0.5607 -1.4219 -0.6226
  873MPD2    H112864   3.712   4.123   0.483 -0.9046 -0.3109  0.7008
  873MPD2    H212865   3.834   4.488   0.657 -2.4749  0.8630  1.0790
  873MPD2    H312866   3.829   4.324   0.468 -1.1115 -0.2577 -0.7962
  873MPD2     N12867   3.580   4.035   0.685 -0.4432  0.7621 -0.1151
  873MPD2    H512868   3.537   4.004   0.599 -2.0489  1.2055  0.5318
  873MPD2    N112869   3.727   4.459   0.880 -0.1815 -0.3244  0.0317
  873MPD2    H712870   3.778   4.540   0.846 -0.0383  0.1002  1.2816
  874MPD2     C12871   3.416   0.036  16.573 -0.2812  0.3486 -0.3183
  874MPD2    C112872   3.475   4.705  16.677  0.1789  0.5114 -1.3707
  874MPD2    C212873   3.615   4.716  16.697 -1.2146 -0.1436  0.1934
  874MPD2    C312874   3.700   0.063  16.617 -0.3227  0.1427 -1.1100
  874MPD2    C412875   3.637   0.129  16.514 -0.0188 -0.1602 -0.6424
  874MPD2    C512876   3.495   0.113  16.488  0.0101 -0.1713  0.1364
  874MPD2     H12877   3.655   4.658  16.779 -1.4329 -0.6109 -0.0289
  874MPD2    H112878   3.691   0.173  16.431  1.3142  0.3001  0.4595
  874MPD2    H212879   3.310   0.033  16.549 -0.4526  0.6729  0.4190
  874MPD2    H312880   3.454   0.146  16.393  1.9728 -0.7314 -0.9112
  874MPD2     N12881   3.837   0.060  16.632  0.1049  0.5915  0.7760
  874MPD2    H512882   3.871   4.728  16.704 -0.5689  0.0641  0.6299
  874MPD2    N112883   3.393   4.620  16.759 -0.2102 -0.4523  0.0132
  874MPD2    H712884   3.301   4.593  16.726 -0.2282 -1.5272  0.9389
  875MPD2     C12885   4.093   2.546  14.548 -0.4283 -0.5727 -0.6809
  875MPD2    C112886   4.146   2.644  14.465  0.6092  0.4607 -0.9587
  875MPD2    C212887   4.248   2.725  14.503  0.0327  0.1778  0.4974
  875MPD2    C312888   4.305   2.707  14.627 -0.0015  0.3034 -0.1868
  875MPD2    C412889   4.252   2.611  14.705 -1.1011 -0.2764 -0.7111
  875MPD2    C512890   4.161   2.519  14.665 -0.4216 -0.6229  0.0360
  875MPD2     H12891   4.291   2.800  14.438  1.8426  0.3174  1.8512
  875MPD2    H112892   4.296   2.596  14.803 -0.0951  0.3989 -1.0610
  875MPD2    H212893   4.014   2.478  14.517 -1.0715  0.0183 -0.3241
  875MPD2    H312894   4.117   2.458  14.742  1.1063  0.3983  1.7378
  875MPD2     N12895   4.393   2.802  14.694 -0.6120 -0.0480  0.9420
  875MPD2    H512896   4.416   2.783  14.791  2.5275 -0.4872  0.1087
  875MPD2    N112897   4.095   2.666  14.332  0.7928  0.0064  0.1085
  875MPD2    H712898   4.147   2.733  14.277 -1.9369  0.1497 -2.2775
  876MPD2     C12899   3.890   0.026  16.085  0.3388  0.5020 -0.0179
  876MPD2    C112900   3.831   4.657  16.002  0.8511 -0.4578  0.4933
  876MPD2    C212901   3.767   4.551  16.063 -0.5831 -0.0500 -0.1228
  876MPD2    C312902   3.757   4.545  16.197  0.7323  0.4909 -0.5600
  876MPD2    C412903   3.815   4.639  16.278  0.1820  0.4520  0.0835
  876MPD2    C512904   3.882   0.015  16.221 -0.5739  0.0614  0.1776
  876MPD2     H12905   3.734   4.467  16.002  1.8576  0.5996 -2.3346
  876MPD2    H112906   3.809   4.633  16.386 -1.0149 -1.6799 -0.0921
  876MPD2    H212907   3.947   0.106  16.040  1.8133 -0.0661  0.8708
  876MPD2    H312908   3.938   0.083  16.284 -1.5018 -0.1877  1.2752
  876MPD2     N12909   3.709   4.418  16.244  0.5672  0.6126  0.1554
  876MPD2    H512910   3.700   4.349  16.171 -0.8206  0.1599  0.7585
  876MPD2    N112911   3.837   4.662  15.865 -0.2079 -0.3598  0.4555
  876MPD2    H712912   3.923   4.702  15.829 -0.6988 -1.1173 -1.5725
  877MPD2     C12913   3.510   4.650  15.044 -0.2486 -0.1934 -0.5634
  877MPD2    C112914   3.623   4.579  15.059 -0.3777  0.1664  0.2819
  877MPD2    C212915   3.671   4.507  14.948 -0.6392 -0.3554 -0.2319
  877MPD2    C312916   3.602   4.503  14.828 -0.0521 -0.1811  0.0530
  877MPD2    C412917   3.482   4.575  14.819  0.7040 -0.0863 -0.4329
  877MPD2    C512918   3.444   4.652  14.927  0.0406 -0.3838 -0.2764
  877MPD2     H12919   3.763   4.451  14.962  0.4865  1.6220  0.2697
  877MPD2    H112920   3.419   4.578  14.731 -1.1480 -1.5581  0.8583
  877MPD2    H212921   3.472   4.718  15.119 -0.3450 -2.0492  1.0743
  877MPD2    H312922   3.350   4.705  14.917  0.4076  0.2043 -0.6095
  877MPD2     N12923   3.628   4.419  14.721  0.7396  0.5501  0.1564
  877MPD2    H512924   3.553   4.401  14.654 -1.0995  2.7807  1.6428
  877MPD2    N112925   3.694   4.568  15.179  0.1983  0.1571  0.3222
  877MPD2    H712926   3.778   4.511  15.176  1.2927  1.7080  1.0408
  878MPD2     C12927   3.540   4.018  12.833 -0.0965 -0.4647 -0.1960
  878MPD2    C112928   3.468   4.116  12.893 -0.4170 -0.4606  0.7499
  878MPD2    C212929   3.451   4.119  13.025  0.7297 -0.2954 -0.3704
  878MPD2    C312930   3.520   4.022  13.104  0.1265 -0.4383  0.5907
  878MPD2    C412931   3.584   3.921  13.036  0.1837 -0.3763  0.6972
  878MPD2    C512932   3.590   3.912  12.905  0.2534 -0.4781  0.4637
  878MPD2     H12933   3.400   4.195  13.083  1.1235  0.8660 -1.5679
  878MPD2    H112934   3.615   3.830  13.086 -1.6705 -1.7467 -0.6654
  878MPD2    H212935   3.548   4.008  12.726  0.9507  0.4176 -0.2010
  878MPD2    H312936   3.638   3.831  12.852 -0.1719 -0.2645 -0.2670
  878MPD2     N12937   3.518   4.022  13.247 -0.1167  0.1363 -0.2823
  878MPD2    H512938   3.446   4.084  13.283  0.1501 -0.6681  1.6423
  878MPD2    N112939   3.402   4.210  12.805  0.0847 -0.1581 -0.0956
  878MPD2    H712940   3.419   4.194  12.707 -1.2988  1.5844 -0.6094
  879MPD2     C12941   4.277   0.504  17.076  0.7527  0.0364 -0.1973
  879MPD2    C112942   4.226   0.381  17.113 -0.1938  0.0481  0.0311
  879MPD2    C212943   4.105   0.343  17.048  0.2300 -0.0555 -0.7077
  879MPD2    C312944   4.038   0.426  16.955  0.0595 -0.1765  0.3967
  879MPD2    C412945   4.105   0.540  16.919 -0.3686 -0.3595  0.3709
  879MPD2    C512946   4.213   0.586  16.985 -0.1204 -0.0417  1.1489
  879MPD2     H12947   4.057   0.253  17.085  1.8319 -0.7525 -0.3236
  879MPD2    H112948   4.069   0.587  16.828 -0.1201  0.1185  0.5180
  879MPD2    H212949   4.367   0.539  17.125  1.8953 -0.0309 -2.2596
  879MPD2    H312950   4.268   0.669  16.944 -0.4833  0.6472  2.0513
  879MPD2     N12951   3.914   0.408  16.891 -0.0951 -0.7484 -0.0950
  879MPD2    H512952   3.878   0.474  16.823 -0.5343  0.3086  1.1677
  879MPD2    N112953   4.303   0.307  17.210  0.0734 -1.1285  0.8000
  879MPD2    H712954   4.371   0.361  17.262 -2.2020  1.7161  0.8626
  880MPD2     C12955   4.382   2.249   0.389 -0.3249 -0.1724 -0.6439
  880MPD2    C112956   4.463   2.329   0.310  0.2795  0.0259 -0.7473
  880MPD2    C212957   4.592   2.284   0.292 -0.2011  0.5443  0.4607
  880MPD2    C312958   4.637   2.174   0.360  0.6251  0.0953  0.0654
  880MPD2    C412959   4.551   2.097   0.436  0.0196 -0.1611 -0.1915
  880MPD2    C512960   4.415   2.126   0.447 -0.3196 -0.6172 -0.6154
  880MPD2     H12961   4.661   2.341   0.231  0.0914 -0.6206 -0.2941
  880MPD2    H112962   4.592   2.015   0.493 -0.0057  1.9193  2.8614
  880MPD2    H212963   4.280   2.281   0.402 -0.7191 -1.5732 -0.3666
  880MPD2    H312964   4.351   2.071   0.515 -0.6705  1.5017  0.7905
  880MPD2     N12965   0.042   2.143   0.352  0.2676 -0.0302  0.2911
  880MPD2    H512966   0.106   2.216   0.323  0.2861 -0.7008 -1.3156
  880MPD2    N112967   4.416   2.447   0.253 -0.0615  0.7737  0.0637
  880MPD2    H712968   4.317   2.469   0.263 -0.2508  0.2150 -0.5792
  881MPD2     C12969   0.296   3.279   0.022  0.1430 -0.6600  0.5814
  881MPD2    C112970   0.303   3.151  17.720 -0.1813 -0.2895  0.3301
  881MPD2    C212971   0.189   3.071   0.008  0.3089 -0.2746 -0.4332
  881MPD2    C312972   0.064   3.125   0.042  0.0815  0.1630 -0.0590
  881MPD2    C412973   0.063   3.261   0.075 -0.2913  0.2879 -0.0504
  881MPD2    C512974   0.174   3.334   0.055  0.1162 -0.2643 -0.4829
  881MPD2     H12975   0.206   2.964   0.012  0.4768 -0.2124  0.7194
  881MPD2    H112976   4.704   3.313   0.103  0.3496  0.1688  2.2044
  881MPD2    H212977   0.379   3.347   0.008  0.1174 -1.3858 -3.0661
  881MPD2    H312978   0.169   3.441   0.070  2.7837 -0.3969  1.2126
  881MPD2     N12979   4.675   3.052   0.061  0.4061  0.7560  0.0802
  881MPD2    H512980   4.600   3.109   0.096  1.3052  0.6092  2.2177
  881MPD2    N112981   0.426   3.112  17.657 -0.0207 -0.1993  0.0897
  881MPD2    H712982   0.508   3.171  17.660 -0.5030  0.5125 -0.9205
  882MPD2     C12983   3.369   3.908  14.101  0.4589  0.2666  0.2446
  882MPD2    C112984   3.368   4.019  14.185 -0.3464  0.3958  0.0345
  882MPD2    C212985   3.242   4.071  14.224  0.6998 -0.7918 -0.1665
  882MPD2    C312986   3.119   4.013  14.190  0.5415  0.1127 -0.9752
  882MPD2    C412987   3.124   3.906  14.104  0.6197 -0.0266  0.1970
  882MPD2    C512988   3.250   3.861  14.064 -0.5488 -0.1497 -0.5800
  882MPD2     H12989   3.240   4.156  14.292  2.3559 -1.0036  0.1681
  882MPD2    H112990   3.039   3.847  14.071  1.3535 -0.4137 -1.0009
  882MPD2    H212991   3.459   3.861  14.065 -0.8817 -2.9735  1.1140
  882MPD2    H312992   3.256   3.763  14.017  0.7481  0.1024 -0.9329
  882MPD2     N12993   2.989   4.076  14.219  0.3242  0.3011  0.7819
  882MPD2    H512994   2.908   4.038  14.172  0.7808 -0.7879  0.8944
  882MPD2    N112995   3.486   4.066  14.240 -0.1231  0.3395 -0.2583
  882MPD2    H712996   3.570   4.031  14.197 -0.5460  2.7718 -3.0234
  883MPD2     C12997   0.871   3.657  16.212 -1.0345  0.1495 -0.3087
  883MPD2    C112998   0.866   3.792  16.191  0.0894 -0.1296 -0.3480
  883MPD2    C212999   0.950   3.875  16.261 -0.0112  0.1009  0.8847
  883MPD2    C313000   1.052   3.816  16.344 -0.2713 -0.5918 -0.2823
  883MPD2    C413001   1.066   3.680  16.354 -0.4222 -0.3313  0.3384
  883MPD2    C513002   0.971   3.605  16.289  0.2912  0.4843 -0.1258
  883MPD2     H13003   0.952   3.981  16.237 -2.1442 -0.1889 -0.5351
  883MPD2    H113004   1.150   3.632  16.403  0.3985  0.5861 -0.1718
  883MPD2    H213005   0.812   3.586  16.155  0.6343 -0.3001 -1.4841
  883MPD2    H313006   0.970   3.497  16.302 -1.3125  0.3451 -1.4734
  883MPD2     N13007   1.143   3.908  16.408  0.0796  0.2500 -0.2107
  883MPD2    H513008   1.109   4.003  16.409 -1.8224 -0.4263  0.1323
  883MPD2    N113009   0.785   3.851  16.091  0.0463 -0.3460  0.5488
  883MPD2    H713010   0.789   3.952  16.087  0.4479 -0.4304 -1.0448
  884MPD2     C13011   2.676   0.390  15.425  0.4585 -0.0638 -0.1796
  884MPD2    C113012   2.612   0.399  15.301  0.8540  0.0392 -0.0047
  884MPD2    C213013   2.499   0.467  15.282 -0.2928  0.8589 -0.0216
  884MPD2    C313014   2.442   0.537  15.386 -0.7043 -0.4174  0.0090
  884MPD2    C413015   2.512   0.544  15.508 -0.4170 -0.6121  0.0756
  884MPD2    C513016   2.619   0.470  15.527  0.5951  0.0375  0.2193
  884MPD2     H13017   2.452   0.478  15.185  0.7032 -0.8876 -0.7039
  884MPD2    H113018   2.472   0.603  15.590 -1.1523 -0.0440 -0.6870
  884MPD2    H213019   2.766   0.334  15.448 -0.3236 -0.6449  1.4278
  884MPD2    H313020   2.664   0.476  15.625  1.6928  0.1079 -0.2889
  884MPD2     N13021   2.324   0.613  15.367  0.0683 -0.1169 -0.1836
  884MPD2    H513022   2.274   0.591  15.281 -3.8649 -1.2326  2.3840
  884MPD2    N113023   2.663   0.353  15.182 -0.9152 -0.0502 -0.0473
  884MPD2    H713024   2.599   0.366  15.104  1.9696 -0.9632 -2.5382
  885MPD2     C13025   0.811   1.150   0.142  0.6301  0.1630  0.3254
  885MPD2    C113026   0.936   1.216   0.145  1.0498  0.0415 -0.1562
  885MPD2    C213027   0.989   1.266   0.025  0.7296 -0.4621 -0.1228
  885MPD2    C313028   0.926   1.245  17.627  0.6054  0.7772 -0.9556
  885MPD2    C413029   0.792   1.196  17.638 -0.0593 -0.0300  0.4196
  885MPD2    C513030   0.738   1.150   0.029  0.3299 -1.0762 -0.7765
  885MPD2     H13031   1.083   1.319   0.034 -0.3176  1.2636  0.8177
  885MPD2    H113032   0.740   1.171  17.546 -1.9517  0.4858  1.3459
  885MPD2    H213033   0.763   1.098   0.224 -0.4586 -1.6795 -1.4873
  885MPD2    H313034   0.635   1.116   0.035 -0.1175  0.3169 -0.7029
  885MPD2     N13035   0.993   1.266  17.503 -0.7392  0.3375  0.9715
  885MPD2    H513036   1.089   1.296  17.513 -1.0387  0.8932  2.2277
  885MPD2    N113037   1.008   1.211   0.263  0.0249 -0.3739 -0.2499
  885MPD2    H713038   0.979   1.138   0.328  1.6820 -1.2321 -0.4730
  886MPD2     C13039   2.293   3.662  15.533 -0.0470  0.8941 -0.0231
  886MPD2    C113040   2.417   3.727  15.546  0.4940  0.2225  0.4673
  886MPD2    C213041   2.413   3.862  15.517 -0.3491 -0.2138 -0.3983
  886MPD2    C313042   2.296   3.932  15.497  0.8801  0.8593  0.3055
  886MPD2    C413043   2.180   3.864  15.487  1.1206 -0.2666 -0.1552
  886MPD2    C513044   2.173   3.734  15.515 -0.6197  0.1079  0.5677
  886MPD2     H13045   2.504   3.919  15.531 -1.9728  1.8336  1.8140
  886MPD2    H113046   2.092   3.927  15.479 -0.2437 -2.0837  0.6058
  886MPD2    H213047   2.271   3.557  15.552  0.4548  0.3984 -2.1390
  886MPD2    H313048   2.079   3.680  15.505 -1.4606  1.3139  2.0763
  886MPD2     N13049   2.303   4.076  15.475  0.1818 -0.1702 -0.0046
  886MPD2    H513050   2.396   4.116  15.471  0.3150 -0.3502  1.5401
  886MPD2    N113051   2.529   3.662  15.599 -0.2141 -0.0040  0.6139
  886MPD2    H713052   2.603   3.729  15.618 -0.0314 -0.0902  0.2079
  887MPD2     C13053   3.005   3.959  16.071 -0.0304 -0.0469 -0.1405
  887MPD2    C113054   2.923   3.957  15.964  0.1982  0.4047  0.4223
  887MPD2    C213055   2.935   4.052  15.863 -0.4595  0.6775  0.2369
  887MPD2    C313056   3.027   4.151  15.870 -0.6680 -0.0351 -0.3359
  887MPD2    C413057   3.103   4.161  15.985 -0.1544  0.0764  0.3219
  887MPD2    C513058   3.100   4.065  16.087  0.5915  0.1005 -0.3096
  887MPD2     H13059   2.868   4.056  15.778 -1.5205 -1.2770  0.9866
  887MPD2    H113060   3.175   4.241  16.000  1.0055 -1.1412  1.2871
  887MPD2    H213061   2.988   3.892  16.154  0.9241  0.5195  0.5114
  887MPD2    H313062   3.164   4.074  16.174 -0.3055 -2.0810  0.5635
  887MPD2     N13063   3.009   4.260  15.783  0.0051 -0.3588 -0.0147
  887MPD2    H513064   2.952   4.240  15.702  0.6739  0.4151 -0.6716
  887MPD2    N113065   2.833   3.848  15.931 -0.2101  0.2949 -0.4062
  887MPD2    H713066   2.782   3.847  15.844 -0.9780  1.0841  0.0304
  888MPD2     C13067   4.575   3.870  14.932 -0.3391  0.1075  0.0323
  888MPD2    C113068   4.628   3.950  15.033 -0.2172 -0.6390  0.6872
  888MPD2    C213069   4.675   4.081  15.009  0.5379 -0.1608 -0.8964
  888MPD2    C313070   4.656   4.138  14.883  0.3124 -0.2643  0.9648
  888MPD2    C413071   4.595   4.066  14.782  0.0306  0.1135 -0.5493
  888MPD2    C513072   4.558   3.932  14.811 -0.4113  0.5761 -0.0191
  888MPD2     H13073   0.000   4.143  15.078 -0.5940  0.5809 -0.6432
  888MPD2    H113074   4.573   4.108  14.685  1.0520  2.0781  0.0676
  888MPD2    H213075   4.542   3.767  14.944 -3.6887  1.0384 -1.4006
  888MPD2    H313076   4.494   3.882  14.740 -0.4054 -0.2502  0.5643
  888MPD2     N13077   4.689   4.273  14.860  0.3982  0.0445  0.1590
  888MPD2    H513078   0.001   4.316  14.941  1.6217  2.2658 -1.6895
  888MPD2    N113079   4.651   3.900  15.167  0.1268  0.2771  0.3521
  888MPD2    H713080   4.673   3.968  15.238  0.5844  0.5944 -0.0917
  889MPD2     C13081   3.897   3.439  12.615 -0.3182 -0.0828 -0.8683
  889MPD2    C113082   3.969   3.467  12.727  0.3730 -0.1229  0.6762
  889MPD2    C213083   3.979   3.596  12.774  0.3970  0.0931 -0.4451
  889MPD2    C313084   3.938   3.699  12.703  0.2147  1.0645 -0.4285
  889MPD2    C413085   3.883   3.676  12.581  0.3106 -0.0077 -0.2708
  889MPD2    C513086   3.854   3.549  12.541 -0.6623  0.3658  0.4978
  889MPD2     H13087   4.003   3.619  12.877  0.2420 -0.9242 -0.1873
  889MPD2    H113088   3.836   3.754  12.523  0.2166 -2.3936 -3.4218
  889MPD2    H213089   3.904   3.344  12.564  2.2310  0.2574 -1.1356
  889MPD2    H313090   3.831   3.537  12.436  0.6309 -0.8509  0.3593
  889MPD2     N13091   3.947   3.826  12.761 -0.3620  1.1732  0.1784
  889MPD2    H513092   3.997   3.838  12.849  0.7171 -0.0870 -0.2739
  889MPD2    N113093   3.978   3.362  12.818 -0.0605  0.1577 -0.1092
  889MPD2    H713094   3.924   3.280  12.795  1.5411 -1.2329  1.1062
  890MPD2     C13095   3.600   0.432  14.908 -0.1487 -0.2374 -0.3287
  890MPD2    C113096   3.658   0.550  14.950 -0.4413 -0.5030  0.2086
  890MPD2    C213097   3.734   0.549  15.061  0.0981 -0.7548  0.4504
  890MPD2    C313098   3.763   0.431  15.119  0.2875 -0.3869  0.8906
  890MPD2    C413099   3.698   0.310  15.076  0.8039 -0.1254 -0.6244
  890MPD2    C513100   3.607   0.316  14.974  0.3515  0.6171 -0.5723
  890MPD2     H13101   3.777   0.640  15.102 -1.2545  0.8563 -1.7096
  890MPD2    H113102   3.708   0.220  15.137 -1.4084  0.2448  0.2974
  890MPD2    H213103   3.540   0.420  14.819 -1.7354  0.2866  0.6661
  890MPD2    H313104   3.560   0.226  14.938 -1.1393  1.5544 -0.9661
  890MPD2     N13105   3.852   0.437  15.227 -0.3979  0.1083  0.2232
  890MPD2    H513106   3.885   0.531  15.248  1.3982 -0.9866  2.3596
  890MPD2    N113107   3.636   0.671  14.875 -0.1326 -0.2612  0.3685
  890MPD2    H713108   3.571   0.657  14.799 -1.1567  1.1614  0.9715
  891MPD2     C13109   1.541   3.439  17.192 -0.2766 -0.5432 -0.5451
  891MPD2    C113110   1.457   3.538  17.159 -0.2584  0.4748 -0.2358
  891MPD2    C213111   1.513   3.662  17.130 -0.5483  0.0629 -0.0172
  891MPD2    C313112   1.651   3.688  17.140  0.3649 -0.1145 -0.6848
  891MPD2    C413113   1.730   3.585  17.188 -0.0707  0.0778 -0.3887
  891MPD2    C513114   1.669   3.466  17.224 -0.2762 -0.7002  0.0995
  891MPD2     H13115   1.451   3.745  17.098 -0.0336 -0.2184 -1.7593
  891MPD2    H113116   1.838   3.584  17.197 -0.0706  2.7927 -0.0490
  891MPD2    H213117   1.514   3.334  17.202 -0.3864 -0.3246  1.4589
  891MPD2    H313118   1.736   3.387  17.255  1.0735  0.7982  0.9936
  891MPD2     N13119   1.707   3.805  17.091  0.2476  0.0182 -0.3966
  891MPD2    H513120   1.651   3.878  17.047  1.1606  0.1179 -1.4100
  891MPD2    N113121   1.321   3.512  17.136  0.2838  0.6530  0.1845
  891MPD2    H713122   1.286   3.419  17.156  2.8566 -0.0332  1.5703
  892MPD2     C13123   2.692   4.638  15.013  0.0451  0.0452 -0.4407
  892MPD2    C113124   2.589   4.652  14.926  0.0144 -0.4112  0.2476
  892MPD2    C213125   2.593   4.577  14.813 -0.1722  0.0481  0.4883
  892MPD2    C313126   2.702   4.493  14.784 -0.0903 -0.2304 -0.0785
  892MPD2    C413127   2.801   4.480  14.878 -0.1950  0.3872 -0.3764
  892MPD2    C513128   2.801   4.559  14.991  0.2919  0.4826 -0.6517
  892MPD2     H13129   2.507   4.583  14.746 -0.9716  0.6435  1.5678
  892MPD2    H113130   2.888   4.417  14.860 -1.9479 -2.4793  1.2189
  892MPD2    H213131   2.699   4.693  15.106 -0.9032 -0.6747  0.0469
  892MPD2    H313132   2.878   4.538  15.064  0.3215  2.7507 -0.0180
  892MPD2     N13133   2.710   4.424  14.655 -0.2026 -0.0445 -0.3456
  892MPD2    H513134   2.780   4.351  14.664  1.2881  1.3007 -1.0208
  892MPD2    N113135   2.472   4.728  14.956 -0.6905 -0.1712  0.1314
  892MPD2    H713136   2.405   0.019  14.883  0.4282  0.4535 -0.7048
  893MPD2     C13137   3.378   3.481   0.977  0.4302 -0.1877  0.3884
  893MPD2    C113138   3.444   3.548   1.074 -0.4328  0.5501  0.5908
  893MPD2    C213139   3.381   3.568   1.197 -0.0097 -0.3520  0.3079
  893MPD2    C313140   3.252   3.518   1.217  0.1664  0.0057 -0.2396
  893MPD2    C413141   3.189   3.444   1.115 -0.1573 -0.2830  0.0571
  893MPD2    C513142   3.249   3.426   0.995 -0.0705 -0.3017  0.5938
  893MPD2     H13143   3.433   3.606   1.285 -1.3519  2.4973 -0.1218
  893MPD2    H113144   3.093   3.393   1.124  0.5745 -1.4321  1.1883
  893MPD2    H213145   3.436   3.445   0.893 -1.5534  0.4474 -1.2444
  893MPD2    H313146   3.202   3.366   0.918  1.5108  0.1588 -0.7228
  893MPD2     N13147   3.174   3.540   1.338 -0.3034 -0.2161 -0.3141
  893MPD2    H513148   3.080   3.501   1.338 -0.3060 -0.2225 -3.6666
  893MPD2    N113149   3.576   3.598   1.045 -0.1541  0.4208  0.0404
  893MPD2    H713150   3.609   3.587   0.950 -2.0387 -2.2368 -0.3255
  894MPD2     C13151   2.326   0.751   1.371  0.3378  0.0987  0.6782
  894MPD2    C113152   2.300   0.883   1.347 -0.0003 -0.1300 -0.0627
  894MPD2    C213153   2.403   0.971   1.374 -0.5575 -0.0348  0.3202
  894MPD2    C313154   2.530   0.937   1.411  0.0839  0.2425  0.0171
  894MPD2    C413155   2.549   0.805   1.444  0.5691  0.1281  0.2523
  894MPD2    C513156   2.451   0.713   1.407 -0.6027  0.0301  0.2426
  894MPD2     H13157   2.384   1.077   1.362  0.2827 -0.1035 -1.5631
  894MPD2    H113158   2.646   0.777   1.483 -0.1109  0.7008  2.3334
  894MPD2    H213159   2.252   0.677   1.342 -0.0962  1.1701 -1.0040
  894MPD2    H313160   2.468   0.611   1.440 -1.9588 -0.2931 -0.0719
  894MPD2     N13161   2.639   1.025   1.409 -0.6663  0.0748  0.8824
  894MPD2    H513162   2.722   0.970   1.429 -2.0489 -3.1745 -2.1908
  894MPD2    N113163   2.180   0.935   1.289  0.3575  1.0412  0.3689
  894MPD2    H713164   2.170   1.035   1.280 -0.0665  0.7778 -2.0522
  895MPD2     C13165   1.892   4.718  13.665  0.4475  0.1770 -0.3544
  895MPD2    C113166   1.767   4.695  13.712 -0.0684  0.3204  0.2371
  895MPD2    C213167   1.732   4.566  13.749 -0.2277 -0.5212  0.8157
  895MPD2    C313168   1.804   4.456  13.713 -0.1027  0.5486  0.4098
  895MPD2    C413169   1.924   4.475  13.654  0.8118  0.3573 -0.3672
  895MPD2    C513170   1.961   4.603  13.636  0.0533  0.8477 -0.0878
  895MPD2     H13171   1.626   4.565  13.768 -0.8888 -1.2540 -3.0260
  895MPD2    H113172   1.985   4.401  13.603  0.5811  1.0339 -1.6425
  895MPD2    H213173   1.938   0.084  13.653  2.4468 -0.6108  1.0468
  895MPD2    H313174   2.051   4.644  13.591  1.2976 -1.4461  0.2747
  895MPD2     N13175   1.763   4.325  13.730  0.1377 -0.2269  0.7149
  895MPD2    H513176   1.818   4.253  13.684 -0.9977  0.6243 -2.0093
  895MPD2    N113177   1.686   0.074  13.741 -0.2873 -0.1549  0.7125
  895MPD2    H713178   1.596   0.054  13.785 -1.4134 -0.2587 -1.6716
  896MPD2     C13179   3.843   2.203   1.095  0.6889  0.8178  0.0845
  896MPD2    C113180   3.828   2.097   1.005  0.4336 -0.0842 -0.9351
  896MPD2    C213181   3.697   2.050   0.988 -0.5948  0.3543  0.2339
  896MPD2    C313182   3.591   2.106   1.056  0.2349 -0.3402  0.4710
  896MPD2    C413183   3.608   2.205   1.145  0.0215  0.0480  0.3046
  896MPD2    C513184   3.734   2.248   1.176 -0.6072  0.2080  0.5418
  896MPD2     H13185   3.679   1.977   0.911 -0.7759  1.5282 -0.8414
  896MPD2    H113186   3.522   2.246   1.196 -0.1042  1.0865 -0.7432
  896MPD2    H213187   3.939   2.239   1.128  1.1127 -0.5635  0.3849
  896MPD2    H313188   3.746   2.318   1.258  0.0971  2.0358 -1.1250
  896MPD2     N13189   3.463   2.036   1.031  0.0264 -0.1840 -0.0464
  896MPD2    H513190   3.463   1.967   0.957  0.1854  0.7749 -0.9485
  896MPD2    N113191   3.940   2.063   0.930  0.2331 -1.1538  0.7697
  896MPD2    H713192   4.026   2.109   0.956 -0.3626  0.5540 -0.2449
  897MPD2     C13193   0.174   3.264  11.094  0.2768  0.8186 -0.1833
  897MPD2    C113194   0.193   3.398  11.085 -0.6879 -0.0228 -0.2187
  897MPD2    C213195   0.116   3.484  11.170  0.0160  0.1315  1.6436
  897MPD2    C313196   0.029   3.426  11.262 -0.1664  0.1552  0.6622
  897MPD2    C413197   0.032   3.288  11.281 -0.5706  0.3458  0.0493
  897MPD2    C513198   0.106   3.208  11.197  0.1855  0.4510 -0.2004
  897MPD2     H13199   0.107   3.589  11.146  1.0857 -0.3258 -0.7509
  897MPD2    H113200   4.707   3.238  11.359  4.0444 -1.9812  1.8425
  897MPD2    H213201   0.218   3.202  11.017 -3.9714 -1.5913 -0.6586
  897MPD2    H313202   0.105   3.101  11.214 -0.9923  0.3701 -0.7702
  897MPD2     N13203   4.657   3.505  11.318 -0.5406 -0.0994  0.2635
  897MPD2    H513204   4.649   3.604  11.299  1.9458 -0.0987 -0.8293
  897MPD2    N113205   0.287   3.445  10.991  0.2175 -0.4211 -0.1650
  897MPD2    H713206   0.301   3.388  10.908 -1.0438  1.2822 -1.5541
  898MPD2     C13207   2.598   4.209  17.542 -0.1960 -0.2574  0.1182
  898MPD2    C113208   2.658   4.317  17.603 -0.5243  0.1346 -0.6577
  898MPD2    C213209   2.697   4.427  17.525 -0.2594 -0.2142 -0.4745
  898MPD2    C313210   2.654   4.435  17.392  0.2253 -0.3692  0.2416
  898MPD2    C413211   2.591   4.325  17.332  0.7631 -0.6170 -0.2867
  898MPD2    C513212   2.567   4.209  17.406 -0.4408 -0.3615 -0.6567
  898MPD2     H13213   2.751   4.504  17.578  2.1954 -3.3279  1.5414
  898MPD2    H113214   2.557   4.330  17.229  0.6695 -2.2364 -0.3357
  898MPD2    H213215   2.569   4.122  17.599  0.1002 -1.2948 -1.3063
  898MPD2    H313216   2.523   4.120  17.365  0.9704 -0.6304 -1.6025
  898MPD2     N13217   2.680   4.559  17.327  0.2089 -0.3730  0.1852
  898MPD2    H513218   2.685   4.644  17.383 -0.9291 -0.5367  0.5322
  898MPD2    N113219   2.692   4.314   0.015 -0.4081 -0.5158 -0.0844
  898MPD2    H713220   2.749   4.393   0.044  0.8009 -1.8592  1.1765
  899MPD2     C13221   3.478   0.122  17.452 -0.2544 -0.2704  0.1437
  899MPD2    C113222   3.363   0.198  17.466 -0.2660 -0.7426  0.2538
  899MPD2    C213223   3.279   0.177  17.575 -0.3943 -0.2554 -0.0880
  899MPD2    C313224   3.323   0.098  17.677 -0.0027  0.5322 -0.2595
  899MPD2    C413225   3.437   0.020  17.666  0.0306  0.3737  0.1045
  899MPD2    C513226   3.510   0.035  17.553  0.3094 -0.2698  0.2503
  899MPD2     H13227   3.198   0.247  17.590 -1.0477 -0.0934 -4.3826
  899MPD2    H113228   3.461   4.679   0.018  0.8506 -0.2388 -0.7318
  899MPD2    H213229   3.543   0.127  17.365  2.7702 -1.2457  2.3546
  899MPD2    H313230   3.594   4.697  17.546  1.1727  0.7585  0.5221
  899MPD2     N13231   3.240   0.089   0.071  0.0077  0.5019  0.3091
  899MPD2    H513232   3.145   0.123   0.065  0.1317  0.3924 -2.2732
  899MPD2    N113233   3.324   0.287  17.364  0.2836  0.0331 -0.5565
  899MPD2    H713234   3.388   0.294  17.285  1.1399 -0.1969  0.1147
  900MPD2     C13235   2.169   1.921  12.301  0.5354 -0.3023 -0.0423
  900MPD2    C113236   2.086   1.870  12.395 -0.0882  0.1871  0.4628
  900MPD2    C213237   1.957   1.914  12.399  0.2482 -0.3486  0.0188
  900MPD2    C313238   1.908   2.015  12.318  0.1887 -0.5568  0.2338
  900MPD2    C413239   1.998   2.083  12.245 -0.6327  0.1437 -0.8503
  900MPD2    C513240   2.124   2.028  12.230  0.3506  0.2663 -0.8245
  900MPD2     H13241   1.886   1.849  12.450  0.5653 -1.5994 -1.1273
  900MPD2    H113242   1.967   2.175  12.197  0.5060  1.7216  1.4369
  900MPD2    H213243   2.270   1.886  12.281  0.6348  0.3947 -0.7672
  900MPD2    H313244   2.179   2.068  12.146  2.6525 -3.6784 -1.1825
  900MPD2     N13245   1.772   2.043  12.316 -0.1767 -0.6615  0.0161
  900MPD2    H513246   1.709   1.972  12.351  0.4607 -2.1770 -1.8997
  900MPD2    N113247   2.134   1.761  12.477  0.0722  0.3165  0.5802
  900MPD2    H713248   2.229   1.726  12.477  0.3609  1.1055  4.1864
  901MPD2     C13249   1.912   0.776  12.826  0.2355  0.0022 -0.4301
  901MPD2    C113250   1.991   0.783  12.711 -0.6476  0.5120 -0.5016
  901MPD2    C213251   2.021   0.911  12.666  0.4358 -0.4363 -0.0511
  901MPD2    C313252   1.974   1.020  12.738  0.0451  0.2919  0.1050
  901MPD2    C413253   1.883   1.010  12.844 -0.1179  0.3832  0.3800
  901MPD2    C513254   1.846   0.883  12.881 -0.2727  0.2694 -0.0910
  901MPD2     H13255   2.097   0.916  12.589  0.6075 -1.3654  0.0655
  901MPD2    H113256   1.845   1.096  12.897 -0.4922 -0.2758  1.1899
  901MPD2    H213257   1.889   0.678  12.865 -1.9695  1.0509  0.9126
  901MPD2    H313258   1.769   0.864  12.956 -0.1750 -0.5048 -0.1873
  901MPD2     N13259   2.044   1.138  12.702  0.1905 -0.0553 -0.1770
  901MPD2    H513260   2.117   1.136  12.632  0.1135 -0.2304 -0.2517
  901MPD2    N113261   2.044   0.663  12.653 -0.4671  1.0378  0.5275
  901MPD2    H713262   2.030   0.577  12.704 -0.1242  1.1822  0.8582
  902MPD2     C13263   1.985   4.434  12.613 -1.0768  0.3375  0.2617
  902MPD2    C113264   1.923   4.531  12.536  0.0839  0.4778  0.2061
  902MPD2    C213265   1.975   4.553  12.409 -0.1715 -0.0319 -0.1685
  902MPD2    C313266   2.082   4.490  12.357 -0.2378 -0.2155 -0.1221
  902MPD2    C413267   2.138   4.390  12.433 -0.1708  0.2898 -0.2658
  902MPD2    C513268   2.088   4.365  12.560 -0.0877 -0.2406  0.4250
  902MPD2     H13269   1.920   4.622  12.345 -0.0586 -3.5313 -4.0396
  902MPD2    H113270   2.218   4.329  12.392 -0.6538 -0.0324 -0.7351
  902MPD2    H213271   1.966   4.402  12.715 -1.2248 -1.7550 -0.4186
  902MPD2    H313272   2.132   4.285  12.618 -0.2086  0.6007  1.6765
  902MPD2     N13273   2.136   4.509  12.228  0.2662  0.9305  0.2437
  902MPD2    H513274   2.206   4.444  12.192 -1.5460 -2.0695  2.0978
  902MPD2    N113275   1.807   4.603  12.588 -0.2494  0.5229 -0.2950
  902MPD2    H713276   1.776   4.574  12.681 -0.7987  1.8465 -0.0732
  903MPD2     C13277   1.805   0.320  11.711 -0.5207 -0.2875  0.3942
  903MPD2    C113278   1.790   0.181  11.736  0.0992  0.7158  0.1322
  903MPD2    C213279   1.662   0.129  11.754  0.1833  1.0909 -0.2954
  903MPD2    C313280   1.553   0.214  11.761 -0.3294  0.1748  0.1949
  903MPD2    C413281   1.570   0.351  11.735 -0.2110 -0.8013 -0.2932
  903MPD2    C513282   1.696   0.398  11.711 -0.6498 -0.3598 -0.2740
  903MPD2     H13283   1.645   0.023  11.768 -0.0405  0.7957 -2.9592
  903MPD2    H113284   1.487   0.421  11.736 -0.2073 -0.8122  3.2273
  903MPD2    H213285   1.903   0.366  11.709 -0.5438 -0.2665 -0.3153
  903MPD2    H313286   1.723   0.500  11.688 -3.0171  0.8412  2.2257
  903MPD2     N13287   1.428   0.167  11.800 -0.0390 -0.4750 -0.0607
  903MPD2    H513288   1.413   0.071  11.830 -2.2335 -0.3139 -0.6617
  903MPD2    N113289   1.911   0.109  11.746  0.8324 -0.4152 -0.2832
  903MPD2    H713290   1.999   0.158  11.740  0.7517 -0.3800 -1.1221
  904MPD2     C13291   1.734   3.101  13.764  0.0969 -0.6758  0.1968
  904MPD2    C113292   1.727   3.104  13.898 -0.1938 -0.1619 -0.1719
  904MPD2    C213293   1.825   3.168  13.968 -0.2029 -0.3544  0.0898
  904MPD2    C313294   1.933   3.229  13.903  0.1919  0.5364  0.2331
  904MPD2    C413295   1.931   3.226  13.768 -0.1369  0.4727  0.2006
  904MPD2    C513296   1.831   3.164  13.694 -0.0713  0.2488  0.1924
  904MPD2     H13297   1.815   3.165  14.076 -0.3270  0.1298  0.0937
  904MPD2    H113298   2.005   3.284  13.715 -0.0810 -0.3163 -0.5912
  904MPD2    H213299   1.652   3.046  13.718  0.1809 -0.0215 -0.7252
  904MPD2    H313300   1.839   3.164  13.585  0.9494  0.8640  0.2633
  904MPD2     N13301   2.021   3.300  13.982  0.0232  0.0135 -0.2932
  904MPD2    H513302   1.995   3.307  14.080  3.3148 -0.1640  0.5968
  904MPD2    N113303   1.603   3.058  13.957 -0.2348 -0.0424  0.4635
  904MPD2    H713304   1.536   3.018  13.893  1.5486 -0.4697 -1.1257
  905MPD2     C13305   0.956   3.579  13.901 -0.6892 -0.4819  0.6830
  905MPD2    C113306   1.084   3.520  13.908 -0.9783  0.1290  1.1472
  905MPD2    C213307   1.195   3.602  13.893 -0.1032  0.0373 -0.1421
  905MPD2    C313308   1.183   3.739  13.881 -0.2388 -0.0496  0.0296
  905MPD2    C413309   1.060   3.795  13.898  0.1431  0.1784  1.1144
  905MPD2    C513310   0.944   3.716  13.891 -0.1244  0.1381 -0.2181
  905MPD2     H13311   1.298   3.569  13.890 -1.0559 -2.9674  0.3791
  905MPD2    H113312   1.047   3.903  13.905 -1.3729  0.1776 -1.9864
  905MPD2    H213313   0.865   3.521  13.905 -2.0500  1.6379  0.0817
  905MPD2    H313314   0.847   3.763  13.890 -0.0476  0.2349 -2.7864
  905MPD2     N13315   1.304   3.807  13.852 -0.6178 -0.1291 -0.2857
  905MPD2    H513316   1.384   3.747  13.864 -1.6776 -1.6489 -0.7665
  905MPD2    N113317   1.093   3.381  13.935 -0.0397  0.1242 -0.5764
  905MPD2    H713318   1.007   3.341  13.972  1.0878 -1.7424  0.0688
  906MPD2     C13319   3.491   4.267  11.133  0.3008 -0.0764  0.6916
  906MPD2    C113320   3.594   4.181  11.095 -0.2665  1.0565  0.0212
  906MPD2    C213321   3.590   4.054  11.146  0.0406  0.2767 -0.6055
  906MPD2    C313322   3.486   3.999  11.222  0.2516 -0.1749 -0.3789
  906MPD2    C413323   3.388   4.089  11.263 -0.0095 -0.0295  0.2129
  906MPD2    C513324   3.389   4.219  11.213  0.0638 -0.2917  0.0431
  906MPD2     H13325   3.675   3.992  11.118 -0.7612 -1.2018  0.2356
  906MPD2    H113326   3.296   4.061  11.313  0.7188 -0.5031  1.2937
  906MPD2    H213327   3.485   4.373  11.108 -1.0804 -0.6701 -1.5124
  906MPD2    H313328   3.304   4.282  11.235  0.8109  1.7236 -2.8773
  906MPD2     N13329   3.477   3.861  11.263 -0.3290  0.2219 -0.5091
  906MPD2    H513330   3.388   3.829  11.299 -2.1256  1.8027 -3.5571
  906MPD2    N113331   3.689   4.224  10.999  0.2953 -0.2551  0.1204
  906MPD2    H713332   3.769   4.162  10.989  0.8705  0.6890 -1.1135
  907MPD2     C13333   2.339   3.067  15.864 -0.5850 -0.1142  0.3858
  907MPD2    C113334   2.430   2.970  15.831 -0.8046 -0.1076 -0.0296
  907MPD2    C213335   2.516   2.929  15.927 -0.0648 -0.4497  0.4422
  907MPD2    C313336   2.510   2.975  16.058  0.0327 -0.4290  0.1376
  907MPD2    C413337   2.429   3.085  16.082 -0.3027 -0.6683  0.2789
  907MPD2    C513338   2.343   3.125  15.991 -0.2625 -0.6818  1.0910
  907MPD2     H13339   2.578   2.841  15.909  1.0907  0.4123  0.1740
  907MPD2    H113340   2.430   3.144  16.173  0.4799 -0.6440  0.2489
  907MPD2    H213341   2.270   3.109  15.792  0.5319  0.5681 -0.2851
  907MPD2    H313342   2.263   3.193  16.021 -0.2484 -0.0838 -0.2646
  907MPD2     N13343   2.594   2.925  16.156 -0.0042  0.0030  0.3388
  907MPD2    H513344   2.671   2.866  16.127 -1.0209 -0.9131 -0.5020
  907MPD2    N113345   2.438   2.913  15.701  0.0893 -0.4673  0.0234
  907MPD2    H713346   2.519   2.858  15.677  0.2650 -1.0442  1.9642
  908MPD2     C13347   0.356   3.223  10.176  0.1634  0.2568  0.6412
  908MPD2    C113348   0.354   3.150  10.294 -0.6553  0.5598 -0.0129
  908MPD2    C213349   0.393   3.211  10.416  0.5563  0.2986  0.2470
  908MPD2    C313350   0.448   3.338  10.415 -0.0388 -0.7169  0.0926
  908MPD2    C413351   0.458   3.401  10.290 -0.2593  0.2739  0.0565
  908MPD2    C513352   0.403   3.353  10.176  0.4455  0.8044  0.2720
  908MPD2     H13353   0.391   3.160  10.511  1.1027  0.7313  0.4898
  908MPD2    H113354   0.486   3.505  10.276 -0.7445  0.6202  1.6457
  908MPD2    H213355   0.325   3.183  10.080 -0.3693  2.1303  0.0390
  908MPD2    H313356   0.389   3.430  10.101  0.6597  1.1279  0.5610
  908MPD2     N13357   0.473   3.401  10.539  0.0592  0.8172 -0.0178
  908MPD2    H513358   0.451   3.348  10.623 -1.5025  1.2083 -0.1848
  908MPD2    N113359   0.315   3.014  10.288  0.2988 -0.3222 -0.9018
  908MPD2    H713360   0.275   3.000  10.195 -0.1391  0.9576 -0.8964
  909MPD2     C13361   0.405   1.575  11.771 -0.5718  0.3930  0.2844
  909MPD2    C113362   0.419   1.712  11.792 -0.5312  0.5401 -0.2329
  909MPD2    C213363   0.326   1.776  11.871 -0.2502 -0.4389  0.3058
  909MPD2    C313364   0.228   1.710  11.942  0.5612 -0.3248 -0.3576
  909MPD2    C413365   0.216   1.577  11.914 -0.2763  1.1077 -0.4489
  909MPD2    C513366   0.297   1.515  11.824  0.5144  0.3220 -0.1616
  909MPD2     H13367   0.339   1.883  11.886  0.0252 -0.6993  1.9128
  909MPD2    H113368   0.138   1.517  11.959  1.6485 -0.9072  0.1751
  909MPD2    H213369   0.482   1.515  11.724 -0.2001  0.5102  0.7431
  909MPD2    H313370   0.275   1.412  11.798 -0.0824  0.0242  1.4828
  909MPD2     N13371   0.150   1.779  12.036 -0.6410  0.8055  1.0515
  909MPD2    H513372   0.179   1.875  12.049  0.5347  0.3816  1.5884
  909MPD2    N113373   0.535   1.775  11.745  0.3143  0.2141  0.4786
  909MPD2    H713374   0.547   1.876  11.753  0.1262  0.1464  1.5949
  910MPD2     C13375   2.029   3.581  16.450  0.5710  0.9732  0.1548
  910MPD2    C113376   2.074   3.458  16.425  0.3941  0.7168 -0.2915
  910MPD2    C213377   2.060   3.398  16.303 -0.6449 -0.3544 -0.4184
  910MPD2    C313378   2.004   3.467  16.199 -0.0133  0.2638  0.2986
  910MPD2    C413379   1.971   3.599  16.215  0.1456  0.4653  0.2512
  910MPD2    C513380   1.978   3.655  16.345  0.1253 -0.0349 -0.2964
  910MPD2     H13381   2.099   3.298  16.286  1.6816  0.8197 -1.9885
  910MPD2    H113382   1.937   3.663  16.135  0.7333 -1.8635 -1.8554
  910MPD2    H213383   2.025   3.630  16.546  0.8454 -2.8896  2.1366
  910MPD2    H313384   1.941   3.756  16.361 -1.7672 -0.5767 -1.2582
  910MPD2     N13385   1.964   3.398  16.076 -0.4743  0.4882 -0.1937
  910MPD2    H513386   1.928   3.463  16.006  3.1497  1.1534 -1.4184
  910MPD2    N113387   2.148   3.389  16.520  0.0082 -0.5060  0.8575
  910MPD2    H713388   2.193   3.303  16.489  2.1823  0.4859  1.2278
  911MPD2     C13389   4.382   3.398  16.307 -0.3852  0.9046  0.3949
  911MPD2    C113390   4.457   3.517  16.323 -0.3680 -0.2505  0.3707
  911MPD2    C213391   4.406   3.645  16.294 -0.3259  0.0512  0.4309
  911MPD2    C313392   4.279   3.642  16.238 -0.1204 -0.6885 -0.1244
  911MPD2    C413393   4.214   3.528  16.211  0.0510 -0.3198  0.2072
  911MPD2    C513394   4.256   3.401  16.249  0.7780 -0.0745 -0.6547
  911MPD2     H13395   4.459   3.738  16.306 -0.5217  0.4321 -1.6669
  911MPD2    H113396   4.109   3.531  16.186  0.3830 -0.9655 -1.2208
  911MPD2    H213397   4.415   3.300  16.341  0.9573  1.3960  0.4914
  911MPD2    H313398   4.194   3.313  16.257 -2.0187  2.0307  0.8632
  911MPD2     N13399   4.216   3.758  16.178  0.4823  0.0416  0.6108
  911MPD2    H513400   4.127   3.749  16.130  1.1686  2.2208 -1.0808
  911MPD2    N113401   4.585   3.494  16.381  0.7578  0.3523 -0.2342
  911MPD2    H713402   4.608   3.396  16.378  1.7532  0.5162  2.4460
  912MPD2     C13403   3.909   3.585  15.547  0.1344  0.1667 -0.0194
  912MPD2    C113404   3.952   3.581  15.678 -0.4489 -1.0216 -0.3789
  912MPD2    C213405   3.907   3.481  15.758 -0.1213 -0.8328  0.7660
  912MPD2    C313406   3.841   3.372  15.709  0.4128  0.5308  0.5175
  912MPD2    C413407   3.803   3.367  15.578  0.8417 -0.5684 -0.5116
  912MPD2    C513408   3.844   3.470  15.495 -0.5551 -0.0308  0.3110
  912MPD2     H13409   3.924   3.476  15.865 -1.4784  1.1160  1.0662
  912MPD2    H113410   3.741   3.288  15.538  0.4959 -0.5819  0.0408
  912MPD2    H213411   3.916   3.667  15.477 -0.9052 -0.8468 -1.3224
  912MPD2    H313412   3.790   3.467  15.401  2.0743  0.7623 -1.2456
  912MPD2     N13413   3.802   3.266  15.798  0.1622 -0.6560 -0.6270
  912MPD2    H513414   3.836   3.280  15.892 -4.5839 -0.1542  1.0408
  912MPD2    N113415   4.010   3.695  15.723 -1.1253 -0.3462  0.7484
  912MPD2    H713416   4.030   3.767  15.655 -0.4451 -2.4408 -1.2785
  913MPD2     C13417   4.044   0.282  11.459  0.0746  0.2605  0.4109
  913MPD2    C113418   4.156   0.361  11.424 -0.4696  0.1620 -0.1264
  913MPD2    C213419   4.155   0.419  11.292 -0.1611  0.4123  0.0836
  913MPD2    C313420   4.040   0.404  11.205  0.0328  0.0176  0.1504
  913MPD2    C413421   3.937   0.333  11.260 -0.3591 -0.1547 -0.0212
  913MPD2    C513422   3.936   0.271  11.379  0.3413  0.3303 -0.1093
  913MPD2     H13423   4.241   0.475  11.257  0.4100 -0.0711  0.7135
  913MPD2    H113424   3.850   0.307  11.200 -0.3750 -0.9684  0.3655
  913MPD2    H213425   4.027   0.238  11.556 -2.3695 -0.8572 -0.5178
  913MPD2    H313426   3.846   0.216  11.400 -0.0283  0.5031 -1.2411
  913MPD2     N13427   4.016   0.471  11.085 -0.2309 -0.7164 -0.3515
  913MPD2    H513428   3.923   0.483  11.046 -0.4893  0.9452  0.7686
  913MPD2    N113429   4.259   0.375  11.519 -0.6141  0.4902 -0.8139
  913MPD2    H713430   4.259   0.324  11.607  3.1069  1.4501 -0.2412
  914MPD2     C13431   2.594   0.891  11.994 -0.5267 -0.3380 -0.0744
  914MPD2    C113432   2.487   0.929  12.069 -0.0666 -0.3262 -0.0404
  914MPD2    C213433   2.406   0.840  12.139  0.0331 -0.2233 -0.3169
  914MPD2    C313434   2.433   0.704  12.125  1.1788  0.6268  0.3237
  914MPD2    C413435   2.535   0.662  12.040  0.3470  0.3035 -0.4000
  914MPD2    C513436   2.607   0.757  11.984 -0.2248 -0.0581 -0.2125
  914MPD2     H13437   2.327   0.879  12.202 -0.5244  1.1594 -1.8500
  914MPD2    H113438   2.552   0.555  12.042  1.1881  0.4571  0.3747
  914MPD2    H213439   2.655   0.962  11.939  2.7820 -0.1931  3.8289
  914MPD2    H313440   2.695   0.728  11.928 -0.8828  1.6831 -2.1522
  914MPD2     N13441   2.366   0.618  12.202  0.3638 -0.2344 -0.2209
  914MPD2    H513442   2.276   0.649  12.237  0.2841  0.9359 -1.4732
  914MPD2    N113443   2.479   1.067  12.080  0.1002 -0.8035 -0.2200
  914MPD2    H713444   2.565   1.119  12.067  0.9318 -1.2383  3.5099
  915MPD2     C13445   1.052   0.256  15.131 -0.3237 -0.0030 -0.6261
  915MPD2    C113446   0.934   0.194  15.161 -0.4839  0.5567  0.0469
  915MPD2    C213447   0.877   0.217  15.285 -0.3157 -0.2597 -0.9863
  915MPD2    C313448   0.941   0.307  15.371 -0.0395  0.0215  0.1575
  915MPD2    C413449   1.066   0.347  15.343  0.3060 -0.3408 -0.1262
  915MPD2    C513450   1.122   0.327  15.221  0.4803  0.6062 -0.5003
  915MPD2     H13451   0.779   0.180  15.313  0.4647 -2.2145 -0.8497
  915MPD2    H113452   1.118   0.417  15.407  0.4190  0.1494 -0.7620
  915MPD2    H213453   1.084   0.258  15.027  2.0667 -2.0365  0.0861
  915MPD2    H313454   1.203   0.392  15.191 -0.7620  1.3981 -2.1791
  915MPD2     N13455   0.889   0.344  15.498 -0.5466 -0.2964 -0.9965
  915MPD2    H513456   0.942   0.408  15.556 -0.4699  0.2446 -1.6541
  915MPD2    N113457   0.862   0.126  15.054  0.6897 -0.0784  0.1381
  915MPD2    H713458   0.882   0.134  14.955  1.9519 -0.4347  0.3641
  916MPD2     C13459   3.760   3.945  15.853 -0.1079 -0.4157 -0.0167
  916MPD2    C113460   3.677   3.897  15.949  0.4635  0.1514 -0.1665
  916MPD2    C213461   3.605   3.788  15.920 -0.1542  0.0895 -0.1698
  916MPD2    C313462   3.602   3.735  15.790  0.5301 -0.5114  0.0607
  916MPD2    C413463   3.672   3.796  15.689  0.0888 -0.3230  0.1864
  916MPD2    C513464   3.749   3.906  15.723  0.4790 -0.7844 -0.1946
  916MPD2     H13465   3.546   3.739  15.997  0.9094 -0.9183 -0.0061
  916MPD2    H113466   3.676   3.757  15.588 -0.0258  1.2997 -0.4291
  916MPD2    H213467   3.814   4.039  15.863  0.8029 -1.0484  1.0514
  916MPD2    H313468   3.793   3.968  15.647 -0.3728 -1.3951 -1.1840
  916MPD2     N13469   3.525   3.617  15.763  0.2747  0.2587  0.0970
  916MPD2    H513470   3.501   3.560  15.844 -0.0771 -0.2902 -0.3940
  916MPD2    N113471   3.690   3.960  16.078  0.2546 -0.2335 -0.1746
  916MPD2    H713472   3.744   4.045  16.082  1.0978 -0.8780  1.7319
  917MPD2     C13473   3.395   1.358  11.434  0.7417 -0.3784 -0.1243
  917MPD2    C113474   3.504   1.338  11.512  0.5259 -0.6017  1.1804
  917MPD2    C213475   3.622   1.412  11.492 -0.5789  0.0928  0.4469
  917MPD2    C313476   3.631   1.507  11.388  0.3811 -0.1455 -0.2150
  917MPD2    C413477   3.516   1.529  11.313 -0.1724 -0.6534  0.1875
  917MPD2    C513478   3.400   1.455  11.342  0.1786  0.5198 -0.3341
  917MPD2     H13479   3.713   1.392  11.548 -0.8278  1.6130  1.3989
  917MPD2    H113480   3.513   1.607  11.239 -1.0548 -0.6492  0.2308
  917MPD2    H213481   3.304   1.299  11.444  1.1105 -0.8040  0.6918
  917MPD2    H313482   3.313   1.473  11.280 -0.1356  0.1098 -0.0184
  917MPD2     N13483   3.750   1.580  11.359  0.3769 -1.5020  0.2510
  917MPD2    H513484   3.740   1.636  11.275 -2.0609 -0.4547  1.2377
  917MPD2    N113485   3.489   1.243  11.617 -0.8041  0.8151 -0.0653
  917MPD2    H713486   3.401   1.193  11.622  0.8061 -2.3451 -3.2006
  918MPD2     C13487   3.647   1.512  12.589  0.0067 -0.8138 -0.0740
  918MPD2    C113488   3.741   1.496  12.490 -0.0164 -0.2141  0.4292
  918MPD2    C213489   3.701   1.438  12.368  0.5574 -0.2050 -0.6007
  918MPD2    C313490   3.578   1.376  12.355  0.0996 -0.9728  0.0063
  918MPD2    C413491   3.494   1.382  12.463 -0.3514 -0.0889 -0.5939
  918MPD2    C513492   3.530   1.458  12.575  0.5353  0.1985 -0.6712
  918MPD2     H13493   3.774   1.426  12.288  0.4672 -1.5826 -0.4684
  918MPD2    H113494   3.393   1.341  12.456  0.7971 -2.8680 -1.0607
  918MPD2    H213495   3.673   1.562  12.682 -1.3263 -0.3718  0.0682
  918MPD2    H313496   3.456   1.470  12.654 -0.6771 -2.0822 -1.4531
  918MPD2     N13497   3.544   1.317  12.229  0.6254  0.3369  0.4863
  918MPD2    H513498   3.612   1.314  12.154  0.0786  2.2579 -0.0685
  918MPD2    N113499   3.875   1.544  12.504  0.4489  0.0101  0.1818
  918MPD2    H713500   3.939   1.539  12.426  0.1455 -0.1930 -0.0542
  919MPD2     C13501   4.258   0.568  11.906 -0.0030  0.1542 -0.3790
  919MPD2    C113502   4.189   0.457  11.873 -0.6939 -0.0759 -0.2492
  919MPD2    C213503   4.082   0.459  11.783  0.1778  0.1334 -0.0848
  919MPD2    C313504   4.051   0.585  11.734 -0.8687  0.1716  0.8833
  919MPD2    C413505   4.135   0.695  11.753  0.0792  0.2090  0.1214
  919MPD2    C513506   4.233   0.686  11.848 -0.2314  0.4707 -0.4214
  919MPD2     H13507   4.037   0.372  11.737  2.3844 -0.3140 -1.3965
  919MPD2    H113508   4.115   0.787  11.699 -0.4359 -0.4556 -0.8116
  919MPD2    H213509   4.345   0.563  11.970  0.0002  1.3331 -0.3077
  919MPD2    H313510   4.292   0.776  11.865 -1.8236  1.2190  1.1996
  919MPD2     N13511   3.943   0.620  11.650  0.4319 -0.2459 -0.3755
  919MPD2    H513512   3.948   0.703  11.593  0.1059 -1.0533 -1.5838
  919MPD2    N113513   4.239   0.338  11.918  0.2629 -0.0774 -0.7625
  919MPD2    H713514   4.291   0.339  12.005 -1.2604  2.0667  0.1410
  920MPD2     C13515   3.782   1.016  10.810  0.8639 -0.2847 -0.6626
  920MPD2    C113516   3.677   0.935  10.784 -0.1170  0.0556  0.0191
  920MPD2    C213517   3.651   0.840  10.886 -0.5078  0.6910 -0.7184
  920MPD2    C313518   3.729   0.833  11.002  0.4762  0.1650  0.1516
  920MPD2    C413519   3.817   0.935  11.026  0.0169  0.0933  0.2932
  920MPD2    C513520   3.841   1.025  10.929  0.5478 -0.5088  0.5829
  920MPD2     H13521   3.570   0.768  10.881  2.9028 -2.9664 -3.9399
  920MPD2    H113522   3.866   0.940  11.122  2.0020 -0.5568 -0.6815
  920MPD2    H213523   3.822   1.082  10.734  0.6254 -0.0479 -0.5818
  920MPD2    H313524   3.919   1.098  10.947  0.3633 -0.0890 -0.3076
  920MPD2     N13525   3.703   0.728  11.094 -0.1112  0.5952 -0.2941
  920MPD2    H513526   3.621   0.670  11.079 -0.6503  1.1282  0.5771
  920MPD2    N113527   3.602   0.919  10.667 -0.4452  0.3889  0.4085
  920MPD2    H713528   3.532   0.845  10.665 -1.9984  1.8431  0.6011
  921MPD2     C13529   0.678   3.942  16.887 -0.3629  0.5412  0.1606
  921MPD2    C113530   0.659   3.807  16.901  0.1571  0.7215  0.9793
  921MPD2    C213531   0.538   3.757  16.848  0.2519 -0.1014  0.3837
  921MPD2    C313532   0.455   3.829  16.768  0.1103 -0.0972 -0.4010
  921MPD2    C413533   0.475   3.961  16.746  0.0325 -0.1026 -0.6241
  921MPD2    C513534   0.589   4.018  16.809  0.3754 -0.6026  0.3804
  921MPD2     H13535   0.521   3.650  16.848  0.6551 -0.1660  0.5582
  921MPD2    H113536   0.414   4.026  16.685 -1.6595 -0.5107  0.6674
  921MPD2    H213537   0.764   3.993  16.929 -0.1143  1.2733 -1.2331
  921MPD2    H313538   0.605   4.125  16.813 -0.1302 -0.3925 -2.9584
  921MPD2     N13539   0.340   3.767  16.706 -0.1835 -0.1355 -0.1449
  921MPD2    H513540   0.293   3.823  16.635 -1.3547  1.2672  1.7681
  921MPD2    N113541   0.760   3.731  16.966  0.4302  0.0591  0.0837
  921MPD2    H713542   0.851   3.775  16.974  0.5344 -0.6497  2.9736
  922MPD2     C13543   2.247   1.805  17.329  0.4151  0.2844 -0.1552
  922MPD2    C113544   2.181   1.833  17.447  0.2390 -0.1868 -0.2455
  922MPD2    C213545   2.096   1.739  17.501 -0.0690  0.2554  0.2011
  922MPD2    C313546   2.074   1.622  17.436 -0.3127 -0.0932 -0.3052
  922MPD2    C413547   2.128   1.605  17.309 -0.4305 -0.1572  0.6029
  922MPD2    C513548   2.217   1.696  17.257  0.0961  0.4728 -0.2111
  922MPD2     H13549   2.050   1.752  17.598 -1.4732 -0.2067 -0.4041
  922MPD2    H113550   2.121   1.512  17.252 -1.6694 -0.5237  1.3533
  922MPD2    H213551   2.320   1.874  17.288  2.9127 -1.3946  1.5458
  922MPD2    H313552   2.268   1.681  17.163  0.1663  1.4580 -0.3292
  922MPD2     N13553   1.996   1.519  17.501 -0.6620  0.0441  0.5087
  922MPD2    H513554   1.961   1.546  17.593  1.6089  0.8766  1.1230
  922MPD2    N113555   2.199   1.953  17.518  0.0311 -0.4327 -0.3112
  922MPD2    H713556   2.163   1.967  17.612  0.3454  2.5038 -0.6185
  923MPD2     C13557   3.254   4.038   9.354 -0.0616  0.5831  0.4487
  923MPD2    C113558   3.178   4.150   9.329  0.4682 -0.1770 -0.1479
  923MPD2    C213559   3.236   4.274   9.363 -0.0385 -0.0546 -0.4814
  923MPD2    C313560   3.357   4.292   9.430 -0.3268 -0.2658  0.5717
  923MPD2    C413561   3.429   4.176   9.457 -0.5904 -0.3669  0.4742
  923MPD2    C513562   3.375   4.054   9.413  0.2142 -0.3876  0.4103
  923MPD2     H13563   3.180   4.358   9.324  0.4074 -0.7560 -2.6344
  923MPD2    H113564   3.527   4.186   9.501 -1.5198 -1.3244  2.7529
  923MPD2    H213565   3.210   3.940   9.338  0.4259  0.5001 -0.4083
  923MPD2    H313566   3.434   3.966   9.438  2.1467  0.1374 -2.2847
  923MPD2     N13567   3.413   4.417   9.473 -0.1275 -0.1415  0.4074
  923MPD2    H513568   3.497   4.413   9.531  0.2972 -0.2858 -0.2168
  923MPD2    N113569   3.057   4.121   9.265 -0.5156 -0.1938  0.4688
  923MPD2    H713570   3.035   4.023   9.248  1.3169 -0.4729 -0.2433
  924MPD2     C13571   3.126   2.287  16.151 -0.7027  0.5689  0.1750
  924MPD2    C113572   3.125   2.324  16.282  0.6430  0.7993  0.3019
  924MPD2    C213573   3.084   2.451  16.314 -0.0064  0.0928 -0.6387
  924MPD2    C313574   3.038   2.540  16.222 -0.2619  0.1329 -0.0588
  924MPD2    C413575   3.045   2.499  16.090  0.0146 -0.1311  0.4637
  924MPD2    C513576   3.073   2.371  16.057 -0.5801 -0.3612  0.3349
  924MPD2     H13577   3.084   2.482  16.418  1.5720 -2.3691  0.0931
  924MPD2    H113578   3.007   2.564  16.012  2.4092  0.5435 -0.1361
  924MPD2    H213579   3.143   2.185  16.116 -1.5360  0.9285 -1.2487
  924MPD2    H313580   3.057   2.352  15.951  1.9498 -0.0421 -0.0945
  924MPD2     N13581   2.996   2.671  16.254 -0.1365  0.2320 -0.2239
  924MPD2    H513582   2.936   2.720  16.189  0.7047 -0.0842 -1.2508
  924MPD2    N113583   3.162   2.228  16.382 -0.1229  0.1711 -0.0698
  924MPD2    H713584   3.218   2.152  16.344 -1.1421 -0.8985  0.5443
  925MPD2     C13585   1.659   4.480  14.893 -0.5131  0.3382  0.5289
  925MPD2    C113586   1.523   4.467  14.875 -0.2839 -0.6154 -0.6174
  925MPD2    C213587   1.440   4.507  14.976  0.5682 -0.9267  0.1682
  925MPD2    C313588   1.494   4.572  15.088  0.2075 -0.2334 -0.6243
  925MPD2    C413589   1.626   4.594  15.100  0.1027 -0.7220  0.2859
  925MPD2    C513590   1.704   4.544  15.005  0.7993  0.5076 -0.2983
  925MPD2     H13591   1.334   4.483  14.980  0.5105 -0.8522 -0.8829
  925MPD2    H113592   1.671   4.634  15.189 -0.3862 -1.1918  0.7445
  925MPD2    H213593   1.735   4.449  14.821 -1.2090 -0.4725  0.1430
  925MPD2    H313594   1.811   4.551  15.019  0.9309 -0.7187 -0.6463
  925MPD2     N13595   1.412   4.631  15.189 -0.2573  0.0580  0.1485
  925MPD2    H513596   1.452   4.661  15.277 -0.1256 -1.5944  0.6608
  925MPD2    N113597   1.465   4.403  14.765 -0.4734  0.3340  0.0278
  925MPD2    H713598   1.363   4.407  14.764 -0.5121 -0.8756 -0.9367
  926MPD2     C13599   0.291   2.848  13.202 -0.3012 -0.2046 -0.6067
  926MPD2    C113600   0.332   2.975  13.235  0.7276 -0.5689  0.0987
  926MPD2    C213601   0.368   3.071  13.142  0.0971 -0.2182  0.5063
  926MPD2    C313602   0.386   3.039  13.012  0.3997 -0.5200  0.4162
  926MPD2    C413603   0.339   2.916  12.972  0.1630 -0.4152 -0.5803
  926MPD2    C513604   0.290   2.824  13.062 -0.1393  0.5812  0.6906
  926MPD2     H13605   0.401   3.168  13.177 -1.2629  0.1957  0.6067
  926MPD2    H113606   0.332   2.894  12.866  1.4763 -4.3470  0.1743
  926MPD2    H213607   0.265   2.772  13.275  0.9798  0.2486  0.3220
  926MPD2    H313608   0.266   2.724  13.029 -0.0495  1.1117 -0.9669
  926MPD2     N13609   0.431   3.141  12.919 -0.6280 -0.2143 -0.1060
  926MPD2    H513610   0.429   3.107  12.823 -0.0989  1.1087 -0.5799
  926MPD2    N113611   0.343   3.016  13.376 -0.0131  0.9413 -0.7564
  926MPD2    H713612   0.372   3.113  13.381  0.6557  0.7218 -0.3370
  927MPD2     C13613   0.608   0.036   0.110  0.1228  0.4669 -0.5120
  927MPD2    C113614   0.475   0.061   0.067  0.2088 -0.3108  0.1219
  927MPD2    C213615   0.458   0.095  17.663 -0.1776  0.4557  0.3427
  927MPD2    C313616   0.563   0.106  17.576 -0.0170  0.2614 -0.9970
  927MPD2    C413617   0.692   0.098  17.624  0.1976  0.2073  0.7195
  927MPD2    C513618   0.711   0.062   0.027  0.0802  0.2021  0.0017
  927MPD2     H13619   0.355   0.105  17.632  0.1916  1.9740 -0.4306
  927MPD2    H113620   0.781   0.130  17.571  0.9412 -2.2069  0.4827
  927MPD2    H213621   0.633   0.007   0.211 -1.6141  1.0488  0.0883
  927MPD2    H313622   0.816   0.046   0.051 -0.0606 -1.3017 -0.3803
  927MPD2     N13623   0.551   0.134  17.444 -0.0736  0.2324 -0.3488
  927MPD2    H513624   0.638   0.154  17.396  0.0480 -0.2121 -0.3124
  927MPD2    N113625   0.377   0.060   0.166  0.1876  0.2337  0.5308
  927MPD2    H713626   0.396   0.025   0.259 -0.7080 -0.9805  0.2617
  928MPD2     C13627   2.033   3.779   1.005  0.5662 -0.0447  0.4999
  928MPD2    C113628   2.137   3.852   1.061 -0.3247 -0.4936  0.1244
  928MPD2    C213629   2.256   3.871   0.985 -0.8215 -0.1564 -1.2428
  928MPD2    C313630   2.270   3.817   0.856  0.1891 -0.1828 -0.1316
  928MPD2    C413631   2.173   3.731   0.812  0.0318  0.2342 -0.1989
  928MPD2    C513632   2.050   3.715   0.885  0.1055  0.4927  0.1567
  928MPD2     H13633   2.330   3.940   1.025 -2.6104  1.6085 -0.9948
  928MPD2    H113634   2.193   3.679   0.719 -0.8882  0.7993 -0.7159
  928MPD2    H213635   1.936   3.772   1.053  0.0774  0.9765 -0.3581
  928MPD2    H313636   1.978   3.641   0.852  0.6383  0.6734 -1.4381
  928MPD2     N13637   2.391   3.824   0.784  0.2591 -0.5057  0.1692
  928MPD2    H513638   2.389   3.771   0.697 -0.4454 -2.4333  1.3659
  928MPD2    N113639   2.104   3.923   1.178 -0.1321 -0.2366  0.6001
  928MPD2    H713640   2.009   3.918   1.212  1.1091 -2.1801  3.8233
  929MPD2     C13641   2.815   4.466   9.944  0.3747 -0.6533 -0.4204
  929MPD2    C113642   2.725   4.373   9.895  0.6487 -0.3468 -0.2069
  929MPD2    C213643   2.662   4.395   9.775 -0.4947 -0.0376  0.3890
  929MPD2    C313644   2.673   4.525   9.719 -0.5104  0.0911  0.5538
  929MPD2    C413645   2.752   4.621   9.775  0.2775 -0.0322  0.8783
  929MPD2    C513646   2.821   4.592   9.887  0.2334  0.4631 -0.4876
  929MPD2     H13647   2.579   4.334   9.742 -1.3544 -0.4040  3.3102
  929MPD2    H113648   2.752   4.724   9.741 -0.7863 -0.0550  0.8190
  929MPD2    H213649   2.869   4.453  10.038 -0.0946  0.3499 -0.0063
  929MPD2    H313650   2.870   4.676   9.935  1.5451  0.1613 -1.2824
  929MPD2     N13651   2.595   4.570   9.608  0.2176 -0.1579 -0.0160
  929MPD2    H513652   2.601   4.667   9.577  1.4676 -0.1513  0.2344
  929MPD2    N113653   2.726   4.245   9.954 -0.4414 -0.3849 -0.1265
  929MPD2    H713654   2.779   4.235  10.040  1.1150 -2.0851 -1.2874
  930MPD2     C13655   4.433   0.908  14.174 -0.5806  0.3887  0.3602
  930MPD2    C113656   4.568   0.911  14.181 -0.0748 -0.1297 -0.2286
  930MPD2    C213657   4.636   0.866  14.074  0.7912 -0.0719  0.1098
  930MPD2    C313658   4.571   0.827  13.956  0.2077  0.0662  0.0975
  930MPD2    C413659   4.439   0.817  13.953 -0.0679  0.2364  0.2626
  930MPD2    C513660   4.367   0.861  14.064  0.1024  0.0821 -0.1122
  930MPD2     H13661   0.011   0.885  14.074  0.9836 -1.1452  1.0873
  930MPD2    H113662   4.391   0.787  13.861 -0.9470 -1.3674  1.2324
  930MPD2    H213663   4.358   0.938  14.247 -0.4389  0.3779  0.5112
  930MPD2    H313664   4.259   0.874  14.063  0.1542  0.5267 -0.1423
  930MPD2     N13665   4.646   0.800  13.840 -0.1714  0.0324 -0.3618
  930MPD2    H513666   4.599   0.782  13.752  1.2967 -0.0084 -1.1302
  930MPD2    N113667   4.629   0.983  14.286  0.0475 -0.7361 -0.0869
  930MPD2    H713668   4.564   1.044  14.336 -0.6255 -1.7366  0.2497
  931MPD2     C13669   0.491   4.630   0.764 -0.0919  0.2811  0.9808
  931MPD2    C113670   0.365   4.575   0.729  0.9263 -0.1864 -0.2185
  931MPD2    C213671   0.308   4.484   0.818  0.0135 -0.0488  0.4741
  931MPD2    C313672   0.362   4.464   0.941 -0.3450 -0.6404 -0.1369
  931MPD2    C413673   0.487   4.501   0.966 -0.1919 -0.4919 -0.4557
  931MPD2    C513674   0.545   4.594   0.884 -0.4019 -0.2860 -0.6982
  931MPD2     H13675   0.214   4.434   0.799 -0.8606  1.7741 -0.0216
  931MPD2    H113676   0.540   4.475   1.058  0.9248  1.1187 -0.6455
  931MPD2    H213677   0.541   4.701   0.700  1.8982 -1.9466  0.0696
  931MPD2    H313678   0.644   4.630   0.911 -0.1674 -1.0383 -0.5513
  931MPD2     N13679   0.275   4.422   1.043 -0.4768  0.1854 -0.2225
  931MPD2    H513680   0.177   4.417   1.016 -0.6278 -1.3531  0.5642
  931MPD2    N113681   0.291   4.613   0.613 -0.0395  0.7968 -0.0676
  931MPD2    H713682   0.335   4.683   0.553 -0.9323  1.5223  0.1332
  932MPD2     C13683   1.629   4.729  11.436  0.1446  0.1407 -0.0033
  932MPD2    C113684   1.576   0.004  11.309  0.1565 -0.2515 -0.0526
  932MPD2    C213685   1.557   4.630  11.221  0.1592 -0.8686 -0.9330
  932MPD2    C313686   1.616   4.512  11.266  0.5192  0.4103  0.4548
  932MPD2    C413687   1.669   4.500  11.398 -0.3665  0.4138 -0.0472
  932MPD2    C513688   1.665   4.609  11.481  0.0267  0.3499 -0.0054
  932MPD2     H13689   1.497   4.636  11.130  0.1438  0.0777 -0.8606
  932MPD2    H113690   1.708   4.413  11.449 -3.3652 -0.8142  0.1446
  932MPD2    H213691   1.635   0.085  11.500 -1.7647  0.5483 -0.3752
  932MPD2    H313692   1.699   4.600  11.583  0.3156 -1.2405 -0.2312
  932MPD2     N13693   1.623   4.388  11.195  0.5534 -0.5576 -0.4794
  932MPD2    H513694   1.668   4.311  11.243 -0.1987  0.9547  2.6468
  932MPD2    N113695   1.548   0.135  11.253  0.3070 -0.4163 -0.2379
  932MPD2    H713696   1.501   0.139  11.164  1.6107  1.5043 -0.8401
  933MPD2     C13697   1.695   4.492   1.608  0.1463  0.0869 -0.5159
  933MPD2    C113698   1.788   4.478   1.509  0.6025 -0.6259 -0.7455
  933MPD2    C213699   1.771   4.544   1.391  0.0248  0.5647 -0.1947
  933MPD2    C313700   1.665   4.632   1.377  0.3943 -0.5609  0.4764
  933MPD2    C413701   1.566   4.636   1.476 -0.1565 -0.5586  0.1497
  933MPD2    C513702   1.582   4.569   1.595 -0.1855  0.3976 -0.1979
  933MPD2     H13703   1.839   4.525   1.310 -0.2999 -1.9231  0.1091
  933MPD2    H113704   1.468   4.683   1.469  0.6078  1.6706  4.8272
  933MPD2    H213705   1.716   4.448   1.704 -1.0220  1.2783  0.2790
  933MPD2    H313706   1.513   4.585   1.678  1.6351 -1.8531  1.7754
  933MPD2     N13707   1.662   4.694   1.252  0.4038 -0.3564  0.1843
  933MPD2    H513708   1.735   4.672   1.184  1.1580 -2.1494  1.5968
  933MPD2    N113709   1.897   4.395   1.522 -0.0341 -0.2030  0.2039
  933MPD2    H713710   1.896   4.346   1.611 -0.8962 -0.7330 -0.1029
  934MPD2     C13711   4.161   1.787   1.131 -0.8293  0.1878 -0.1188
  934MPD2    C113712   4.254   1.685   1.138  0.4154  0.0438 -0.6527
  934MPD2    C213713   4.208   1.553   1.147  0.1886  0.2299 -0.0230
  934MPD2    C313714   4.075   1.521   1.135 -0.4596 -0.0806 -0.0609
  934MPD2    C413715   3.986   1.620   1.105 -0.0175  0.3471 -0.3308
  934MPD2    C513716   4.029   1.748   1.104 -0.7408 -0.0036  0.0511
  934MPD2     H13717   4.273   1.477   1.190  0.9084 -0.5458 -2.4622
  934MPD2    H113718   3.879   1.604   1.093  0.1065 -1.3613  0.7926
  934MPD2    H213719   4.188   1.892   1.122  0.3685 -0.0419  0.7271
  934MPD2    H313720   3.950   1.821   1.090 -1.1312 -0.7922 -1.8839
  934MPD2     N13721   4.023   1.395   1.141 -0.3308 -0.2066 -0.4756
  934MPD2    H513722   3.926   1.395   1.111 -0.4460 -3.2481 -0.0421
  934MPD2    N113723   4.396   1.718   1.148 -0.5891  0.6080  0.3494
  934MPD2    H713724   4.461   1.642   1.165  0.4329  1.4112  0.0718
  935MPD2     C13725   4.477   0.509   0.872  0.1922 -0.1280  0.3663
  935MPD2    C113726   4.338   0.498   0.856 -0.6104  0.8436 -0.2968
  935MPD2    C213727   4.258   0.602   0.890 -0.4100 -0.1260 -1.2583
  935MPD2    C313728   4.304   0.720   0.946 -0.2540 -0.4658 -0.0140
  935MPD2    C413729   4.444   0.731   0.956  0.9432 -1.5344 -0.0538
  935MPD2    C513730   4.529   0.629   0.918  0.2518 -0.0408 -0.1747
  935MPD2     H13731   4.152   0.585   0.875 -0.6415 -2.2860  2.9348
  935MPD2    H113732   4.495   0.819   0.993 -0.9081 -0.8066  0.7659
  935MPD2    H213733   4.543   0.425   0.851  1.0337  0.3826  0.9538
  935MPD2    H313734   4.636   0.633   0.931  0.3610  1.0418 -1.3326
  935MPD2     N13735   4.218   0.819   1.004 -0.0083 -0.4221  0.0835
  935MPD2    H513736   4.255   0.889   1.068  1.1560 -0.8650 -0.1010
  935MPD2    N113737   4.276   0.380   0.810 -0.2058 -0.3314  0.0583
  935MPD2    H713738   4.176   0.390   0.797 -0.4440 -0.7096  1.6876
  936MPD2     C13739   1.796   3.176  12.137  0.9504 -0.0083 -0.2568
  936MPD2    C113740   1.870   3.146  12.250  0.5030 -0.0751  0.4331
  936MPD2    C213741   1.965   3.241  12.285 -0.1416  0.1461 -0.1572
  936MPD2    C313742   1.992   3.350  12.203 -0.0842 -0.2830 -0.3601
  936MPD2    C413743   1.915   3.367  12.092 -0.4857  0.2677 -0.3243
  936MPD2    C513744   1.810   3.288  12.065 -0.5897 -0.3260 -0.2310
  936MPD2     H13745   2.021   3.222  12.375 -0.8757  2.3104  0.7549
  936MPD2    H113746   1.928   3.455  12.030  0.5080  1.7062  1.8942
  936MPD2    H213747   1.714   3.108  12.115  1.4955 -0.6966 -0.1479
  936MPD2    H313748   1.753   3.309  11.975 -3.1783 -2.4574  0.8934
  936MPD2     N13749   2.089   3.448  12.228  0.4090  0.3375  0.3017
  936MPD2    H513750   2.114   3.516  12.158 -3.7932  2.2706  0.6484
  936MPD2    N113751   1.880   3.025  12.320 -0.0140  0.0525  0.1389
  936MPD2    H713752   1.934   3.028  12.405  1.0163 -0.9442 -0.4818
  937MPD2     C13753   4.570   4.322  11.761 -0.5212  0.1907 -0.9198
  937MPD2    C113754   4.599   4.457  11.789 -0.3806 -0.0995 -0.2480
  937MPD2    C213755   4.713   4.505  11.721  0.3150 -0.4155  0.6154
  937MPD2    C313756   0.067   4.424  11.645  0.0571  0.1391 -0.6484
  937MPD2    C413757   0.046   4.288  11.636 -0.4239 -0.0711 -0.2405
  937MPD2    C513758   4.660   4.241  11.691  0.0714 -0.6207 -0.0157
  937MPD2     H13759   0.019   4.605  11.740 -1.4872  0.3597 -0.0033
  937MPD2    H113760   0.099   4.215  11.577 -0.1005 -0.3398  0.3849
  937MPD2    H213761   4.485   4.263  11.794  1.3151 -1.5671  0.6746
  937MPD2    H313762   4.635   4.135  11.695 -1.7249 -0.1694  0.3324
  937MPD2     N13763   0.185   4.493  11.599  0.2718  0.4068  0.4468
  937MPD2    H513764   0.187   4.594  11.609  0.1473  0.4852 -0.2834
  937MPD2    N113765   4.504   4.552  11.844  0.1489  0.0517 -0.7934
  937MPD2    H713766   4.537   4.647  11.857 -0.3788 -0.0934  1.5744
  938MPD2     C13767   2.446   0.595   0.593 -0.8124 -0.5070  0.0378
  938MPD2    C113768   2.514   0.680   0.682 -0.0150 -0.1032  0.1136
  938MPD2    C213769   2.544   0.634   0.805 -0.0717 -0.8264  0.9199
  938MPD2    C313770   2.492   0.517   0.855 -0.4032 -0.0277  0.5001
  938MPD2    C413771   2.417   0.443   0.772 -0.0968  0.2655 -0.3574
  938MPD2    C513772   2.401   0.478   0.637 -0.3485 -0.2408 -1.0223
  938MPD2     H13773   2.607   0.697   0.866 -1.0566 -0.7748  1.8899
  938MPD2    H113774   2.372   0.349   0.803  2.1842 -0.2625  1.2760
  938MPD2    H213775   2.413   0.625   0.494  0.3847 -0.9243 -0.4817
  938MPD2    H313776   2.339   0.415   0.574 -1.5328  0.0846 -0.1789
  938MPD2     N13777   2.501   0.470   0.992 -0.7546  0.0800 -0.0538
  938MPD2    H513778   2.454   0.384   1.015 -1.1166  0.0163 -1.0046
  938MPD2    N113779   2.539   0.819   0.649 -0.5885  0.4311  0.0393
  938MPD2    H713780   2.575   0.875   0.725 -1.3039 -1.1868  1.5843
  939MPD2     C13781   3.758   2.444   0.249 -0.2598 -0.2066  0.4110
  939MPD2    C113782   3.673   2.364   0.314  0.1263  0.6863 -0.5517
  939MPD2    C213783   3.674   2.230   0.293  0.6792 -0.2108 -0.6729
  939MPD2    C313784   3.768   2.175   0.212 -0.7444 -0.1005 -0.0666
  939MPD2    C413785   3.855   2.248   0.145  0.1039  0.3169 -0.1343
  939MPD2    C513786   3.845   2.394   0.154 -0.7800 -0.7161 -0.0762
  939MPD2     H13787   3.600   2.160   0.331  0.2914  0.3196 -0.4568
  939MPD2    H113788   3.922   2.214   0.067 -0.3710 -0.0295 -0.3873
  939MPD2    H213789   3.754   2.552   0.262 -0.6189 -0.5859  3.6364
  939MPD2    H313790   3.914   2.464   0.108 -1.1106 -2.7015 -3.5335
  939MPD2     N13791   3.770   2.033   0.209 -0.1598  0.3558  0.2996
  939MPD2    H513792   3.713   1.984   0.279 -1.2309 -0.0476 -0.8483
  939MPD2    N113793   3.589   2.419   0.413 -0.4798  0.0641  0.3568
  939MPD2    H713794   3.583   2.519   0.428  2.6954 -0.0693  2.4515
  940MPD2     C13795   3.284   3.202  13.095  0.4757 -0.7476 -0.6268
  940MPD2    C113796   3.160   3.136  13.092 -0.4500  0.2497 -0.5598
  940MPD2    C213797   3.083   3.146  12.977  0.4392 -0.1466 -0.5964
  940MPD2    C313798   3.127   3.204  12.857 -0.2057  1.0421 -0.5962
  940MPD2    C413799   3.251   3.261  12.863 -0.4907 -0.3911  0.2576
  940MPD2    C513800   3.326   3.259  12.974 -0.4972 -0.2701 -0.8420
  940MPD2     H13801   2.986   3.099  12.980  0.1394  0.5063  0.0527
  940MPD2    H113802   3.299   3.307  12.778 -2.7787  1.0084 -0.2888
  940MPD2    H213803   3.346   3.210  13.183 -0.5951  3.2679 -0.2120
  940MPD2    H313804   3.423   3.307  12.976 -0.2055 -0.8571 -0.7709
  940MPD2     N13805   3.058   3.201  12.735 -0.0602 -0.4893  0.5265
  940MPD2    H513806   3.116   3.239  12.660  0.4295  0.6924  1.5024
  940MPD2    N113807   3.102   3.082  13.210 -0.3444  0.4461 -0.7689
  940MPD2    H713808   3.010   3.045  13.190 -0.9188  2.0742 -1.1478
  941MPD2     C13809   2.355   2.224   9.987 -0.0665 -0.2210  0.0989
  941MPD2    C113810   2.353   2.173   9.860 -0.1647  0.8478  0.0135
  941MPD2    C213811   2.283   2.057   9.843  0.0262  0.4926  0.0245
  941MPD2    C313812   2.201   2.006   9.940  0.3152  0.9938  0.7509
  941MPD2    C413813   2.193   2.071  10.057 -0.4422  0.0613 -0.2652
  941MPD2    C513814   2.268   2.180  10.086 -0.0523 -0.6302  0.0586
  941MPD2     H13815   2.276   2.016   9.743  0.3584  0.3299  0.0683
  941MPD2    H113816   2.125   2.034  10.133  0.9852 -0.3964  0.7707
  941MPD2    H213817   2.413   2.311  10.014  0.0692 -0.0206 -0.8489
  941MPD2    H313818   2.258   2.227  10.183  3.7278 -1.2513  0.7605
  941MPD2     N13819   2.128   1.884   9.925  0.1634  0.2876 -0.4094
  941MPD2    H513820   2.056   1.865   9.994  1.3580 -0.9922  0.4690
  941MPD2    N113821   2.419   2.233   9.743 -0.4351  0.2331 -0.1704
  941MPD2    H713822   2.396   2.196   9.652 -0.1418  0.3906 -0.3091
  942MPD2     C13823   2.440   3.858   9.207 -0.1387  0.1530  0.3156
  942MPD2    C113824   2.578   3.830   9.230 -0.1615  0.6783 -0.7168
  942MPD2    C213825   2.647   3.916   9.313  0.1847  0.3013  0.7071
  942MPD2    C313826   2.592   4.033   9.362  0.3606  0.1994 -0.3282
  942MPD2    C413827   2.467   4.067   9.311 -0.2330  0.2922 -0.2148
  942MPD2    C513828   2.383   3.980   9.243 -0.0123  0.3361 -0.0654
  942MPD2     H13829   2.751   3.894   9.332 -0.2439  0.0177  2.7419
  942MPD2    H113830   2.435   4.167   9.337  0.0990  0.4638 -0.4635
  942MPD2    H213831   2.380   3.802   9.136 -1.0916 -0.5377  1.6704
  942MPD2    H313832   2.283   4.008   9.210  0.6859  0.4649 -2.1291
  942MPD2     N13833   2.659   4.123   9.453  0.3026 -0.0178  0.1386
  942MPD2    H513834   2.605   4.204   9.481 -0.7117 -1.6761  3.0089
  942MPD2    N113835   2.639   3.709   9.189  0.5189  0.1520  0.0903
  942MPD2    H713836   2.725   3.678   9.235 -0.8340  0.8683  3.1331
  943MPD2     C13837   0.542   1.459  10.329  0.2734 -0.5107 -0.5177
  943MPD2    C113838   0.430   1.520  10.367  0.3324  0.4974  0.7754
  943MPD2    C213839   0.431   1.649  10.422 -0.3553 -0.2365 -0.3059
  943MPD2    C313840   0.552   1.708  10.446 -0.5326  0.4278  0.0747
  943MPD2    C413841   0.666   1.658  10.383 -0.3209  0.2015  0.1739
  943MPD2    C513842   0.661   1.533  10.332 -0.2276  0.2587 -1.4133
  943MPD2     H13843   0.337   1.694  10.452 -0.2334 -0.2565  0.1064
  943MPD2    H113844   0.757   1.716  10.389 -1.5547  2.4063 -2.5443
  943MPD2    H213845   0.534   1.358  10.291 -0.0380 -0.8080  0.3494
  943MPD2    H313846   0.748   1.478  10.297 -0.7668 -1.1192 -0.5577
  943MPD2     N13847   0.560   1.834  10.510  0.2560 -0.0709 -0.4025
  943MPD2    H513848   0.655   1.870  10.513 -0.1815  0.8820  2.6620
  943MPD2    N113849   0.313   1.448  10.343 -0.0808 -0.0022 -0.8751
  943MPD2    H713850   0.328   1.360  10.294 -2.3268 -0.1692 -1.2465
  944MPD2     C13851   4.465   0.835  11.163  0.0819 -0.9663 -0.7780
  944MPD2    C113852   4.531   0.936  11.095 -0.1221 -0.5245  0.5258
  944MPD2    C213853   4.566   1.053  11.159 -0.2966  0.2128  0.1722
  944MPD2    C313854   4.539   1.063  11.293 -0.2422  0.1248  0.1185
  944MPD2    C413855   4.465   0.966  11.353 -0.1154  0.0751 -0.8260
  944MPD2    C513856   4.438   0.849  11.290  0.3044 -0.2250 -0.3359
  944MPD2     H13857   4.616   1.132  11.104 -0.7994 -0.7677 -1.7301
  944MPD2    H113858   4.432   0.972  11.456 -0.5058  2.0232 -1.0503
  944MPD2    H213859   4.424   0.747  11.117 -1.4246  0.3764 -2.0096
  944MPD2    H313860   4.374   0.775  11.336  2.6296 -1.6740  0.5910
  944MPD2     N13861   4.578   1.180  11.360  1.2523 -0.0186 -0.3136
  944MPD2    H513862   4.624   1.244  11.297  1.1233 -0.9215 -1.3180
  944MPD2    N113863   4.547   0.917  10.956  0.3134 -0.0499 -0.4939
  944MPD2    H713864   4.524   0.822  10.927  0.4313 -0.0668 -0.5322
    1TMC1    C113865   2.462   1.913  14.615  0.7703 -0.4084  0.1741
    1TMC1    C213866   2.409   1.955  14.500 -0.4017 -0.4644  0.2675
    1TMC1    C313867   2.357   1.859  14.423 -0.4335 -0.3467 -0.5509
    1TMC1    C413868   2.453   1.783  14.660  0.5698 -0.2104 -0.2986
    1TMC1    C513869   2.395   1.690  14.578 -0.4657 -0.0941 -0.2484
    1TMC1    C613870   2.347   1.727  14.460 -0.3329 -0.0620 -0.1180
    1TMC1     C13871   2.578   1.979  14.672  0.1266 -0.0902  0.0554
    1TMC1     O13872   2.615   1.944  14.786 -0.1368  0.2085  0.5943
    1TMC1     H13873   2.418   2.055  14.458  0.0785 -0.6432 -0.0616
    1TMC1    H113874   2.500   1.751  14.752  1.9595 -0.5124 -1.1151
    1TMC1    H213875   2.304   1.656  14.390 -0.4237 -1.0621  0.9648
    1TMC1    C713876   2.372   1.557  14.610  0.1420  0.1101 -0.3518
    1TMC1    C813877   2.325   1.902  14.288  0.1416  0.8470  0.4217
    1TMC1    O113878   2.287   1.493  14.547  0.3754  0.0882 -0.1623
    1TMC1    O213879   2.327   1.832  14.186 -0.2681 -0.2615  0.2498
    1TMC1    O313880   2.445   1.513  14.712 -0.2125 -0.4073 -0.1287
    1TMC1    H313881   2.530   1.557  14.730 -0.5423 -0.9595  2.8223
    1TMC1    O513882   2.246   2.009  14.301  0.0081 -0.0177 -0.2383
    1TMC1    H513883   2.224   2.033  14.393  0.2752 -2.1321  0.3865
    2MPD2     C13884   3.007   2.289  14.652 -0.2278 -0.2458  0.0825
    2MPD2    C113885   2.953   2.265  14.526  0.3499 -0.4165 -0.1114
    2MPD2    C213886   2.828   2.204  14.509 -0.0905  0.0211 -0.3988
    2MPD2    C313887   2.764   2.133  14.606  0.1812  0.0894  0.7139
    2MPD2    C413888   2.819   2.153  14.734  0.3074 -0.6921 -0.6213
    2MPD2    C513889   2.937   2.232  14.758  0.5374  0.0325  0.0919
    2MPD2     H13890   2.790   2.199  14.408  1.0781  1.6825 -0.9252
    2MPD2    H113891   2.780   2.109  14.825  2.1122 -0.3067  0.3424
    2MPD2    H213892   3.093   2.354  14.668 -0.3669 -0.1198  0.3219
    2MPD2    H313893   2.985   2.235  14.855 -0.9675  0.5203  0.8299
    2MPD2     N13894   2.646   2.062  14.582  0.2318 -0.2802  0.2993
    2MPD2    H513895   2.618   2.072  14.485 -0.3005 -0.5643  0.4205
    2MPD2    N113896   3.021   2.317  14.416 -0.3032  0.4274  0.3461
    2MPD2    H713897   3.097   2.381  14.436  0.5278 -0.3607 -0.2928
    3TMC2    C113898   3.100   2.362  14.207 -0.1051  0.0403 -0.6742
    3TMC2    C213899   3.229   2.369  14.258 -0.6250 -0.4542  0.1231
    3TMC2    C313900   3.323   2.430  14.181 -0.1137 -0.2853 -0.5293
    3TMC2    C413901   3.070   2.394  14.076  0.3921 -0.0124  0.0345
    3TMC2    C513902   3.171   2.443  13.997  0.5317 -0.1698 -0.1977
    3TMC2    C613903   3.300   2.460  14.046 -0.5749  0.5604 -0.1092
    3TMC2     C13904   2.995   2.305  14.283 -0.2654  0.1459  0.1336
    3TMC2     O13905   2.909   2.242  14.226  0.2194 -0.7246  0.1314
    3TMC2     H13906   3.256   2.349  14.361  2.2319  2.8022  0.0177
    3TMC2    H113907   2.971   2.376  14.034 -0.0453 -0.5557  1.3094
    3TMC2    H213908   3.381   2.485  13.979 -1.0174  0.5352 -0.6585
    3TMC2    C713909   3.139   2.483  13.865  0.9289  0.4984  0.1160
    3TMC2    C813910   3.463   2.408  14.227 -0.9974 -0.2528  0.2744
    3TMC2    O113911   3.034   2.438  13.810  0.2481  0.0142 -0.6243
    3TMC2    O213912   3.491   2.334  14.321 -0.0662  0.5120  0.6752
    3TMC2    O513913   3.526   2.523  14.186 -0.3930 -0.1635 -0.5563
    3TMC2    H513914   3.470   2.587  14.137 -0.2623  1.2865  1.1792
    4TMC2    C113915   3.613   3.293  13.460  0.1958 -0.0578  0.0956
    4TMC2    C213916   3.751   3.266  13.445  0.1921  0.0686 -0.4948
    4TMC2    C313917   3.793   3.153  13.510 -0.6705 -0.2808 -0.2928
    4TMC2    C413918   3.519   3.197  13.522 -0.1321  0.5755  0.0004
    4TMC2    C513919   3.581   3.091  13.587  1.1076  0.4686 -0.7873
    4TMC2    C613920   3.718   3.068  13.585 -0.1358  0.2330 -0.3212
    4TMC2     C13921   3.562   3.411  13.398  0.9773  0.2368  0.4603
    4TMC2     O13922   3.642   3.497  13.364  0.1962 -0.1986  0.4795
    4TMC2     H13923   3.817   3.339  13.399 -0.2167  0.6845 -0.1081
    4TMC2    H113924   3.417   3.220  13.548 -0.3091  0.8450 -0.9051
    4TMC2    H213925   3.761   2.989  13.646  1.7170  0.9053 -0.7419
    4TMC2    C713926   3.507   2.982  13.636 -0.0468 -0.1136  0.7763
    4TMC2    C813927   3.942   3.142  13.515 -0.2984  0.1679  0.2285
    4TMC2    O113928   3.545   2.932  13.741  0.7540  0.2661  0.1315
    4TMC2    O213929   4.014   3.237  13.488 -0.1942 -0.0366 -0.3940
    4TMC2    O513930   3.975   3.015  13.496  0.3560  0.4165 -0.3694
    4TMC2    H513931   3.900   2.953  13.509 -1.9069  2.6318 -3.1175
    5MPD2     C13932   3.186   3.679  13.158  0.7183  0.2047  0.1715
    5MPD2    C113933   3.134   3.556  13.192  0.1292 -0.0154  0.8681
    5MPD2    C213934   3.209   3.469  13.276  0.1676  0.0355  0.3375
    5MPD2    C313935   3.346   3.493  13.298  0.0455  0.3823 -0.0508
    5MPD2    C413936   3.397   3.620  13.262  0.4613  0.5872 -0.2253
    5MPD2    C513937   3.315   3.712  13.197 -0.2702  0.8696 -0.0813
    5MPD2     H13938   3.159   3.379  13.309 -0.4681  0.4028  0.3861
    5MPD2    H113939   3.497   3.661  13.275  1.2630 -2.1425  2.0279
    5MPD2    H213940   3.123   3.748  13.102  0.6638  0.9546  1.1521
    5MPD2    H313941   3.361   3.807  13.169 -0.1076  1.0558  0.8128
    5MPD2     N13942   3.429   3.399  13.371  0.2706 -0.6082 -0.0189
    5MPD2    H513943   3.393   3.308  13.398  3.2233 -1.8220 -0.1681
    5MPD2    N113944   3.010   3.517  13.141  0.1514 -0.6154 -0.3363
    5MPD2    H713945   2.969   3.576  13.070 -0.8162 -0.6560  0.1846
    6MPD1     C13946   1.579   4.657  13.220 -0.4004 -0.3778 -0.6045
    6MPD1    C113947   1.581   4.608  13.094 -0.2911  1.1811 -0.2309
    6MPD1    C213948   1.656   4.495  13.063 -0.2303  0.7345  0.1125
    6MPD1    C313949   1.721   4.420  13.163 -0.5363 -0.5160 -0.4212
    6MPD1    C413950   1.703   4.462  13.292  0.2223  0.0136 -0.7536
    6MPD1    C513951   1.642   4.583  13.316 -0.1745  0.7274 -0.0374
    6MPD1     H13952   1.660   4.459  12.961 -1.4219  0.2434  0.2467
    6MPD1    H113953   1.734   4.406  13.379  0.7916  1.6338  0.0727
    6MPD1    H213954   1.525   0.014  13.252  0.9480  1.3393 -3.0875
    6MPD1    H313955   1.634   4.610  13.420  0.0735 -1.8991  0.6808
    6MPD1     N13956   1.781   4.291  13.139  0.0290 -0.1413 -0.3682
    6MPD1    H513957   1.792   4.229  13.219  2.5657 -1.4067 -1.6988
    6MPD1    N113958   1.516   4.689  13.000 -0.6663  0.1682  0.3604
    6MPD1    H613959   1.444   0.016  13.042 -0.3446  0.7218  0.1332
    6MPD1    H713960   1.488   4.634  12.919 -3.4073  0.1739  1.2949
    7MPD2     C13961   2.191   3.709  13.463 -0.1030  0.3904  0.6930
    7MPD2    C113962   2.192   3.694  13.327 -0.4344  0.4076 -0.5717
    7MPD2    C213963   2.287   3.604  13.272 -1.0450 -0.3454  0.2372
    7MPD2    C313964   2.374   3.529  13.346  0.0353 -0.2137  0.5360
    7MPD2    C413965   2.371   3.540  13.485  0.3278 -0.0856  0.1798
    7MPD2    C513966   2.276   3.627  13.537 -0.1919 -0.1569 -0.7386
    7MPD2     H13967   2.290   3.601  13.163 -2.1666  0.1692  0.1893
    7MPD2    H113968   2.423   3.475  13.554 -0.2851  0.3977  1.1046
    7MPD2    H213969   2.131   3.785  13.512  0.8180  1.6592 -0.1456
    7MPD2    H313970   2.282   3.643  13.645 -0.2352 -0.6378 -0.6662
    7MPD2     N13971   2.468   3.435  13.290  0.2237 -0.1715 -0.2629
    7MPD2    H513972   2.547   3.404  13.345 -0.3589 -0.6004  0.3270
    7MPD2    N113973   2.120   3.778  13.234  0.2813 -0.2059  0.5116
    7MPD2    H713974   2.126   3.742  13.139 -3.0719  2.0431 -0.5561
    8TMC3    C113975   2.596   3.345  13.104 -0.0581  0.4200  0.1680
    8TMC3    C213976   2.702   3.373  13.174  0.1521 -0.8959 -0.4828
    8TMC3    C313977   2.816   3.388  13.104  0.2385  0.4419  0.5794
    8TMC3    C413978   2.595   3.333  12.967  0.1038  0.4378  0.0080
    8TMC3    C513979   2.710   3.360  12.893 -0.7561  0.6488 -0.2089
    8TMC3    C613980   2.824   3.391  12.968  0.3926 -0.0458 -0.3146
    8TMC3     C13981   2.468   3.397  13.156 -0.2402 -0.0481 -0.1784
    8TMC3     O13982   2.394   3.431  13.065  0.2094  0.4368  0.3307
    8TMC3     H13983   2.702   3.365  13.282  0.0280 -3.3299 -0.6563
    8TMC3    H113984   2.505   3.302  12.916 -0.2039  0.9923  0.2178
    8TMC3    H213985   2.924   3.392  12.926  1.1461  1.5066  1.5245
    8TMC3    C713986   2.693   3.462  12.795 -0.8142  0.4167 -0.8494
    8TMC3    C813987   2.935   3.409  13.188  0.7468  0.1218  0.0181
    8TMC3    O113988   2.799   3.506  12.749  0.5035 -0.0571 -0.0984
    8TMC3    O213989   2.938   3.347  13.298  0.1602  0.1010 -0.0078
    9TMC3    C113990   1.905   4.128  13.014  0.1454 -0.3289 -0.1604
    9TMC3    C213991   1.984   4.103  12.903  0.0869  0.6401 -0.0194
    9TMC3    C313992   2.080   4.004  12.906 -0.0844  0.5207  0.2076
    9TMC3    C413993   1.931   4.055  13.125  0.4329  0.4803  0.0278
    9TMC3    C513994   2.023   3.960  13.128  0.0962 -0.0226 -0.7125
    9TMC3    C613995   2.100   3.933  13.016 -0.2547  0.4406 -0.3823
    9TMC3     C13996   1.837   4.258  13.020 -1.0247 -0.6487  0.3731
    9TMC3     O13997   1.830   4.319  12.914 -0.3682 -0.4939  0.1419
    9TMC3     H13998   1.964   4.158  12.812 -2.4174  1.1549  0.8235
    9TMC3    H113999   1.861   4.071  13.207 -1.1978 -0.2613 -1.2161
    9TMC3    H214000   2.196   3.887  13.035 -0.1425  1.2698  1.0730
    9TMC3    C714001   2.045   3.893  13.258 -0.8582  0.0113 -0.1585
    9TMC3    C814002   2.167   3.980  12.799 -0.3487 -0.0601 -0.3467
    9TMC3    O114003   2.015   3.952  13.365 -0.0996  0.6710 -0.2924
    9TMC3    O214004   2.206   4.073  12.734  0.0484  0.6666 -0.1990
   10MPD2     C14005   2.600   3.728  12.662 -0.1824  0.5774 -0.3257
   10MPD2    C114006   2.527   3.646  12.749  0.1940  0.1293  0.1827
   10MPD2    C214007   2.402   3.692  12.791  0.0503  0.5078  0.1542
   10MPD2    C314008   2.342   3.809  12.746 -0.1334  0.3655  0.3822
   10MPD2    C414009   2.412   3.874  12.647  0.2503  0.8374 -0.9052
   10MPD2    C514010   2.534   3.840  12.615 -0.8978 -0.6790 -0.0986
   10MPD2     H14011   2.355   3.632  12.868 -0.4661  0.4943 -0.1788
   10MPD2    H114012   2.356   3.957  12.603  0.4917  1.1800 -0.5626
   10MPD2    H214013   2.699   3.707  12.621  0.4736  0.6346  1.2422
   10MPD2    H314014   2.586   3.910  12.550 -0.8647 -0.8416 -0.2469
   10MPD2     N14015   2.223   3.847  12.803  0.3396 -0.4288 -0.3107
   10MPD2    H514016   2.178   3.780  12.865  1.7591  0.4939  1.7207
   10MPD2    N114017   2.568   3.522  12.801  0.6983  0.0035 -0.6582
   10MPD2    H714018   2.506   3.489  12.874  1.2100  0.5543  0.0321
   11MPD2     C14019   3.164   2.611  13.593  0.4120  0.2252  0.0567
   11MPD2    C114020   3.237   2.646  13.697  0.2578 -0.5250  0.1524
   11MPD2    C214021   3.318   2.758  13.685 -0.2236  0.0423  0.8574
   11MPD2    C314022   3.330   2.830  13.567 -0.2322  0.0822 -0.4369
   11MPD2    C414023   3.257   2.785  13.461 -0.9580 -0.7484 -0.0154
   11MPD2    C514024   3.175   2.680  13.478 -0.4172 -0.6267  0.4427
   11MPD2     H14025   3.351   2.795  13.781  1.3814 -1.6668  0.9595
   11MPD2    H114026   3.264   2.837  13.366 -1.2672 -2.1666 -0.8162
   11MPD2    H214027   3.092   2.529  13.594  0.0971  0.5010  0.1603
   11MPD2    H314028   3.115   2.663  13.389 -0.5476  3.3023 -0.1998
   11MPD2     N14029   3.421   2.942  13.549  0.6970  0.3193  0.7244
   11MPD2    H514030   3.406   2.994  13.464 -1.1817  0.6181  1.2396
   11MPD2    N114031   3.226   2.583  13.822 -0.9812  0.0166 -0.4947
   11MPD2    H714032   3.286   2.611  13.899 -2.2043  0.3593  0.3315
    1MPD1     C14033   2.159   4.191  17.395 -0.2032  0.2755 -0.6318
    1MPD1    C114034   2.151   4.326  17.392  0.5244 -0.3097 -0.0071
    1MPD1    C214035   2.025   4.389  17.413  0.2011 -0.2899 -0.0787
    1MPD1    C314036   1.912   4.305  17.443 -0.4811 -0.5794 -0.2283
    1MPD1    C414037   1.928   4.172  17.424 -0.2812  0.5298 -0.3264
    1MPD1    C514038   2.049   4.115  17.411  0.0623  0.0922  0.1558
    1MPD1     H14039   2.027   4.497  17.419  0.0083 -0.2370 -1.1201
    1MPD1    H114040   1.850   4.100  17.446  1.1171 -0.7901  0.2979
    1MPD1    H214041   2.252   4.137  17.383 -0.4302 -0.0645 -0.8550
    1MPD1    H314042   2.064   4.008  17.405 -0.7527  0.0275 -0.8469
    1MPD1     N14043   1.781   4.365  17.455 -0.1020 -0.1688 -0.6185
    1MPD1    H514044   1.713   4.292  17.471  0.9540 -0.9036  0.5623
    1MPD1    N114045   2.261   4.403  17.391  0.2799  0.4989 -0.0146
    1MPD1    H614046   2.338   4.353  17.347  0.0140  0.2564 -0.2052
    1MPD1    H714047   2.255   4.484  17.330  0.5015  0.1756 -0.4683
    2MPD1     C14048   1.439   0.479  17.142 -0.0490  0.3870  0.1232
    2MPD1    C114049   1.549   0.457  17.218  0.3393 -0.4205 -0.5986
    2MPD1    C214050   1.552   0.339  17.293  0.4094  1.1965  0.2618
    2MPD1    C314051   1.444   0.255  17.307  0.6814  0.0170 -0.4990
    2MPD1    C414052   1.338   0.279  17.231 -0.6970  0.0901  0.2056
    2MPD1    C514053   1.330   0.391  17.157  0.0662 -0.1344 -0.6006
    2MPD1     H14054   1.648   0.310  17.335 -0.8479 -1.8069  1.0786
    2MPD1    H114055   1.247   0.220  17.232  0.0190 -1.0114 -1.5939
    2MPD1    H214056   1.431   0.562  17.074 -0.1373 -0.8598 -1.3970
    2MPD1    H314057   1.235   0.406  17.107  0.6864  3.1809 -0.7991
    2MPD1     N14058   1.460   0.148  17.395  0.2476  0.4907  0.5032
    2MPD1    H514059   1.554   0.142  17.430 -0.1479 -0.4238  1.4011
    2MPD1    N114060   1.657   0.548  17.192  0.7313  0.1983  0.7313
    2MPD1    H614061   1.738   0.542  17.254  0.6985 -0.4088  0.7144
    2MPD1    H714062   1.612   0.638  17.208 -0.3418 -0.0076 -1.2549
    3TMC3    C114063   1.429   4.675  17.487  0.0432 -0.4386 -0.1060
    3TMC3    C214064   1.361   4.593  17.569 -0.4252  0.9372  0.2817
    3TMC3    C314065   1.432   4.491  17.623 -0.6753 -0.1285  0.5776
    3TMC3    C414066   1.561   4.645  17.450  0.4594  0.3857  0.0878
    3TMC3    C514067   1.620   4.537  17.510  0.4646  0.1979  0.7109
    3TMC3    C614068   1.563   4.471  17.611 -0.3642  0.3634 -0.1110
    3TMC3     C14069   1.364   0.060  17.434 -0.3991 -0.0403 -0.0234
    3TMC3     O14070   1.243   0.055  17.404 -0.0414 -0.6673 -0.5979
    3TMC3     H14071   1.263   4.613  17.609 -1.0982 -1.0624 -0.3536
    3TMC3    H114072   1.612   4.701  17.372  0.3090  0.6944  0.2135
    3TMC3    H214073   1.614   4.385  17.653 -0.0692 -0.1207 -1.4344
    3TMC3    C714074   1.751   4.499  17.460 -0.3103  0.5370 -0.3562
    3TMC3    C814075   1.367   4.415   0.002  0.9123 -0.0876  0.2592
    3TMC3    O114076   1.813   4.588  17.404  0.1383  0.6666  0.4353
    3TMC3    O214077   1.244   4.413  17.721  0.5050 -0.1322 -0.4767
    4MPD1     C14078   1.403   4.071   0.384  0.3808 -0.1654  0.3827
    4MPD1    C114079   1.518   4.145   0.378 -0.0538 -0.3386 -0.1057
    4MPD1    C214080   1.535   4.239   0.278 -0.5196 -0.1710  0.0236
    4MPD1    C314081   1.430   4.270   0.192  0.0072 -0.3654  0.1362
    4MPD1    C414082   1.311   4.205   0.211  0.3325  0.2242  0.3334
    4MPD1    C514083   1.301   4.102   0.294  0.3816 -0.2065  0.7872
    4MPD1     H14084   1.626   4.297   0.272  0.0861 -1.1484 -0.2960
    4MPD1    H114085   1.227   4.220   0.143  1.8233  1.8103 -1.1410
    4MPD1    H214086   1.382   3.987   0.450 -0.5890 -0.5701 -0.4307
    4MPD1    H314087   1.214   4.037   0.297  0.8911 -1.0152 -2.2910
    4MPD1     N14088   1.457   4.370   0.099  0.2395  0.3555 -0.1897
    4MPD1    H514089   1.553   4.403   0.098  0.6687 -0.8600  1.9332
    4MPD1    N114090   1.631   4.103   0.459  0.7740  0.7353 -0.3666
    4MPD1    H614091   1.706   4.172   0.457 -0.2496  1.8746  0.8477
    4MPD1    H714092   1.608   4.071   0.553 -2.4142 -1.2688 -1.8116
    1TCq1    O114093   2.543   4.140  11.379 -0.1599  0.2501  0.4261
    1TCq1    C114094   2.429   4.216  11.392 -0.4619  0.3822  0.8758
    1TCq1    O214095   2.418   4.321  11.451  0.0648 -0.0758 -0.3381
    1TCq1    C214096   2.366   4.197  11.267  0.0441 -0.1549 -0.1159
    1TCq1    C314097   2.322   4.068  11.235  0.9942 -0.3883 -0.2800
    1TCq1    C414098   2.228   4.056  11.135 -0.5529 -0.5044 -0.0409
    1TCq1    C514099   2.198   4.165  11.066 -0.7304  0.6561  0.1466
    1TCq1    C614100   2.252   4.291  11.089 -0.3879 -0.8836 -0.4184
    1TCq1    C714101   2.334   4.304  11.196 -0.0827  0.4747 -0.5122
    1TCq1    C814102   2.204   4.406  11.005 -0.1568  0.4187 -0.2742
    1TCq1    O414103   2.108   4.387  10.928  0.5251 -0.3087 -0.1223
    1TCq1    C914104   2.203   3.927  11.079  0.2723  0.1550 -0.2681
    1TCq1    O514105   2.113   3.927  10.990 -1.1826 -0.2101 -0.6561
    1TCq1    O614106   2.260   3.827  11.134  0.0775  0.3861  0.3018
    1TCq1    H114107   2.533   4.069  11.312  1.6945  1.1661 -0.8441
    1TCq1    H214108   2.345   3.987  11.303 -2.2373 -1.3000 -0.2896
    1TCq1    H314109   2.132   4.143  10.983  1.9042 -0.9086 -1.5096
    1TCq1    H414110   2.355   4.405  11.229  3.0606 -0.6724  1.0546
    2MPD1     C14111   2.263   0.140  10.802 -0.4838  0.3120  0.5038
    2MPD1    C114112   2.355   0.130  10.902 -0.3855 -0.6086 -0.2086
    2MPD1    C214113   2.346   0.012  10.978  0.7265  0.8459  0.3663
    2MPD1    C314114   2.260   4.637  10.948  0.3351 -0.1221  0.2446
    2MPD1    C414115   2.187   4.648  10.834 -0.2919  0.2857 -0.2565
    2MPD1    C514116   2.186   0.031  10.766  0.4160 -0.1527 -0.0541
    2MPD1     H14117   2.414   0.009  11.062  2.1702 -3.3108 -0.9804
    2MPD1    H114118   2.135   4.559  10.799  3.1475 -2.3374  1.2231
    2MPD1    H214119   2.262   0.226  10.736 -0.0908 -0.0356  0.0467
    2MPD1    H314120   2.126   0.031  10.675  1.4760 -0.1003 -0.7500
    2MPD1     N14121   2.269   4.523  11.033  0.6215 -0.1594 -0.2052
    2MPD1    H514122   2.347   4.520  11.098  1.4338  1.4095 -1.0972
    2MPD1    N114123   2.427   0.234  10.948 -0.3227  0.2196  0.1764
    2MPD1    H614124   2.451   0.307  10.880 -2.1854  0.8433  0.1908
    2MPD1    H714125   2.510   0.215  11.004 -1.2569 -0.3059  1.3744
    1TMC1    C114126   1.789   2.483   0.690 -0.4713  0.4430 -0.2934
    1TMC1    C214127   1.863   2.397   0.764 -0.2003  0.4238  0.2076
    1TMC1    C314128   1.950   2.447   0.859 -0.5738 -0.7040  1.2173
    1TMC1    C414129   1.777   2.617   0.730  0.2337  0.1849 -0.3269
    1TMC1    C514130   1.842   2.655   0.844 -0.2037 -0.3897  0.1485
    1TMC1    C614131   1.934   2.570   0.911 -0.3454  0.0976 -0.5033
    1TMC1     C14132   1.678   2.430   0.619 -0.2624  0.9140 -0.2533
    1TMC1     O14133   1.575   2.493   0.630 -0.3449  0.3583 -0.0991
    1TMC1     H14134   1.855   2.289   0.753 -0.4381  0.5710 -1.1589
    1TMC1    H114135   1.700   2.679   0.687 -0.5629 -2.0864 -2.2207
    1TMC1    H214136   1.994   2.605   0.994 -0.4507  2.8009 -1.5889
    1TMC1    C714137   1.816   2.781   0.908 -0.2697  0.3072 -0.1371
    1TMC1    C814138   2.034   2.347   0.931 -0.1058  0.1362  0.0065
    1TMC1    O114139   1.836   2.807   1.027 -0.3953 -0.0767  0.8351
    1TMC1    O214140   2.021   2.229   0.922 -0.5843 -0.5493 -0.0683
    1TMC1    O314141   1.762   2.866   0.825 -0.2238  0.0702 -0.5448
    1TMC1    H314142   1.760   2.844   0.730 -2.0573 -2.3683  0.0580
    1TMC1    O514143   2.136   2.406   0.978  0.1155 -0.0910 -0.1216
    1TMC1    H514144   2.144   2.502   0.959 -3.8116  0.3245  0.2941
    2MPD1     C14145   1.406   2.072   0.359  0.6132 -0.0050 -0.1001
    2MPD1    C114146   1.541   2.042   0.362  0.5814 -0.3393  0.6755
    2MPD1    C214147   1.627   2.128   0.421 -0.0797  0.2017 -0.9505
    2MPD1    C314148   1.589   2.243   0.489 -0.2644  0.1268 -1.1690
    2MPD1    C414149   1.455   2.274   0.491 -0.4118 -0.6913  0.0857
    2MPD1    C514150   1.370   2.192   0.412  0.5356 -0.5723  1.1301
    2MPD1     H14151   1.732   2.103   0.418 -0.5876 -1.7270 -2.4186
    2MPD1    H114152   1.411   2.355   0.547 -1.6568 -1.1771 -0.2002
    2MPD1    H214153   1.335   2.004   0.314  0.1383  0.4580 -0.0396
    2MPD1    H314154   1.264   2.211   0.414  0.5766 -0.0990 -1.2793
    2MPD1     N14155   1.699   2.308   0.556  0.6162 -0.3981  0.1695
    2MPD1    H514156   1.794   2.273   0.551  0.4851 -0.6048 -0.8876
    2MPD1    N114157   1.593   1.936   0.286 -0.5279 -0.6846  0.3818
    2MPD1    H614158   1.530   1.858   0.268 -1.0769  0.7528 -4.1019
    2MPD1    H714159   1.677   1.894   0.326 -0.4976  1.4490  2.5749
    1MPD1     C14160   3.472   3.377  11.974 -0.3750  0.6668 -0.1706
    1MPD1    C114161   3.596   3.409  11.921  0.4251 -0.0565  0.1772
    1MPD1    C214162   3.628   3.540  11.920  0.2279 -0.5060 -0.0662
    1MPD1    C314163   3.548   3.646  11.952  0.1414  0.5881  0.8053
    1MPD1    C414164   3.421   3.609  11.995 -0.3947  0.1517 -0.2692
    1MPD1    C514165   3.387   3.479  12.018 -0.6883 -0.6043  0.0753
    1MPD1     H14166   3.726   3.577  11.892 -0.6836  2.2050  0.3772
    1MPD1    H114167   3.346   3.673  12.041  2.8368  2.4508  1.7644
    1MPD1    H214168   3.433   3.277  11.989 -0.4319  0.7135 -0.0030
    1MPD1    H314169   3.287   3.467  12.056 -0.5326 -1.0821  0.3369
    1MPD1     N14170   3.606   3.777  11.953 -0.3959  0.4848 -0.4742
    1MPD1    H514171   3.706   3.782  11.934 -0.3124  0.4060 -0.0416
    1MPD1    N114172   3.691   3.306  11.889  0.2378 -0.9492 -0.4840
    1MPD1    H614173   3.649   3.222  11.849 -1.5575 -0.6448  0.7690
    1MPD1    H714174   3.765   3.334  11.824  0.3805  0.7620  0.4248
    2MPD1     C14175   3.031   0.272  11.408 -0.4161  0.6736  0.2550
    2MPD1    C114176   2.957   0.262  11.292 -0.6880 -0.0542 -0.1547
    2MPD1    C214177   3.018   0.245  11.169 -0.8303 -0.2182 -0.2071
    2MPD1    C314178   3.157   0.233  11.160 -0.0096  0.2614 -0.5947
    2MPD1    C414179   3.230   0.232  11.279 -0.1195  0.0240 -0.0283
    2MPD1    C514180   3.163   0.256  11.394 -0.4314  0.2794  0.4408
    2MPD1     H14181   2.951   0.251  11.085 -1.5537 -0.4215  0.3565
    2MPD1    H114182   3.337   0.220  11.271 -0.2226 -1.2536  0.4764
    2MPD1    H214183   2.991   0.285  11.508  0.9765  0.7529  0.7991
    2MPD1    H314184   3.212   0.254  11.491 -0.4011  0.3129  0.4260
    2MPD1     N14185   3.231   0.209  11.046  0.6410  0.7237  0.1038
    2MPD1    H514186   3.331   0.209  11.065  0.4835  0.3123  0.9225
    2MPD1    N114187   2.820   0.296  11.290 -0.1215  0.0526 -0.9369
    2MPD1    H614188   2.777   0.282  11.381  3.9270 -0.3349  0.9462
    2MPD1    H714189   2.765   0.251  11.218 -1.1202  0.9450 -0.7281
    3MPD1     C14190   3.282   3.994  10.573 -0.3269 -0.1833 -0.7733
    3MPD1    C114191   3.392   4.029  10.651 -0.7856  0.4366 -0.0840
    3MPD1    C214192   3.401   4.162  10.679  0.3697  0.0114 -0.1045
    3MPD1    C314193   3.317   4.267  10.631 -0.7313  0.8330 -0.4585
    3MPD1    C414194   3.218   4.227  10.543  0.4508 -0.2945 -0.2478
    3MPD1    C514195   3.194   4.093  10.527  0.0920 -0.2297  0.3479
    3MPD1     H14196   3.484   4.188  10.744  0.4738  1.6133 -0.8645
    3MPD1    H114197   3.155   4.293  10.484  0.2444  1.0774  1.5091
    3MPD1    H214198   3.257   3.891  10.550  0.3253 -0.2859 -0.9985
    3MPD1    H314199   3.117   4.061  10.458 -0.1530 -0.5510  0.7672
    3MPD1     N14200   3.336   4.399  10.684 -0.1584 -0.1736 -0.2763
    3MPD1    H514201   3.416   4.404  10.746 -1.5648  0.7466  1.4329
    3MPD1    N114202   3.470   3.938  10.726 -0.0481  0.0292 -0.0789
    3MPD1    H614203   3.501   3.859  10.671 -0.5128 -1.1414  1.3328
    3MPD1    H714204   3.549   3.985  10.769  0.4912 -0.0885 -0.9446
    4MPD2     C14205   3.605   4.640  11.937  0.0876  0.0867 -0.0648
    4MPD2    C114206   3.708   4.552  11.926  0.4062 -0.1175  0.2805
    4MPD2    C214207   3.820   4.580  11.857 -0.4665 -0.3084  0.1100
    4MPD2    C314208   3.830   4.693  11.779 -0.6256  0.6822 -0.5558
    4MPD2    C414209   3.723   0.052  11.791 -0.6301 -0.6510  0.0331
    4MPD2    C514210   3.609   0.026  11.868 -0.3720  0.1292 -0.1689
    4MPD2     H14211   3.901   4.508  11.864 -1.3914 -1.2608  1.1306
    4MPD2    H114212   3.720   0.139  11.727 -0.5931 -1.8632 -1.6039
    4MPD2    H214213   3.520   4.619  12.001  0.5582  0.6125  0.7327
    4MPD2    H314214   3.526   0.095  11.865 -0.2566  0.2833  0.1743
    4MPD2     N14215   3.936   4.721  11.691 -0.0281  0.4802  0.6891
    4MPD2    H514216   3.924   0.078  11.642  0.6505  0.9641  1.3734
    4MPD2    N114217   3.709   4.433  12.001 -0.5234  0.1893 -0.1626
    4MPD2    H714218   3.800   4.389  12.002 -0.8295 -0.4562 -1.2487
    5TMC3    C114219   3.644   4.228  12.085  1.1169  0.4202 -0.5969
    5TMC3    C214220   3.570   4.131  12.029  0.7380 -0.4161  0.1522
    5TMC3    C314221   3.627   4.010  12.002 -0.6331 -0.4854 -0.1487
    5TMC3    C414222   3.776   4.219  12.099  0.3878  0.2912  0.4058
    5TMC3    C514223   3.840   4.106  12.057 -0.3665 -0.2141 -0.1359
    5TMC3    C614224   3.765   4.003  12.000 -0.5799 -0.0805  0.4118
    5TMC3     C14225   3.605   4.360  12.056  0.1032 -0.4701 -0.8391
    5TMC3     O14226   3.488   4.387  12.039  0.8163 -0.2229 -0.5460
    5TMC3     H14227   3.465   4.152  12.046  0.1121 -2.7914 -0.8226
    5TMC3    H114228   3.831   4.299  12.149  2.2552 -0.3498 -0.5968
    5TMC3    H214229   3.808   3.905  11.978 -2.1268 -0.4651 -0.9910
    5TMC3    C714230   3.945   4.148  11.973 -0.2795 -0.4881 -0.6207
    5TMC3    C814231   3.546   3.892  11.988 -0.8959 -0.4915  0.2846
    5TMC3    O114232   3.965   4.270  11.976  0.3234  0.0077  0.5796
    5TMC3    O214233   3.427   3.908  12.001 -0.7942  0.0515  0.2966
    6TMC3    C114234   3.280   0.092  10.854  0.4363 -0.0366  0.0141
    6TMC3    C214235   3.228   4.717  10.779  0.3324 -0.0578 -0.5822
    6TMC3    C314236   3.310   4.620  10.735  0.5919  0.0975  0.8341
    6TMC3    C414237   3.410   0.100  10.878  0.0014  0.2113 -0.4289
    6TMC3    C514238   3.497   0.015  10.807 -0.5996  0.5732 -0.4562
    6TMC3    C614239   3.452   4.631  10.738 -0.1357 -0.8542  0.1184
    6TMC3     C14240   3.182   0.172  10.925 -0.4231 -0.3680  0.3922
    6TMC3     O14241   3.067   0.165  10.890  0.4682  0.0195 -0.1502
    6TMC3     H14242   3.120   4.713  10.778  0.4308 -3.2105  0.6521
    6TMC3    H114243   3.447   0.194  10.916  1.9185 -0.9540  0.6069
    6TMC3    H214244   3.528   4.557  10.717  0.0314 -0.5313 -0.4144
    6TMC3    C714245   3.637   0.016  10.850 -0.3842 -0.0571 -0.5161
    6TMC3    C814246   3.251   4.502  10.669  0.4673  0.2425 -0.4086
    6TMC3    O114247   3.644   0.079  10.955  0.0353 -0.0527 -0.3662
    6TMC3    O214248   3.137   4.504  10.626  0.3682 -0.6296  0.2926
    7MPD2     C14249   4.314   4.116  11.615  0.0661 -0.0396  0.6248
    7MPD2    C114250   4.238   4.221  11.652  0.7433  0.1618  0.4962
    7MPD2    C214251   4.148   4.200  11.753  0.5017 -0.3703  0.0357
    7MPD2    C314252   4.127   4.077  11.814  0.3096  0.2047 -0.3246
    7MPD2    C414253   4.199   3.970  11.777  0.4428  0.8438  0.2622
    7MPD2    C514254   4.294   3.989  11.675 -0.3652  0.0052 -0.1220
    7MPD2     H14255   4.085   4.284  11.781  1.2016  0.8076 -1.8869
    7MPD2    H114256   4.193   3.880  11.837  0.6209  0.3049 -0.5300
    7MPD2    H214257   4.395   4.132  11.544  0.7198 -0.0079  1.3808
    7MPD2    H314258   4.357   3.906  11.647 -0.2612 -0.0397  0.2512
    7MPD2     N14259   4.020   4.047  11.913 -0.5651 -0.0998 -0.1277
    7MPD2    H514260   3.997   3.949  11.930  1.6374 -0.1114  2.8418
    7MPD2    N114261   4.255   4.350  11.595 -0.1373 -0.4535 -0.6541
    7MPD2    H714262   4.205   4.427  11.640 -1.2304 -1.9657  0.7257
    8TMC3    C114263   4.282   4.525  11.438 -0.9621 -0.0372  0.0322
    8TMC3    C214264   4.201   4.520  11.326  0.1268 -0.1622  0.0579
    8TMC3    C314265   4.091   4.598  11.328 -0.1873 -0.6414  0.4578
    8TMC3    C414266   4.253   4.607  11.543  0.3757 -0.4971  0.5834
    8TMC3    C514267   4.127   4.672  11.547  0.2650  0.0644 -0.1566
    8TMC3    C614268   4.054   4.675  11.434 -0.2562 -0.3175 -0.3041
    8TMC3     C14269   4.313   4.382  11.478  0.6356 -0.3953 -0.1674
    8TMC3     O14270   4.357   4.311  11.384  0.5275 -0.0047  0.2859
    8TMC3     H14271   4.210   4.444  11.249 -1.1318  0.0858 -0.3292
    8TMC3    H114272   4.309   4.593  11.635 -0.9465 -2.6895  1.0626
    8TMC3    H214273   3.958   4.725  11.428 -0.6520 -1.2469 -1.8547
    8TMC3    C714274   4.055   4.644  11.669 -0.0332  0.2379  0.5808
    8TMC3    C814275   4.009   4.604  11.208  0.2325  0.1652 -0.0577
    8TMC3    O114276   4.092   4.541  11.728 -0.2476  0.4679  0.2352
    8TMC3    O214277   3.889   4.630  11.217  0.2176 -0.0806 -0.4892
    9MPD2     C14278   4.111   4.570  10.859  0.9730 -0.1385 -0.5897
    9MPD2    C114279   4.028   4.617  10.964 -0.4035  0.1348  0.1703
    9MPD2    C214280   3.901   4.668  10.929 -0.2618  0.2228  0.1386
    9MPD2    C314281   3.861   4.662  10.801  0.7414 -0.2213 -0.1164
    9MPD2    C414282   3.945   4.612  10.705 -0.5779  0.0974  0.4052
    9MPD2    C514283   4.065   4.555  10.733 -0.2816 -0.3694 -0.0939
    9MPD2     H14284   3.843   4.711  11.010  1.0505  1.9752  0.1365
    9MPD2    H114285   3.901   4.591  10.609 -0.7319 -0.2735  0.5577
    9MPD2    H214286   4.214   4.544  10.880  0.1611 -0.3982  3.0686
    9MPD2    H314287   4.134   4.527  10.654  2.3181  0.9033  1.7297
    9MPD2     N14288   3.729   4.688  10.763  0.5336 -0.6567 -0.7139
    9MPD2    H514289   3.691   4.659  10.673 -0.0380  1.0726 -1.0251
    9MPD2    N114290   4.081   4.606  11.090 -0.1634 -0.3661  0.5660
    9MPD2    H714291   4.179   4.578  11.091  0.4080  1.5292 -2.0260
    1MPD1     C14292   4.574   3.037  16.180 -0.0953 -0.1248  0.2844
    1MPD1    C114293   4.441   3.026  16.157 -0.2308  0.9282 -0.0549
    1MPD1    C214294   4.354   3.032  16.262 -0.9176  0.1217  0.1336
    1MPD1    C314295   4.397   3.044  16.389  0.4041 -0.4240  0.1408
    1MPD1    C414296   4.530   3.063  16.410 -0.2863 -0.4772  0.1059
    1MPD1    C514297   4.622   3.063  16.307  0.6099 -0.7684 -0.3635
    1MPD1     H14298   4.248   3.020  16.242 -0.9711  1.5261 -0.3935
    1MPD1    H114299   4.565   3.085  16.511  0.4887 -0.8905 -0.0734
    1MPD1    H214300   4.650   3.019  16.104 -0.0843  0.3100  0.1941
    1MPD1    H314301   4.728   3.083  16.316  0.4722  0.2260 -0.9483
    1MPD1     N14302   4.309   3.056  16.508  0.1829  0.1401 -0.7850
    1MPD1    H514303   4.352   3.054  16.600 -0.5330  0.0326 -0.4574
    1MPD1    N114304   4.384   3.012  16.031  0.7375  0.1239  0.0204
    1MPD1    H614305   4.445   3.030  15.951 -0.5793 -1.1819 -1.2676
    1MPD1    H714306   4.304   3.074  16.021 -0.6014 -1.4591  1.0742
    2TMC2    C114307   3.918   3.141  16.759  0.9385  0.3388  0.5264
    2TMC2    C214308   3.992   3.189  16.865 -0.3824 -0.2602  0.3851
    2TMC2    C314309   4.122   3.225  16.841  0.1970 -1.2071 -0.0027
    2TMC2    C414310   3.980   3.095  16.648 -0.6539 -0.3393  0.0657
    2TMC2    C514311   4.116   3.106  16.636  0.3234 -0.2264  0.0172
    2TMC2    C614312   4.188   3.165  16.734 -0.1542 -0.1475 -0.0316
    2TMC2     C14313   3.781   3.103  16.789 -1.0502  0.3848 -0.3045
    2TMC2     O14314   3.742   3.129  16.903  0.3432 -0.0849 -0.3578
    2TMC2     H14315   3.948   3.217  16.960 -1.7483 -0.4562 -0.1985
    2TMC2    H114316   3.915   3.052  16.572 -0.4727  0.9114 -0.8010
    2TMC2    H214317   4.295   3.181  16.729 -0.0725 -0.6636  0.0551
    2TMC2    C714318   4.180   3.081  16.500 -0.2183  0.1098 -0.6694
    2TMC2    C814319   4.214   3.254  16.958  0.2123 -0.5772 -0.0707
    2TMC2    O114320   4.113   3.078  16.399  0.3598  0.3283 -0.2130
    2TMC2    O214321   4.333   3.222  16.963 -0.0536 -0.8155 -0.2390
    2TMC2    O514322   4.146   3.328  17.048  0.5822 -0.2725 -0.7409
    2TMC2    H514323   4.054   3.332  17.014  0.3755  0.3306 -0.1008
    3MPD1     C14324   3.318   2.909  16.693 -0.6131 -0.6547 -0.0662
    3MPD1    C114325   3.408   2.857  16.603  0.1917 -0.0894  0.6887
    3MPD1    C214326   3.533   2.905  16.604 -0.1036 -0.1598  0.6894
    3MPD1    C314327   3.584   2.987  16.701  0.6577  0.3770 -0.0869
    3MPD1    C414328   3.495   3.039  16.790 -0.0570  0.6712  0.3509
    3MPD1    C514329   3.362   3.003  16.784 -0.3679  0.2245  0.1489
    3MPD1     H14330   3.593   2.881  16.517  1.0035 -0.0827  1.4269
    3MPD1    H114331   3.519   3.119  16.858  2.0586  0.4401 -0.1237
    3MPD1    H214332   3.216   2.874  16.702 -0.3682 -0.8508  1.8609
    3MPD1    H314333   3.298   3.038  16.864  0.5609  0.1433  0.9202
    3MPD1     N14334   3.720   3.021  16.697  0.3756 -0.4363  0.5544
    3MPD1    H514335   3.769   2.985  16.615  0.7535 -0.2742  0.7084
    3MPD1    N114336   3.363   2.785  16.486 -0.2829  0.0166 -0.3369
    3MPD1    H614337   3.426   2.718  16.442 -0.2081 -0.3943  0.4008
    3MPD1    H714338   3.281   2.731  16.511  1.0409 -1.9709 -0.2705
    1TMC1    C114339   1.416   1.992  13.282  0.3342  0.2699 -0.2869
    1TMC1    C214340   1.315   2.048  13.346  0.4410 -0.1527 -0.4446
    1TMC1    C314341   1.250   1.966  13.434  0.4390  0.1793 -0.0964
    1TMC1    C414342   1.462   1.865  13.301 -0.1475 -0.8822  0.3254
    1TMC1    C514343   1.397   1.790  13.399  0.3176 -0.1245  0.3710
    1TMC1    C614344   1.293   1.849  13.458 -0.3113 -0.2323 -0.4363
    1TMC1     C14345   1.511   2.091  13.244  0.0483  0.1606  0.6542
    1TMC1     O14346   1.478   2.200  13.196  0.6584 -0.5608  0.4803
    1TMC1     H14347   1.272   2.137  13.302 -0.2493  0.1135  0.7665
    1TMC1    H114348   1.537   1.825  13.233 -1.9716 -2.7865 -0.5878
    1TMC1    H214349   1.241   1.787  13.531 -0.5941  1.2793  0.6671
    1TMC1    C714350   1.411   1.639  13.413 -0.3139  0.2802 -0.0931
    1TMC1    C814351   1.110   1.994  13.476  0.8994  0.2067  0.4599
    1TMC1    O114352   1.387   1.586  13.517  0.4202 -0.4347 -0.0144
    1TMC1    O214353   1.045   1.917  13.548  0.1538 -0.5574 -0.3383
    1TMC1    O314354   1.382   1.582  13.289 -0.5101  0.1595 -0.2861
    1TMC1    H314355   1.377   1.652  13.219 -2.5971 -1.1498 -1.4368
    1TMC1    O514356   1.088   2.127  13.455  0.1675 -0.1410  0.2825
    1TMC1    H514357   1.019   2.165  13.515  2.1954  1.4208  1.6433
    2MPD2     C14358   1.736   2.266  13.299 -0.9857 -0.4345 -0.4329
    2MPD2    C114359   1.734   2.137  13.336 -0.1696  0.0765 -0.4500
    2MPD2    C214360   1.830   2.094  13.426  0.8003  0.9062 -0.1368
    2MPD2    C314361   1.935   2.173  13.479  0.0671 -0.7462 -0.8074
    2MPD2    C414362   1.937   2.304  13.440 -0.4406  0.1055 -0.3333
    2MPD2    C514363   1.833   2.342  13.356  0.1746 -0.3445 -0.0299
    2MPD2     H14364   1.816   1.994  13.467  0.4828  0.4508 -1.3563
    2MPD2    H114365   2.002   2.379  13.485 -0.7030  0.9117 -1.3102
    2MPD2    H214366   1.672   2.317  13.228 -2.3501 -0.6210  0.6790
    2MPD2    H314367   1.825   2.448  13.332  1.5653 -0.9229 -3.0056
    2MPD2     N14368   2.034   2.115  13.558  0.4323  0.2093  0.2710
    2MPD2    H514369   2.028   2.016  13.580  0.6749  0.3245  0.8728
    2MPD2    N114370   1.629   2.057  13.302 -0.0221 -0.5679  0.1468
    2MPD2    H714371   1.640   1.960  13.329 -0.4722 -1.0967 -1.5560
    3TCq1    O114372   2.371   1.742  13.945  0.3682  0.3919 -0.8019
    3TCq1    C114373   2.354   1.806  13.824 -0.4724  0.9723  0.4128
    3TCq1    O214374   2.355   1.754  13.715 -0.5388 -0.0683  0.1450
    3TCq1    C214375   2.314   1.946  13.843 -0.6283 -0.2418 -0.0160
    3TCq1    C314376   2.345   2.015  13.951  0.2442  0.4360  0.4643
    3TCq1    C414377   2.298   2.141  13.961  0.0045  0.5152 -0.0240
    3TCq1    C514378   2.209   2.189  13.866  0.0982 -0.4179  0.0752
    3TCq1    C614379   2.182   2.124  13.751 -0.6683  0.5539  0.0018
    3TCq1    C714380   2.245   2.005  13.736  0.7878 -0.7209 -0.2044
    3TCq1    C814381   2.115   2.192  13.639 -0.9704 -0.9454  0.0375
    3TCq1    O414382   2.156   2.313  13.623 -0.0028 -0.3272  0.2990
    3TCq1    C914383   2.312   2.208  14.084  0.7357  0.4922  0.0025
    3TCq1    O514384   2.213   2.274  14.131 -0.0196  0.2554  0.4220
    3TCq1    O614385   2.425   2.198  14.140 -0.3901 -0.1345 -0.0004
    3TCq1    H114386   2.356   1.797  14.025  0.2037  0.4010 -0.8381
    3TCq1    H214387   2.411   1.975  14.027  0.4467  1.2915  0.7350
    3TCq1    H314388   2.177   2.292  13.867  0.2314 -0.3764 -0.0102
    3TCq1    H414389   2.224   1.937  13.654 -2.3449  0.6082 -0.4822
    1MPD2     C14390   1.517   3.419  15.490  0.6222  0.0261  0.8846
    1MPD2    C114391   1.423   3.323  15.541 -0.6854  0.3393  0.0049
    1MPD2    C214392   1.462   3.191  15.537  0.2718 -0.3669 -1.1287
    1MPD2    C314393   1.596   3.153  15.500 -0.0885 -0.0124  0.0459
    1MPD2    C414394   1.684   3.248  15.444 -0.3533 -0.7190  0.4275
    1MPD2    C514395   1.645   3.384  15.441  0.5391  0.5882  0.3417
    1MPD2     H14396   1.389   3.117  15.569  2.3529 -2.4381 -1.1889
    1MPD2    H114397   1.789   3.229  15.425 -0.9652 -0.6429 -3.0869
    1MPD2    H214398   1.495   3.525  15.488 -0.0672 -0.1215  0.7065
    1MPD2    H314399   1.707   3.466  15.409  0.1361 -0.1425 -2.3289
    1MPD2     N14400   1.623   3.012  15.497 -0.1989 -0.2129  0.3691
    1MPD2    H514401   1.573   2.947  15.557 -1.3581  0.6154  0.3112
    1MPD2    N114402   1.295   3.362  15.587 -0.2579 -0.4588  0.6864
    1MPD2    H714403   1.270   3.459  15.574  0.0243 -0.7275 -1.7846
    2TMC3    C114404   1.067   3.341  15.656 -0.0930 -0.0291  0.5899
    2TMC3    C214405   0.987   3.254  15.712  0.6251 -0.3641  0.1888
    2TMC3    C314406   0.869   3.218  15.659 -0.0391 -0.0589 -0.9657
    2TMC3    C414407   1.032   3.393  15.540 -0.9106  0.6067 -0.2146
    2TMC3    C514408   0.912   3.364  15.485 -0.7511 -0.2626 -0.2401
    2TMC3    C614409   0.822   3.277  15.546 -0.1731 -1.2329 -0.2070
    2TMC3     C14410   1.205   3.286  15.658 -0.2270 -0.6983  0.2183
    2TMC3     O14411   1.214   3.173  15.703  0.5116  0.2404  0.4477
    2TMC3     H14412   1.010   3.216  15.810 -1.9938 -1.4265  0.3823
    2TMC3    H114413   1.101   3.469  15.504 -1.2472  0.2423 -1.6349
    2TMC3    H214414   0.728   3.249  15.500 -0.4611 -2.2244  0.9771
    2TMC3    C714415   0.870   3.415  15.351  0.1400 -0.3768  0.3952
    2TMC3    C814416   0.846   3.079  15.665 -0.1874 -0.0720  0.6572
    2TMC3    O114417   0.748   3.403  15.337 -0.0371 -0.3468  0.7308
    2TMC3    O214418   0.741   3.036  15.614  0.1744 -0.4299  0.0278
    3TCq1    O114419   1.447   3.938  14.448  0.0575  0.2813  0.0383
    3TCq1    C114420   1.524   3.935  14.557  0.5832 -0.4178 -0.2461
    3TCq1    O214421   1.647   3.947  14.563  0.5534  0.1072  0.0127
    3TCq1    C214422   1.434   3.952  14.669 -0.0928 -0.3501  0.9726
    3TCq1    C314423   1.482   4.006  14.781 -0.3828  0.1906  0.3959
    3TCq1    C414424   1.405   4.023  14.892  0.2983  0.0135  0.3183
    3TCq1    C514425   1.277   3.978  14.889 -0.7853  0.7734 -0.4257
    3TCq1    C614426   1.223   3.922  14.775 -0.0810  0.5119  0.5155
    3TCq1    C714427   1.306   3.902  14.665 -0.0827 -0.6761  0.1677
    3TCq1    C814428   1.110   3.832  14.786  0.0950  0.5678  0.0915
    3TCq1    O414429   1.052   3.802  14.685  0.1249 -0.1170  0.4034
    3TCq1    C914430   1.443   4.074  15.018  0.0887 -0.8883 -0.0106
    3TCq1    O514431   1.343   4.126  15.079 -0.1673  0.5169 -0.2360
    3TCq1    O614432   1.568   4.064  15.051 -0.1345  0.5030  0.0658
    3TCq1    H114433   1.349   3.946  14.456  0.2907  3.1158 -0.0072
    3TCq1    H214434   1.582   4.049  14.778 -1.6781  3.0463 -2.6911
    3TCq1    H314435   1.210   3.993  14.973 -1.2813 -0.1386 -0.6591
    3TCq1    H414436   1.263   3.843  14.584  2.2885 -0.3269 -1.3398
    4MPD2     C14437   0.921   3.620  14.880  0.4008  0.1549 -0.6228
    4MPD2    C114438   1.021   3.668  14.960  0.1010  0.1153 -0.0740
    4MPD2    C214439   1.042   3.611  15.087 -0.0852  0.4343  0.1776
    4MPD2    C314440   0.949   3.528  15.139 -0.2056  0.3756 -0.0571
    4MPD2    C414441   0.839   3.495  15.067  0.5422  0.1365  0.1848
    4MPD2    C514442   0.840   3.535  14.941  0.0198  0.3814  0.3391
    4MPD2     H14443   1.137   3.638  15.131  0.7174  0.3699 -1.4905
    4MPD2    H114444   0.758   3.428  15.094 -0.4867  1.1188 -0.4869
    4MPD2    H214445   0.903   3.664  14.783  2.6056  0.3978 -0.9365
    4MPD2    H314446   0.756   3.504  14.879 -0.7171 -0.0606  1.5551
    4MPD2     N14447   0.959   3.487  15.276 -0.3097  0.5481 -0.1424
    4MPD2    H514448   1.050   3.496  15.320 -0.4377 -0.7227  0.3763
    4MPD2    N114449   1.101   3.777  14.915  0.0546 -0.4880  0.4583
    4MPD2    H714450   1.173   3.806  14.980 -0.6933  2.3169  0.0692
    5TMC2    C114451   1.508   2.680  15.501  0.5229 -0.2554 -0.7243
    5TMC2    C214452   1.498   2.640  15.372 -0.6221 -0.1472  0.1450
    5TMC2    C314453   1.591   2.679  15.283 -0.3768  0.4603  0.5188
    5TMC2    C414454   1.615   2.763  15.526 -0.1697 -0.3407  0.1444
    5TMC2    C514455   1.708   2.802  15.436 -0.2149 -0.0983  0.4793
    5TMC2    C614456   1.695   2.759  15.307  0.4865 -0.5974 -0.1122
    5TMC2     C14457   1.389   2.734  15.565 -0.0105  0.2227 -0.5947
    5TMC2     O14458   1.398   2.846  15.618  0.3612 -0.1450  0.8274
    5TMC2     H14459   1.414   2.581  15.339 -0.4781  0.7843 -1.9157
    5TMC2    H114460   1.632   2.799  15.627 -0.0786  0.8352 -0.2941
    5TMC2    H214461   1.754   2.782  15.219  0.3379  1.7828  0.4270
    5TMC2    C714462   1.727   2.947  15.437  0.5545  0.0671 -0.4526
    5TMC2    C814463   1.579   2.624  15.149  0.0741  0.3630 -0.0713
    5TMC2    O114464   1.784   2.986  15.338 -0.0883  0.4814 -0.3693
    5TMC2    O214465   1.671   2.600  15.077  0.2017  0.0623  0.1168
    5TMC2    O514466   1.472   2.686  15.102 -0.5331 -0.4067  0.7304
    5TMC2    H514467   1.407   2.715  15.169 -0.1634  3.5692 -0.6202
    6MPD2     C14468   0.884   2.776  15.623 -0.1653 -0.3472  0.5368
    6MPD2    C114469   0.987   2.874  15.634  0.1629  0.3822  1.1071
    6MPD2    C214470   1.119   2.834  15.621 -0.4093  0.0388  0.1976
    6MPD2    C314471   1.147   2.701  15.581 -0.7719  0.1227 -0.2701
    6MPD2    C414472   1.045   2.614  15.557  0.6215  0.2264  0.1454
    6MPD2    C514473   0.919   2.651  15.580  0.7744 -0.1728 -0.3413
    6MPD2     H14474   1.195   2.910  15.612  0.3119 -0.8953 -1.5204
    6MPD2    H114475   1.059   2.511  15.524 -1.0360  0.7753 -2.3310
    6MPD2    H214476   0.780   2.803  15.639  0.6279  2.7206  0.4264
    6MPD2    H314477   0.835   2.588  15.555  1.0773 -1.2600  1.3379
    6MPD2     N14478   1.280   2.659  15.554  0.0651 -0.5268  0.0765
    6MPD2    H514479   1.280   2.562  15.524  0.8851 -1.1367  2.0141
    6MPD2    N114480   0.968   3.014  15.667 -0.6462 -0.2985 -0.5342
    6MPD2    H714481   1.049   3.072  15.689 -0.3658 -0.5622 -0.8767
  945NH3     N114482   3.255   2.975   8.991 -0.7301 -1.1060 -0.1715
  945NH3     H214483   3.176   3.020   8.948  2.4804  1.4205 -3.4013
  945NH3     H314484   3.277   3.040   9.066  0.2031 -1.0032 -0.5295
  945NH3     H414485   3.323   2.983   8.917  0.1435 -1.3597  0.5996
  946SOD     NA14486   3.204   0.455  16.442 -0.1825  0.3781  0.2937
  947SOD     NA14487   4.352   2.143  13.986  0.1687 -0.4525 -0.2340
  948SOD     NA14488   4.397   2.979   9.440  0.3651  0.0691 -0.2593
  949SOD     NA14489   3.059   3.476   5.140  0.3032 -0.3107 -0.4238
  950SOD     NA14490   2.604   2.013   7.020  0.1336  0.4801 -0.2839
  951SOD     NA14491   2.932   4.212   2.825  0.1172 -0.4868 -0.2861
  952SOD     NA14492   4.379   2.562  16.198 -0.0227  0.4682  0.4397
  953SOD     NA14493   2.007   2.260  14.487  0.2032  0.2210 -0.3838
  954SOL     OW14494   4.245   3.965   1.103 -0.3700  0.2611 -0.4054
  954SOL    HW114495   4.151   3.977   1.089 -0.5308 -2.1336 -1.4595
  954SOL    HW214496   4.272   3.946   1.013 -0.2689 -1.9452  0.0717
  955SOL     OW14497   3.249   0.177   3.523 -0.0868 -0.0853 -0.3709
  955SOL    HW114498   3.331   0.213   3.557 -0.5896  0.0006  0.7279
  955SOL    HW214499   3.210   0.261   3.498  2.2604  0.5487 -1.9700
  956SOL     OW14500   1.886   0.628   8.494  0.2835  0.4818  0.0807
  956SOL    HW114501   1.951   0.658   8.430  0.0084 -0.1522 -0.4981
  956SOL    HW214502   1.801   0.635   8.450  0.6301  0.6505 -0.5655
  957SOL     OW14503   4.418   1.244   8.949  0.4373  0.3684 -0.3855
  957SOL    HW114504   4.347   1.235   9.012  0.2588  3.8070 -0.1278
  957SOL    HW214505   4.486   1.274   9.010  1.8558  0.0840 -1.8353
  958SOL     OW14506   1.933   3.510   7.867 -0.1776 -0.0825  0.2819
  958SOL    HW114507   1.886   3.498   7.949  0.8866  0.1148  0.9281
  958SOL    HW214508   1.882   3.459   7.804  0.0542 -1.9712  1.6145
  959SOL     OW14509   0.392   0.971   4.027  0.4159 -0.0299 -0.2676
  959SOL    HW114510   0.483   0.980   4.000  0.8958 -0.6954  1.0979
  959SOL    HW214511   0.361   1.061   4.014  0.8142  0.4483  1.9737
  960SOL     OW14512   3.920   1.229   2.154  0.4370  0.0827  0.0250
  960SOL    HW114513   4.009   1.214   2.186  0.6564  0.6728 -0.3061
  960SOL    HW214514   3.944   1.208   2.064  0.6891  0.4315  0.0133
  961SOL     OW14515   2.043   3.931   7.702 -0.2813  0.1830 -0.4379
  961SOL    HW114516   2.088   3.873   7.764 -0.0126  1.1192  0.2472
  961SOL    HW214517   2.041   4.005   7.763 -1.7644  0.0262 -0.2893
  962SOL     OW14518   3.587   1.057  13.876 -0.4883  0.0256  0.1393
  962SOL    HW114519   3.565   1.116  13.948 -0.0540  0.6109 -0.1995
  962SOL    HW214520   3.569   0.967  13.903 -0.9433 -0.0118 -0.2792
  963SOL     OW14521   1.120   4.176   1.940 -0.0572 -0.1775  0.8616
  963SOL    HW114522   1.110   4.124   2.020 -1.0876 -1.4977 -0.1176
  963SOL    HW214523   1.073   4.116   1.882  2.8483  0.0492 -1.7238
  964SOL     OW14524   0.674   3.621   7.230  0.1358 -0.3846 -0.0945
  964SOL    HW114525   0.659   3.568   7.151 -0.8368 -1.3305  0.7257
  964SOL    HW214526   0.753   3.666   7.199  0.6305 -1.1632  0.0363
  965SOL     OW14527   0.505   0.859   9.618 -0.1041  0.2711  0.1939
  965SOL    HW114528   0.441   0.929   9.603  1.1059  1.5891  1.1653
  965SOL    HW214529   0.578   0.916   9.641  0.1473  0.4789 -1.0924
  966SOL     OW14530   1.329   3.725   8.850  0.7679  0.1264  0.6636
  966SOL    HW114531   1.256   3.786   8.839 -0.8970 -2.0214 -0.2032
  966SOL    HW214532   1.409   3.774   8.833 -0.6278  1.4671 -2.0083
  967SOL     OW14533   2.518   1.763   9.881  0.2454  0.0521 -0.4796
  967SOL    HW114534   2.427   1.754   9.854  0.2331 -2.9495  0.6007
  967SOL    HW214535   2.533   1.825   9.809 -0.4831  0.5546 -0.2056
  968SOL     OW14536   2.870   3.597   6.831  1.1769 -0.3151 -0.3773
  968SOL    HW114537   2.827   3.670   6.786 -1.4593 -2.8455 -2.0323
  968SOL    HW214538   2.952   3.636   6.859 -0.0425  3.0288 -1.5143
  969SOL     OW14539   2.171   4.607   4.546 -0.5069 -0.2054 -0.0379
  969SOL    HW114540   2.224   4.587   4.469 -1.5106  1.2995 -1.1138
  969SOL    HW214541   2.101   4.545   4.527 -0.1539 -0.8930  0.9044
  970SOL     OW14542   0.659   1.142  10.131  0.2170 -0.7322  0.1265
  970SOL    HW114543   0.577   1.121  10.088 -0.2767 -1.0277  1.2216
  970SOL    HW214544   0.671   1.064  10.185  0.0057 -1.3632 -0.7360
  971SOL     OW14545   4.325   0.077  10.563  0.6300 -0.2890 -0.5913
  971SOL    HW114546   4.381   0.012  10.606 -0.8006 -0.4423  1.0465
  971SOL    HW214547   4.335   0.148  10.626 -0.7388 -0.3106 -0.3350
  972SOL     OW14548   4.208   1.013   8.827  0.6952  0.3191 -0.1183
  972SOL    HW114549   4.253   0.943   8.875 -1.9543 -2.0092 -1.0231
  972SOL    HW214550   4.154   1.047   8.898  1.3568 -1.9155  1.4727
  973SOL     OW14551   2.977   2.780   5.315  0.1095 -0.0589 -0.4125
  973SOL    HW114552   3.017   2.790   5.229  2.0007  1.1665  0.6196
  973SOL    HW214553   2.884   2.772   5.291  0.2858 -1.5105 -0.6074
  974SOL     OW14554   2.235   0.995   4.957 -0.0945  0.6212 -0.1071
  974SOL    HW114555   2.257   1.049   4.881 -0.7533  1.4062  0.2682
  974SOL    HW214556   2.141   0.986   4.942 -0.1039  0.7979 -0.1526
  975SOL     OW14557   4.561   0.513   3.985 -1.0141 -0.4879 -0.0385
  975SOL    HW114558   4.523   0.426   3.977 -0.2049 -1.0014  1.9580
  975SOL    HW214559   4.486   0.556   4.027 -1.0703 -2.7200  2.1046
  976SOL     OW14560   3.219   1.832   9.957 -0.3943  0.2381  0.1264
  976SOL    HW114561   3.277   1.862   9.887  0.4627 -0.5805  0.4817
  976SOL    HW214562   3.154   1.792   9.900 -0.4034  0.4944 -0.0422
  977SOL     OW14563   3.558   4.381   5.973 -0.9182  0.8034  0.7765
  977SOL    HW114564   3.476   4.395   5.924 -0.8942 -1.6633 -0.0174
  977SOL    HW214565   3.537   4.292   6.002  2.4399 -0.8481 -1.8370
  978SOL     OW14566   3.891   2.508   3.450 -0.5803  0.0671  0.2353
  978SOL    HW114567   3.856   2.548   3.370  0.9319 -0.7110 -0.8237
  978SOL    HW214568   3.941   2.574   3.497 -0.3605  1.4567 -1.9443
  979SOL     OW14569   3.704   0.014   7.191  0.4783  0.0011 -0.0786
  979SOL    HW114570   3.636   4.699   7.142 -0.8971  0.3662  1.4978
  979SOL    HW214571   3.659   0.011   7.275  0.7251 -2.4445 -0.0374
  980SOL     OW14572   2.083   4.140  12.045  0.3351  0.6770  0.0393
  980SOL    HW114573   2.122   4.082  12.111  2.7221  2.0468 -0.1983
  980SOL    HW214574   2.161   4.146  11.990  1.2690  2.5604  1.5550
  981SOL     OW14575   0.941   2.793  16.683  0.4471 -0.4369  0.0740
  981SOL    HW114576   0.919   2.882  16.656  1.8136  0.0767  0.6722
  981SOL    HW214577   0.921   2.791  16.777  1.9892 -0.0817  0.4037
  982SOL     OW14578   1.016   0.035   5.611 -0.2586 -0.1878  0.1341
  982SOL    HW114579   1.110   0.020   5.602  0.0225  0.7487  1.5891
  982SOL    HW214580   1.021   0.109   5.671 -3.0719 -1.1566  1.5771
  983SOL     OW14581   0.821   3.536   4.861  0.1210 -0.3017 -0.4467
  983SOL    HW114582   0.750   3.583   4.905  1.1795  0.8999 -0.0036
  983SOL    HW214583   0.879   3.521   4.936 -0.7208 -2.9146 -0.3347
  984SOL     OW14584   0.032   1.391   6.377 -0.1807  0.4051  0.1110
  984SOL    HW114585   0.123   1.369   6.396 -0.0888  0.3699 -0.3852
  984SOL    HW214586   0.006   1.415   6.466 -1.5659 -1.4838  0.2379
  985SOL     OW14587   2.602   2.658  14.652 -0.1815  0.0582 -0.0236
  985SOL    HW114588   2.594   2.575  14.699  0.5413 -0.4267 -0.7569
  985SOL    HW214589   2.534   2.705  14.701 -1.0007 -0.6911 -0.4366
  986SOL     OW14590   1.572   4.201   5.878 -0.4888  0.7559 -0.1378
  986SOL    HW114591   1.638   4.265   5.853  0.4459 -0.7978 -1.7206
  986SOL    HW214592   1.539   4.236   5.960 -0.9953 -2.3156  0.9718
  987SOL     OW14593   2.244   3.159   5.618  0.5230  0.2879 -0.5180
  987SOL    HW114594   2.177   3.182   5.554  0.4724 -0.2053 -0.6396
  987SOL    HW214595   2.212   3.085   5.670 -0.5595  0.9555 -0.2308
  988SOL     OW14596   3.912   0.306   3.855  0.3971 -0.0971  0.7613
  988SOL    HW114597   3.943   0.217   3.875  1.1744  0.0466  0.1601
  988SOL    HW214598   3.997   0.348   3.852  0.4968 -0.3477 -0.0684
  989SOL     OW14599   1.027   4.718  17.566 -0.7069 -0.5105 -0.2652
  989SOL    HW114600   1.052   0.058  17.625  1.2257  0.4342 -2.2393
  989SOL    HW214601   1.090   4.730  17.495 -0.3114 -0.2633  0.1268
  990SOL     OW14602   0.082   0.132  17.514 -0.2802  0.0960 -0.4313
  990SOL    HW114603   0.104   0.158  17.603 -1.0422  0.3220 -0.3126
  990SOL    HW214604   0.167   0.098  17.484 -0.7433 -0.4434 -1.1396
  991SOL     OW14605   0.688   2.204   4.948 -0.2199 -0.1827 -0.1498
  991SOL    HW114606   0.612   2.187   5.004 -0.0560  1.5119  0.5982
  991SOL    HW214607   0.765   2.189   5.003  0.5468  3.1606 -0.3163
  992SOL     OW14608   3.635   3.822   6.031  0.3361 -0.6346  0.2170
  992SOL    HW114609   3.644   3.858   5.942 -0.2162 -1.3907 -0.1420
  992SOL    HW214610   3.540   3.811   6.035  0.4177 -1.3241  0.2011
  993SOL     OW14611   2.517   3.220   7.746  0.3190 -0.0802  0.0041
  993SOL    HW114612   2.429   3.188   7.724  0.0951  0.1624  0.5394
  993SOL    HW214613   2.499   3.300   7.795  1.2235  0.7869 -1.0726
  994SOL     OW14614   2.737   4.357   5.993 -0.3575 -0.1622 -0.0522
  994SOL    HW114615   2.679   4.434   5.988  0.9291  0.8251  0.3420
  994SOL    HW214616   2.746   4.346   6.087  2.3789 -0.7506 -0.3814
  995SOL     OW14617   1.452   3.410   5.101 -0.4117 -0.2781  0.1374
  995SOL    HW114618   1.397   3.396   5.024  0.8771  1.7767 -1.1377
  995SOL    HW214619   1.399   3.398   5.179 -0.4700  3.2396  0.6072
  996SOL     OW14620   1.621   4.306   6.505  0.3339 -0.3292 -0.6413
  996SOL    HW114621   1.673   4.253   6.444  1.4769  1.2696 -1.0565
  996SOL    HW214622   1.549   4.243   6.512 -1.6985  2.0497 -0.1361
  997SOL     OW14623   0.144   0.351   6.133  0.1121 -0.6417  0.7244
  997SOL    HW114624   0.180   0.426   6.182 -1.9815  2.4339 -2.4436
  997SOL    HW214625   0.097   0.300   6.199 -0.0593 -1.6757 -0.1994
  998SOL     OW14626   1.574   3.978  12.852  0.3117  0.3319 -0.9284
  998SOL    HW114627   1.550   4.069  12.839  1.2896  0.4874 -1.5939
  998SOL    HW214628   1.555   3.940  12.766  1.4709 -0.8526 -0.6641
  999SOL     OW14629   4.035   3.943   1.368 -0.3682 -0.0798 -0.2287
  999SOL    HW114630   4.070   3.960   1.455  0.0639 -0.3741 -0.3441
  999SOL    HW214631   4.103   3.887   1.329 -1.2346 -1.2392 -0.0552
 1000SOL     OW14632   3.634   2.590  14.487 -0.4355  0.0994  0.2528
 1000SOL    HW114633   3.588   2.571  14.406  0.4051  1.6417 -0.5791
 1000SOL    HW214634   3.682   2.509  14.505 -0.2404  0.1661  0.0244
 1001SOL     OW14635   0.643   2.935   3.853 -0.4824  0.3245 -0.2702
 1001SOL    HW114636   0.736   2.919   3.835 -0.6292  0.4012 -1.1273
 1001SOL    HW214637   0.662   3.004   3.916 -0.1443  0.1596 -0.1894
 1002SOL     OW14638   2.718   4.509   1.550  0.1992  0.0203  0.3027
 1002SOL    HW114639   2.710   4.501   1.645 -2.3269 -0.5303  0.0531
 1002SOL    HW214640   2.626   4.509   1.522  0.1150  1.0356  0.5749
 1003SOL     OW14641   3.762   2.256   5.093  0.1222 -0.1772 -0.1404
 1003SOL    HW114642   3.824   2.211   5.149  0.5966  0.1263 -0.4162
 1003SOL    HW214643   3.719   2.192   5.036 -0.9650  0.7572 -0.3735
 1004SOL     OW14644   0.031   2.182  17.311  0.2506 -0.1986  0.5423
 1004SOL    HW114645   0.085   2.234  17.371  2.0554 -1.7026  0.2318
 1004SOL    HW214646   0.085   2.103  17.311  0.3163 -0.1543  0.8829
 1005SOL     OW14647   0.719   0.165   6.733  0.1089 -0.6668  0.4889
 1005SOL    HW114648   0.756   0.078   6.745  1.0591 -0.1685  1.2109
 1005SOL    HW214649   0.742   0.213   6.813  1.2831 -0.9835  0.3419
 1006SOL     OW14650   1.314   4.208   0.763  0.4869 -0.3729  0.0285
 1006SOL    HW114651   1.239   4.263   0.740 -0.0573 -0.4959  1.5722
 1006SOL    HW214652   1.291   4.121   0.730 -0.8414 -0.5098  1.3424
 1007SOL     OW14653   4.446   1.447   7.390  0.4498  0.2942  1.0439
 1007SOL    HW114654   4.456   1.411   7.302  1.1494 -0.7968  1.5742
 1007SOL    HW214655   4.498   1.386   7.442  2.4072  0.4248 -0.7414
 1008SOL     OW14656   3.288   2.317   8.791 -0.7819 -0.6231  0.2393
 1008SOL    HW114657   3.346   2.393   8.800 -0.8674 -0.3666 -1.3529
 1008SOL    HW214658   3.242   2.314   8.875 -0.6704 -1.5050  0.2716
 1009SOL     OW14659   4.351   1.525   0.255  0.0681  0.0835 -0.2908
 1009SOL    HW114660   4.273   1.495   0.208 -1.3992  1.2748  1.3954
 1009SOL    HW214661   4.317   1.597   0.308  1.3397 -0.7799  1.7342
 1010SOL     OW14662   2.654   1.877   8.235 -0.0708 -0.0770 -0.2541
 1010SOL    HW114663   2.658   1.971   8.216 -1.3361 -0.0759 -0.4564
 1010SOL    HW214664   2.564   1.877   8.266 -0.3051  1.3134 -0.9114
 1011SOL     OW14665   2.616   1.362   5.274 -0.0693  0.5542 -0.0031
 1011SOL    HW114666   2.637   1.440   5.326  1.3003 -1.5965  2.7057
 1011SOL    HW214667   2.583   1.400   5.193  3.0362 -0.8276 -1.8929
 1012SOL     OW14668   3.037   1.093   3.629  0.2865  0.3823 -0.1534
 1012SOL    HW114669   2.943   1.105   3.615  0.3188  0.8260 -0.0018
 1012SOL    HW214670   3.056   1.163   3.692 -1.2711 -0.3159  1.1149
 1013SOL     OW14671   4.131   0.180   8.572  0.0963  0.1302 -0.0599
 1013SOL    HW114672   4.078   0.202   8.495 -0.7850  0.2568  0.5757
 1013SOL    HW214673   4.070   0.129   8.625 -1.1587  0.4293 -1.2143
 1014SOL     OW14674   2.070   4.596   7.661 -0.1012 -0.3494  0.3071
 1014SOL    HW114675   2.083   4.570   7.570  1.0999 -2.4332  1.0665
 1014SOL    HW214676   2.026   4.520   7.698 -0.3612  0.2111  1.1476
 1015SOL     OW14677   0.988   1.345   4.079  0.3740  0.3629  0.4325
 1015SOL    HW114678   0.904   1.327   4.121  0.1164 -1.2343 -0.7601
 1015SOL    HW214679   1.012   1.433   4.107 -1.3639  0.9370  0.1159
 1016SOL     OW14680   2.246   0.144  12.983  0.1451 -0.0184 -0.2990
 1016SOL    HW114681   2.310   0.196  12.935  1.1034 -0.6058  0.3304
 1016SOL    HW214682   2.221   0.203  13.054  1.5711 -0.8416  0.8963
 1017SOL     OW14683   0.910   2.461   8.404 -0.0680  0.1213 -0.3398
 1017SOL    HW114684   0.898   2.367   8.397  0.2731  0.0020  0.6303
 1017SOL    HW214685   0.858   2.500   8.334 -0.2416 -0.7578 -0.6946
 1018SOL     OW14686   2.774   2.158   3.050 -0.1538  0.3616  0.3906
 1018SOL    HW114687   2.786   2.083   3.108  2.3776 -0.0482 -0.6621
 1018SOL    HW214688   2.687   2.186   3.078  0.0552  0.7416  0.6695
 1019SOL     OW14689   3.189   1.109   6.361 -0.0210  0.4629  0.4983
 1019SOL    HW114690   3.146   1.189   6.391 -0.9807  0.3944 -0.6893
 1019SOL    HW214691   3.119   1.069   6.309 -1.0100  2.4427  0.2835
 1020SOL     OW14692   2.351   1.498   7.346 -0.3979  0.8335  0.1645
 1020SOL    HW114693   2.446   1.505   7.337 -0.2461 -1.1228  0.1955
 1020SOL    HW214694   2.317   1.579   7.383  2.2919  1.8760  0.3390
 1021SOL     OW14695   3.954   1.621  15.318  0.3111 -0.1174  0.0367
 1021SOL    HW114696   3.867   1.601  15.353  0.7884 -2.3511 -0.0245
 1021SOL    HW214697   3.985   1.534  15.291 -0.1455 -0.7391  1.5116
 1022SOL     OW14698   0.177   0.430   2.392  0.1095 -0.2803  0.3817
 1022SOL    HW114699   0.253   0.389   2.351  1.9843  2.7770  0.8763
 1022SOL    HW214700   0.173   0.511   2.341 -1.1370 -0.3305  0.3962
 1023SOL     OW14701   0.963   1.598  16.170 -0.2604  0.2189  0.8538
 1023SOL    HW114702   0.993   1.550  16.092  0.9586 -0.3287  1.6602
 1023SOL    HW214703   1.048   1.635  16.193 -0.2661 -0.1410  1.4662
 1024SOL     OW14704   2.719   0.345   4.846  0.1901  0.2725  0.5157
 1024SOL    HW114705   2.774   0.317   4.920  0.3808 -1.4634 -0.2935
 1024SOL    HW214706   2.659   0.408   4.886  1.7149  1.4710  0.8962
 1025SOL     OW14707   1.266   0.301   5.110 -0.3438  0.0316  0.4479
 1025SOL    HW114708   1.291   0.291   5.201 -1.1851 -2.8565  0.3620
 1025SOL    HW214709   1.171   0.295   5.113 -0.3158 -0.9382 -0.4970
 1026SOL     OW14710   1.140   1.878   6.460 -0.1295 -0.3518  0.0552
 1026SOL    HW114711   1.058   1.852   6.504 -2.1757  1.7126 -2.5776
 1026SOL    HW214712   1.104   1.918   6.381 -0.4532 -1.9567 -0.6078
 1027SOL     OW14713   1.509   2.206   5.700 -0.0946  0.4206  0.1670
 1027SOL    HW114714   1.434   2.178   5.752 -0.4672  0.1288 -0.5194
 1027SOL    HW214715   1.483   2.298   5.687 -1.3659  0.1585  0.8724
 1028SOL     OW14716   2.682   0.395   7.247 -0.0164  1.1416  0.0404
 1028SOL    HW114717   2.607   0.419   7.301  1.5110  1.4177  2.0402
 1028SOL    HW214718   2.721   0.482   7.237  0.1173  0.9441 -1.1473
 1029SOL     OW14719   0.989   4.613  12.528 -0.7547  0.0673  0.1050
 1029SOL    HW114720   0.972   4.524  12.497 -0.5336 -0.9580  2.9351
 1029SOL    HW214721   0.904   4.647  12.556 -1.4323 -1.4423 -0.1542
 1030SOL     OW14722   1.370   0.978   1.916  0.5651  0.0285 -0.0058
 1030SOL    HW114723   1.371   0.887   1.946 -0.0369 -0.5431 -1.7376
 1030SOL    HW214724   1.354   0.970   1.822  0.6550  0.6547 -0.0719
 1031SOL     OW14725   0.965   3.774   6.088  0.1532 -0.1065  0.6472
 1031SOL    HW114726   1.022   3.834   6.040 -0.0482 -0.6401 -0.2690
 1031SOL    HW214727   1.027   3.704   6.109  0.9595 -0.1925 -1.9815
 1032SOL     OW14728   0.887   0.885   8.829  0.1327 -0.0884  0.2307
 1032SOL    HW114729   0.886   0.798   8.868  1.0238  0.6131  1.7929
 1032SOL    HW214730   0.925   0.938   8.898  0.5625 -1.8434  1.3295
 1033SOL     OW14731   0.243   4.562  12.569 -0.2887 -0.0850  0.5156
 1033SOL    HW114732   0.196   4.637  12.535 -0.6325 -0.4952  0.0964
 1033SOL    HW214733   0.173   4.500  12.587  0.4265 -0.5844  1.6364
 1034SOL     OW14734   3.818   1.933   7.158  0.7693 -0.6100  0.0927
 1034SOL    HW114735   3.833   1.949   7.065 -1.1321 -1.4451 -0.3477
 1034SOL    HW214736   3.904   1.898   7.182  0.8314  0.0761  0.9019
 1035SOL     OW14737   4.600   0.041   3.074 -0.6125 -0.5460 -0.0657
 1035SOL    HW114738   4.599   0.085   2.988 -0.4025 -2.6948 -1.1684
 1035SOL    HW214739   4.511   0.058   3.105 -0.3584 -1.7711  1.3108
 1036SOL     OW14740   4.577   0.179   7.100 -0.3791 -0.3514  0.3972
 1036SOL    HW114741   4.641   0.197   7.031 -0.6722 -0.0314  0.2058
 1036SOL    HW214742   4.621   0.224   7.172 -2.1736  2.3537 -0.1663
 1037SOL     OW14743   1.374   0.871   9.474  0.8622  0.4904 -0.1408
 1037SOL    HW114744   1.342   0.896   9.560  0.6218  2.1602 -0.7081
 1037SOL    HW214745   1.319   0.794   9.461  2.7341 -0.7352 -0.8685
 1038SOL     OW14746   2.701   0.214   2.092 -0.0451  0.5577  0.1175
 1038SOL    HW114747   2.688   0.258   2.008 -0.3750 -1.0333 -0.6837
 1038SOL    HW214748   2.638   0.262   2.145  0.4087  2.4110 -1.0312
 1039SOL     OW14749   0.692   1.732   4.374 -0.4909 -0.1149 -0.2735
 1039SOL    HW114750   0.722   1.791   4.443 -0.0958 -0.3901 -0.2152
 1039SOL    HW214751   0.615   1.779   4.342  0.3327 -0.7767 -3.2414
 1040SOL     OW14752   0.662   0.639   3.233 -0.0790 -0.6445  0.3021
 1040SOL    HW114753   0.627   0.584   3.163 -3.2869  0.6227  0.9105
 1040SOL    HW214754   0.739   0.663   3.182 -1.6935  2.1715 -0.7829
 1041SOL     OW14755   0.431   4.145   8.486  0.3633 -0.1253 -0.0133
 1041SOL    HW114756   0.355   4.159   8.429  0.2648 -1.4069 -0.1839
 1041SOL    HW214757   0.382   4.087   8.544  0.7745  1.3995  1.8853
 1042SOL     OW14758   3.666   4.248   2.059 -0.8169 -0.3032 -0.2616
 1042SOL    HW114759   3.759   4.249   2.036 -1.2089 -1.2508 -1.8414
 1042SOL    HW214760   3.627   4.267   1.974 -1.7468 -0.3657  0.1592
 1043SOL     OW14761   2.315   1.765   6.770  0.0525 -0.0201  0.2224
 1043SOL    HW114762   2.341   1.756   6.861  1.1613  0.6205 -0.0257
 1043SOL    HW214763   2.391   1.792   6.719 -0.8059  1.9963  0.0134
 1044SOL     OW14764   2.961   0.283   1.855 -0.3755  0.1667  0.1132
 1044SOL    HW114765   3.021   0.249   1.788  0.2036  1.9065 -0.2676
 1044SOL    HW214766   2.890   0.320   1.803  0.0424 -0.4773 -0.9090
 1045SOL     OW14767   0.573   1.543  16.762 -0.0753 -0.3126 -0.3533
 1045SOL    HW114768   0.633   1.510  16.695 -1.0768  0.3183 -1.5528
 1045SOL    HW214769   0.591   1.636  16.775 -0.3657 -0.0886 -1.5997
 1046SOL     OW14770   4.663   3.070   4.804  0.2606  0.3000  0.6352
 1046SOL    HW114771   4.680   3.162   4.787 -1.6381  0.4945 -0.1986
 1046SOL    HW214772   4.580   3.062   4.757  2.8198 -1.5666 -3.6049
 1047SOL     OW14773   1.436   3.354  10.217 -0.0407 -0.0999  0.5320
 1047SOL    HW114774   1.369   3.418  10.240 -0.6914 -0.1476 -1.1861
 1047SOL    HW214775   1.514   3.384  10.263  0.5306  1.0189 -1.1635
 1048SOL     OW14776   4.200   2.554  15.633 -0.1888 -0.1717  0.1340
 1048SOL    HW114777   4.253   2.543  15.712  1.5229  0.9910 -0.8582
 1048SOL    HW214778   4.228   2.642  15.606 -0.6047 -0.2031 -0.4046
 1049SOL     OW14779   3.474   4.197   5.336  0.2606  0.4017 -0.6432
 1049SOL    HW114780   3.476   4.266   5.403  2.2968 -1.7497  1.4917
 1049SOL    HW214781   3.557   4.157   5.359  1.7288  2.8330 -1.7293
 1050SOL     OW14782   3.180   1.434  13.487 -0.6031  0.6688  0.1933
 1050SOL    HW114783   3.137   1.419  13.571 -2.5951 -3.7266 -1.6234
 1050SOL    HW214784   3.235   1.507  13.515 -1.5175  1.5472 -0.2916
 1051SOL     OW14785   1.958   0.541   7.349  0.1998 -0.0034  0.5327
 1051SOL    HW114786   1.981   0.614   7.405 -0.0426 -1.4538  2.5457
 1051SOL    HW214787   1.897   0.583   7.288  0.0466 -1.1014 -0.0790
 1052SOL     OW14788   1.193   0.355   9.212  0.0665 -0.2474 -0.1325
 1052SOL    HW114789   1.145   0.325   9.290 -0.3131  0.8269  0.0578
 1052SOL    HW214790   1.277   0.312   9.223  0.9390  1.4051 -0.3092
 1053SOL     OW14791   2.593   1.583   7.316 -0.2333 -0.0883 -0.0963
 1053SOL    HW114792   2.622   1.652   7.375  0.1975 -0.8495  0.5842
 1053SOL    HW214793   2.656   1.572   7.244 -0.2991  0.9605 -0.3076
 1054SOL     OW14794   2.210   1.142  15.571 -0.4076  0.0894 -0.5779
 1054SOL    HW114795   2.237   1.233  15.586  0.0234 -0.2128  0.4389
 1054SOL    HW214796   2.268   1.099  15.634 -1.0119 -1.6148 -1.1906
 1055SOL     OW14797   4.047   3.034  15.737 -0.1718  0.2145  0.1680
 1055SOL    HW114798   4.111   3.104  15.750  0.7241 -0.2876 -1.5870
 1055SOL    HW214799   3.962   3.077  15.730  0.3230  1.0240 -0.7848
 1056SOL     OW14800   4.124   1.808   3.844 -0.2948  0.0812  0.1315
 1056SOL    HW114801   4.203   1.782   3.796 -0.4905  0.3751 -0.3511
 1056SOL    HW214802   4.073   1.731   3.821 -1.4021  0.1307  2.4907
 1057SOL     OW14803   4.426   1.234   4.733  0.2260 -0.3558 -0.2346
 1057SOL    HW114804   4.449   1.218   4.825  1.7694 -1.2673 -0.7778
 1057SOL    HW214805   4.429   1.330   4.732  0.0950 -0.3607 -0.9917
 1058SOL     OW14806   4.377   0.147   6.685  0.4713 -0.0917 -0.0593
 1058SOL    HW114807   4.396   0.106   6.601  0.7618 -1.8079  0.8240
 1058SOL    HW214808   4.364   0.239   6.663  1.4697 -0.2877 -1.4251
 1059SOL     OW14809   2.430   2.751   1.960  0.1557  0.0828 -0.1204
 1059SOL    HW114810   2.353   2.717   1.914 -0.1260  2.9761 -1.7988
 1059SOL    HW214811   2.410   2.750   2.054  1.3783 -1.1730  0.1347
 1060SOL     OW14812   1.732   4.577   4.324 -0.2629  0.0845 -0.5431
 1060SOL    HW114813   1.727   4.658   4.374 -4.0214 -1.2700  1.2626
 1060SOL    HW214814   1.744   4.615   4.237 -0.0227 -0.1562 -0.6173
 1061SOL     OW14815   2.940   1.226   5.999 -1.3409 -0.0200  0.0642
 1061SOL    HW114816   2.942   1.306   6.051  1.2509 -0.6579  0.9711
 1061SOL    HW214817   2.879   1.248   5.928 -1.0519  3.7717  0.9740
 1062SOL     OW14818   4.327   0.446   5.879  0.1498 -0.2638  0.1944
 1062SOL    HW114819   4.357   0.533   5.906  1.1325 -1.2083  2.1304
 1062SOL    HW214820   4.410   0.397   5.877  0.0553 -0.4252  0.2334
 1063SOL     OW14821   4.277   3.190   6.963 -0.3330  0.3507  0.4067
 1063SOL    HW114822   4.296   3.202   7.056 -0.0967  3.8691 -0.0830
 1063SOL    HW214823   4.353   3.234   6.925 -1.8351  1.2005 -1.5592
 1064SOL     OW14824   1.959   0.947   4.193 -0.2614  0.1763 -0.4346
 1064SOL    HW114825   2.015   0.965   4.269 -0.6312 -1.2851  0.1749
 1064SOL    HW214826   2.026   0.900   4.144  0.8075  1.2346 -0.0150
 1065SOL     OW14827   4.066   0.523   7.785 -1.1057 -0.4413  0.0296
 1065SOL    HW114828   4.048   0.436   7.821  0.3120 -0.6995  0.1171
 1065SOL    HW214829   4.143   0.493   7.736 -1.2990 -1.2169  0.2074
 1066SOL     OW14830   0.645   2.992   2.408 -0.3544  0.0071  0.1758
 1066SOL    HW114831   0.700   2.986   2.330 -0.9070 -0.7207 -0.1669
 1066SOL    HW214832   0.602   3.077   2.395  0.6002  0.3285 -0.9102
 1067SOL     OW14833   2.128   4.227  14.492 -0.0677  0.4436 -0.0836
 1067SOL    HW114834   2.034   4.230  14.509 -0.3248  0.3562 -1.5116
 1067SOL    HW214835   2.155   4.258  14.579 -0.5325 -2.0046  0.9329
 1068SOL     OW14836   4.546   2.319   5.895  0.4655 -0.3207 -0.1266
 1068SOL    HW114837   4.529   2.225   5.900  1.1545 -0.3729  1.2126
 1068SOL    HW214838   4.639   2.320   5.871  0.2110  0.4179 -1.0673
 1069SOL     OW14839   1.755   1.058   6.363 -0.2231  0.3432 -0.1832
 1069SOL    HW114840   1.785   1.062   6.454 -1.7305  0.6878  0.2971
 1069SOL    HW214841   1.706   1.140   6.360  0.3231  0.6751 -0.0274
 1070SOL     OW14842   0.116   2.725  16.162 -0.0935  0.1537 -0.0985
 1070SOL    HW114843   0.171   2.802  16.150 -0.7201  0.4231 -1.2808
 1070SOL    HW214844   0.049   2.742  16.096 -1.8204 -0.9346  1.3745
 1071SOL     OW14845   1.135   1.244  11.577  0.3788 -0.0015  0.3728
 1071SOL    HW114846   1.177   1.327  11.600 -0.0534  1.3044 -3.6198
 1071SOL    HW214847   1.168   1.239  11.488 -0.8037 -0.5619 -0.0412
 1072SOL     OW14848   3.566   2.388   6.932  0.2978  0.2912  0.1249
 1072SOL    HW114849   3.638   2.416   6.988 -0.2678 -0.7454  1.3719
 1072SOL    HW214850   3.517   2.338   6.997 -0.1850 -2.4452 -2.3521
 1073SOL     OW14851   2.665   2.029  16.768  0.3868  0.2649 -0.2856
 1073SOL    HW114852   2.604   2.044  16.695 -0.7049  0.2065  0.6037
 1073SOL    HW214853   2.746   2.009  16.723  0.4428 -1.5872  0.6338
 1074SOL     OW14854   0.444   1.962   2.598 -0.1983  0.5244 -0.7660
 1074SOL    HW114855   0.401   1.982   2.681  0.2102 -0.1791 -0.3827
 1074SOL    HW214856   0.415   1.871   2.583  1.1007 -0.0778  0.4417
 1075SOL     OW14857   4.030   2.041   7.550 -0.3538 -0.2972 -0.7033
 1075SOL    HW114858   4.120   2.030   7.522 -0.4455 -0.2945 -1.0016
 1075SOL    HW214859   3.983   1.973   7.501 -0.4376 -0.4283 -0.4415
 1076SOL     OW14860   3.498   0.608  12.996  0.0349  0.1072  0.0716
 1076SOL    HW114861   3.524   0.656  13.074 -0.5038  2.1779 -1.0344
 1076SOL    HW214862   3.573   0.549  12.992  0.6617  1.0283 -1.8373
 1077SOL     OW14863   3.949   2.791   6.331  0.3761 -0.3215 -0.4785
 1077SOL    HW114864   4.020   2.850   6.359  2.0962 -1.4891 -2.3759
 1077SOL    HW214865   3.929   2.751   6.415 -1.5858  0.4700 -0.5787
 1078SOL     OW14866   0.849   2.534   1.261  0.1486  0.3456  0.2585
 1078SOL    HW114867   0.791   2.605   1.234  0.3515  0.9416  1.4037
 1078SOL    HW214868   0.858   2.477   1.184 -2.9385 -0.4560  0.4854
 1079SOL     OW14869   0.197   2.914   5.136  0.3190 -0.6046  0.0720
 1079SOL    HW114870   0.177   2.913   5.229 -2.0716  3.5335 -0.3838
 1079SOL    HW214871   0.184   3.007   5.116  2.4254 -0.1700  0.6469
 1080SOL     OW14872   1.633   1.640  16.079 -0.1962 -0.4637 -0.0048
 1080SOL    HW114873   1.660   1.548  16.077 -2.0627 -0.9487 -2.3710
 1080SOL    HW214874   1.621   1.656  15.986 -0.5738 -0.0915  0.1094
 1081SOL     OW14875   0.527   3.572   1.503 -0.2563 -0.1806  0.4800
 1081SOL    HW114876   0.486   3.509   1.561  0.1849 -0.4714  0.4816
 1081SOL    HW214877   0.593   3.512   1.468  0.8607  2.0780 -1.2624
 1082SOL     OW14878   2.623   3.907   2.714 -0.0848  0.0289 -0.2407
 1082SOL    HW114879   2.572   3.835   2.751  1.4419 -2.6141 -3.2836
 1082SOL    HW214880   2.703   3.853   2.715 -0.3404 -0.3401  0.3216
 1083SOL     OW14881   4.348   2.738  13.095 -0.6366 -0.1392 -0.0243
 1083SOL    HW114882   4.313   2.789  13.169 -2.4956  1.4349 -1.9524
 1083SOL    HW214883   4.431   2.784  13.086 -0.8175  0.0540 -0.7437
 1084SOL     OW14884   3.964   3.872   8.348 -0.0366 -0.0757  0.4484
 1084SOL    HW114885   3.922   3.923   8.418 -0.7969  2.7294 -2.0856
 1084SOL    HW214886   3.935   3.914   8.267  2.8141 -0.3559 -0.7329
 1085SOL     OW14887   0.532   3.361  13.965  0.1692  0.3278 -0.1085
 1085SOL    HW114888   0.493   3.282  14.003 -1.2734  0.7232 -0.8126
 1085SOL    HW214889   0.566   3.409  14.040  0.5669 -1.6390  0.9834
 1086SOL     OW14890   2.960   2.329  10.129  0.2949 -0.0918  0.1879
 1086SOL    HW114891   3.050   2.298  10.123 -0.0740 -0.8053 -1.5122
 1086SOL    HW214892   2.922   2.275  10.199 -1.6922 -0.1883 -0.9646
 1087SOL     OW14893   2.895   1.711   4.933  0.4062  0.4114 -0.4408
 1087SOL    HW114894   2.843   1.686   4.857  1.3874 -1.5276 -0.4602
 1087SOL    HW214895   2.987   1.731   4.913  0.5832 -0.8584 -0.8927
 1088SOL     OW14896   1.471   0.035   3.612 -0.0416  0.4027 -0.1476
 1088SOL    HW114897   1.447   0.124   3.641  1.4261  0.9856 -0.7439
 1088SOL    HW214898   1.453   0.036   3.518  1.7222  1.6230 -0.4628
 1089SOL     OW14899   0.116   2.114  13.114  0.3278  0.0541 -0.1093
 1089SOL    HW114900   0.090   2.116  13.023 -1.1909 -1.1895  0.2987
 1089SOL    HW214901   0.102   2.021  13.134  3.2919 -0.1693  1.0203
 1090SOL     OW14902   3.094   3.350  16.025  0.3348 -0.0884 -0.0242
 1090SOL    HW114903   3.031   3.391  16.084 -0.2270  0.2977 -0.8825
 1090SOL    HW214904   3.155   3.299  16.078 -0.3384 -0.5670  0.2896
 1091SOL     OW14905   3.961   3.234   9.067  0.0731  0.2066 -0.0478
 1091SOL    HW114906   3.969   3.295   9.140 -0.6464 -1.0530  1.0840
 1091SOL    HW214907   3.946   3.158   9.124 -0.0355 -1.0252 -1.7091
 1092SOL     OW14908   0.661   2.029   4.215 -0.0627 -0.9195 -0.0709
 1092SOL    HW114909   0.626   1.967   4.150  0.9487 -0.8020 -0.7282
 1092SOL    HW214910   0.608   2.108   4.208 -1.5041 -1.9468 -0.6695
 1093SOL     OW14911   1.862   4.118   0.017  0.1692  0.6918 -0.4847
 1093SOL    HW114912   1.824   4.057   0.081 -3.2352  3.3224 -0.0107
 1093SOL    HW214913   1.790   4.121  17.680 -0.0848  0.4767 -0.2033
 1094SOL     OW14914   3.638   0.957  16.366  0.4881  0.7759  0.1493
 1094SOL    HW114915   3.575   0.963  16.294  0.1561  2.0732  0.5407
 1094SOL    HW214916   3.683   1.041  16.377  1.1174  0.5915 -1.0077
 1095SOL     OW14917   3.033   0.814   1.825 -0.1578 -0.3820  0.2196
 1095SOL    HW114918   2.968   0.773   1.882 -0.0108  0.9275  1.3369
 1095SOL    HW214919   3.108   0.809   1.885 -1.5516 -0.5792  1.9484
 1096SOL     OW14920   4.615   3.754   0.380  0.2769 -0.3729 -0.2982
 1096SOL    HW114921   4.539   3.720   0.426 -0.4848  2.6574  0.6595
 1096SOL    HW214922   4.590   3.842   0.352  0.5625 -0.5301 -1.0673
 1097SOL     OW14923   1.038   1.572   4.210 -0.2988  0.0008  0.0969
 1097SOL    HW114924   1.045   1.583   4.305 -1.5342 -1.2254  0.3313
 1097SOL    HW214925   1.090   1.649   4.187  0.6475 -1.1323 -1.5932
 1098SOL     OW14926   3.133   3.692   7.336  0.8144 -0.4454  0.3930
 1098SOL    HW114927   3.213   3.744   7.340  0.2258  0.3630  1.5461
 1098SOL    HW214928   3.074   3.724   7.404  0.7950 -1.0169  0.6466
 1099SOL     OW14929   1.731   1.905   4.594 -0.1138  0.4079 -0.0021
 1099SOL    HW114930   1.735   1.810   4.592  3.6507  0.5950 -0.9428
 1099SOL    HW214931   1.641   1.926   4.569  0.3268  1.2280 -0.8711
 1100SOL     OW14932   0.505   1.195  15.557  0.1202 -0.2617 -0.6712
 1100SOL    HW114933   0.427   1.200  15.503  1.7379  0.4424 -2.9327
 1100SOL    HW214934   0.577   1.189  15.494  1.6430 -1.6625  1.1986
 1101SOL     OW14935   1.920   3.898   5.022 -0.3816 -0.5223 -0.0696
 1101SOL    HW114936   1.953   3.948   5.097  2.2786  0.5487 -1.9804
 1101SOL    HW214937   1.985   3.829   5.008 -0.9195 -0.6934 -1.7623
 1102SOL     OW14938   4.322   2.344  16.100 -0.5650 -0.1620  0.3036
 1102SOL    HW114939   4.370   2.269  16.136  0.7734 -0.0318 -1.1768
 1102SOL    HW214940   4.295   2.307  16.016 -0.7739  1.3505 -0.2907
 1103SOL     OW14941   1.057   0.655   7.534 -0.5829 -0.3585 -0.0432
 1103SOL    HW114942   1.135   0.703   7.507 -0.8390  1.2658  2.0353
 1103SOL    HW214943   1.070   0.587   7.468 -0.3410  0.9014 -1.2951
 1104SOL     OW14944   3.451   0.811  11.305 -0.2486  0.1761 -0.7271
 1104SOL    HW114945   3.465   0.791  11.398 -2.9140 -2.0097 -0.7864
 1104SOL    HW214946   3.486   0.899  11.292  1.2337  0.1433  3.0261
 1105SOL     OW14947   3.063   3.668  11.943 -0.2359 -0.2613 -0.6715
 1105SOL    HW114948   3.145   3.693  11.900  0.8204 -1.4523  0.6685
 1105SOL    HW214949   3.021   3.599  11.892 -1.1705 -1.4533  1.7651
 1106SOL     OW14950   2.912   3.519   2.235  0.2356 -0.3722 -0.6175
 1106SOL    HW114951   2.889   3.461   2.308  1.3295 -0.4119 -0.2982
 1106SOL    HW214952   3.005   3.503   2.215  0.2396 -1.8316  0.5651
 1107SOL     OW14953   0.184   3.798   5.703 -0.1893  0.6735  0.1447
 1107SOL    HW114954   0.273   3.763   5.696 -0.7047 -0.4465 -0.7462
 1107SOL    HW214955   0.149   3.766   5.620 -2.6690  0.3092  1.3365
 1108SOL     OW14956   0.160   0.170   7.408  0.2929 -0.2172  0.7429
 1108SOL    HW114957   0.179   0.119   7.487  4.0870  0.2632  0.1526
 1108SOL    HW214958   0.227   0.134   7.350  0.0580  1.6294 -0.6688
 1109SOL     OW14959   0.473   3.863   4.022 -0.5434 -0.4098 -0.1350
 1109SOL    HW114960   0.559   3.894   3.994 -0.0598 -1.2079  0.5012
 1109SOL    HW214961   0.417   3.917   3.965  1.3817  1.2979 -0.4239
 1110SOL     OW14962   2.359   4.115   6.611 -0.1947  0.4041  0.0614
 1110SOL    HW114963   2.297   4.052   6.649  0.3034 -1.3091 -1.9603
 1110SOL    HW214964   2.320   4.195   6.646  0.3266  0.0086  1.5570
 1111SOL     OW14965   0.327   3.919   8.183  0.2562  0.0586 -0.0015
 1111SOL    HW114966   0.418   3.891   8.192 -0.4904 -2.3302  0.0786
 1111SOL    HW214967   0.275   3.844   8.154 -0.8890  1.1727 -0.8209
 1112SOL     OW14968   4.590   1.841   7.516  0.6406  0.6225 -0.1564
 1112SOL    HW114969   4.649   1.906   7.552 -1.3136  2.1468  0.3264
 1112SOL    HW214970   4.628   1.838   7.428  1.3560  0.1165  0.1702
 1113SOL     OW14971   1.122   0.469  16.500 -0.2395 -0.4157 -0.2123
 1113SOL    HW114972   1.112   0.393  16.443  0.2312 -0.6472  0.0083
 1113SOL    HW214973   1.126   0.536  16.432 -2.3268  2.1048  2.1177
 1114SOL     OW14974   2.012   1.021  10.933  0.4549  0.3303  0.1710
 1114SOL    HW114975   2.088   0.997  10.986  1.6224  0.4672 -1.4456
 1114SOL    HW214976   2.005   1.112  10.961 -0.1576  0.6746 -1.0942
 1115SOL     OW14977   4.560   2.187   1.013  0.7792 -0.0222 -0.6810
 1115SOL    HW114978   4.515   2.144   0.939  2.0318 -0.3822 -1.2338
 1115SOL    HW214979   4.501   2.260   1.029 -0.6553 -1.5578  1.1320
 1116SOL     OW14980   0.824   4.009   8.728  0.5240 -0.1086  0.3199
 1116SOL    HW114981   0.841   3.975   8.816  0.5620  0.5654  0.5662
 1116SOL    HW214982   0.739   3.966   8.719  0.7170 -0.5499  0.5771
 1117SOL     OW14983   3.876   2.337   8.888  0.7322  0.4225  0.0107
 1117SOL    HW114984   3.810   2.268   8.880  0.8650  0.3488 -0.4437
 1117SOL    HW214985   3.836   2.402   8.831 -0.9576  0.6712  1.4790
 1118SOL     OW14986   2.141   1.545   5.264 -0.0338  0.4622  0.2550
 1118SOL    HW114987   2.122   1.487   5.338  3.6804 -1.5443 -0.3808
 1118SOL    HW214988   2.054   1.580   5.245  0.0721  0.1346 -0.8359
 1119SOL     OW14989   4.141   1.923   3.517  0.0884  0.1491 -0.3955
 1119SOL    HW114990   4.178   1.982   3.451  1.7570  0.0038  0.4161
 1119SOL    HW214991   4.046   1.923   3.505  0.1862  1.7874 -1.1344
 1120SOL     OW14992   1.372   0.101   4.952 -0.5662 -0.2141 -0.3720
 1120SOL    HW114993   1.367   0.177   5.010 -1.8432 -2.0085  1.8639
 1120SOL    HW214994   1.292   0.118   4.902 -0.3629 -1.4219 -1.1131
 1121SOL     OW14995   2.636   2.453   5.452 -0.4749  0.4840  0.7130
 1121SOL    HW114996   2.682   2.380   5.411 -0.4490  0.6695  0.4105
 1121SOL    HW214997   2.707   2.510   5.482  0.3960 -1.2038  1.9203
 1122SOL     OW14998   0.338   1.451   6.901 -0.3016 -0.4385  0.1780
 1122SOL    HW114999   0.280   1.383   6.866 -1.2520  0.3080  0.2861
 1122SOL    HW215000   0.327   1.450   6.996 -1.3472  1.6656  0.0695
 1123SOL     OW15001   3.594   4.168  13.890  0.0526  0.2062  0.5419
 1123SOL    HW115002   3.638   4.179  13.806 -1.0919 -2.0223 -0.3364
 1123SOL    HW215003   3.503   4.198  13.880 -0.2287 -0.4371  1.1940
 1124SOL     OW15004   0.787   3.035   8.755 -0.7819 -0.4723 -0.0914
 1124SOL    HW115005   0.732   3.111   8.772 -1.1756 -0.8516  0.3339
 1124SOL    HW215006   0.862   3.090   8.733 -1.1775  0.0774 -0.0800
 1125SOL     OW15007   2.644   0.928   5.732 -0.4145  0.4545 -0.0071
 1125SOL    HW115008   2.626   0.884   5.648  1.0066  0.1789 -0.1710
 1125SOL    HW215009   2.560   0.974   5.733  1.1821  3.3845 -1.5823
 1126SOL     OW15010   3.019   2.774   5.055  0.0054  0.1445  0.7963
 1126SOL    HW115011   3.045   2.683   5.036  1.2943  0.5841  0.4504
 1126SOL    HW215012   2.941   2.764   5.000  0.5619 -1.0745  0.2227
 1127SOL     OW15013   4.184   4.444   3.608  0.1705  0.0552 -0.7012
 1127SOL    HW115014   4.156   4.427   3.518 -1.2027  0.4195 -0.3381
 1127SOL    HW215015   4.267   4.487   3.588  0.1951 -0.9473 -2.6951
 1128SOL     OW15016   4.045   3.646   8.225  0.0211 -0.0766  0.3899
 1128SOL    HW115017   4.075   3.610   8.309 -1.6526  0.8309  1.3722
 1128SOL    HW215018   3.997   3.721   8.260  1.2695  1.3492 -0.9184
 1129SOL     OW15019   1.990   0.548   5.294 -0.0393 -0.0214  0.0779
 1129SOL    HW115020   1.933   0.489   5.245  1.2530 -1.8089  0.7486
 1129SOL    HW215021   2.005   0.616   5.228 -0.9624 -0.3103 -0.4250
 1130SOL     OW15022   0.122   0.930   4.978 -0.4208  0.3578 -0.3870
 1130SOL    HW115023   0.040   0.885   4.959  0.1300 -0.3872 -0.9629
 1130SOL    HW215024   0.121   1.005   4.918  2.4058  0.9524  0.2644
 1131SOL     OW15025   4.551   0.824   2.069 -0.3999  0.1537 -0.0600
 1131SOL    HW115026   4.590   0.890   2.011  0.4060 -0.4845 -0.2405
 1131SOL    HW215027   4.629   0.786   2.110 -0.1780 -1.0421 -1.6018
 1132SOL     OW15028   0.334   1.122  12.658 -0.2444 -0.2627  0.7618
 1132SOL    HW115029   0.268   1.169  12.607  1.2844 -1.0045 -1.9201
 1132SOL    HW215030   0.375   1.073  12.586 -1.6604 -1.9416  1.0948
 1133SOL     OW15031   3.258   1.404   6.514  0.1806  1.3051  0.6193
 1133SOL    HW115032   3.178   1.393   6.463 -0.8081 -1.2781  2.6953
 1133SOL    HW215033   3.232   1.482   6.563 -0.8671  2.6756 -2.1443
 1134SOL     OW15034   1.342   3.900  17.230  0.0500 -0.4725  0.3082
 1134SOL    HW115035   1.291   3.836  17.181 -0.1934 -0.3992  0.4640
 1134SOL    HW215036   1.322   3.982  17.186 -0.0397  0.9826  3.0693
 1135SOL     OW15037   1.306   3.938   1.287  0.6305 -0.2956 -0.5337
 1135SOL    HW115038   1.294   4.027   1.255  2.2075 -0.0417 -0.3814
 1135SOL    HW215039   1.223   3.907   1.324  0.7556 -0.1299 -0.1148
 1136SOL     OW15040   3.170   4.359   7.351  0.3107  0.1760  0.3896
 1136SOL    HW115041   3.196   4.402   7.270  0.5235  1.5128  1.1620
 1136SOL    HW215042   3.249   4.307   7.367 -1.0302 -2.8386 -2.7504
 1137SOL     OW15043   4.725   0.742   1.534  0.0778  0.0229  0.3732
 1137SOL    HW115044   4.636   0.758   1.568  1.0519  1.9219  2.0313
 1137SOL    HW215045   4.709   0.652   1.507 -1.3474  0.9560 -1.9057
 1138SOL     OW15046   4.616   1.246   7.999 -0.0325 -0.4045 -0.4384
 1138SOL    HW115047   4.547   1.179   8.005  0.1799 -0.6699 -1.0092
 1138SOL    HW215048   4.631   1.241   7.905  0.5706 -2.1812 -0.2473
 1139SOL     OW15049   2.884   3.301   4.626  0.1482 -0.3856 -0.0982
 1139SOL    HW115050   2.965   3.347   4.603  0.1135  0.0536  0.6714
 1139SOL    HW215051   2.911   3.213   4.598  1.1894 -0.0270 -0.2232
 1140SOL     OW15052   2.218   2.542   8.074 -0.1042  0.5942 -0.2603
 1140SOL    HW115053   2.184   2.631   8.081 -0.2996  0.4579  0.5493
 1140SOL    HW215054   2.144   2.484   8.087 -1.3417  1.7375 -2.2644
 1141SOL     OW15055   3.622   0.315  17.630 -0.0078  0.2414 -0.5387
 1141SOL    HW115056   3.690   0.248  17.620  0.3118  0.4378  0.3216
 1141SOL    HW215057   3.561   0.257  17.585 -0.5936  0.7297 -0.3782
 1142SOL     OW15058   3.367   1.618   0.624  0.3407 -0.3222 -0.1378
 1142SOL    HW115059   3.430   1.562   0.670 -0.0640 -1.4172 -0.9085
 1142SOL    HW215060   3.368   1.570   0.541  2.0227 -1.8552  0.7628
 1143SOL     OW15061   3.511   2.835   0.728 -0.4832  0.2128  0.4838
 1143SOL    HW115062   3.464   2.810   0.808 -2.5667 -0.4471 -0.9357
 1143SOL    HW215063   3.460   2.908   0.693 -1.1463 -0.3802  0.2149
 1144SOL     OW15064   3.499   2.567   7.293 -0.0092 -0.0935  0.4156
 1144SOL    HW115065   3.454   2.569   7.208  0.2537  1.1152  0.2952
 1144SOL    HW215066   3.438   2.616   7.348 -2.3770 -0.3174 -1.9905
 1145SOL     OW15067   2.754   1.180   5.777  0.1911 -0.3016  0.8523
 1145SOL    HW115068   2.746   1.085   5.778 -0.4543 -0.2316  2.2556
 1145SOL    HW215069   2.738   1.197   5.684  1.7283 -0.5230  0.5419
 1146SOL     OW15070   1.946   3.967  15.265  0.4091 -0.5911  0.2259
 1146SOL    HW115071   1.962   3.890  15.320 -1.2068 -0.6117  0.6834
 1146SOL    HW215072   1.994   4.034  15.313  0.6494 -0.8646  0.3640
 1147SOL     OW15073   3.080   1.619   4.534 -0.7351  0.3296 -0.5012
 1147SOL    HW115074   2.986   1.611   4.516 -0.8637 -2.0427  1.1348
 1147SOL    HW215075   3.079   1.569   4.616 -0.4364 -0.5341 -1.0336
 1148SOL     OW15076   4.493   3.576  12.631  0.0380  0.1511  0.2290
 1148SOL    HW115077   4.546   3.517  12.684 -1.0229  1.6887  2.9782
 1148SOL    HW215078   4.421   3.516  12.612 -0.1464  0.7022 -0.8167
 1149SOL     OW15079   2.500   2.714  16.913  0.8105 -0.2050  0.7785
 1149SOL    HW115080   2.534   2.640  16.863 -0.4206 -0.3547  0.1596
 1149SOL    HW215081   2.558   2.785  16.886  1.2643  0.2213  2.9131
 1150SOL     OW15082   2.239   0.319   6.175  0.1897  0.2931  0.3243
 1150SOL    HW115083   2.275   0.294   6.260 -0.7938 -4.5384 -0.6243
 1150SOL    HW215084   2.145   0.299   6.180  0.3248 -1.4807 -3.8657
 1151SOL     OW15085   0.907   3.646   3.713  0.1925  0.5216  0.3260
 1151SOL    HW115086   0.927   3.577   3.650  0.0264  0.8698 -0.1093
 1151SOL    HW215087   0.985   3.701   3.708  2.1108 -2.1434  1.1547
 1152SOL     OW15088   0.613   2.827   8.760 -0.0412 -0.4481  0.4034
 1152SOL    HW115089   0.676   2.755   8.746 -0.9129 -0.6936 -2.2705
 1152SOL    HW215090   0.668   2.905   8.752  1.7975 -1.7415  0.4760
 1153SOL     OW15091   2.359   4.008   0.425  0.6892 -0.3702  0.0107
 1153SOL    HW115092   2.412   3.964   0.358  0.8838 -0.3613  0.1584
 1153SOL    HW215093   2.308   3.940   0.468 -0.7584  1.0572  0.5143
 1154SOL     OW15094   4.320   2.412   7.518  0.1188 -0.2381 -0.4518
 1154SOL    HW115095   4.276   2.471   7.579 -1.0728 -2.7319  1.0824
 1154SOL    HW215096   4.405   2.443   7.549 -0.8888  1.4961  0.5511
 1155SOL     OW15097   2.845   2.755  14.763 -0.3252 -1.0053  0.0385
 1155SOL    HW115098   2.819   2.836  14.720 -0.7905 -0.7789  0.7445
 1155SOL    HW215099   2.756   2.721  14.753 -0.2284 -1.2750  0.0872
 1156SOL     OW15100   1.763   0.513   3.581 -0.3117 -0.7277 -0.4165
 1156SOL    HW115101   1.811   0.593   3.560 -1.1618 -0.1588 -0.2316
 1156SOL    HW215102   1.803   0.448   3.523  1.5211  0.5702 -0.5899
 1157SOL     OW15103   4.039   4.153   5.773  0.1425 -0.4706  0.0494
 1157SOL    HW115104   4.017   4.245   5.786 -1.5488 -0.7157 -1.0304
 1157SOL    HW215105   4.036   4.115   5.860 -0.7469  0.3624  0.3799
 1158SOL     OW15106   0.546   4.467   7.486 -0.3054 -0.1950  0.2587
 1158SOL    HW115107   0.465   4.448   7.533  0.0305 -0.4605  0.7286
 1158SOL    HW215108   0.613   4.416   7.531 -0.7842  0.2835  1.5088
 1159SOL     OW15109   2.997   2.914   3.989 -0.1788  0.6936  0.1193
 1159SOL    HW115110   3.056   2.843   4.015  0.1562  1.3321  1.0954
 1159SOL    HW215111   2.992   2.963   4.071  0.9862  2.6283 -0.9715
 1160SOL     OW15112   1.564   0.621   2.143  0.3124  0.5462  0.3481
 1160SOL    HW115113   1.581   0.669   2.224  1.2336 -0.5681  0.8150
 1160SOL    HW215114   1.647   0.579   2.118 -0.0354 -0.6917  1.2322
 1161SOL     OW15115   4.615   2.859  16.621 -0.0241  0.2811 -0.6781
 1161SOL    HW115116   4.551   2.814  16.566 -0.1509 -0.0061 -0.2956
 1161SOL    HW215117   4.687   2.883  16.563  2.2446 -1.9866  1.2323
 1162SOL     OW15118   4.383   1.483   4.698  0.4632 -0.0932  0.0383
 1162SOL    HW115119   4.465   1.532   4.698  1.0055 -1.0138  0.4898
 1162SOL    HW215120   4.368   1.486   4.603  1.3318 -1.4767 -0.1336
 1163SOL     OW15121   3.137   3.406   4.536 -0.2101  0.0493  0.0275
 1163SOL    HW115122   3.169   3.357   4.612  0.7180  0.5030 -0.0767
 1163SOL    HW215123   3.173   3.361   4.460 -0.1991 -0.1606  0.1561
 1164SOL     OW15124   1.901   3.732  12.237  1.0164 -0.4285 -0.2398
 1164SOL    HW115125   1.865   3.805  12.186 -0.5793 -1.1362 -0.1257
 1164SOL    HW215126   1.823   3.676  12.235  0.7021 -0.0033  0.2542
 1165SOL     OW15127   3.125   3.234  14.989  0.3763  0.6411 -0.6838
 1165SOL    HW115128   3.103   3.312  14.939 -1.8455  0.9710  0.8160
 1165SOL    HW215129   3.043   3.192  15.013 -0.2864  0.9623 -2.3867
 1166SOL     OW15130   0.724   4.176   7.419  0.0594  0.0240  0.4507
 1166SOL    HW115131   0.714   4.189   7.325  2.8439  2.7668  0.5491
 1166SOL    HW215132   0.649   4.118   7.430  1.1837 -1.2472  1.3787
 1167SOL     OW15133   0.931   0.060  14.767  0.6347  0.1968 -0.2078
 1167SOL    HW115134   0.917   0.044  14.673  0.2666  1.6495 -0.3967
 1167SOL    HW215135   1.019   0.026  14.783 -0.0151  0.5867  4.0911
 1168SOL     OW15136   1.927   2.928   7.195  0.5140  0.3922  0.5253
 1168SOL    HW115137   1.904   2.842   7.231  0.1253 -0.1457 -1.0312
 1168SOL    HW215138   1.946   2.912   7.103  0.5318 -1.1238  0.7844
 1169SOL     OW15139   0.797   4.655   7.193 -0.0444  0.6331 -0.0668
 1169SOL    HW115140   0.702   4.656   7.208 -0.3293  1.4870 -1.8692
 1169SOL    HW215141   0.805   4.563   7.168 -1.7139  0.0641  1.5021
 1170SOL     OW15142   3.135   3.253   7.108  0.0580 -0.6414  0.1370
 1170SOL    HW115143   3.200   3.252   7.177  0.3235 -0.8950 -0.1163
 1170SOL    HW215144   3.084   3.332   7.127  0.8353  0.0400 -0.6317
 1171SOL     OW15145   3.236   2.484   5.940 -0.3198  0.1643  0.3367
 1171SOL    HW115146   3.192   2.437   5.870  1.9569 -0.2359 -0.8254
 1171SOL    HW215147   3.317   2.503   5.892  0.4155 -2.1894  0.6453
 1172SOL     OW15148   0.952   4.474  17.653 -0.0474 -0.0309  0.0126
 1172SOL    HW115149   0.975   4.559  17.615  0.2243 -0.6428 -1.1623
 1172SOL    HW215150   1.013   4.456  17.724  1.1847 -0.9343 -1.2920
 1173SOL     OW15151   2.545   3.988  14.584  0.3511  0.1909 -0.0436
 1173SOL    HW115152   2.493   3.942  14.650 -0.7799  1.3377 -0.1329
 1173SOL    HW215153   2.631   3.952  14.604  0.5185  0.5771 -0.0686
 1174SOL     OW15154   1.904   2.879   2.401  0.4223  0.0519 -0.2429
 1174SOL    HW115155   1.920   2.965   2.361  0.3942  0.7386  1.2192
 1174SOL    HW215156   1.917   2.826   2.323  0.0775 -0.7229  0.2249
 1175SOL     OW15157   4.626   1.255   3.035 -0.0402  0.4709  0.1625
 1175SOL    HW115158   4.544   1.231   2.991 -0.4486 -0.8403  1.6360
 1175SOL    HW215159   4.598   1.285   3.121 -1.9350  0.9181 -0.5916
 1176SOL     OW15160   3.285   2.864   5.266 -0.7726 -0.1746 -0.1090
 1176SOL    HW115161   3.317   2.887   5.353  0.8410  0.6270 -0.8931
 1176SOL    HW215162   3.227   2.938   5.248  0.4965  0.4678 -1.6544
 1177SOL     OW15163   0.304   4.614   4.983 -0.2148  0.2242  0.3183
 1177SOL    HW115164   0.394   4.581   4.977 -0.2987 -0.0516  0.5866
 1177SOL    HW215165   0.302   4.683   4.916  0.7994 -0.6542 -0.6147
 1178SOL     OW15166   4.112   4.141   4.422 -0.1585 -0.6035  0.0571
 1178SOL    HW115167   4.205   4.122   4.436  0.1384 -0.2869 -1.4752
 1178SOL    HW215168   4.064   4.063   4.396 -0.6615 -0.2802  0.0194
 1179SOL     OW15169   2.414   3.897  16.264 -0.3227  0.6601  0.1324
 1179SOL    HW115170   2.369   3.980  16.283  1.6453  1.5186  1.0255
 1179SOL    HW215171   2.503   3.930  16.271 -0.5332  1.9586 -3.5561
 1180SOL     OW15172   3.388   1.585   4.303  0.5373  0.1362 -0.4164
 1180SOL    HW115173   3.374   1.491   4.300 -0.6662  0.2608  1.2977
 1180SOL    HW215174   3.484   1.583   4.304  0.4336 -2.9685  0.3941
 1181SOL     OW15175   0.002   3.063   6.463  0.2626  0.7196 -0.2259
 1181SOL    HW115176   4.724   3.000   6.535  0.1448  0.7635 -0.2025
 1181SOL    HW215177   0.014   3.004   6.389 -0.5617 -0.7168  0.7804
 1182SOL     OW15178   1.233   1.050   4.623  0.0672  0.1673  0.2545
 1182SOL    HW115179   1.138   1.039   4.621  0.3490 -2.2638  0.1437
 1182SOL    HW215180   1.248   1.016   4.534 -0.4015  0.9874 -0.1399
 1183SOL     OW15181   3.501   3.178  12.567  0.0138 -0.4268  0.1449
 1183SOL    HW115182   3.550   3.163  12.486  0.4959  0.7952  0.2162
 1183SOL    HW215183   3.507   3.273  12.576 -2.0682 -0.1361 -1.5138
 1184SOL     OW15184   1.228   2.629   4.394 -0.0913 -0.0635  0.1536
 1184SOL    HW115185   1.180   2.559   4.350  1.9727  0.0784 -2.2522
 1184SOL    HW215186   1.164   2.667   4.455 -0.4798 -1.1235  0.4076
 1185SOL     OW15187   1.926   4.452   4.511 -0.4022  0.1786 -1.0792
 1185SOL    HW115188   1.843   4.484   4.477 -0.7145  0.1836 -0.3200
 1185SOL    HW215189   1.953   4.398   4.436  3.6992 -1.9174  1.8823
 1186SOL     OW15190   4.681   1.482   6.631  0.8146 -0.0322  0.1405
 1186SOL    HW115191   4.704   1.555   6.689 -0.3387 -0.2954  0.9358
 1186SOL    HW215192   4.651   1.417   6.694 -0.9970 -0.0217 -0.7106
 1187SOL     OW15193   4.028   2.007   3.111  0.3502 -0.5888 -0.1829
 1187SOL    HW115194   4.006   2.026   3.202  0.5270 -3.4819  0.4610
 1187SOL    HW215195   3.985   1.922   3.104 -1.8438  0.5084 -0.0991
 1188SOL     OW15196   0.750   2.237   0.523  0.0460 -0.0790 -0.3294
 1188SOL    HW115197   0.845   2.247   0.516  0.2151 -1.0048  0.5978
 1188SOL    HW215198   0.744   2.277   0.610  1.0505  0.4274 -0.4985
 1189SOL     OW15199   4.641   2.775   0.821 -0.4015 -0.5291 -0.3676
 1189SOL    HW115200   4.662   2.863   0.789 -0.8352 -0.7400 -1.2431
 1189SOL    HW215201   4.723   2.725   0.818  0.5286  1.0713 -1.3884
 1190SOL     OW15202   1.905   3.788   2.253  0.0074  0.7529  0.0488
 1190SOL    HW115203   1.844   3.716   2.235  0.6190 -0.4404  2.7575
 1190SOL    HW215204   1.990   3.758   2.223 -0.5089 -2.1943  1.5796
 1191SOL     OW15205   1.146   3.572   7.422 -0.3163 -0.5922  0.0577
 1191SOL    HW115206   1.197   3.525   7.356 -1.5231  0.2642 -1.4731
 1191SOL    HW215207   1.187   3.543   7.504 -3.6749  0.9271  2.3080
 1192SOL     OW15208   3.320   0.297   6.392 -0.1917 -0.0391 -0.3243
 1192SOL    HW115209   3.282   0.227   6.446 -0.3116 -0.0513 -0.4223
 1192SOL    HW215210   3.410   0.269   6.374 -0.2645  1.4729 -3.0760
 1193SOL     OW15211   3.615   2.826   5.348  0.2940  0.1415  0.6294
 1193SOL    HW115212   3.651   2.776   5.422 -0.9355 -2.1048 -0.2723
 1193SOL    HW215213   3.528   2.838   5.385  0.2961  1.2481  0.2519
 1194SOL     OW15214   4.040   2.411   1.524 -0.1047  0.1924  0.2082
 1194SOL    HW115215   3.979   2.337   1.527  0.4353 -0.2864 -0.8378
 1194SOL    HW215216   3.992   2.463   1.589 -0.4528  0.5337 -0.3220
 1195SOL     OW15217   2.894   3.535  12.483  0.4534  0.6577 -0.1298
 1195SOL    HW115218   2.851   3.537  12.569  0.7798 -0.7209  0.0681
 1195SOL    HW215219   2.902   3.627  12.458  0.4350  0.8722  0.6615
 1196SOL     OW15220   2.728   3.305   5.472 -0.1122 -0.3415 -0.3844
 1196SOL    HW115221   2.732   3.382   5.530 -4.0511  0.7751 -1.6079
 1196SOL    HW215222   2.634   3.303   5.454 -0.1962 -0.5458  0.0673
 1197SOL     OW15223   1.787   0.832   2.612 -0.7198  0.0872 -0.5047
 1197SOL    HW115224   1.790   0.926   2.625 -0.7165  0.2252 -1.4713
 1197SOL    HW215225   1.774   0.804   2.702  0.9590 -0.2179 -0.3624
 1198SOL     OW15226   1.073   0.272  16.351  0.4717 -0.4772 -0.1945
 1198SOL    HW115227   1.150   0.216  16.341 -0.8521 -2.3630  0.2520
 1198SOL    HW215228   1.017   0.245  16.278 -0.1025  1.7371 -0.5634
 1199SOL     OW15229   3.362   3.106   0.767 -0.1723  0.0461 -0.0846
 1199SOL    HW115230   3.306   3.144   0.699 -1.5770 -1.2019  0.3955
 1199SOL    HW215231   3.311   3.119   0.847 -0.4747  3.2129 -0.7703
 1200SOL     OW15232   2.625   3.047  11.058  0.2975  0.4074 -0.0008
 1200SOL    HW115233   2.595   2.963  11.024  0.6320 -0.7552  2.6068
 1200SOL    HW215234   2.598   3.040  11.149 -1.6382  1.6716 -0.4812
 1201SOL     OW15235   4.669   1.374   8.416 -0.1390 -0.2926  0.1973
 1201SOL    HW115236   4.671   1.447   8.355  0.5968  1.4050  2.2675
 1201SOL    HW215237   0.028   1.370   8.448 -0.4526 -0.6073  1.0600
 1202SOL     OW15238   1.590   2.776   2.717  0.0727 -0.0767 -0.3054
 1202SOL    HW115239   1.620   2.788   2.626  1.2427 -1.0356 -0.0589
 1202SOL    HW215240   1.531   2.701   2.705  0.8799 -0.3861 -2.3758
 1203SOL     OW15241   3.037   3.739  17.188  0.3090  0.5087  0.1358
 1203SOL    HW115242   3.019   3.833  17.178  0.9043  0.6509  0.4137
 1203SOL    HW215243   3.018   3.721  17.280  2.9422 -1.1444  0.3652
 1204SOL     OW15244   1.277   4.156   1.067 -0.2754 -0.0677  0.0226
 1204SOL    HW115245   1.251   4.242   1.033 -0.6807 -0.7442 -1.3716
 1204SOL    HW215246   1.361   4.139   1.024 -0.2331 -1.1565  0.5359
 1205SOL     OW15247   3.331   4.012   2.228  0.3190  0.7618 -0.2139
 1205SOL    HW115248   3.362   4.073   2.294 -0.7243  0.7779  0.2689
 1205SOL    HW215249   3.254   4.065   2.205  0.0515  0.9777  1.1796
 1206SOL     OW15250   4.508   3.440  15.259 -0.4719  0.2365  0.3758
 1206SOL    HW115251   4.450   3.400  15.195 -0.7496 -0.3998  1.0253
 1206SOL    HW215252   4.527   3.527  15.222 -0.2073  0.2445  0.5297
 1207SOL     OW15253   0.652   1.012   9.121  0.9039  0.5503 -0.0957
 1207SOL    HW115254   0.631   1.085   9.180  0.2100  0.6685 -0.4945
 1207SOL    HW215255   0.680   1.063   9.045  1.0554 -0.3071 -0.6085
 1208SOL     OW15256   4.529   2.577   2.001 -0.1050 -0.1332  0.3128
 1208SOL    HW115257   4.476   2.631   2.060 -0.4280 -0.6071  0.4606
 1208SOL    HW215258   4.540   2.503   2.061  0.2429  2.3408  3.2786
 1209SOL     OW15259   4.155   4.717  10.363 -0.3304  0.2144 -0.4839
 1209SOL    HW115260   4.237   4.676  10.335  0.3496  1.7207 -0.6864
 1209SOL    HW215261   4.188   0.041  10.434 -0.8529 -0.0475 -0.0370
 1210SOL     OW15262   1.591   3.957  13.200  0.6947 -0.2502  0.5368
 1210SOL    HW115263   1.578   3.929  13.110  0.5127  1.7056 -0.0325
 1210SOL    HW215264   1.594   3.875  13.251  1.2240  0.2204  1.2617
 1211SOL     OW15265   2.023   0.654   5.538  0.2146  0.1414  0.3659
 1211SOL    HW115266   1.978   0.738   5.543 -3.1332 -1.5619 -0.7278
 1211SOL    HW215267   1.985   0.624   5.455  0.6363 -0.4046  0.3657
 1212SOL     OW15268   2.773   3.298   1.007 -0.4028 -0.1743  0.2091
 1212SOL    HW115269   2.687   3.312   1.047 -1.1769 -0.5515 -1.3298
 1212SOL    HW215270   2.769   3.203   1.010  0.5773 -0.1735  1.3937
 1213SOL     OW15271   1.884   2.681   7.282 -0.7883 -0.0916  0.4414
 1213SOL    HW115272   1.863   2.664   7.374  0.9878 -2.1838  0.4590
 1213SOL    HW215273   1.808   2.647   7.236 -0.3968 -2.0899  1.2557
 1214SOL     OW15274   4.410   0.119   8.056  0.1275 -0.2781  0.2389
 1214SOL    HW115275   4.441   0.161   7.975  0.0174 -0.8721 -0.1061
 1214SOL    HW215276   4.372   0.035   8.030  1.6860 -0.9961  0.2806
 1215SOL     OW15277   4.150   0.496   9.283  0.2403  0.2835  0.4406
 1215SOL    HW115278   4.204   0.572   9.263  1.2603 -0.0431  1.9062
 1215SOL    HW215279   4.167   0.493   9.377  1.9494  1.2818  0.1714
 1216SOL     OW15280   1.494   1.665   5.246 -0.6099 -0.4088  0.2614
 1216SOL    HW115281   1.479   1.704   5.331 -1.0218  0.8120 -0.3796
 1216SOL    HW215282   1.407   1.671   5.206 -0.6160  2.0986  0.6932
 1217SOL     OW15283   3.100   0.452   6.259 -0.4651  0.3323  0.0300
 1217SOL    HW115284   3.152   0.530   6.241 -0.9889  0.7211  0.1926
 1217SOL    HW215285   3.167   0.388   6.283  0.2474  1.4090  0.8945
 1218SOL     OW15286   1.875   1.331   4.704  0.6693  0.1749  0.4989
 1218SOL    HW115287   1.790   1.360   4.671  0.5811  1.8534  2.1867
 1218SOL    HW215288   1.837   1.252   4.742  1.2128  0.1215  0.9415
 1219SOL     OW15289   1.965   3.942   6.259  0.6588  0.1792  0.1292
 1219SOL    HW115290   1.969   3.862   6.207  0.5653  0.1245  0.2051
 1219SOL    HW215291   2.052   3.944   6.298 -0.3903  0.3426  2.4950
 1220SOL     OW15292   1.103   2.034   3.749 -0.3029 -0.0828  0.3259
 1220SOL    HW115293   1.049   1.954   3.745  1.6394 -1.3341 -1.1052
 1220SOL    HW215294   1.035   2.100   3.734  0.8395  1.1495  0.6409
 1221SOL     OW15295   0.051   0.134   1.004  0.3325  0.0814  0.3989
 1221SOL    HW115296   4.727   0.096   0.936  0.1350  1.0361  0.0241
 1221SOL    HW215297   0.002   0.093   1.076  0.2101 -1.3231 -0.4997
 1222SOL     OW15298   3.167   2.679  15.531  0.7569  0.6616 -0.8074
 1222SOL    HW115299   3.241   2.640  15.577 -1.3815 -0.1272  2.0096
 1222SOL    HW215300   3.200   2.682  15.441  0.7892  3.2488 -0.6983
 1223SOL     OW15301   0.748   4.258   6.134 -0.3967 -0.0615  0.3278
 1223SOL    HW115302   0.798   4.267   6.053 -1.9414  1.1544 -0.5033
 1223SOL    HW215303   0.753   4.343   6.178 -0.5428  1.0147 -1.7100
 1224SOL     OW15304   3.421   4.570  13.564  0.2354 -0.0490  0.1814
 1224SOL    HW115305   3.330   4.566  13.593 -0.1879  0.5536 -1.1007
 1224SOL    HW215306   3.436   4.665  13.566  0.4623 -0.0565 -1.1951
 1225SOL     OW15307   0.598   1.079  16.611 -0.2390  0.3764 -0.0716
 1225SOL    HW115308   0.524   1.033  16.572 -0.6664  1.4750 -0.5621
 1225SOL    HW215309   0.678   1.050  16.567 -1.2625 -1.5683 -0.6415
 1226SOL     OW15310   1.946   2.924   5.516 -0.4658 -0.3253 -0.4602
 1226SOL    HW115311   1.943   2.906   5.610 -0.1883  0.6546 -0.2626
 1226SOL    HW215312   1.855   2.911   5.489 -0.5572  2.4859 -1.5344
 1227SOL     OW15313   3.939   2.387   2.042 -0.3875 -0.2195  0.0958
 1227SOL    HW115314   4.027   2.424   2.038 -0.2274 -0.6610 -0.4314
 1227SOL    HW215315   3.933   2.340   1.959 -1.6440  0.2897 -0.0982
 1228SOL     OW15316   2.335   4.216   6.208  0.5158 -0.2847 -0.2975
 1228SOL    HW115317   2.348   4.263   6.126 -1.5341 -0.5827 -0.7969
 1228SOL    HW215318   2.399   4.149   6.187  0.3924 -0.1322 -1.1609
 1229SOL     OW15319   4.540   2.952   8.482  0.2506  0.2048  0.5398
 1229SOL    HW115320   4.503   2.928   8.566  0.3674  0.6186  0.7091
 1229SOL    HW215321   4.472   3.006   8.443  0.8987 -0.0964 -1.0234
 1230SOL     OW15322   0.743   3.810   8.410  0.0213 -0.2019 -0.5404
 1230SOL    HW115323   0.726   3.796   8.503  2.9136  1.5334  0.2584
 1230SOL    HW215324   0.725   3.904   8.414  1.3462  0.1156 -1.6434
 1231SOL     OW15325   1.194   4.471   2.749  0.3653  0.3394  0.2249
 1231SOL    HW115326   1.175   4.560   2.780 -0.4677  0.2198  0.0415
 1231SOL    HW215327   1.113   4.425   2.771  0.4216  1.2399  2.3465
 1232SOL     OW15328   1.558   2.901   6.567  0.4808  0.3195 -0.0308
 1232SOL    HW115329   1.649   2.933   6.564  1.2309 -1.9866 -2.3550
 1232SOL    HW215330   1.515   2.987   6.571 -0.6998 -0.0928 -3.1516
 1233SOL     OW15331   2.328   3.949   4.580 -0.1230 -0.4537 -0.3805
 1233SOL    HW115332   2.304   4.033   4.541  0.3309 -0.0845  0.1472
 1233SOL    HW215333   2.249   3.895   4.581 -0.2206 -0.3385 -2.4652
 1234SOL     OW15334   4.008   0.879   5.031 -0.0080  0.4036 -0.5978
 1234SOL    HW115335   3.986   0.941   5.101  0.0631 -2.1978  1.7050
 1234SOL    HW215336   4.054   0.807   5.074  0.2379  0.1810 -1.2378
 1235SOL     OW15337   4.494   1.589   3.932  0.1547 -0.6294 -0.5206
 1235SOL    HW115338   4.505   1.511   3.878  2.1560 -0.2054 -0.7590
 1235SOL    HW215339   4.447   1.645   3.870  0.5405  2.5936  2.1174
 1236SOL     OW15340   3.238   1.487   8.819  0.4774  0.1584  0.5573
 1236SOL    HW115341   3.171   1.428   8.784 -0.5808  0.4394  2.1428
 1236SOL    HW215342   3.313   1.428   8.818 -1.3450 -2.1576 -0.4848
 1237SOL     OW15343   3.084   3.059   5.220 -0.2464  0.4927  0.3394
 1237SOL    HW115344   3.078   3.155   5.224  1.1680  0.5652  0.8720
 1237SOL    HW215345   3.072   3.032   5.129 -0.0477  0.9986  0.1601
 1238SOL     OW15346   0.104   4.665   3.557 -0.3727  0.6430 -0.2596
 1238SOL    HW115347   0.199   4.650   3.555 -0.9121 -2.6965 -0.8295
 1238SOL    HW215348   0.088   4.676   3.463 -2.0767 -0.7257 -0.1312
 1239SOL     OW15349   0.557   0.508  12.032  0.1922 -0.3632 -0.1587
 1239SOL    HW115350   0.611   0.440  12.073 -0.3657 -1.4655 -1.2856
 1239SOL    HW215351   0.472   0.464  12.031 -0.5990  1.1386  1.3278
 1240SOL     OW15352   2.444   0.430   8.253  0.2558  0.7317  0.3138
 1240SOL    HW115353   2.501   0.502   8.223 -1.0523  1.6013 -0.1009
 1240SOL    HW215354   2.357   0.458   8.223 -0.2934 -1.5998 -0.2160
 1241SOL     OW15355   1.123   3.672   2.893  0.4899  0.0184 -0.1004
 1241SOL    HW115356   1.143   3.728   2.818  0.3611 -0.5599 -0.5713
 1241SOL    HW215357   1.118   3.738   2.961  2.2211 -0.4060  0.4555
 1242SOL     OW15358   4.071   1.003   8.591 -0.1329  0.4278 -0.2357
 1242SOL    HW115359   4.110   1.020   8.676 -0.4016 -0.8027  0.1321
 1242SOL    HW215360   4.022   0.924   8.615 -0.8029  0.8734 -0.1342
 1243SOL     OW15361   3.929   0.397   9.098 -0.2506  0.1598 -0.1821
 1243SOL    HW115362   3.975   0.447   9.165 -3.1107  1.7632  0.5717
 1243SOL    HW215363   4.000   0.351   9.053 -0.2029 -0.2184  0.2772
 1244SOL     OW15364   0.695   1.061  12.372  0.5035 -0.1366  0.1238
 1244SOL    HW115365   0.716   1.134  12.313  0.9921 -0.6341 -0.3086
 1244SOL    HW215366   0.770   1.006  12.353  0.7254  0.5944 -1.1174
 1245SOL     OW15367   0.149   1.939  13.690 -0.2192  0.3683  0.1329
 1245SOL    HW115368   0.085   1.907  13.753 -0.5610  1.9876  0.6037
 1245SOL    HW215369   0.222   1.967  13.744  0.3695  0.0846 -0.5142
 1246SOL     OW15370   1.773   2.282   5.751  0.2532 -0.1185 -0.1305
 1246SOL    HW115371   1.792   2.351   5.814  1.2043 -0.7245  0.2335
 1246SOL    HW215372   1.677   2.282   5.754  0.2733 -1.8239  0.6369
 1247SOL     OW15373   0.250   4.621   6.028  0.1493  0.1288 -0.0448
 1247SOL    HW115374   0.335   4.597   5.992  0.4393 -0.9875  1.3714
 1247SOL    HW215375   0.266   4.713   6.049  2.8441  0.0438 -1.7942
 1248SOL     OW15376   1.826   3.236   5.540 -0.0340  0.1420 -0.1511
 1248SOL    HW115377   1.746   3.187   5.555  0.4374 -0.8747 -0.9619
 1248SOL    HW215378   1.876   3.173   5.488  2.2159  1.0440  0.9527
 1249SOL     OW15379   3.018   0.850  16.339  0.2972  0.1141 -0.3975
 1249SOL    HW115380   3.032   0.932  16.292 -0.8643  1.0477  0.8732
 1249SOL    HW215381   2.947   0.820  16.283 -0.3505 -0.0381  0.5019
 1250SOL     OW15382   2.711   3.965   5.238  0.7306 -0.2896 -0.1222
 1250SOL    HW115383   2.633   3.979   5.292  1.5193  0.0611  0.9445
 1250SOL    HW215384   2.716   4.052   5.200 -0.2173 -0.1344  0.1097
 1251SOL     OW15385   2.325   2.168  11.763  0.3659 -0.1444  0.1290
 1251SOL    HW115386   2.357   2.162  11.853  0.7961  1.7948  0.1078
 1251SOL    HW215387   2.385   2.232  11.725 -0.6870  1.1447  0.6739
 1252SOL     OW15388   0.880   1.119   9.972  0.2762  0.1657  0.5246
 1252SOL    HW115389   0.797   1.146  10.012 -0.6977 -1.4969 -0.3308
 1252SOL    HW215390   0.916   1.198   9.932 -0.2464  0.2406  0.1911
 1253SOL     OW15391   2.468   0.803   9.229  0.1014  0.0673  0.2984
 1253SOL    HW115392   2.433   0.840   9.148  2.3142  2.0187  0.2373
 1253SOL    HW215393   2.404   0.735   9.247  1.2830 -1.1229 -0.0573
 1254SOL     OW15394   0.942   2.277   9.593  0.1123  1.3767  0.4647
 1254SOL    HW115395   1.032   2.251   9.612 -0.1816  0.4982  0.6282
 1254SOL    HW215396   0.952   2.372   9.604  0.8173  1.3219  0.2815
 1255SOL     OW15397   0.813   4.399  12.706  0.4281  0.4661 -0.3702
 1255SOL    HW115398   0.763   4.318  12.695  0.0544  0.7081 -0.4547
 1255SOL    HW215399   0.813   4.395  12.802 -1.2764  0.2133 -0.3670
 1256SOL     OW15400   3.405   4.526  15.935 -0.5727 -0.0573  0.2697
 1256SOL    HW115401   3.475   4.567  15.883 -1.1463  2.6701  1.6265
 1256SOL    HW215402   3.369   4.485  15.857  1.0650 -3.4116  1.2825
 1257SOL     OW15403   1.989   4.505  13.970  0.3010 -0.2604 -0.3190
 1257SOL    HW115404   1.991   4.533  14.062  4.5008 -0.6543 -0.2892
 1257SOL    HW215405   1.895   4.510  13.952  0.0769  0.1602  0.9622
 1258SOL     OW15406   4.334   0.860  13.551 -0.3194  0.1504 -0.3707
 1258SOL    HW115407   4.253   0.813  13.530 -0.8422  1.4186 -1.1567
 1258SOL    HW215408   4.397   0.792  13.578 -1.5249 -1.7001 -2.2009
 1259SOL     OW15409   0.001   3.989   1.456  0.3125 -0.4620 -0.2163
 1259SOL    HW115410   0.009   3.929   1.381  0.5185 -1.4937  0.6285
 1259SOL    HW215411   4.638   3.994   1.443  0.0650 -1.9438  0.9905
 1260SOL     OW15412   3.431   2.892   7.930 -0.8079 -0.1726 -0.2062
 1260SOL    HW115413   3.502   2.956   7.935 -3.0292  2.3368 -0.8728
 1260SOL    HW215414   3.442   2.844   7.848  1.9645 -0.6532  0.4651
 1261SOL     OW15415   1.104   4.501  11.708 -0.3630 -0.2259  0.0995
 1261SOL    HW115416   1.039   4.568  11.686 -0.5409  0.0464  1.4820
 1261SOL    HW215417   1.181   4.554  11.725 -1.7701  1.3359  1.6621
 1262SOL     OW15418   4.027   0.050  12.518  0.6575 -0.9126 -0.2288
 1262SOL    HW115419   4.118   0.077  12.506  0.6594 -0.7745  0.0976
 1262SOL    HW215420   4.006   4.725  12.443 -1.5411 -0.4281  0.0286
 1263SOL     OW15421   3.742   2.596   2.038  0.2774  0.3946  0.2231
 1263SOL    HW115422   3.745   2.649   2.118  0.7465  2.3617 -1.1099
 1263SOL    HW215423   3.826   2.557   2.063  0.3901 -1.2983 -2.7871
 1264SOL     OW15424   1.779   4.706  10.656  0.1828 -0.1520 -0.5576
 1264SOL    HW115425   1.696   4.661  10.670  0.2663 -0.6762 -1.7178
 1264SOL    HW215426   1.837   4.650  10.709 -2.0583 -2.3755 -0.4710
 1265SOL     OW15427   2.931   1.311  16.734  0.8167 -0.1920 -0.5535
 1265SOL    HW115428   2.903   1.353  16.653  0.1827  2.2276  0.9410
 1265SOL    HW215429   2.913   1.369  16.807  2.2255 -0.0329 -0.3262
 1266SOL     OW15430   3.931   0.129   7.712  0.0816  0.0703 -0.0450
 1266SOL    HW115431   3.947   0.200   7.774  1.5082 -0.7794  0.5590
 1266SOL    HW215432   3.976   0.153   7.631  0.4833 -0.0218  0.1537
 1267SOL     OW15433   3.876   0.092   5.256 -0.4851  0.7366 -0.5327
 1267SOL    HW115434   3.835   0.019   5.302  1.0685 -0.4701 -1.0579
 1267SOL    HW215435   3.823   0.085   5.176  2.1465  0.5156 -2.2539
 1268SOL     OW15436   1.538   1.134   1.761  0.4887 -0.4978  0.1316
 1268SOL    HW115437   1.496   1.091   1.836  0.8934  1.7208  1.6272
 1268SOL    HW215438   1.623   1.155   1.800  0.5107 -1.2700  0.5039
 1269SOL     OW15439   4.684   2.111   4.031  0.0378 -0.3908  0.0629
 1269SOL    HW115440   4.646   2.159   3.958 -0.4972 -0.7870  0.0768
 1269SOL    HW215441   4.603   2.075   4.068 -0.2535  0.4701  0.2553
 1270SOL     OW15442   0.771   0.034   8.420  0.0318  0.2830 -0.4577
 1270SOL    HW115443   0.737   0.004   8.504  1.7847  1.7835  0.8040
 1270SOL    HW215444   0.806   4.681   8.391  0.9211  0.4255  0.2021
 1271SOL     OW15445   2.979   1.336   4.408  0.3090  0.1835 -0.0766
 1271SOL    HW115446   3.074   1.331   4.412 -0.0284 -4.2279  2.9396
 1271SOL    HW215447   2.971   1.399   4.337  0.3105 -0.6088 -0.7755
 1272SOL     OW15448   4.520   3.692   5.305 -0.2508  0.3222  0.3490
 1272SOL    HW115449   4.509   3.758   5.237  0.1193 -2.9572 -2.9150
 1272SOL    HW215450   4.447   3.632   5.289  2.6524 -2.7163 -1.6509
 1273SOL     OW15451   3.221   1.153   1.790  0.0842  0.4045 -0.4715
 1273SOL    HW115452   3.282   1.188   1.855 -0.0940  0.7563 -0.4924
 1273SOL    HW215453   3.289   1.123   1.731  0.0453  0.4746 -0.5526
 1274SOL     OW15454   1.727   1.178  16.792  0.2269 -0.0812 -0.5230
 1274SOL    HW115455   1.712   1.257  16.844 -1.0187 -0.0953 -0.8495
 1274SOL    HW215456   1.800   1.139  16.840 -1.8110 -0.0800  2.6113
 1275SOL     OW15457   3.204   4.583   9.133  0.0001  0.1148 -0.0663
 1275SOL    HW115458   3.229   4.498   9.096  3.3592  1.2806 -0.5002
 1275SOL    HW215459   3.211   4.567   9.227 -1.3396  2.8708  0.4923
 1276SOL     OW15460   0.797   3.050   7.989  0.0921 -0.1981 -0.6795
 1276SOL    HW115461   0.838   2.963   7.986 -0.6059 -0.5414 -0.1556
 1276SOL    HW215462   0.744   3.058   8.067  2.5275 -0.8069  1.0416
 1277SOL     OW15463   1.166   0.639  16.280  0.3685 -0.0213  0.0085
 1277SOL    HW115464   1.254   0.675  16.269  1.9643 -3.9231  0.0891
 1277SOL    HW215465   1.115   0.704  16.231  0.3241 -1.2573 -1.5970
 1278SOL     OW15466   4.575   3.861   9.121  0.1624 -0.3105  0.1633
 1278SOL    HW115467   4.580   3.945   9.076  0.1027 -0.7125 -0.6033
 1278SOL    HW215468   4.534   3.894   9.201  0.8464 -0.2690  0.4932
 1279SOL     OW15469   0.524   0.485   8.053 -0.1678 -0.2350  0.0369
 1279SOL    HW115470   0.533   0.546   7.980  1.5097 -0.3526  0.1397
 1279SOL    HW215471   0.616   0.479   8.079 -0.6084 -1.9172  1.1498
 1280SOL     OW15472   4.523   0.936   5.869  0.0543 -0.1443  0.1217
 1280SOL    HW115473   4.618   0.936   5.856  0.2163 -1.6725  1.3995
 1280SOL    HW215474   4.481   0.944   5.783 -0.8561 -1.5663  0.4459
 1281SOL     OW15475   2.410   4.105   7.668  0.2320 -0.0218  0.6683
 1281SOL    HW115476   2.503   4.119   7.649  0.1070  0.4089  0.3722
 1281SOL    HW215477   2.397   4.021   7.624  1.3970 -0.4253  1.0977
 1282SOL     OW15478   0.919   0.540   6.114  0.2394 -0.1479  0.1361
 1282SOL    HW115479   0.926   0.625   6.071 -0.8204 -0.9578 -1.6407
 1282SOL    HW215480   0.984   0.486   6.067 -0.5249 -1.2977  0.3954
 1283SOL     OW15481   0.005   4.330   9.882  0.5143 -0.0373 -0.4767
 1283SOL    HW115482   4.690   4.331   9.798  1.3588 -0.8699 -0.9526
 1283SOL    HW215483   0.076   4.390   9.862 -1.3025  1.5930 -2.1303
 1284SOL     OW15484   1.176   4.314   2.997  0.1130  0.8811  0.4385
 1284SOL    HW115485   1.239   4.249   2.964 -1.6278  0.3959 -1.9222
 1284SOL    HW215486   1.199   4.398   2.957  1.7446  0.5928  0.7629
 1285SOL     OW15487   2.938   1.989  16.683  0.0699 -0.5795 -0.2252
 1285SOL    HW115488   3.015   2.041  16.659 -1.9162  1.3405 -2.4371
 1285SOL    HW215489   2.974   1.941  16.758 -0.0899 -1.9354 -0.9999
 1286SOL     OW15490   3.741   3.718   1.778 -0.1572  0.4436  0.3462
 1286SOL    HW115491   3.752   3.811   1.795 -0.0017  0.5554 -0.3569
 1286SOL    HW215492   3.749   3.714   1.683 -1.4411 -0.3835  0.2808
 1287SOL     OW15493   2.677   4.093  15.139  0.4082 -0.4141 -0.1422
 1287SOL    HW115494   2.651   4.132  15.056 -1.6314  0.3230  0.8585
 1287SOL    HW215495   2.658   3.999  15.135 -2.2490  0.1823 -1.1751
 1288SOL     OW15496   4.240   2.472   8.270 -0.8361 -0.4937  0.4728
 1288SOL    HW115497   4.243   2.529   8.347  1.0282 -0.0565  0.0964
 1288SOL    HW215498   4.211   2.394   8.318 -0.6766 -1.3365 -0.7900
 1289SOL     OW15499   0.037   4.338   8.964  0.2051  0.5909 -0.0151
 1289SOL    HW115500   0.063   4.342   8.872 -0.9657  0.5793 -0.3363
 1289SOL    HW215501   4.723   4.422   8.968 -1.4780 -0.2445 -1.9617
 1290SOL     OW15502   2.251   0.217   2.981  0.2527  0.7881  0.6263
 1290SOL    HW115503   2.262   0.263   2.898 -1.3257  1.9462  1.0706
 1290SOL    HW215504   2.309   0.269   3.035 -0.3466  1.1342  0.9370
 1291SOL     OW15505   0.487   0.842   1.586  0.4018  1.0197  0.5825
 1291SOL    HW115506   0.513   0.870   1.499  1.2705  1.2064  0.8980
 1291SOL    HW215507   0.512   0.750   1.584 -2.9593  0.0931  0.1987
 1292SOL     OW15508   1.154   3.288   6.636  0.3235 -0.4392 -0.2147
 1292SOL    HW115509   1.088   3.351   6.663 -1.8053 -2.3413 -0.9617
 1292SOL    HW215510   1.121   3.263   6.549  0.4581  0.6210 -0.5633
 1293SOL     OW15511   1.426   2.460   4.242  0.0583 -0.1171  0.0815
 1293SOL    HW115512   1.436   2.440   4.335 -0.1386  0.9259  0.3213
 1293SOL    HW215513   1.410   2.376   4.199  1.0578 -1.8162  3.0178
 1294SOL     OW15514   1.631   4.636   2.839  0.1989  0.4781 -0.7433
 1294SOL    HW115515   1.706   4.628   2.897 -0.4013  2.6746  0.3458
 1294SOL    HW215516   1.671   4.609   2.757  0.9798  1.3262 -0.6359
 1295SOL     OW15517   1.450   4.230   3.265  0.2825  0.2708 -0.0800
 1295SOL    HW115518   1.437   4.324   3.281 -2.6072 -0.2097  0.3846
 1295SOL    HW215519   1.385   4.200   3.328  2.4284  1.4386  2.7270
 1296SOL     OW15520   3.320   1.572  15.538 -0.9849 -0.3544 -0.1306
 1296SOL    HW115521   3.306   1.560  15.444  0.4736 -1.0487 -0.2633
 1296SOL    HW215522   3.385   1.505  15.556 -1.7120 -0.7611  0.9608
 1297SOL     OW15523   4.641   3.336   4.798 -0.3076  0.4024  0.1505
 1297SOL    HW115524   4.669   3.383   4.876 -0.6868 -0.2109  0.6525
 1297SOL    HW215525   4.674   3.394   4.730  0.2067 -1.3826 -1.1452
 1298SOL     OW15526   3.307   2.367   9.255  0.0361  0.0260  0.1716
 1298SOL    HW115527   3.385   2.368   9.199  1.0083 -2.3672  1.4835
 1298SOL    HW215528   3.333   2.297   9.315 -0.5349 -1.5848 -1.4516
 1299SOL     OW15529   0.598   1.287   0.970 -0.4381  0.2387  0.5986
 1299SOL    HW115530   0.547   1.320   1.044 -1.5001  2.7757 -1.2489
 1299SOL    HW215531   0.642   1.213   1.011 -2.5251 -0.7047  1.1394
 1300SOL     OW15532   4.053   1.119  13.943  0.5797 -0.2796  0.0389
 1300SOL    HW115533   4.023   1.148  13.857 -1.7714  1.9386  1.6331
 1300SOL    HW215534   4.135   1.168  13.949  0.4698 -0.0347 -0.4314
 1301SOL     OW15535   4.037   4.505   6.447  0.2456  0.2595  0.0949
 1301SOL    HW115536   4.105   4.559   6.406  0.0517  1.9539  1.9474
 1301SOL    HW215537   3.966   4.559   6.411  1.3377  1.8572  0.3144
 1302SOL     OW15538   3.570   0.543   2.479  0.4088  0.4867  0.6099
 1302SOL    HW115539   3.596   0.451   2.474 -0.3304  0.2709  0.6403
 1302SOL    HW215540   3.480   0.538   2.511  0.0791 -0.3808 -0.4128
 1303SOL     OW15541   4.265   3.973   0.448 -0.1532 -0.1113 -0.1627
 1303SOL    HW115542   4.337   3.941   0.393 -0.4068  0.9969 -1.1486
 1303SOL    HW215543   4.307   4.047   0.492  1.5396 -0.7829 -0.6388
 1304SOL     OW15544   4.454   3.176   7.933 -0.2744  0.1169 -0.7205
 1304SOL    HW115545   4.438   3.176   8.028  1.0535 -1.6467 -0.5163
 1304SOL    HW215546   4.546   3.200   7.935 -0.3651  0.4045  0.1967
 1305SOL     OW15547   0.075   2.232   2.333  0.4140 -0.2722  0.3183
 1305SOL    HW115548   0.025   2.154   2.310 -0.2638  0.8015 -1.8541
 1305SOL    HW215549   0.159   2.201   2.366 -0.1458 -2.0250  0.0736
 1306SOL     OW15550   3.914   1.634  14.405 -0.4060 -0.2703  0.1561
 1306SOL    HW115551   3.895   1.589  14.488  2.3005 -0.4741  0.6706
 1306SOL    HW215552   3.853   1.708  14.397  0.1330  0.3087  1.3770
 1307SOL     OW15553   3.050   2.380  15.095 -0.1516 -0.1465  0.1710
 1307SOL    HW115554   3.007   2.442  15.154 -0.0047 -0.2820  0.4194
 1307SOL    HW215555   3.138   2.407  15.119  0.6854 -2.4391 -0.3200
 1308SOL     OW15556   3.538   2.299   7.367 -0.4717  0.0599  0.6978
 1308SOL    HW115557   3.501   2.378   7.328  0.2611  0.7225  1.3542
 1308SOL    HW215558   3.590   2.331   7.441  0.4992  0.6886 -0.2639
 1309SOL     OW15559   4.013   3.017  14.231 -0.3898  0.0428  0.2782
 1309SOL    HW115560   4.009   3.109  14.204  0.6507 -0.2912 -0.9838
 1309SOL    HW215561   3.970   3.028  14.316 -0.7154  1.1277 -0.0261
 1310SOL     OW15562   2.474   0.801   2.530 -0.8579  0.3853  0.3341
 1310SOL    HW115563   2.430   0.777   2.449  0.4343  2.5425 -1.0196
 1310SOL    HW215564   2.405   0.808   2.596 -1.8709  0.3672 -0.7341
 1311SOL     OW15565   2.042   2.280  12.471 -0.0000 -0.5930 -0.1213
 1311SOL    HW115566   2.093   2.334  12.410 -1.1100 -0.1582 -0.6528
 1311SOL    HW215567   2.029   2.200  12.420  0.0060 -1.5409  1.3736
 1312SOL     OW15568   2.861   1.389   3.124 -0.0241 -0.5835 -0.3451
 1312SOL    HW115569   2.814   1.460   3.167 -0.7707 -1.0623 -0.3844
 1312SOL    HW215570   2.842   1.322   3.190 -2.9487 -0.0959 -0.7364
 1313SOL     OW15571   0.213   3.008  16.212  0.3774 -0.2555  0.1989
 1313SOL    HW115572   0.211   3.085  16.268 -0.4509 -0.6236  0.6849
 1313SOL    HW215573   0.235   3.055  16.131  0.3668 -0.1842  0.2376
 1314SOL     OW15574   3.146   1.409  12.991  0.2473 -0.2776  0.4849
 1314SOL    HW115575   3.151   1.479  12.926 -0.9766  0.1352  0.8401
 1314SOL    HW215576   3.111   1.450  13.070  0.0119 -0.7730  0.6373
 1315SOL     OW15577   2.628   0.974   4.144  0.5778 -0.3596  0.0340
 1315SOL    HW115578   2.579   0.919   4.083  0.7869  0.5225 -0.9202
 1315SOL    HW215579   2.573   0.979   4.223  0.7080  1.7810 -0.0165
 1316SOL     OW15580   4.308   0.605   2.816  0.1827 -0.1091  0.0295
 1316SOL    HW115581   4.312   0.681   2.874 -1.0898 -0.2774  0.3470
 1316SOL    HW215582   4.245   0.647   2.758  1.0220  0.1963 -0.6487
 1317SOL     OW15583   3.612   3.673  10.956 -0.8591  0.2428  0.6303
 1317SOL    HW115584   3.661   3.708  11.030 -2.0124  0.7414  1.1598
 1317SOL    HW215585   3.531   3.723  10.960 -1.1182  0.0347 -2.8496
 1318SOL     OW15586   0.698   2.499   1.546 -0.0975 -0.2563  0.1355
 1318SOL    HW115587   0.624   2.484   1.488 -0.6611 -0.7911  0.9974
 1318SOL    HW215588   0.767   2.494   1.479  1.1605  3.7066  1.1090
 1319SOL     OW15589   2.219   3.250  12.930  0.3000  0.3508  0.2438
 1319SOL    HW115590   2.272   3.170  12.931 -0.2550 -0.0071  1.3044
 1319SOL    HW215591   2.280   3.311  12.970 -0.6939  1.4865  0.0427
 1320SOL     OW15592   0.842   0.116   5.081 -0.6062 -0.2071  0.2974
 1320SOL    HW115593   0.816   0.026   5.064  1.0922 -0.3461 -1.5187
 1320SOL    HW215594   0.763   0.166   5.101 -1.4868 -2.3269  2.0295
 1321SOL     OW15595   1.134   4.407   6.162  0.4589  0.0122  0.1578
 1321SOL    HW115596   1.150   4.406   6.256 -1.0348  0.5614  0.4113
 1321SOL    HW215597   1.110   4.315   6.150 -0.3561  0.3119 -0.5382
 1322SOL     OW15598   3.866   3.656  13.370 -0.5616  0.6737 -0.0508
 1322SOL    HW115599   3.791   3.601  13.393  0.0246  0.6620  1.8154
 1322SOL    HW215600   3.812   3.730  13.342 -0.3047  0.6367 -0.6513
 1323SOL     OW15601   2.875   4.252   4.008 -0.3368 -0.0580  0.3703
 1323SOL    HW115602   2.826   4.249   3.925 -1.2835  2.1030  0.8516
 1323SOL    HW215603   2.805   4.225   4.067 -1.2211 -2.6092 -1.8124
 1324SOL     OW15604   1.285   2.544  10.379 -0.2670 -0.0460 -0.1119
 1324SOL    HW115605   1.323   2.481  10.318  0.9394 -0.6238  1.2233
 1324SOL    HW215606   1.199   2.503  10.389 -0.2248 -0.7838 -2.9515
 1325SOL     OW15607   1.982   1.104   7.176  0.4660 -0.0746 -0.0538
 1325SOL    HW115608   2.072   1.103   7.144  0.9610 -0.7130  1.3427
 1325SOL    HW215609   1.980   1.009   7.190 -1.3266 -0.0628 -0.1421
 1326SOL     OW15610   0.455   0.946   5.711 -0.0074  0.0668 -0.4614
 1326SOL    HW115611   0.409   1.015   5.758  1.1994  0.4442  0.1731
 1326SOL    HW215612   0.472   0.997   5.632 -0.3795 -1.1339 -1.3151
 1327SOL     OW15613   1.284   3.297   0.849  0.8280  0.1934  0.0417
 1327SOL    HW115614   1.313   3.388   0.858  0.3089  0.3772 -0.1499
 1327SOL    HW215615   1.368   3.251   0.854  0.0054 -1.3643 -0.6744
 1328SOL     OW15616   1.620   4.487   5.141  0.2227 -0.1069  0.0036
 1328SOL    HW115617   1.548   4.425   5.127 -0.2798  0.0364  2.0593
 1328SOL    HW215618   1.585   4.550   5.203  3.1234  2.5410 -1.0105
 1329SOL     OW15619   0.292   4.452   2.676  0.1473  0.3094 -0.3951
 1329SOL    HW115620   0.256   4.538   2.699  1.9080  0.6044  1.2802
 1329SOL    HW215621   0.339   4.428   2.756 -2.3783 -1.3620  0.5716
 1330SOL     OW15622   1.682   4.407  10.054 -0.1480  0.0635 -0.6465
 1330SOL    HW115623   1.691   4.501  10.068  0.8262 -0.0414 -0.5471
 1330SOL    HW215624   1.755   4.383  10.112  1.1339 -0.6601 -2.5395
 1331SOL     OW15625   4.324   3.586   8.010 -0.1700  0.1113 -0.2024
 1331SOL    HW115626   4.293   3.514   8.064 -0.8548 -0.4479 -1.3294
 1331SOL    HW215627   4.418   3.570   7.995 -0.0763 -1.3518  1.9551
 1332SOL     OW15628   4.569   1.417   1.196 -0.2917 -0.3272 -0.2832
 1332SOL    HW115629   4.602   1.327   1.202  0.8280  0.0874 -0.1675
 1332SOL    HW215630   4.572   1.444   1.288  0.0769 -0.8891 -0.1236
 1333SOL     OW15631   4.298   4.140   9.608 -0.2096  0.0806  0.3656
 1333SOL    HW115632   4.328   4.053   9.581 -0.3183  0.2134 -0.1978
 1333SOL    HW215633   4.258   4.135   9.695 -1.1746  0.8002 -0.0322
 1334SOL     OW15634   1.657   2.851   4.758  0.5407 -0.0370  0.4900
 1334SOL    HW115635   1.636   2.934   4.715  0.4521 -0.0777  0.4544
 1334SOL    HW215636   1.653   2.785   4.690 -0.4746 -0.3332  0.8425
 1335SOL     OW15637   2.475   0.231  17.691  0.2583 -0.0888  0.6665
 1335SOL    HW115638   2.434   0.156  17.648  1.3263  0.5370 -1.4383
 1335SOL    HW215639   2.404   0.295  17.678  0.5296 -0.2018 -1.3900
 1336SOL     OW15640   0.975   0.024   8.874  0.0866  0.0890 -0.0616
 1336SOL    HW115641   1.029   4.689   8.831 -0.6529 -0.5933  0.0551
 1336SOL    HW215642   0.937   0.079   8.805  1.3787 -1.4444 -1.9815
 1337SOL     OW15643   0.184   4.034   5.932  0.1745 -0.0575 -0.1046
 1337SOL    HW115644   0.126   3.979   5.879 -2.1361  0.1522  2.1936
 1337SOL    HW215645   0.129   4.048   6.010  0.8267  0.9150  0.1765
 1338SOL     OW15646   1.396   0.637   8.707  0.0856  0.2202 -0.0915
 1338SOL    HW115647   1.439   0.619   8.791  0.4225  1.2766 -0.0271
 1338SOL    HW215648   1.451   0.705   8.668  1.8557 -1.9139 -1.3198
 1339SOL     OW15649   3.642   2.394   8.752  0.8165  0.0341 -0.2415
 1339SOL    HW115650   3.650   2.399   8.657  0.3914 -1.7540 -0.3699
 1339SOL    HW215651   3.592   2.473   8.773 -0.8492 -1.6031  1.9750
 1340SOL     OW15652   1.595   1.821   6.212  0.3007 -0.0320  0.1360
 1340SOL    HW115653   1.621   1.845   6.300  0.6712 -1.3246  0.3765
 1340SOL    HW215654   1.563   1.731   6.219 -0.5751  0.1650 -1.2002
 1341SOL     OW15655   1.348   3.177   1.519  0.6105 -0.8471  0.2259
 1341SOL    HW115656   1.373   3.245   1.581 -1.2745  0.0394 -0.0038
 1341SOL    HW215657   1.253   3.177   1.527  0.6304 -1.1541  0.4677
 1342SOL     OW15658   0.727   0.957  10.319  0.1680 -0.0195  0.5926
 1342SOL    HW115659   0.758   0.869  10.295 -0.6609  0.3594 -1.9519
 1342SOL    HW215660   0.742   0.960  10.413 -1.2822  0.9949  0.7953
 1343SOL     OW15661   2.955   1.601   3.365  0.3137  0.3392  0.0892
 1343SOL    HW115662   2.866   1.580   3.339  0.1642  0.1033  0.7862
 1343SOL    HW215663   2.976   1.516   3.404  1.1076  0.1376 -0.7666
 1344SOL     OW15664   3.050   1.849  11.241 -0.1441 -0.1861  0.1490
 1344SOL    HW115665   3.101   1.839  11.322  0.1546 -2.0375 -0.2775
 1344SOL    HW215666   3.120   1.846  11.175 -0.5620  0.4632 -0.3297
 1345SOL     OW15667   3.529   4.237   7.179  0.1369 -0.3123 -0.3293
 1345SOL    HW115668   3.604   4.295   7.186  0.4769 -0.9558  1.3053
 1345SOL    HW215669   3.495   4.243   7.268 -0.1151  1.9152 -0.5727
 1346SOL     OW15670   0.113   4.434   5.062  0.4692 -0.4869 -0.4529
 1346SOL    HW115671   0.159   4.421   5.144 -1.4170 -0.6469  0.5788
 1346SOL    HW215672   0.173   4.495   5.019  0.6042 -0.8563 -0.7950
 1347SOL     OW15673   2.008   0.169   5.388 -0.0017 -0.0856 -0.1370
 1347SOL    HW115674   2.012   0.194   5.296  0.9045 -1.0610 -0.3582
 1347SOL    HW215675   2.024   0.253   5.432 -1.0377  0.2062 -0.3232
 1348SOL     OW15676   0.918   2.139  16.214  0.0948 -0.1036  0.0331
 1348SOL    HW115677   0.838   2.091  16.193  1.4956 -2.0700 -0.8437
 1348SOL    HW215678   0.974   2.076  16.260  1.4391  2.6834  2.1847
 1349SOL     OW15679   0.406   3.429   3.015  0.0438 -0.3948 -0.0248
 1349SOL    HW115680   0.391   3.346   3.060 -3.2666 -0.4791 -1.2925
 1349SOL    HW215681   0.395   3.492   3.086 -2.7403 -0.7586 -0.1433
 1350SOL     OW15682   0.365   3.153   5.318  0.5758 -0.0353  0.1834
 1350SOL    HW115683   0.274   3.184   5.313  0.6112  0.2360  1.1836
 1350SOL    HW215684   0.385   3.147   5.225 -1.0350  2.6885 -0.3392
 1351SOL     OW15685   0.834   2.252   1.752 -0.0328  0.1570  0.3532
 1351SOL    HW115686   0.786   2.335   1.745  1.5407  0.9346 -1.2189
 1351SOL    HW215687   0.795   2.197   1.684  0.2255 -1.6042  1.6191
 1352SOL     OW15688   1.398   3.458   6.655 -0.5063  0.3498  0.0005
 1352SOL    HW115689   1.336   3.394   6.621 -0.8167  0.7379 -0.1764
 1352SOL    HW215690   1.401   3.515   6.578 -1.6874 -1.5312 -1.4102
 1353SOL     OW15691   4.155   3.502   6.846 -0.1881 -0.1256  0.3535
 1353SOL    HW115692   4.134   3.455   6.926 -0.6672 -2.0859 -0.9348
 1353SOL    HW215693   4.249   3.519   6.855 -0.3806  0.8319  0.5325
 1354SOL     OW15694   1.485   2.576   5.454 -0.0901 -0.4556  0.1645
 1354SOL    HW115695   1.546   2.519   5.408 -0.4847 -1.7070  1.1889
 1354SOL    HW215696   1.441   2.594   5.372 -1.1088  0.1186  0.8349
 1355SOL     OW15697   1.492   2.945   3.292  0.3692  0.4080 -0.1852
 1355SOL    HW115698   1.526   3.015   3.347 -1.7239 -0.7005  2.5092
 1355SOL    HW215699   1.550   2.871   3.308  0.3038  0.2037 -0.8614
 1356SOL     OW15700   2.016   1.926   9.413 -0.5558 -0.6167  0.0875
 1356SOL    HW115701   1.936   1.878   9.392  0.7258 -1.3681 -3.0872
 1356SOL    HW215702   1.979   2.012   9.434  0.2421 -0.1280 -0.5195
 1357SOL     OW15703   3.212   0.332   6.870  0.3874 -0.2854  0.3848
 1357SOL    HW115704   3.277   0.336   6.800  1.7204  0.7033  1.6708
 1357SOL    HW215705   3.257   0.380   6.940  0.1832  0.9264 -0.3043
 1358SOL     OW15706   1.977   0.998   9.509  0.4526  0.0363 -0.4946
 1358SOL    HW115707   1.984   1.083   9.553  1.6718 -0.4734  0.3249
 1358SOL    HW215708   2.003   0.934   9.575  0.8539  3.1365  2.3652
 1359SOL     OW15709   1.208   3.447  11.033  0.1198  0.5203 -0.0150
 1359SOL    HW115710   1.274   3.398  11.081  0.7952 -0.9588 -2.4921
 1359SOL    HW215711   1.137   3.441  11.097  1.1647 -0.7615  1.0296
 1360SOL     OW15712   4.628   1.943   3.735 -0.2845  0.0005 -0.2750
 1360SOL    HW115713   4.625   2.016   3.797  4.1395  0.1639 -0.2680
 1360SOL    HW215714   4.612   1.986   3.651 -0.9927  1.1475  0.4586
 1361SOL     OW15715   0.029   4.312   4.178 -0.2136  0.7122  0.0651
 1361SOL    HW115716   4.683   4.288   4.228  2.1556 -2.3771  2.1997
 1361SOL    HW215717   0.081   4.232   4.184  1.1596  2.0439  5.2672
 1362SOL     OW15718   0.623   2.516  15.408 -0.5141  0.3320 -0.0756
 1362SOL    HW115719   0.596   2.442  15.462 -1.1307 -1.0563 -2.2822
 1362SOL    HW215720   0.539   2.559  15.390 -0.4081  0.6797  0.2427
 1363SOL     OW15721   3.402   0.275   7.441 -0.7847 -0.6167  1.1806
 1363SOL    HW115722   3.398   0.204   7.376  0.5425  0.8663 -0.5233
 1363SOL    HW215723   3.350   0.232   7.509 -4.3165  1.2546 -0.3644
 1364SOL     OW15724   0.212   4.309   9.167 -0.0587 -0.5803 -0.1920
 1364SOL    HW115725   0.149   4.330   9.099 -1.0400 -0.7772  0.6467
 1364SOL    HW215726   0.179   4.228   9.206  2.5538 -0.8959  1.3854
 1365SOL     OW15727   3.805   4.401   1.803 -0.1680 -0.4405  0.0337
 1365SOL    HW115728   3.760   4.334   1.752 -0.4912  0.6050 -1.0516
 1365SOL    HW215729   3.737   4.469   1.803  0.8009  0.5421 -0.2385
 1366SOL     OW15730   4.476   0.141   6.352  0.4550  0.3114 -0.4767
 1366SOL    HW115731   4.442   0.056   6.322  1.6692 -0.5072  0.4443
 1366SOL    HW215732   4.483   0.197   6.275 -2.5686  0.5371 -0.5817
 1367SOL     OW15733   4.460   1.416   8.731  0.0267  0.2718 -0.0061
 1367SOL    HW115734   4.445   1.359   8.807 -1.0695  2.1766  1.1989
 1367SOL    HW215735   4.377   1.400   8.686 -1.1380  2.8749  1.2236
 1368SOL     OW15736   0.964   1.089   7.806  0.1738  0.3064  0.4854
 1368SOL    HW115737   0.932   1.147   7.875 -2.7478 -1.8701  0.9649
 1368SOL    HW215738   1.055   1.078   7.835  0.2355 -1.5348 -0.4174
 1369SOL     OW15739   0.606   1.425  12.624  0.0344  0.5252  0.3881
 1369SOL    HW115740   0.579   1.517  12.629  2.9078  1.3222  1.7170
 1369SOL    HW215741   0.614   1.400  12.716 -1.4659  1.5444  0.8033
 1370SOL     OW15742   1.251   1.882   3.918 -0.1486  0.3393 -0.3478
 1370SOL    HW115743   1.290   1.832   3.847  0.6179 -1.4981  1.3447
 1370SOL    HW215744   1.210   1.958   3.876 -0.4667  0.2791 -0.1548
 1371SOL     OW15745   0.220   4.298   5.865 -0.3096  0.0085 -0.0499
 1371SOL    HW115746   0.289   4.318   5.929  0.2028 -0.9240 -0.3119
 1371SOL    HW215747   0.198   4.209   5.894 -0.7112  0.1411  0.0585
 1372SOL     OW15748   1.378   3.391  17.683  0.5418 -0.4587  0.2396
 1372SOL    HW115749   1.380   3.348   0.043  1.1662  1.0203  0.9870
 1372SOL    HW215750   1.429   3.468  17.710  0.0417  0.6017 -1.8073
 1373SOL     OW15751   3.493   4.354   9.746  0.0168  0.1624  0.6174
 1373SOL    HW115752   3.524   4.418   9.810 -1.9464 -0.7574  2.4892
 1373SOL    HW215753   3.403   4.332   9.769 -0.5685  0.7101 -1.1060
 1374SOL     OW15754   1.392   1.091   4.019 -0.5463 -0.1654 -0.3702
 1374SOL    HW115755   1.415   1.183   4.015 -1.0785  0.0162  0.9985
 1374SOL    HW215756   1.297   1.092   4.019 -0.5547  0.2294 -4.0945
 1375SOL     OW15757   0.085   1.214   4.404  0.5028 -0.3186 -0.2384
 1375SOL    HW115758   0.032   1.165   4.341  0.9755 -1.7700  0.4962
 1375SOL    HW215759   0.019   1.252   4.461 -0.3903 -0.1047 -1.4193
 1376SOL     OW15760   0.324   0.514  14.134 -0.0415 -0.2096  0.3498
 1376SOL    HW115761   0.326   0.427  14.095 -1.5013 -0.1547  0.1451
 1376SOL    HW215762   0.331   0.491  14.226  0.0510  0.5631  0.5409
 1377SOL     OW15763   2.375   4.060   3.607 -0.2760  0.0003 -0.5100
 1377SOL    HW115764   2.360   4.113   3.528 -0.9609 -0.7776 -0.8959
 1377SOL    HW215765   2.415   3.982   3.570  0.9999 -0.1426  1.2209
 1378SOL     OW15766   2.111   3.556   5.868 -0.4288 -0.3656 -0.0234
 1378SOL    HW115767   2.168   3.515   5.803  1.2502  0.1354  1.1230
 1378SOL    HW215768   2.030   3.570   5.818 -0.1121 -2.6340 -1.1554
 1379SOL     OW15769   0.328   0.738   7.351 -0.4517 -0.2753 -0.0188
 1379SOL    HW115770   0.355   0.825   7.379  0.2900 -0.6903  0.5426
 1379SOL    HW215771   0.280   0.750   7.269  1.3758 -0.9940 -1.1787
 1380SOL     OW15772   4.327   0.681   9.271  0.3873 -0.0646 -0.2426
 1380SOL    HW115773   4.349   0.761   9.318  2.0905 -1.0614  0.6769
 1380SOL    HW215774   4.405   0.667   9.218 -1.0938 -2.2408 -1.8591
 1381SOL     OW15775   2.071   0.803   0.016  0.2132 -0.2764 -0.9711
 1381SOL    HW115776   2.093   0.717   0.052 -1.1412  0.0887  0.7512
 1381SOL    HW215777   1.978   0.797  17.718  0.7807 -0.2426 -3.2450
 1382SOL     OW15778   1.594   4.232   1.792  0.0965  0.3891 -0.2029
 1382SOL    HW115779   1.634   4.303   1.843  1.4331  0.7705 -1.7703
 1382SOL    HW215780   1.500   4.241   1.805  0.0636 -0.2026 -0.0227
 1383SOL     OW15781   1.432   4.479  14.048  0.1620  0.3734  0.5075
 1383SOL    HW115782   1.476   4.405  14.006 -1.2912  0.2025 -0.7613
 1383SOL    HW215783   1.460   4.551  13.992 -2.6452  1.6447  0.7511
 1384SOL     OW15784   0.326   1.079   9.581 -0.1638  0.1875 -0.4895
 1384SOL    HW115785   0.249   1.119   9.621 -0.4855  0.0186 -0.9312
 1384SOL    HW215786   0.293   1.019   9.514  1.3098 -0.5402 -0.5674
 1385SOL     OW15787   1.990   3.362   1.066  0.2214  0.0179 -0.1616
 1385SOL    HW115788   1.922   3.376   1.000  2.0888 -0.1951 -2.1195
 1385SOL    HW215789   2.065   3.348   1.009  0.7096 -0.8177  0.6851
 1386SOL     OW15790   2.413   0.054   4.206  0.1431 -0.6248 -0.0902
 1386SOL    HW115791   2.355   0.063   4.131 -1.9857 -0.8394  1.5361
 1386SOL    HW215792   2.500   0.038   4.169 -1.2301 -1.1745 -3.0827
 1387SOL     OW15793   0.367   1.159   3.105 -0.2606 -0.1576  0.2881
 1387SOL    HW115794   0.445   1.141   3.052  0.0098 -0.9811  0.9569
 1387SOL    HW215795   0.398   1.225   3.167 -0.5230 -0.3713  0.6484
 1388SOL     OW15796   0.469   4.256   3.107  0.5408  0.1087  0.0881
 1388SOL    HW115797   0.545   4.201   3.090  0.4806  0.0627 -0.0322
 1388SOL    HW215798   0.405   4.187   3.087  0.5498 -0.0341  0.5421
 1389SOL     OW15799   3.331   0.338   5.009  0.2139 -0.2333 -0.4028
 1389SOL    HW115800   3.352   0.424   5.046  1.2218 -0.6110 -0.0889
 1389SOL    HW215801   3.289   0.290   5.081  0.9554  0.5682  0.5596
 1390SOL     OW15802   4.609   0.737   8.268 -0.0943  0.0229 -0.0543
 1390SOL    HW115803   4.621   0.689   8.350  0.5925  1.2591  0.5695
 1390SOL    HW215804   4.551   0.807   8.299 -0.5842  1.2144 -3.6616
 1391SOL     OW15805   2.267   0.482   4.351  0.9712  0.3211 -0.3165
 1391SOL    HW115806   2.331   0.414   4.373  0.3951 -0.5573 -1.3256
 1391SOL    HW215807   2.325   0.533   4.294  2.2823 -0.5765  0.2103
 1392SOL     OW15808   2.882   1.008   5.021 -0.4072 -0.2497 -0.3202
 1392SOL    HW115809   2.873   0.942   5.090  1.3342  0.5567  0.6676
 1392SOL    HW215810   2.829   1.075   5.064  0.5995  1.0334 -1.0899
 1393SOL     OW15811   3.198   1.335   7.080  0.2686  0.2453 -0.0576
 1393SOL    HW115812   3.137   1.322   7.152 -1.1749  0.4252 -1.2437
 1393SOL    HW215813   3.174   1.423   7.049 -0.3072  1.0064  2.5074
 1394SOL     OW15814   3.384   4.303   8.535  0.5385  0.2099  0.3535
 1394SOL    HW115815   3.437   4.313   8.456  1.7998 -0.2721  1.1246
 1394SOL    HW215816   3.298   4.308   8.495  1.0780  0.5662 -0.7657
 1395SOL     OW15817   1.263   3.058   7.050  0.2528 -0.1634 -0.3059
 1395SOL    HW115818   1.202   3.121   7.011  1.6421  0.4278 -1.4769
 1395SOL    HW215819   1.254   3.100   7.136 -2.3514 -0.4527 -0.4333
 1396SOL     OW15820   2.912   2.741  12.675  0.1850 -0.4277 -0.3610
 1396SOL    HW115821   2.845   2.743  12.742  0.4786 -0.5317 -0.0663
 1396SOL    HW215822   2.985   2.782  12.721  0.7895 -2.5103  0.5285
 1397SOL     OW15823   2.717   4.063  12.417 -0.3309 -0.5690  0.2189
 1397SOL    HW115824   2.793   4.082  12.361 -0.6845  0.7794  0.1995
 1397SOL    HW215825   2.740   4.106  12.499  1.1813  0.2349 -0.6206
 1398SOL     OW15826   2.910   0.869   2.860 -0.0498 -0.1585 -0.0359
 1398SOL    HW115827   2.899   0.958   2.893 -3.6769 -0.7724  0.4518
 1398SOL    HW215828   2.989   0.839   2.905  1.6110  2.1926 -1.3712
 1399SOL     OW15829   4.106   4.638  17.064  0.2059  0.4406 -0.2972
 1399SOL    HW115830   4.190   4.618  17.023  0.8836  0.6365  0.9974
 1399SOL    HW215831   4.137   4.694  17.134 -1.1645 -0.3909  0.9910
 1400SOL     OW15832   2.319   2.910   6.413 -0.6337  0.2179  0.2536
 1400SOL    HW115833   2.356   2.879   6.331 -0.9691  0.4760  0.0010
 1400SOL    HW215834   2.390   2.966   6.445  0.0722  0.4091 -1.6817
 1401SOL     OW15835   3.444   0.958   7.820 -0.7356  0.0445  0.0235
 1401SOL    HW115836   3.460   0.995   7.733  1.0916 -1.7682 -0.4334
 1401SOL    HW215837   3.353   0.985   7.834  0.2347  2.9963  0.6116
 1402SOL     OW15838   3.605   1.291   1.797 -0.0813  0.4563 -0.5304
 1402SOL    HW115839   3.555   1.303   1.717  1.0298  0.7528 -1.1790
 1402SOL    HW215840   3.672   1.359   1.787  1.1576 -0.8323 -0.9627
 1403SOL     OW15841   4.662   2.070  11.713  0.0249 -0.1807  0.3936
 1403SOL    HW115842   4.668   2.150  11.661  2.5237  0.1570  1.2014
 1403SOL    HW215843   4.713   2.097  11.789  0.4241 -2.0601  0.7967
 1404SOL     OW15844   3.632   0.332  17.243 -0.2382 -0.1522 -0.2599
 1404SOL    HW115845   3.673   0.417  17.227  0.2083 -0.5024 -0.9546
 1404SOL    HW215846   3.703   0.273  17.268  1.3093  1.7914 -0.0348
 1405SOL     OW15847   2.454   2.732   1.261 -0.0061  0.5067 -0.0742
 1405SOL    HW115848   2.499   2.651   1.284 -2.8186 -0.4691  1.8625
 1405SOL    HW215849   2.383   2.745   1.323  0.6833  0.5165  0.7125
 1406SOL     OW15850   4.707   4.539   3.841 -0.3784 -0.7235 -0.1529
 1406SOL    HW115851   0.028   4.596   3.785  0.1279  0.0839  1.1389
 1406SOL    HW215852   4.672   4.601   3.905 -1.5521 -1.4396 -0.1013
 1407SOL     OW15853   4.424   4.459   3.868  0.4205  0.5440  0.2707
 1407SOL    HW115854   4.500   4.472   3.812  0.7518 -0.4760  0.4952
 1407SOL    HW215855   4.383   4.381   3.828 -4.3460  3.5820 -0.8460
 1408SOL     OW15856   2.397   1.449  15.818 -0.0622 -0.0195 -0.1939
 1408SOL    HW115857   2.324   1.423  15.762 -0.8773 -0.6042  1.1365
 1408SOL    HW215858   2.345   1.468  15.896  1.2229 -0.9736  0.9054
 1409SOL     OW15859   3.934   2.534   1.742  0.1077  0.1256  0.5152
 1409SOL    HW115860   4.007   2.593   1.763  0.0476  0.2079  0.4901
 1409SOL    HW215861   3.862   2.596   1.755  1.2209  1.8957 -1.8803
 1410SOL     OW15862   3.091   1.545   1.815  0.1872  0.2292  0.1318
 1410SOL    HW115863   3.077   1.638   1.796  0.2227  0.0296 -0.8454
 1410SOL    HW215864   3.172   1.547   1.867  2.0292  0.1491 -2.7474
 1411SOL     OW15865   3.863   0.451   1.533 -0.2177 -0.0097  0.3428
 1411SOL    HW115866   3.944   0.499   1.519 -0.7591  0.8707  0.2366
 1411SOL    HW215867   3.795   0.518   1.537  1.9251  2.2460 -0.8374
 1412SOL     OW15868   1.022   3.045   5.252  0.0478  0.7792 -0.4339
 1412SOL    HW115869   0.972   3.123   5.279  0.4953  0.3616  1.6201
 1412SOL    HW215870   0.958   2.991   5.206  1.2696 -1.0272  0.0045
 1413SOL     OW15871   3.185   2.587  11.210 -0.0397 -0.0628  0.4286
 1413SOL    HW115872   3.273   2.558  11.236 -0.6007  0.2416  2.6659
 1413SOL    HW215873   3.132   2.524  11.260  0.4890 -0.8310  0.0229
 1414SOL     OW15874   1.561   1.965   7.253  0.5592 -0.1716 -0.1126
 1414SOL    HW115875   1.559   1.994   7.344 -2.6416 -1.1882  0.1685
 1414SOL    HW215876   1.486   2.015   7.218  0.4990 -0.4880 -0.4344
 1415SOL     OW15877   4.119   4.484   5.419  0.2222 -0.2157  0.2607
 1415SOL    HW115878   4.049   4.431   5.456  0.2359 -0.6813 -0.3765
 1415SOL    HW215879   4.127   4.549   5.489 -1.3121 -0.4518  0.6546
 1416SOL     OW15880   3.973   1.579   8.381 -0.2547  0.3289 -0.1597
 1416SOL    HW115881   4.023   1.647   8.338  1.7982 -0.6608  0.6712
 1416SOL    HW215882   3.882   1.610   8.383  0.1690  1.6605 -1.5857
 1417SOL     OW15883   1.447   2.158  15.617  0.0184 -0.5951 -0.0273
 1417SOL    HW115884   1.369   2.211  15.600  1.5383  0.8909 -2.4433
 1417SOL    HW215885   1.511   2.225  15.594  1.9195 -2.6881 -0.7806
 1418SOL     OW15886   2.385   2.553   2.797  0.0428  0.3710  0.1224
 1418SOL    HW115887   2.426   2.466   2.799 -2.4736 -0.8045  0.9459
 1418SOL    HW215888   2.443   2.613   2.843  0.3598  0.2328 -0.0993
 1419SOL     OW15889   2.615   2.349  10.300 -0.2492  0.4107 -0.0337
 1419SOL    HW115890   2.611   2.417  10.232 -0.8946  0.9294  0.5184
 1419SOL    HW215891   2.643   2.275  10.247  0.0159  0.3318  0.2218
 1420SOL     OW15892   2.975   3.314   3.401 -0.2186 -0.3683  0.4729
 1420SOL    HW115893   3.047   3.316   3.338  0.5690  0.2513  1.3844
 1420SOL    HW215894   2.950   3.222   3.401 -4.9884  0.9100 -2.5963
 1421SOL     OW15895   4.494   3.205   9.485  0.1646 -0.3476  0.2480
 1421SOL    HW115896   4.490   3.293   9.446 -1.3293 -0.2953  0.5273
 1421SOL    HW215897   4.589   3.196   9.487  0.3137  0.9029 -0.8448
 1422SOL     OW15898   1.145   1.937  16.911  0.1778  0.0783  0.8688
 1422SOL    HW115899   1.084   1.960  16.981 -0.2979  0.0475  0.4675
 1422SOL    HW215900   1.085   1.963  16.841  0.2856  2.2231  1.5875
 1423SOL     OW15901   2.344   3.657   9.764  0.4593  0.6308 -0.0203
 1423SOL    HW115902   2.402   3.708   9.820 -0.5081  1.2042  0.4479
 1423SOL    HW215903   2.342   3.717   9.689 -0.0067  1.6978  0.8535
 1424SOL     OW15904   1.285   4.682   5.484 -0.4493 -0.1505  0.2006
 1424SOL    HW115905   1.275   4.726   5.400 -1.9732  1.1177  1.0350
 1424SOL    HW215906   1.378   4.687   5.505 -0.1700  3.7775 -2.0343
 1425SOL     OW15907   1.875   1.876   0.371  0.3624  0.0798  0.1899
 1425SOL    HW115908   1.911   1.816   0.435 -1.2492 -1.0308  0.0610
 1425SOL    HW215909   1.893   1.828   0.290 -0.2481 -1.7769  1.1658
 1426SOL     OW15910   4.520   0.313  13.121 -0.1854 -0.1410  0.1719
 1426SOL    HW115911   4.489   0.403  13.111 -0.0928  0.1483  2.4180
 1426SOL    HW215912   4.598   0.311  13.067  0.9271  0.9898  1.7318
 1427SOL     OW15913   2.246   1.846   3.676 -0.4259  0.4619 -0.2066
 1427SOL    HW115914   2.228   1.903   3.750 -0.7402 -0.2752  0.2776
 1427SOL    HW215915   2.200   1.765   3.699  3.1061 -0.9279  1.9461
 1428SOL     OW15916   1.358   3.976   5.705 -0.4872 -0.2157  0.3015
 1428SOL    HW115917   1.288   3.910   5.710 -1.2236  0.6757  1.7458
 1428SOL    HW215918   1.363   3.995   5.611  0.8328 -2.3987 -0.0662
 1429SOL     OW15919   2.210   2.168  15.663  0.2560  0.0489  0.4025
 1429SOL    HW115920   2.129   2.164  15.712 -0.6451  0.9354 -0.9843
 1429SOL    HW215921   2.179   2.172  15.572 -0.6938 -1.3862  0.6793
 1430SOL     OW15922   3.413   2.243  11.565  0.1177 -0.5449 -0.3648
 1430SOL    HW115923   3.505   2.247  11.540 -0.0510 -2.4426 -1.2815
 1430SOL    HW215924   3.387   2.226  11.474  0.1762  2.8657 -0.9978
 1431SOL     OW15925   3.960   1.019   3.345  0.1387 -0.3801 -0.6289
 1431SOL    HW115926   4.021   0.957   3.385 -0.5579 -0.1865  0.7390
 1431SOL    HW215927   4.002   1.026   3.259 -0.6470 -0.9764 -1.0633
 1432SOL     OW15928   3.032   0.131   9.238  1.0299  0.0526  0.3878
 1432SOL    HW115929   2.966   0.195   9.267  1.4613  0.6096  0.1529
 1432SOL    HW215930   3.007   0.051   9.283  2.3944  1.1369  3.1024
 1433SOL     OW15931   3.136   3.046   6.163  0.3291  0.1539 -0.0729
 1433SOL    HW115932   3.198   2.978   6.192  1.2978  1.3126  0.5439
 1433SOL    HW215933   3.071   2.994   6.115 -0.4047  0.4021  0.6468
 1434SOL     OW15934   0.268   4.353  12.367 -0.3351 -0.3284  0.7244
 1434SOL    HW115935   0.349   4.326  12.411 -0.9306  1.4527  2.9300
 1434SOL    HW215936   0.235   4.426  12.420  0.5919  0.2175  0.5579
 1435SOL     OW15937   2.335   3.271   7.125 -0.0294 -0.0918  0.6278
 1435SOL    HW115938   2.366   3.205   7.187  1.6638  0.5317  0.4257
 1435SOL    HW215939   2.404   3.337   7.131 -0.2943  0.2059  0.4332
 1436SOL     OW15940   2.020   2.802   9.886  0.1988 -0.0074 -0.9050
 1436SOL    HW115941   2.017   2.831   9.977 -0.9908 -1.1561 -0.5777
 1436SOL    HW215942   2.020   2.889   9.845 -1.3106  0.6025  0.3982
 1437SOL     OW15943   3.189   1.955   7.226 -0.1495 -0.4535 -0.0188
 1437SOL    HW115944   3.250   2.010   7.276 -1.0813  0.9817 -0.4475
 1437SOL    HW215945   3.224   1.867   7.242  0.0075 -0.1345  1.4477
 1438SOL     OW15946   4.683   3.251   3.662  0.4557 -0.1619  0.1509
 1438SOL    HW115947   0.045   3.241   3.683  0.5722 -2.2712 -1.4442
 1438SOL    HW215948   4.688   3.341   3.630  1.9543  0.6730  2.6437
 1439SOL     OW15949   1.895   3.463   5.692 -0.1449  0.2918 -0.4548
 1439SOL    HW115950   1.885   3.378   5.650  1.5850  0.8321 -1.9131
 1439SOL    HW215951   1.852   3.445   5.776  1.5394  1.6719  0.7109
 1440SOL     OW15952   4.711   0.974   3.018 -0.3919  0.2233 -0.5258
 1440SOL    HW115953   4.700   1.056   2.971  0.3651  1.8977  2.2101
 1440SOL    HW215954   0.073   0.982   3.039 -0.2625 -2.9981  0.1563
 1441SOL     OW15955   3.252   1.734   7.339 -0.2047 -0.4274 -0.7730
 1441SOL    HW115956   3.300   1.674   7.282 -0.8334 -1.5529 -0.1324
 1441SOL    HW215957   3.301   1.731   7.421 -0.1608  2.6320 -0.6804
 1442SOL     OW15958   2.186   0.325   0.971 -0.3874  0.0552 -0.2834
 1442SOL    HW115959   2.099   0.295   0.947 -1.2900  2.2347  0.2953
 1442SOL    HW215960   2.230   0.241   0.963  0.2412  0.3348  0.1757
 1443SOL     OW15961   1.054   2.025   7.274  0.0674 -0.5322  0.2992
 1443SOL    HW115962   1.053   1.987   7.186 -1.8944 -0.5568  0.3261
 1443SOL    HW215963   0.970   2.070   7.286  0.4770 -0.0719  1.4494
 1444SOL     OW15964   1.537   2.373   9.536  0.2304 -0.1439  0.0839
 1444SOL    HW115965   1.528   2.280   9.556  0.5444 -0.4069 -0.9935
 1444SOL    HW215966   1.573   2.370   9.447 -1.7461 -2.4638 -0.6294
 1445SOL     OW15967   3.918   1.776  12.102 -0.3971  0.4245  0.0840
 1445SOL    HW115968   3.860   1.705  12.075  2.3028 -1.9882  0.7104
 1445SOL    HW215969   4.000   1.750  12.061 -0.5519  0.6216 -0.3576
 1446SOL     OW15970   1.750   1.255   3.927 -0.2050  0.1604  0.0845
 1446SOL    HW115971   1.780   1.343   3.950  0.4054 -0.1900  0.6313
 1446SOL    HW215972   1.666   1.251   3.973 -0.7387 -0.7530 -0.9816
 1447SOL     OW15973   1.821   0.481  13.863 -0.4060  0.4051 -1.1261
 1447SOL    HW115974   1.884   0.410  13.845 -1.3179 -0.0939 -2.3217
 1447SOL    HW215975   1.779   0.457  13.946 -0.1095  1.5063 -0.6573
 1448SOL     OW15976   0.323   3.711  11.823  0.0650  0.1013  0.0268
 1448SOL    HW115977   0.407   3.701  11.868 -0.5867 -0.9173  1.0217
 1448SOL    HW215978   0.354   3.777  11.761  0.5439  0.2791  0.4547
 1449SOL     OW15979   1.349   0.134  16.644 -0.2764 -0.4619  0.0996
 1449SOL    HW115980   1.406   0.146  16.720  0.5033  2.5142 -0.9486
 1449SOL    HW215981   1.389   0.197  16.584 -0.4854 -0.8178 -0.4101
 1450SOL     OW15982   2.454   1.806  16.987  0.3414  0.9745 -0.0545
 1450SOL    HW115983   2.443   1.877  17.050 -0.3521  1.2852 -0.5303
 1450SOL    HW215984   2.367   1.818  16.950  0.4625  0.9354 -0.3530
 1451SOL     OW15985   0.927   0.527  14.843  0.1367 -0.0644 -0.2528
 1451SOL    HW115986   1.004   0.538  14.788  2.3924 -0.8334  2.7092
 1451SOL    HW215987   0.893   0.448  14.801  2.8189 -0.9040 -0.8045
 1452SOL     OW15988   2.009   1.269   5.814 -0.2430  0.1854  0.3234
 1452SOL    HW115989   1.988   1.355   5.779  0.7367 -0.2764 -1.4037
 1452SOL    HW215990   1.929   1.220   5.793 -0.7873  1.4657 -0.5631
 1453SOL     OW15991   1.294   4.558   0.834 -0.1824  0.0387  0.3233
 1453SOL    HW115992   1.274   4.626   0.899  1.1672  0.3763  0.3692
 1453SOL    HW215993   1.255   4.490   0.889 -3.5272  1.7572  0.0886
 1454SOL     OW15994   0.984   1.594   2.945  0.5436 -0.0620  0.7362
 1454SOL    HW115995   0.984   1.689   2.934 -0.8761 -0.1631 -0.1459
 1454SOL    HW215996   0.889   1.584   2.937  0.5815 -1.9322  2.9002
 1455SOL     OW15997   2.872   0.636   0.720 -0.2046  0.2917  0.7376
 1455SOL    HW115998   2.781   0.610   0.705 -0.2405  0.9659 -0.1969
 1455SOL    HW215999   2.927   0.559   0.733  1.5247  1.5128  0.6705
 1456SOL     OW16000   2.587   2.424   1.915  0.5579 -0.4991  0.5012
 1456SOL    HW116001   2.560   2.455   1.828  0.0816 -0.9095  0.5036
 1456SOL    HW216002   2.532   2.346   1.921 -0.5153  0.0746 -1.8361
 1457SOL     OW16003   2.947   3.613   3.390 -0.2869 -0.1878 -0.0165
 1457SOL    HW116004   2.996   3.664   3.326  0.3273  0.5028  1.0038
 1457SOL    HW216005   2.889   3.558   3.337 -1.2800  1.9503 -1.1432
 1458SOL     OW16006   3.228   2.922   5.848  0.0285 -0.0481 -0.3749
 1458SOL    HW116007   3.311   2.879   5.828  0.8356  0.6652  1.5015
 1458SOL    HW216008   3.175   2.846   5.871 -0.6288  0.3808 -0.4519
 1459SOL     OW16009   2.745   0.841   3.385  0.7040  0.1270  0.0044
 1459SOL    HW116010   2.786   0.846   3.471  0.0870  1.9322  0.1992
 1459SOL    HW216011   2.818   0.839   3.323  0.4911 -2.2740 -0.1687
 1460SOL     OW16012   2.641   1.905   3.455  0.0717 -0.3577 -0.5991
 1460SOL    HW116013   2.670   1.839   3.517 -2.2016 -1.1857 -0.4272
 1460SOL    HW216014   2.548   1.884   3.448  0.4296 -1.9350 -0.5600
 1461SOL     OW16015   0.351   4.532  17.520  0.2924 -0.3211  0.0172
 1461SOL    HW116016   0.415   4.538  17.591  0.3893  0.1727 -0.1061
 1461SOL    HW216017   0.348   4.622  17.486  1.7253 -1.0952 -2.1350
 1462SOL     OW16018   1.668   3.017   1.985  0.0038 -0.1549 -0.2662
 1462SOL    HW116019   1.709   3.088   2.033 -1.2535  0.4099 -0.0390
 1462SOL    HW216020   1.578   3.036   2.010  0.1248  1.0130 -0.7286
 1463SOL     OW16021   2.079   2.671   4.787 -0.7389  0.1225 -0.3721
 1463SOL    HW116022   2.167   2.635   4.799  0.1126  2.3918  0.0448
 1463SOL    HW216023   2.047   2.603   4.728 -1.7850 -0.3846  0.7855
 1464SOL     OW16024   0.829   2.992   3.038 -0.4185  0.4175  0.1110
 1464SOL    HW116025   0.839   3.087   3.039  2.4131  0.0927  2.8724
 1464SOL    HW216026   0.818   2.973   2.945  0.9867  1.6397 -0.3088
 1465SOL     OW16027   3.586   3.279   0.751 -0.1588  0.1267  0.2351
 1465SOL    HW116028   3.629   3.218   0.690  0.0107  2.0017 -1.5185
 1465SOL    HW216029   3.509   3.233   0.784 -1.2428  0.7329 -1.4393
 1466SOL     OW16030   3.943   2.167   5.305 -0.5010  0.0098  0.2057
 1466SOL    HW116031   3.924   2.223   5.380 -2.0608 -0.4390  0.1400
 1466SOL    HW216032   3.887   2.090   5.317 -3.5029  2.3421  1.2980
 1467SOL     OW16033   1.235   4.066   3.537 -0.4923 -0.5786  0.1140
 1467SOL    HW116034   1.327   4.056   3.562 -0.5048 -0.8265  0.0596
 1467SOL    HW216035   1.187   4.004   3.592 -0.5312  1.0460  1.9062
 1468SOL     OW16036   3.950   1.152  14.447  0.0077 -0.0070  0.4278
 1468SOL    HW116037   3.928   1.237  14.410 -0.5855 -0.4526 -0.2262
 1468SOL    HW216038   4.013   1.172  14.517  0.0629  0.1980  0.3180
 1469SOL     OW16039   0.964   2.120   5.030 -0.4921  0.3056 -0.0019
 1469SOL    HW116040   1.056   2.125   5.004 -0.3617 -1.1398  0.1844
 1469SOL    HW216041   0.972   2.086   5.119  2.2756 -0.7872 -0.6588
 1470SOL     OW16042   2.490   1.937  10.805 -0.1650  0.4035 -0.2197
 1470SOL    HW116043   2.422   1.870  10.817 -0.9567  1.7997  3.0894
 1470SOL    HW216044   2.564   1.878  10.818 -1.1090 -1.6115 -4.2414
 1471SOL     OW16045   0.048   3.885   7.655  0.1980 -0.1540 -0.3784
 1471SOL    HW116046   4.729   3.955   7.697  0.2485 -0.2590 -0.1402
 1471SOL    HW216047   0.067   3.937   7.578 -0.8704 -0.2357 -0.7006
 1472SOL     OW16048   2.683   3.226   8.368  0.0811 -0.3486  0.0493
 1472SOL    HW116049   2.765   3.275   8.359  0.1312 -0.4105  0.1648
 1472SOL    HW216050   2.613   3.280   8.332 -0.8889 -1.8964 -0.4247
 1473SOL     OW16051   0.523   4.283   2.669 -0.1463  0.0810 -0.2131
 1473SOL    HW116052   0.519   4.358   2.610  0.6728 -0.7993 -1.3638
 1473SOL    HW216053   0.544   4.327   2.751  2.0853 -0.7021 -0.3664
 1474SOL     OW16054   0.150   0.302  15.947 -0.2683  0.2932 -0.7768
 1474SOL    HW116055   0.242   0.313  15.972  0.1570 -0.5428 -1.9505
 1474SOL    HW216056   0.134   0.215  15.983 -3.4478  0.7968 -0.9660
 1475SOL     OW16057   3.649   2.614  12.802 -0.0896  0.4501 -0.1823
 1475SOL    HW116058   3.621   2.534  12.757  1.0022 -0.0169 -0.0250
 1475SOL    HW216059   3.611   2.599  12.888  0.1872  0.5734 -0.0368
 1476SOL     OW16060   2.798   0.543  14.581  0.2122 -0.3279 -0.7740
 1476SOL    HW116061   2.759   0.613  14.634 -0.1273 -0.7428 -0.4698
 1476SOL    HW216062   2.786   0.560  14.488  1.2904 -1.6724 -1.1554
 1477SOL     OW16063   4.087   0.816   9.295  0.1135 -0.2239 -0.4595
 1477SOL    HW116064   4.158   0.799   9.234  0.0971  1.3203 -0.8964
 1477SOL    HW216065   4.118   0.794   9.383  0.6981  2.0872 -0.0911
 1478SOL     OW16066   0.165   1.329   3.022 -0.6084 -0.3603 -0.1030
 1478SOL    HW116067   0.219   1.254   2.997  0.7259  0.4334  0.3958
 1478SOL    HW216068   0.081   1.290   3.045 -1.6282  0.7268 -1.9587
 1479SOL     OW16069   2.266   1.534   2.052  0.3112  0.6089 -0.1606
 1479SOL    HW116070   2.328   1.468   2.083  0.1274  0.4903 -0.0439
 1479SOL    HW216071   2.184   1.484   2.054 -0.0325  1.1998  0.3230
 1480SOL     OW16072   4.676   1.859   9.819  0.0590 -0.1510 -0.5265
 1480SOL    HW116073   0.030   1.900   9.810  0.2979 -0.8533 -1.4185
 1480SOL    HW216074   4.631   1.887   9.740  0.9844 -0.2050 -1.0680
 1481SOL     OW16075   0.677   1.557   9.511  0.2194  0.3898 -0.0309
 1481SOL    HW116076   0.650   1.646   9.490  0.6617  0.5990  0.2964
 1481SOL    HW216077   0.771   1.571   9.514  0.6419 -2.1067 -1.0063
 1482SOL     OW16078   3.770   0.969   6.579  0.1898  0.1435  0.7880
 1482SOL    HW116079   3.693   0.913   6.572 -0.5418  1.3796 -1.1546
 1482SOL    HW216080   3.731   1.018   6.651  0.6996 -0.5748  1.5461
 1483SOL     OW16081   0.660   4.399   8.579 -0.4343 -0.5277 -0.1431
 1483SOL    HW116082   0.586   4.397   8.639  0.5870 -1.2675  1.0844
 1483SOL    HW216083   0.619   4.363   8.500 -0.4775  1.7429 -1.1468
 1484SOL     OW16084   1.525   4.541   8.689 -0.5291 -0.2956 -0.2584
 1484SOL    HW116085   1.501   4.631   8.713 -2.4420 -1.3027  1.5789
 1484SOL    HW216086   1.447   4.516   8.640 -1.0045  1.3518 -0.3305
 1485SOL     OW16087   0.684   2.800  12.448  0.0663  0.8334  0.0885
 1485SOL    HW116088   0.696   2.845  12.365 -1.9410  2.3141  0.6155
 1485SOL    HW216089   0.624   2.727  12.431 -1.1693  1.8471  0.1267
 1486SOL     OW16090   3.417   4.242   7.428 -0.3585 -0.1349 -0.1647
 1486SOL    HW116091   3.430   4.277   7.516 -0.1440 -0.3574 -0.1096
 1486SOL    HW216092   3.399   4.151   7.449 -1.0219  0.4798  1.9325
 1487SOL     OW16093   2.202   2.781   1.444  0.4255  0.0937  0.3639
 1487SOL    HW116094   2.140   2.768   1.516  0.0278  1.0975  0.2072
 1487SOL    HW216095   2.206   2.877   1.449 -0.3226  0.1146  0.6502
 1488SOL     OW16096   1.480   4.354   2.879  0.5186  0.0037  0.2495
 1488SOL    HW116097   1.568   4.383   2.901  0.0213  0.9795  0.9748
 1488SOL    HW216098   1.457   4.427   2.821 -0.7731 -0.8295 -0.2912
 1489SOL     OW16099   1.153   1.557   1.580 -0.3046  0.3154  0.7613
 1489SOL    HW116100   1.188   1.590   1.497 -2.1945  0.1158 -0.1169
 1489SOL    HW216101   1.107   1.480   1.547  1.1854 -0.2437  0.0015
 1490SOL     OW16102   0.865   4.177   5.258  0.6574 -0.2968 -0.1257
 1490SOL    HW116103   0.899   4.088   5.268 -0.9329 -0.7473  1.2631
 1490SOL    HW216104   0.838   4.176   5.166 -0.1532 -0.2316  0.1149
 1491SOL     OW16105   2.728   2.110  11.476 -0.0301 -0.2645  0.2108
 1491SOL    HW116106   2.704   2.054  11.550 -0.5979  1.2552  1.1729
 1491SOL    HW216107   2.754   2.055  11.402 -0.5268  0.4083 -0.4775
 1492SOL     OW16108   0.564   3.524   5.052  0.0423 -0.1485 -0.1349
 1492SOL    HW116109   0.569   3.614   5.085 -0.9595 -0.3043  0.4318
 1492SOL    HW216110   0.517   3.478   5.121  0.6792  0.8243  0.9483
 1493SOL     OW16111   1.273   2.963   7.326 -0.5233 -0.7345  0.6376
 1493SOL    HW116112   1.177   2.961   7.330 -0.5746 -0.4914 -0.3723
 1493SOL    HW216113   1.286   2.870   7.306  0.2546 -0.1661 -1.4939
 1494SOL     OW16114   4.154   4.169  11.308 -0.0368 -0.2843  0.0661
 1494SOL    HW116115   4.224   4.230  11.332 -0.6924  0.1844  0.8294
 1494SOL    HW216116   4.204   4.091  11.287  0.7039  0.6111 -1.4528
 1495SOL     OW16117   0.933   1.903   4.839  0.2896  0.0648 -0.6950
 1495SOL    HW116118   0.840   1.898   4.818  0.6601 -0.6758 -2.1571
 1495SOL    HW216119   0.923   1.982   4.892 -0.1937 -1.1115  0.9786
 1496SOL     OW16120   4.484   3.186   0.588 -0.0006 -0.0254 -0.1474
 1496SOL    HW116121   4.476   3.124   0.516 -1.1930  0.1457 -0.1621
 1496SOL    HW216122   4.471   3.123   0.659 -1.9105  0.3920 -0.1323
 1497SOL     OW16123   0.600   1.652   3.299 -0.2403  0.0116 -0.1610
 1497SOL    HW116124   0.561   1.704   3.370 -2.8881  1.2421 -2.5392
 1497SOL    HW216125   0.602   1.711   3.224 -2.3118  2.6156  1.8181
 1498SOL     OW16126   1.145   4.359   9.424  0.4533 -0.5268 -0.2333
 1498SOL    HW116127   1.208   4.408   9.372  0.1923  1.3658  1.2522
 1498SOL    HW216128   1.205   4.305   9.476  1.1703 -1.5903 -2.1578
 1499SOL     OW16129   4.402   4.487   5.544  0.0785 -0.0748  0.4345
 1499SOL    HW116130   4.351   4.446   5.474 -0.6344  1.4363  0.0654
 1499SOL    HW216131   4.479   4.431   5.540 -0.6271 -1.0074 -0.4124
 1500SOL     OW16132   3.633   3.286   5.351 -0.0630  0.5072  0.5127
 1500SOL    HW116133   3.633   3.256   5.442  0.2910  0.1960  0.4122
 1500SOL    HW216134   3.724   3.311   5.337 -0.5790  2.7853  1.2397
 1501SOL     OW16135   0.393   1.820   1.780  0.0456  0.4197  0.1432
 1501SOL    HW116136   0.388   1.915   1.764 -1.4999  0.3703  0.3856
 1501SOL    HW216137   0.393   1.825   1.876 -0.4355 -0.4312  0.1878
 1502SOL     OW16138   3.242   1.321  15.779 -0.0735 -0.6184 -0.3346
 1502SOL    HW116139   3.164   1.344  15.729 -0.1395  0.5306  0.3031
 1502SOL    HW216140   3.312   1.321  15.714 -1.3131 -0.9418 -1.6524
 1503SOL     OW16141   1.746   2.727  13.944  0.2476 -0.7232  0.0206
 1503SOL    HW116142   1.761   2.720  13.850  0.2306 -1.5425  0.0782
 1503SOL    HW216143   1.806   2.793  13.977  0.7248 -0.5192 -1.2885
 1504SOL     OW16144   1.363   4.700   2.738 -0.3558 -0.3653  0.0326
 1504SOL    HW116145   1.335   4.609   2.749  1.6983 -0.8940  0.9324
 1504SOL    HW216146   1.443   4.696   2.791 -1.2443 -1.3297  1.2917
 1505SOL     OW16147   0.610   2.525   2.628  0.2319  0.0692  0.1661
 1505SOL    HW116148   0.582   2.611   2.597  1.2749 -0.6002 -2.6683
 1505SOL    HW216149   0.696   2.547   2.664  0.0574  2.3041 -0.7807
 1506SOL     OW16150   1.156   2.390   7.366 -0.7395 -0.2254  0.0259
 1506SOL    HW116151   1.153   2.448   7.291 -0.8287  0.1308  0.3029
 1506SOL    HW216152   1.196   2.311   7.329 -0.6798  0.0204 -0.4272
 1507SOL     OW16153   1.957   4.584   2.344  0.3778 -0.1639 -0.7389
 1507SOL    HW116154   1.981   4.677   2.344 -0.6329  0.0907 -3.9225
 1507SOL    HW216155   2.004   4.560   2.424  3.5547 -1.1690 -2.8800
 1508SOL     OW16156   1.665   4.088   4.862 -0.4374 -0.1858 -0.0366
 1508SOL    HW116157   1.675   4.123   4.950  3.8486 -4.5116  1.2123
 1508SOL    HW216158   1.633   4.167   4.819 -1.5071 -0.2357  0.6960
 1509SOL     OW16159   2.965   0.922   5.740 -0.2088 -0.1274 -0.2079
 1509SOL    HW116160   2.916   0.864   5.800 -0.6313  1.3504  0.8650
 1509SOL    HW216161   2.996   0.852   5.682 -0.3906 -1.9059  1.8153
 1510SOL     OW16162   2.395   3.454   7.832 -0.5373  0.2457 -0.2937
 1510SOL    HW116163   2.420   3.521   7.895 -0.0973 -0.9164  0.7779
 1510SOL    HW216164   2.312   3.423   7.869  0.3342 -1.1272  0.5377
 1511SOL     OW16165   0.060   3.922   6.829  0.8173  0.2746 -0.9867
 1511SOL    HW116166   0.021   4.010   6.833  1.8368  0.7573 -1.6164
 1511SOL    HW216167   0.102   3.923   6.743  1.6716  1.3509 -0.5669
 1512SOL     OW16168   0.235   1.575   9.485 -0.4830 -0.4937  0.5407
 1512SOL    HW116169   0.224   1.482   9.505 -1.6964 -0.0051  2.1032
 1512SOL    HW216170   0.285   1.576   9.403 -0.1155  0.9997  0.7873
 1513SOL     OW16171   0.911   0.523   6.893 -0.0478 -0.5704  0.1705
 1513SOL    HW116172   0.915   0.428   6.904 -0.4353 -0.5748  0.2685
 1513SOL    HW216173   0.994   0.546   6.934 -0.2348  3.0826 -1.5571
 1514SOL     OW16174   2.999   2.118  15.106 -0.0109 -0.0603  0.0367
 1514SOL    HW116175   2.975   2.129  15.198  0.3734 -0.5650  0.2045
 1514SOL    HW216176   3.022   2.210  15.093 -0.0246 -0.0264  0.2563
 1515SOL     OW16177   3.197   3.885   7.902  0.0684 -0.0585  0.1468
 1515SOL    HW116178   3.149   3.909   7.981  0.4347 -0.2798  0.4388
 1515SOL    HW216179   3.155   3.934   7.832 -1.7285 -2.3736 -0.3902
 1516SOL     OW16180   1.244   2.744   9.302  0.4566 -0.0802 -0.3801
 1516SOL    HW116181   1.158   2.778   9.280 -0.1522 -1.4228 -0.1030
 1516SOL    HW216182   1.230   2.649   9.307  0.5415  0.0553  2.9749
 1517SOL     OW16183   4.177   3.704   7.794 -0.0080  0.2430  0.1600
 1517SOL    HW116184   4.238   3.646   7.840  1.1169  0.7282 -0.7368
 1517SOL    HW216185   4.119   3.727   7.867  3.3793  2.1466  2.2348
 1518SOL     OW16186   0.050   1.588   7.422 -0.4599 -0.6594 -0.1134
 1518SOL    HW116187   0.103   1.580   7.502  1.3951  2.7383 -0.9969
 1518SOL    HW216188   0.070   1.501   7.388 -1.2583 -1.4173  1.3493
 1519SOL     OW16189   1.818   2.917   2.847  0.2102  0.0161 -0.5372
 1519SOL    HW116190   1.737   2.874   2.820 -0.1364  0.5207 -0.3012
 1519SOL    HW216191   1.869   2.875   2.778  0.9637 -1.6643  1.0277
 1520SOL     OW16192   4.479   4.252   1.896  0.1695  0.2336  0.1297
 1520SOL    HW116193   4.417   4.303   1.948  0.2315  0.7672 -0.3269
 1520SOL    HW216194   4.546   4.232   1.962  1.5380  0.4676 -1.1878
 1521SOL     OW16195   3.020   1.341   2.392  0.0416 -0.4986 -0.0165
 1521SOL    HW116196   3.109   1.314   2.371 -0.4116 -1.5034 -0.6354
 1521SOL    HW216197   3.017   1.286   2.470  1.4834 -0.9360 -0.2708
 1522SOL     OW16198   2.232   3.956   6.352 -0.3985  0.2389  0.1888
 1522SOL    HW116199   2.288   3.961   6.429 -0.9152  1.7455  0.4593
 1522SOL    HW216200   2.297   3.969   6.282  0.4174  0.3082  0.9636
 1523SOL     OW16201   3.649   0.819   5.305  0.2307 -0.5491 -0.3037
 1523SOL    HW116202   3.738   0.798   5.334  0.0288 -0.7426  0.1763
 1523SOL    HW216203   3.657   0.833   5.211 -0.9567  0.3435 -0.2731
 1524SOL     OW16204   4.591   1.312   2.347 -0.3615 -0.1394 -0.2197
 1524SOL    HW116205   4.604   1.339   2.438 -0.3333  0.4476 -0.3952
 1524SOL    HW216206   4.546   1.386   2.307 -2.5999 -0.6839  1.2719
 1525SOL     OW16207   2.080   0.924   0.265 -0.1213 -0.4721  0.6410
 1525SOL    HW116208   2.147   0.977   0.223 -0.0104 -1.2663 -0.1871
 1525SOL    HW216209   2.068   0.857   0.197  1.4848  0.0801 -0.1636
 1526SOL     OW16210   1.015   4.243  15.618 -0.1985 -0.0966  0.4385
 1526SOL    HW116211   1.009   4.338  15.608 -0.4929 -0.0477  1.0826
 1526SOL    HW216212   0.925   4.220  15.640 -0.5749 -0.3701 -1.3899
 1527SOL     OW16213   4.527   4.175  14.458  0.0138  0.5349  0.0316
 1527SOL    HW116214   4.590   4.220  14.514 -1.2447  1.8414  0.4151
 1527SOL    HW216215   4.576   4.093  14.460  0.0705  0.5523 -0.6196
 1528SOL     OW16216   2.410   3.681   3.664  0.2177  0.3357 -1.0967
 1528SOL    HW116217   2.430   3.589   3.649 -1.8722 -0.0662 -1.4074
 1528SOL    HW216218   2.418   3.721   3.577 -0.1507  0.7250 -0.9539
 1529SOL     OW16219   0.654   2.851   6.639  0.3879 -0.3625 -0.3338
 1529SOL    HW116220   0.597   2.820   6.709  1.2994 -0.1431  0.5124
 1529SOL    HW216221   0.594   2.917   6.604  0.0365 -0.4937  0.0214
 1530SOL     OW16222   1.373   3.756  15.271 -0.1109 -0.2306  0.1623
 1530SOL    HW116223   1.434   3.812  15.319  1.3803 -1.8411  0.1446
 1530SOL    HW216224   1.299   3.814  15.283 -1.1968 -1.6968  0.5366
 1531SOL     OW16225   1.857   1.868   4.109  0.5496  0.0272 -0.4444
 1531SOL    HW116226   1.834   1.828   4.025 -0.4593 -1.0472  0.3446
 1531SOL    HW216227   1.779   1.924   4.118  0.4724 -0.1003 -0.3213
 1532SOL     OW16228   2.098   0.483   1.554 -0.1013  0.4737  0.3487
 1532SOL    HW116229   2.080   0.576   1.542  0.6404  0.4772 -0.7817
 1532SOL    HW216230   2.080   0.451   1.466  0.7998  0.8987  0.0057
 1533SOL     OW16231   1.558   1.570   8.485 -0.4466  0.0277 -0.8971
 1533SOL    HW116232   1.581   1.554   8.393  1.3987  0.5725 -0.5330
 1533SOL    HW216233   1.520   1.484   8.504  0.7780 -0.8340 -2.3278
 1534SOL     OW16234   4.471   3.395   4.199 -0.2532  0.1408  0.2005
 1534SOL    HW116235   4.526   3.447   4.139  2.0557 -0.0146  2.1588
 1534SOL    HW216236   4.390   3.383   4.151 -0.0167 -1.7722  0.2949
 1535SOL     OW16237   0.905   3.078  12.270 -0.2822 -0.1499  0.0719
 1535SOL    HW116238   0.832   3.020  12.250  0.9855 -1.0354 -2.0010
 1535SOL    HW216239   0.904   3.138  12.196 -0.3938 -1.1275 -0.7267
 1536SOL     OW16240   4.283   0.980  10.338  0.4676  0.4594 -0.4787
 1536SOL    HW116241   4.353   1.037  10.369  1.8593 -1.6309  0.2693
 1536SOL    HW216242   4.228   0.978  10.416  0.6474  5.0912 -0.2334
 1537SOL     OW16243   1.477   3.826  10.114 -0.5546  0.1544  0.1896
 1537SOL    HW116244   1.516   3.876  10.186 -0.6326 -1.6675  1.4964
 1537SOL    HW216245   1.541   3.757  10.100  0.6865  1.7725 -2.2103
 1538SOL     OW16246   3.148   1.066   5.029 -0.8885  0.1597 -0.1979
 1538SOL    HW116247   3.115   1.076   5.119 -0.5283  0.4630 -0.0990
 1538SOL    HW216248   3.068   1.023   4.997  1.1041 -0.4256 -4.3765
 1539SOL     OW16249   1.184   4.181   8.216  0.4774  0.6678 -0.1616
 1539SOL    HW116250   1.103   4.171   8.266  0.0996  1.3976 -0.6254
 1539SOL    HW216251   1.164   4.120   8.145 -1.6119  2.3872 -1.0716
 1540SOL     OW16252   0.192   4.149   3.634  0.2329  0.0184  0.0161
 1540SOL    HW116253   0.157   4.229   3.594  2.6281 -0.5719 -3.2631
 1540SOL    HW216254   0.283   4.177   3.639 -0.0504  1.1436 -1.1438
 1541SOL     OW16255   3.974   3.836   1.947 -0.0040 -0.5102  0.9678
 1541SOL    HW116256   3.927   3.892   1.884 -0.7964 -0.9504  1.1689
 1541SOL    HW216257   4.042   3.885   1.992  2.1224 -0.2102 -2.5322
 1542SOL     OW16258   3.297   2.518  17.388 -0.1542  0.5947 -0.5114
 1542SOL    HW116259   3.260   2.480  17.468  0.1084  2.7039  0.6046
 1542SOL    HW216260   3.259   2.606  17.391 -0.1254  0.6200 -0.9104
 1543SOL     OW16261   2.639   1.060   3.200 -0.1931 -0.0241  0.3857
 1543SOL    HW116262   2.643   0.972   3.236  1.1210 -0.0219  0.2420
 1543SOL    HW216263   2.549   1.086   3.221 -0.1758 -0.8964  1.5651
 1544SOL     OW16264   1.975   4.355   7.746  0.1522  0.4044  0.0309
 1544SOL    HW116265   2.053   4.325   7.792  0.2579 -1.9784 -1.7172
 1544SOL    HW216266   1.983   4.301   7.668  0.4580 -0.2280  0.5023
 1545SOL     OW16267   3.937   3.309  10.319 -0.2139 -0.3339  0.4307
 1545SOL    HW116268   3.982   3.278  10.397 -0.6809  0.2183  0.9162
 1545SOL    HW216269   3.931   3.401  10.342 -0.3651 -0.0397 -0.7735
 1546SOL     OW16270   4.539   1.478   2.003  0.3041  0.3177  0.6904
 1546SOL    HW116271   4.598   1.404   1.985  0.4976  0.3055  1.3760
 1546SOL    HW216272   4.525   1.505   1.912 -0.3066  0.6439  0.8825
 1547SOL     OW16273   4.351   4.244   2.947 -0.3417  0.1855  0.5650
 1547SOL    HW116274   4.386   4.234   3.036  0.4750  2.1345  0.4717
 1547SOL    HW216275   4.426   4.220   2.894  0.5329  0.5168  1.6460
 1548SOL     OW16276   0.860   0.851   2.380 -0.6791  0.0186 -0.2662
 1548SOL    HW116277   0.782   0.873   2.431 -1.1629 -1.1365 -0.5156
 1548SOL    HW216278   0.825   0.886   2.298  0.5515  1.6908 -0.0786
 1549SOL     OW16279   4.671   2.771  15.921 -0.0793  1.1015  0.3646
 1549SOL    HW116280   4.609   2.810  15.861  0.9222  1.4165 -0.4697
 1549SOL    HW216281   0.026   2.797  15.888  1.5115 -2.7636  1.4234
 1550SOL     OW16282   0.186   3.524  13.986 -0.8252 -0.0779 -0.0574
 1550SOL    HW116283   0.164   3.601  13.934  0.5062  1.1064  1.1393
 1550SOL    HW216284   0.137   3.452  13.944 -1.3918  1.4359 -1.9911
 1551SOL     OW16285   1.305   3.025  17.623 -0.1532  0.2472 -0.0521
 1551SOL    HW116286   1.334   2.982  17.704  0.1621  0.2738 -0.1517
 1551SOL    HW216287   1.227   3.065  17.660 -0.4220 -0.1866 -0.1496
 1552SOL     OW16288   0.431   4.518   8.394  0.2254  0.0977 -0.0794
 1552SOL    HW116289   0.343   4.489   8.421  1.1146 -3.2535 -0.7555
 1552SOL    HW216290   0.413   4.500   8.302 -0.6820  1.8857 -0.2463
 1553SOL     OW16291   1.694   2.847  16.014 -0.0010 -0.4772 -0.0724
 1553SOL    HW116292   1.646   2.923  15.981 -0.9716 -0.1661  2.0389
 1553SOL    HW216293   1.763   2.857  15.948 -0.0148 -0.4780 -0.0871
 1554SOL     OW16294   3.080   0.925   9.590 -0.5357 -0.1064 -0.0676
 1554SOL    HW116295   2.994   0.949   9.557 -0.1416  0.8025 -0.4211
 1554SOL    HW216296   3.113   0.853   9.536 -0.6949 -0.2890  0.0751
 1555SOL     OW16297   1.892   2.877  15.012 -0.4177  0.5695 -0.1394
 1555SOL    HW116298   1.821   2.874  14.948 -1.2280  2.8266  0.6560
 1555SOL    HW216299   1.874   2.961  15.054  0.4101 -0.0203  1.4045
 1556SOL     OW16300   2.784   0.461   3.901  0.3691  0.1740  0.2412
 1556SOL    HW116301   2.735   0.538   3.931  2.1231  1.8156 -1.1000
 1556SOL    HW216302   2.853   0.506   3.852  1.7617  0.1644  2.1564
 1557SOL     OW16303   2.260   3.160  16.394 -0.5397  0.3491 -0.7044
 1557SOL    HW116304   2.340   3.108  16.381 -1.1520 -1.4681  2.5925
 1557SOL    HW216305   2.209   3.099  16.341  0.8469  0.6240 -2.3749
 1558SOL     OW16306   1.980   1.977   0.682  0.3320 -0.1541  0.2027
 1558SOL    HW116307   1.918   1.918   0.639 -0.0625  2.0373 -2.2856
 1558SOL    HW216308   1.986   2.041   0.611  2.7649 -0.0640  0.4740
 1559SOL     OW16309   1.459   2.324   3.577 -0.1152 -0.0885  0.5585
 1559SOL    HW116310   1.445   2.308   3.670 -3.6942 -3.8527 -0.6089
 1559SOL    HW216311   1.368   2.310   3.548  0.7007  0.8314 -2.4936
 1560SOL     OW16312   0.106   2.528   4.734  0.2884  0.1046 -0.0786
 1560SOL    HW116313   0.184   2.506   4.784  0.0588  0.3636  0.3974
 1560SOL    HW216314   0.061   2.600   4.778 -1.1822  0.3382 -1.9426
 1561SOL     OW16315   1.202   2.356   3.174 -0.0877  0.3949 -0.1757
 1561SOL    HW116316   1.297   2.348   3.184 -0.2175 -0.1644  0.5805
 1561SOL    HW216317   1.175   2.414   3.246 -0.6277 -0.2602  0.1461
 1562SOL     OW16318   0.989   3.150   4.813 -0.3810  0.1707 -0.6308
 1562SOL    HW116319   0.937   3.209   4.758  0.4463  1.1606 -0.3558
 1562SOL    HW216320   0.921   3.093   4.848 -1.1572  0.5487 -1.5220
 1563SOL     OW16321   3.315   3.892   7.384  0.7937  0.5900 -0.2314
 1563SOL    HW116322   3.299   3.917   7.475  0.4034  1.1276 -0.4429
 1563SOL    HW216323   3.400   3.850   7.375 -0.6621 -1.8410 -2.3650
 1564SOL     OW16324   2.255   2.094   7.158 -0.6743 -0.0159  0.3042
 1564SOL    HW116325   2.217   2.153   7.223  0.8835 -1.6320  2.6885
 1564SOL    HW216326   2.217   2.134   7.080 -2.0639 -1.4548  0.2433
 1565SOL     OW16327   1.634   1.112   6.664  0.1406  0.7810 -0.4709
 1565SOL    HW116328   1.582   1.062   6.601  0.6550 -1.0067  0.5158
 1565SOL    HW216329   1.662   1.045   6.726  1.9277  2.2929  0.3917
 1566SOL     OW16330   0.650   1.853   2.166  0.1898 -0.4223 -0.3919
 1566SOL    HW116331   0.688   1.941   2.159  0.4546 -0.4527  0.7628
 1566SOL    HW216332   0.725   1.799   2.143  0.3121  0.4326 -2.0697
 1567SOL     OW16333   0.760   4.475  16.701 -0.0035 -0.3716 -0.3762
 1567SOL    HW116334   0.689   4.517  16.749  1.4728 -1.7039  2.9766
 1567SOL    HW216335   0.782   4.403  16.760 -1.3639 -1.3382 -1.0328
 1568SOL     OW16336   3.531   4.284   8.291 -0.0959  0.5621  0.4207
 1568SOL    HW116337   3.546   4.195   8.261  0.6171  0.5896  0.7004
 1568SOL    HW216338   3.618   4.309   8.321 -0.4887 -0.8980  2.7685
 1569SOL     OW16339   0.345   4.703   6.776 -0.1221  0.1764  0.1215
 1569SOL    HW116340   0.390   4.724   6.695 -1.8803 -3.6016 -1.8612
 1569SOL    HW216341   0.253   4.697   6.748 -0.1281 -1.8750  0.6047
 1570SOL     OW16342   2.769   2.407   7.863 -0.1446 -0.0006 -0.5917
 1570SOL    HW116343   2.786   2.501   7.856 -0.1381  0.0194 -0.2953
 1570SOL    HW216344   2.695   2.401   7.802 -0.8976  1.1274  0.2154
 1571SOL     OW16345   2.690   4.220   4.207  0.2839 -0.6588 -0.0986
 1571SOL    HW116346   2.728   4.192   4.290  1.1595  3.2731  0.8407
 1571SOL    HW216347   2.653   4.134   4.189  0.3638 -0.8544  0.6495
 1572SOL     OW16348   3.451   3.264   1.239 -0.3626  0.0186 -0.1972
 1572SOL    HW116349   3.421   3.350   1.210  0.3130 -0.2208 -1.5771
 1572SOL    HW216350   3.395   3.247   1.315  2.3845 -0.1309  1.8092
 1573SOL     OW16351   4.493   2.138   2.734 -0.3941 -0.2147  0.3020
 1573SOL    HW116352   4.430   2.164   2.668  0.1088 -1.9799 -0.8554
 1573SOL    HW216353   4.558   2.112   2.669  0.4989 -0.6688  1.3826
 1574SOL     OW16354   4.628   3.501   7.386  0.1349 -0.4253  0.2878
 1574SOL    HW116355   4.587   3.452   7.315 -2.6762 -0.4238  1.9249
 1574SOL    HW216356   4.549   3.540   7.423 -0.1543 -3.0747  2.4722
 1575SOL     OW16357   3.356   3.729   4.721 -0.3147  0.0124 -0.4123
 1575SOL    HW116358   3.438   3.763   4.757  0.0701 -2.4589  1.0659
 1575SOL    HW216359   3.371   3.636   4.702  4.1049 -0.1114  3.7770
 1576SOL     OW16360   2.083   1.701   2.635 -0.3386  0.7592  0.1080
 1576SOL    HW116361   2.093   1.793   2.658 -0.8304  0.7676  0.2819
 1576SOL    HW216362   2.095   1.664   2.722 -0.2293 -0.2747 -0.3506
 1577SOL     OW16363   0.403   2.706   6.435  0.5900  0.5243 -0.2911
 1577SOL    HW116364   0.419   2.765   6.362 -1.0347  1.3746  0.0362
 1577SOL    HW216365   0.360   2.760   6.502 -0.6444 -0.9437  0.1125
 1578SOL     OW16366   1.644   2.936   7.735  0.2947  1.2544 -0.4116
 1578SOL    HW116367   1.681   2.991   7.666  4.0392  0.0639  0.6971
 1578SOL    HW216368   1.718   2.920   7.793 -0.2743 -0.1771 -0.0554
 1579SOL     OW16369   2.159   0.385   7.276 -0.2962 -0.1173  0.6359
 1579SOL    HW116370   2.127   0.295   7.267  0.6301 -0.2215 -1.7084
 1579SOL    HW216371   2.083   0.436   7.301 -0.9005 -0.3809 -0.6736
 1580SOL     OW16372   3.271   3.056   1.043  0.5503 -0.1186 -0.3274
 1580SOL    HW116373   3.323   3.069   1.123 -0.8649  0.0120  0.5753
 1580SOL    HW216374   3.182   3.050   1.078 -0.5860 -0.1008 -3.2126
 1581SOL     OW16375   4.554   1.742   0.440 -0.0889  0.0709  0.0915
 1581SOL    HW116376   4.631   1.796   0.453  0.5781 -0.9114  0.2206
 1581SOL    HW216377   4.550   1.736   0.344 -1.9821 -0.1777  0.1845
 1582SOL     OW16378   1.935   0.014   4.782 -0.0226 -0.0966  0.2419
 1582SOL    HW116379   2.006   4.682   4.792  1.2696  1.0946 -1.4652
 1582SOL    HW216380   1.879   4.716   4.854  1.0802 -1.3773  0.5813
 1583SOL     OW16381   1.808   2.815   6.977 -0.0592 -0.2778  0.0506
 1583SOL    HW116382   1.772   2.727   6.981 -3.2074  1.1026  2.4524
 1583SOL    HW216383   1.852   2.814   6.892 -1.4492  0.7027 -0.6855
 1584SOL     OW16384   3.162   1.472   7.608 -0.2221  0.5595 -0.8822
 1584SOL    HW116385   3.241   1.520   7.586  1.6023 -1.5869  1.0454
 1584SOL    HW216386   3.102   1.545   7.629  0.0840 -0.0296  2.0850
 1585SOL     OW16387   0.872   2.775   7.958 -0.3690  0.7783  0.3173
 1585SOL    HW116388   0.932   2.804   7.889  0.8902  0.8599  1.4583
 1585SOL    HW216389   0.798   2.742   7.906 -1.9954  4.4002  0.3440
 1586SOL     OW16390   0.608   4.523   1.578 -0.3888 -0.0542 -0.1532
 1586SOL    HW116391   0.608   4.472   1.658 -0.8905 -0.9013 -0.6915
 1586SOL    HW216392   0.515   4.516   1.558 -0.0244 -2.2964 -1.1313
 1587SOL     OW16393   0.300   1.916  15.868  0.1186  1.0455  0.4253
 1587SOL    HW116394   0.299   1.866  15.949  1.1144  0.6738  0.2129
 1587SOL    HW216395   0.336   1.848  15.810  0.1001  0.5620  0.9776
 1588SOL     OW16396   1.298   2.153   7.330 -0.3409  0.3381  0.1534
 1588SOL    HW116397   1.232   2.085   7.314  0.8574 -0.7509 -0.1454
 1588SOL    HW216398   1.288   2.166   7.424 -1.8254 -1.7795  0.2931
 1589SOL     OW16399   1.767   2.783   3.945  0.2970  0.3720 -0.0903
 1589SOL    HW116400   1.704   2.712   3.961  1.2498 -0.2372  1.0140
 1589SOL    HW216401   1.711   2.842   3.895 -0.3470  0.4923  0.7606
 1590SOL     OW16402   3.499   0.507   5.744  0.0392  0.0293 -0.6663
 1590SOL    HW116403   3.509   0.441   5.676  0.5286 -2.0351  1.4205
 1590SOL    HW216404   3.528   0.467   5.826  0.9588 -0.9379 -1.4659
 1591SOL     OW16405   2.910   3.874   6.202 -0.1403  0.0420  0.0706
 1591SOL    HW116406   2.900   3.945   6.138 -0.6195 -0.8679 -0.8543
 1591SOL    HW216407   2.820   3.870   6.237  0.2163 -0.4073  0.9408
 1592SOL     OW16408   4.280   4.705   8.322  0.0583 -0.6144  0.5503
 1592SOL    HW116409   4.280   0.069   8.322 -1.0341 -0.6128  0.5229
 1592SOL    HW216410   4.367   4.702   8.361  1.1259 -0.5534 -1.8454
 1593SOL     OW16411   4.614   4.111   8.950 -0.0169 -0.0252 -0.1262
 1593SOL    HW116412   4.659   4.193   8.972  3.0819 -1.3861 -1.4104
 1593SOL    HW216413   4.655   4.079   8.870 -0.0869 -1.8880  0.5811
 1594SOL     OW16414   2.118   2.831  13.852 -0.2458 -0.0107 -0.1846
 1594SOL    HW116415   2.073   2.845  13.935 -0.0536 -1.7430  0.2133
 1594SOL    HW216416   2.144   2.739  13.855 -1.3206 -0.3280 -0.5876
 1595SOL     OW16417   2.632   0.192  14.396 -0.3704  0.3651  0.9102
 1595SOL    HW116418   2.589   0.117  14.354 -0.3453  0.1081  1.3470
 1595SOL    HW216419   2.594   0.259  14.339 -0.3607  2.1154  2.9571
 1596SOL     OW16420   1.502   1.807   8.285  0.3020 -0.0134  0.5001
 1596SOL    HW116421   1.513   1.715   8.260  1.5885  0.3484 -0.2287
 1596SOL    HW216422   1.436   1.795   8.354 -0.0453  3.7449  0.8261
 1597SOL     OW16423   0.415   1.166  14.263  0.4228  0.1128 -0.0048
 1597SOL    HW116424   0.465   1.137  14.187  2.4607  1.7487  0.6798
 1597SOL    HW216425   0.428   1.259  14.242  3.8635 -0.0643  1.2545
 1598SOL     OW16426   1.963   1.573   9.473 -0.4019  0.4250 -0.0904
 1598SOL    HW116427   2.011   1.527   9.404 -0.6470 -0.1224  0.0967
 1598SOL    HW216428   2.014   1.652   9.486 -0.3578  0.4279 -0.2923
 1599SOL     OW16429   1.142   1.207   5.860 -0.8174  0.3167 -0.3717
 1599SOL    HW116430   1.079   1.189   5.790 -0.5510  1.4020 -0.8774
 1599SOL    HW216431   1.119   1.150   5.934 -0.2250  0.3534 -0.1644
 1600SOL     OW16432   1.748   3.901  15.944  0.2339  0.2831 -0.2228
 1600SOL    HW116433   1.720   3.941  15.862  0.7058  0.5259 -0.2681
 1600SOL    HW216434   1.781   3.974  15.997  1.1990 -1.5876  1.7548
 1601SOL     OW16435   0.790   1.794  12.436 -0.1692 -0.6161 -0.3314
 1601SOL    HW116436   0.713   1.842  12.466  0.2227  0.8674 -1.6330
 1601SOL    HW216437   0.776   1.797  12.341  1.5407  1.9148 -0.5231
 1602SOL     OW16438   2.707   0.914   8.449 -0.5102 -0.7892 -0.0215
 1602SOL    HW116439   2.631   0.969   8.468  1.3794  0.4960  3.9602
 1602SOL    HW216440   2.754   0.906   8.532 -0.5984  0.9370  0.1897
 1603SOL     OW16441   2.345   1.933   5.817  0.0771  0.1089 -0.0383
 1603SOL    HW116442   2.261   1.899   5.848  0.4921 -2.7764 -1.9621
 1603SOL    HW216443   2.396   1.902   5.892  0.7417  0.0902 -0.5044
 1604SOL     OW16444   3.679   1.111   6.809 -0.1729 -0.7449  0.5306
 1604SOL    HW116445   3.600   1.081   6.854 -0.1430 -2.3145 -0.4400
 1604SOL    HW216446   3.642   1.164   6.738 -0.3809 -0.4708  0.8395
 1605SOL     OW16447   1.134   1.110   3.105 -0.4797 -0.4574 -0.1365
 1605SOL    HW116448   1.142   1.183   3.044 -1.6182 -0.1811  0.0493
 1605SOL    HW216449   1.043   1.100   3.132 -0.8254  0.3565 -0.9863
 1606SOL     OW16450   0.580   1.426  11.131  0.2894 -0.1103  0.3319
 1606SOL    HW116451   0.503   1.469  11.093 -0.1425 -1.2100 -0.0325
 1606SOL    HW216452   0.596   1.484  11.205 -0.8582  0.9862 -0.2683
 1607SOL     OW16453   2.367   3.664   4.992  0.4799 -0.8591  0.2919
 1607SOL    HW116454   2.375   3.587   4.936  2.5430  0.6697 -1.5125
 1607SOL    HW216455   2.458   3.685   5.010  0.3576  1.0922 -1.3762
 1608SOL     OW16456   2.820   4.503   6.573  0.2040 -0.5367  0.6920
 1608SOL    HW116457   2.859   4.419   6.595  1.0378 -0.7763 -1.7663
 1608SOL    HW216458   2.886   4.544   6.517  0.8488 -1.7672  0.5681
 1609SOL     OW16459   2.783   1.253   3.978  0.0183  0.3234  0.4108
 1609SOL    HW116460   2.831   1.172   3.992 -0.3056  0.4037  1.9999
 1609SOL    HW216461   2.706   1.252   4.035 -2.9612 -2.9163 -3.6990
 1610SOL     OW16462   2.160   3.923   8.350  0.2496 -0.0802 -0.6760
 1610SOL    HW116463   2.198   3.991   8.295  1.7081  0.1359  0.5853
 1610SOL    HW216464   2.065   3.935   8.346  0.3535  1.2273  1.1089
 1611SOL     OW16465   4.554   0.345   9.223  0.4175  0.4677 -0.8716
 1611SOL    HW116466   4.608   0.424   9.223  1.3805 -0.1882  0.6184
 1611SOL    HW216467   4.491   0.372   9.155  0.7320  2.5320 -0.3512
 1612SOL     OW16468   0.643   1.017   3.181  0.1891  0.2253 -0.2436
 1612SOL    HW116469   0.593   0.996   3.103 -0.8234 -1.0342  0.7523
 1612SOL    HW216470   0.692   1.091   3.145 -1.1658  1.2201 -0.0543
 1613SOL     OW16471   3.680   1.329  15.862  0.1899 -0.1133 -0.0410
 1613SOL    HW116472   3.646   1.392  15.925  0.6252  0.5102 -0.4396
 1613SOL    HW216473   3.736   1.385  15.808  0.3577 -1.4882 -1.3133
 1614SOL     OW16474   4.271   0.933  16.121  0.0298  0.2582  0.1745
 1614SOL    HW116475   4.348   0.983  16.096 -0.4357  1.3204  0.8399
 1614SOL    HW216476   4.305   0.850  16.156  1.5638  1.1059  0.6813
 1615SOL     OW16477   4.698   1.056   2.502  0.3234  0.0852  0.1251
 1615SOL    HW116478   4.695   0.984   2.565 -3.9493 -0.1924 -0.3993
 1615SOL    HW216479   4.605   1.076   2.490  0.3746 -0.2285 -0.8017
 1616SOL     OW16480   4.377   4.093   4.844  0.2105 -0.7966  0.3751
 1616SOL    HW116481   4.387   4.076   4.937  0.2645 -1.6070  0.2175
 1616SOL    HW216482   4.470   4.100   4.823  0.2990 -0.8981  0.7452
 1617SOL     OW16483   2.690   4.085  16.228 -0.2998  0.2963 -0.0742
 1617SOL    HW116484   2.755   4.139  16.182  0.4461  1.0094  1.7921
 1617SOL    HW216485   2.731   4.077  16.314  2.0414 -0.2341 -1.2162
 1618SOL     OW16486   1.087   2.784   2.256 -0.0041 -0.1287  0.7968
 1618SOL    HW116487   1.137   2.716   2.210  0.6775  0.3098  0.8952
 1618SOL    HW216488   1.159   2.829   2.301 -1.6415  2.3561  0.9243
 1619SOL     OW16489   0.416   4.646   2.113 -0.1913 -0.2095  0.0812
 1619SOL    HW116490   0.434   0.008   2.102 -0.6368 -0.1521 -0.1659
 1619SOL    HW216491   0.500   4.607   2.086 -0.0416 -0.3186  0.7049
 1620SOL     OW16492   3.993   4.628   4.600 -0.2782 -0.3905  0.2927
 1620SOL    HW116493   3.957   4.564   4.661 -0.4125 -0.1720  0.4422
 1620SOL    HW216494   3.991   4.589   4.513  0.2587 -0.9346  0.5263
 1621SOL     OW16495   0.530   0.032   6.993  0.0431  0.4390 -0.8549
 1621SOL    HW116496   0.518   4.680   7.038 -1.2584  1.7252  1.2074
 1621SOL    HW216497   0.469   0.019   6.920 -2.6714 -1.0383  1.6773
 1622SOL     OW16498   4.253   3.277  10.531 -0.1875 -0.5580  0.8110
 1622SOL    HW116499   4.191   3.318  10.592 -1.0155 -1.3024  0.4741
 1622SOL    HW216500   4.326   3.260  10.590 -0.1830  0.6581  1.1576
 1623SOL     OW16501   0.656   2.340   9.290 -0.2978  0.0425 -0.4056
 1623SOL    HW116502   0.626   2.390   9.215 -1.8571  0.3733  0.4482
 1623SOL    HW216503   0.743   2.379   9.304  0.2174 -1.3884  0.4928
 1624SOL     OW16504   0.902   1.212   6.207  0.0218 -0.2181  0.5668
 1624SOL    HW116505   0.892   1.270   6.283  1.5871 -1.6473  1.8689
 1624SOL    HW216506   0.826   1.155   6.216  0.2200 -0.5965 -0.1400
 1625SOL     OW16507   3.221   2.418   6.814 -0.2676  0.0876  0.1337
 1625SOL    HW116508   3.261   2.504   6.800  2.3175 -0.7654  2.2795
 1625SOL    HW216509   3.239   2.369   6.733 -0.1804  0.5916 -0.1496
 1626SOL     OW16510   0.383   4.657  15.994  0.9015  0.1641 -0.3554
 1626SOL    HW116511   0.430   0.005  15.969  1.9218 -0.5987 -0.8658
 1626SOL    HW216512   0.297   4.683  15.960  0.4556 -1.5401 -0.5238
 1627SOL     OW16513   1.857   4.696  16.517  0.8148 -0.2559  0.0470
 1627SOL    HW116514   1.807   0.037  16.478 -0.9968 -1.6401 -0.2250
 1627SOL    HW216515   1.941   4.698  16.471  0.7168 -1.7427 -0.1759
 1628SOL     OW16516   4.197   4.034   7.913  0.0480  0.0180 -0.5525
 1628SOL    HW116517   4.210   4.000   7.825  3.9630 -0.4587  0.2308
 1628SOL    HW216518   4.235   3.965   7.967 -0.8053 -1.5968 -2.0129
 1629SOL     OW16519   1.089   2.230   4.410  0.1746 -0.7322  0.6908
 1629SOL    HW116520   1.040   2.160   4.368 -0.5745  1.5115 -2.2397
 1629SOL    HW216521   1.072   2.300   4.346  0.2294  0.6120  2.1484
 1630SOL     OW16522   0.514   1.807   6.970  0.0836  0.3922 -0.2769
 1630SOL    HW116523   0.452   1.784   6.901  0.9294  0.3680 -1.0220
 1630SOL    HW216524   0.572   1.733   6.952  1.4851  0.5467  3.6492
 1631SOL     OW16525   3.006   1.251   7.861  0.3588 -0.2308 -0.5206
 1631SOL    HW116526   2.935   1.283   7.916  2.3793  0.4194  1.7241
 1631SOL    HW216527   2.966   1.202   7.789 -0.1337  0.6894 -0.8629
 1632SOL     OW16528   1.207   3.028  14.787 -0.0753  0.6064 -0.1626
 1632SOL    HW116529   1.143   3.052  14.720 -1.7062 -0.3292  1.0536
 1632SOL    HW216530   1.247   2.947  14.755  2.0334  2.4931 -2.2260
 1633SOL     OW16531   4.102   2.629   5.709 -0.1332 -0.0765  0.7596
 1633SOL    HW116532   4.143   2.627   5.796  0.3030 -0.7917  0.5376
 1633SOL    HW216533   4.169   2.673   5.656  1.1134 -1.8373  0.8736
 1634SOL     OW16534   2.986   0.128   7.421  0.1527  0.4139  0.0019
 1634SOL    HW116535   2.985   0.179   7.341 -0.8698 -1.8015 -1.3942
 1634SOL    HW216536   3.012   0.187   7.492  0.5625  0.7564 -0.4313
 1635SOL     OW16537   0.844   2.864  17.225 -0.3183  0.3369  0.2709
 1635SOL    HW116538   0.758   2.831  17.198  1.2333 -3.2037 -0.3668
 1635SOL    HW216539   0.825   2.958  17.222 -0.9778  0.2191  0.6577
 1636SOL     OW16540   1.552   1.538   8.226  0.3304 -0.2712 -0.7716
 1636SOL    HW116541   1.489   1.485   8.178 -0.4423 -0.0463 -0.0020
 1636SOL    HW216542   1.618   1.556   8.159  1.0314 -0.4461 -0.1310
 1637SOL     OW16543   1.867   0.874   8.931 -0.7291 -0.1319 -0.9031
 1637SOL    HW116544   1.886   0.966   8.914  1.1723 -0.4519 -0.4770
 1637SOL    HW216545   1.854   0.846   8.840 -0.3500 -1.5110 -0.5297
 1638SOL     OW16546   1.175   4.491   4.484 -0.2249  0.6580  0.0635
 1638SOL    HW116547   1.126   4.463   4.407  0.4507  1.8619 -0.7973
 1638SOL    HW216548   1.242   4.533   4.429  0.7219  2.7796  2.8130
 1639SOL     OW16549   3.370   3.784   6.036 -0.4037 -0.6323 -0.9023
 1639SOL    HW116550   3.306   3.837   6.084  0.6116 -0.0771 -0.1464
 1639SOL    HW216551   3.318   3.707   6.015 -0.3864 -0.8629 -0.0989
 1640SOL     OW16552   3.115   0.550  13.044 -0.0353 -0.1881 -0.3364
 1640SOL    HW116553   3.043   0.496  13.012  1.4924 -2.5173  0.1774
 1640SOL    HW216554   3.074   0.603  13.113  1.7641 -0.2642  0.7979
 1641SOL     OW16555   3.848   2.222   1.514  0.2932  0.1364 -0.2774
 1641SOL    HW116556   3.828   2.204   1.606  0.6672  1.4034  0.0415
 1641SOL    HW216557   3.805   2.146   1.473  0.8607  1.3605 -3.0751
 1642SOL     OW16558   1.645   0.500   6.047  0.2575 -0.3853  0.0298
 1642SOL    HW116559   1.658   0.565   5.978  0.5350  1.5564  1.8774
 1642SOL    HW216560   1.552   0.481   6.044  0.3462 -0.4867 -2.1137
 1643SOL     OW16561   2.472   1.602   1.689  0.2330  0.4823  0.2876
 1643SOL    HW116562   2.547   1.632   1.637  0.6900 -0.8814  0.1581
 1643SOL    HW216563   2.469   1.660   1.765 -0.3463  0.3053  0.4007
 1644SOL     OW16564   0.830   1.828   5.660 -0.0284 -0.5372 -0.0123
 1644SOL    HW116565   0.924   1.814   5.665  0.0312 -0.2785 -0.3909
 1644SOL    HW216566   0.818   1.908   5.712 -1.3189 -1.6744  1.4036
 1645SOL     OW16567   1.406   1.884   8.026  0.5207 -0.3380 -0.3411
 1645SOL    HW116568   1.443   1.842   8.104 -1.0554 -1.1001 -0.0124
 1645SOL    HW216569   1.323   1.922   8.051 -0.4006 -1.4182 -1.7509
 1646SOL     OW16570   0.597   2.455  16.072 -0.3539 -0.0287 -0.0834
 1646SOL    HW116571   0.534   2.522  16.099  0.5332  0.9968 -0.5343
 1646SOL    HW216572   0.596   2.394  16.145  3.9815 -0.1860 -0.1284
 1647SOL     OW16573   3.791   2.297  14.152 -0.6041  0.5262 -0.3396
 1647SOL    HW116574   3.798   2.234  14.223  0.6098 -1.0874 -1.8656
 1647SOL    HW216575   3.878   2.305  14.111 -0.4951  2.1913  0.2111
 1648SOL     OW16576   4.697   0.135   4.639  0.4717  0.3536  0.0551
 1648SOL    HW116577   4.686   0.204   4.704  1.2512  2.2179 -1.7779
 1648SOL    HW216578   4.663   0.063   4.691  0.2538  0.8102  0.5438
 1649SOL     OW16579   2.908   1.347   9.494  0.1130 -0.2373  0.2158
 1649SOL    HW116580   2.853   1.425   9.505  1.6073  0.4765  2.5281
 1649SOL    HW216581   2.850   1.283   9.536  0.8488 -0.1388  1.3702
 1650SOL     OW16582   1.595   0.642  13.716  0.4501 -0.7372 -0.3053
 1650SOL    HW116583   1.645   0.674  13.641 -0.1340 -0.0997 -0.4242
 1650SOL    HW216584   1.667   0.616  13.772 -0.6468 -1.2290  0.8699
 1651SOL     OW16585   1.994   2.756  16.663  0.0246  0.5731 -0.0145
 1651SOL    HW116586   2.065   2.814  16.638  2.7242 -2.4683  0.6375
 1651SOL    HW216587   1.994   2.765  16.759  1.1476  0.5807 -0.0183
 1652SOL     OW16588   2.228   1.159   4.737  0.0228 -0.6226  0.6033
 1652SOL    HW116589   2.151   1.156   4.680 -0.9003 -0.7601  1.8429
 1652SOL    HW216590   2.252   1.248   4.714 -0.1776 -0.5558  0.6538
 1653SOL     OW16591   4.680   1.815   1.503 -0.6022 -0.3808  0.1048
 1653SOL    HW116592   0.015   1.880   1.478 -0.5760 -0.4453  0.0060
 1653SOL    HW216593   4.608   1.871   1.532  0.1621  1.2129 -1.1023
 1654SOL     OW16594   3.643   4.647   6.635  0.1264  0.1003  0.0927
 1654SOL    HW116595   3.737   4.662   6.631 -0.3445  1.9188 -4.0382
 1654SOL    HW216596   3.630   4.562   6.592 -1.4309  1.9606 -3.1413
 1655SOL     OW16597   2.018   1.349   1.860  0.2653 -0.1292 -0.3310
 1655SOL    HW116598   2.096   1.366   1.807  0.5947  1.7816  0.7416
 1655SOL    HW216599   1.998   1.257   1.845  0.1297  0.2804 -2.6765
 1656SOL     OW16600   0.583   0.786   7.907 -0.4171  0.2695 -0.5623
 1656SOL    HW116601   0.603   0.791   7.813 -2.4753  2.6296 -0.8580
 1656SOL    HW216602   0.666   0.815   7.944 -0.9748  2.5082 -1.0703
 1657SOL     OW16603   0.874   0.005   7.970  0.6226  0.1857 -0.1147
 1657SOL    HW116604   0.810   0.064   8.010  1.3685  0.7833  0.1983
 1657SOL    HW216605   0.960   0.041   7.992  0.1715  1.6737 -0.8002
 1658SOL     OW16606   3.283   1.189   7.596 -0.1591  0.2210  0.1097
 1658SOL    HW116607   3.227   1.266   7.609  0.5242  1.0003 -1.6385
 1658SOL    HW216608   3.249   1.155   7.514 -0.4712 -0.0335  0.3439
 1659SOL     OW16609   3.595   1.762   5.901  0.6908  0.1938 -0.1800
 1659SOL    HW116610   3.616   1.675   5.866  0.4942 -0.3842  1.1328
 1659SOL    HW216611   3.638   1.756   5.986 -0.3800  0.0308  0.3497
 1660SOL     OW16612   4.397   0.942   4.865 -0.2735  0.4419 -0.2712
 1660SOL    HW116613   4.453   1.000   4.917 -0.2038 -2.0633  2.4785
 1660SOL    HW216614   4.325   1.000   4.844  0.2671  1.3351  0.3591
 1661SOL     OW16615   3.350   1.665  13.597  0.0378  0.5338  0.0417
 1661SOL    HW116616   3.313   1.722  13.530  0.2386  1.7721  0.9835
 1661SOL    HW216617   3.432   1.713  13.613  0.2601  0.2895 -0.3422
 1662SOL     OW16618   0.575   0.364   1.752  0.0470  0.2410  0.0210
 1662SOL    HW116619   0.656   0.317   1.735 -0.1902 -0.2407  0.2086
 1662SOL    HW216620   0.529   0.350   1.669 -0.2075 -0.6143  0.2992
 1663SOL     OW16621   4.320   0.220  14.811  0.2753 -0.3276 -0.0004
 1663SOL    HW116622   4.384   0.198  14.743 -1.0923  0.1100 -1.4263
 1663SOL    HW216623   4.351   0.160  14.879 -0.3150  0.1727  0.7036
 1664SOL     OW16624   2.833   4.123  14.766 -0.2202 -0.0768  0.2888
 1664SOL    HW116625   2.828   4.042  14.715 -0.0724 -1.5250  2.5326
 1664SOL    HW216626   2.923   4.112  14.796  0.0458 -0.3239 -0.6081
 1665SOL     OW16627   4.155   1.017   3.699  0.4190 -0.2842  0.0048
 1665SOL    HW116628   4.091   0.946   3.700 -0.8273  0.8492  0.5671
 1665SOL    HW216629   4.233   0.966   3.679  1.1970  0.8947  0.0443
 1666SOL     OW16630   2.107   1.433   5.507  0.1520  0.3053  0.6915
 1666SOL    HW116631   2.084   1.512   5.555  2.2542  1.4871 -0.2384
 1666SOL    HW216632   2.038   1.375   5.540  1.5406 -1.5653  0.2815
 1667SOL     OW16633   3.718   1.095   4.524  0.3322  0.2108  0.0742
 1667SOL    HW116634   3.694   1.039   4.598 -2.2679 -0.1989 -1.0728
 1667SOL    HW216635   3.652   1.071   4.459  0.9485 -0.7419 -0.2075
 1668SOL     OW16636   4.509   3.690   4.896  0.4053  0.5896 -0.0433
 1668SOL    HW116637   4.451   3.623   4.859  1.8895 -1.2360  0.9714
 1668SOL    HW216638   4.520   3.752   4.824  1.0301 -1.7167 -1.9302
 1669SOL     OW16639   1.150   1.957   8.175  0.6011 -0.2668 -0.1973
 1669SOL    HW116640   1.084   2.022   8.149  3.1692  2.8457  1.0595
 1669SOL    HW216641   1.087   1.891   8.204  1.8793 -1.1092  0.6523
 1670SOL     OW16642   1.198   4.110   7.016  0.3384 -0.1241 -0.1788
 1670SOL    HW116643   1.187   4.054   7.092  0.7573  1.5054  1.0632
 1670SOL    HW216644   1.254   4.178   7.053  0.5199  0.1304 -0.9197
 1671SOL     OW16645   1.787   2.391   6.186 -0.3722 -0.0445  0.5932
 1671SOL    HW116646   1.855   2.458   6.198 -0.3285 -0.3598  2.1647
 1671SOL    HW216647   1.828   2.330   6.124  0.3530 -1.2271  2.2331
 1672SOL     OW16648   1.835   1.273   2.512 -0.2251 -0.3442 -0.5422
 1672SOL    HW116649   1.810   1.358   2.547 -0.7235 -1.2842  1.4259
 1672SOL    HW216650   1.919   1.284   2.467 -0.6873  0.1592 -1.2686
 1673SOL     OW16651   1.218   0.968  16.528  0.2899  0.0128 -0.1730
 1673SOL    HW116652   1.280   0.894  16.523 -0.4622 -0.4961 -1.9182
 1673SOL    HW216653   1.283   1.037  16.513  0.4444 -0.1670 -0.3415
 1674SOL     OW16654   3.892   1.513  13.294  0.4862  0.6681 -0.0479
 1674SOL    HW116655   3.842   1.443  13.252 -0.1848  1.2910 -0.2793
 1674SOL    HW216656   3.951   1.534  13.221  1.7652 -0.4830  0.6634
 1675SOL     OW16657   2.022   1.770   4.350 -0.3497 -0.1891  0.4860
 1675SOL    HW116658   1.940   1.810   4.323 -0.7734 -0.8026  0.8589
 1675SOL    HW216659   2.085   1.839   4.368  0.3639 -0.6231 -0.3348
 1676SOL     OW16660   0.408   0.280  11.256  0.0040  0.4046 -0.8277
 1676SOL    HW116661   0.453   0.350  11.208 -1.0008  1.4091 -0.3198
 1676SOL    HW216662   0.473   0.213  11.236 -0.6432  0.3494 -2.7967
 1677SOL     OW16663   3.727   4.682  14.397 -0.2162 -0.0754 -0.1792
 1677SOL    HW116664   3.661   4.618  14.422 -1.0399  1.4519  1.5619
 1677SOL    HW216665   3.686   0.037  14.389  1.2976  0.6232 -0.4501
 1678SOL     OW16666   4.505   2.367   8.410 -0.8237 -0.3238 -0.2830
 1678SOL    HW116667   4.421   2.327   8.434 -0.8042 -0.5493 -0.5910
 1678SOL    HW216668   4.498   2.457   8.442 -2.2821 -0.1461 -1.0789
 1679SOL     OW16669   1.092   1.592  14.261  0.1307 -0.4010 -0.0369
 1679SOL    HW116670   1.103   1.621  14.170 -0.3455 -2.2458 -0.6818
 1679SOL    HW216671   1.078   1.677  14.303 -0.4790 -0.7088  0.3686
 1680SOL     OW16672   0.065   2.105   1.755  0.1599  0.0727 -0.1679
 1680SOL    HW116673   0.116   2.110   1.836 -0.2757 -1.2605  0.1894
 1680SOL    HW216674   0.138   2.086   1.697  1.3024  0.6167  1.0988
 1681SOL     OW16675   4.458   2.711  14.952 -0.4232 -0.1075  0.1013
 1681SOL    HW116676   4.434   2.674  15.037  0.2781  3.1662  1.7053
 1681SOL    HW216677   4.552   2.694  14.953 -0.1725  1.2052 -1.3184
 1682SOL     OW16678   2.851   0.244  15.880 -0.1397 -0.0318 -0.2102
 1682SOL    HW116679   2.866   0.280  15.967 -0.3165 -0.6537  0.0753
 1682SOL    HW216680   2.939   0.210  15.863 -0.8374 -3.1484  2.4637
 1683SOL     OW16681   1.379   0.178   5.894  0.3433  0.2627  0.7063
 1683SOL    HW116682   1.406   0.257   5.942 -0.7818  3.1867 -3.5272
 1683SOL    HW216683   1.465   0.154   5.860 -1.5333 -4.7549 -0.4182
 1684SOL     OW16684   2.760   3.900   8.395 -0.0037  0.1519 -0.3167
 1684SOL    HW116685   2.829   3.844   8.361 -1.2472 -0.5031 -1.7397
 1684SOL    HW216686   2.790   3.989   8.378  0.6379 -0.0216 -0.0902
 1685SOL     OW16687   3.781   1.620  16.479 -0.2633 -0.2836  0.0266
 1685SOL    HW116688   3.749   1.610  16.569 -0.2759  1.0314  0.1657
 1685SOL    HW216689   3.864   1.573  16.472  0.8599  1.6196  0.3751
 1686SOL     OW16690   0.981   0.757  11.031  0.0996  0.4859 -0.0205
 1686SOL    HW116691   0.939   0.839  11.055  1.6299  1.4975 -0.8293
 1686SOL    HW216692   0.952   0.700  11.102 -0.0793  0.1306 -0.3740
 1687SOL     OW16693   1.765   4.365   5.736 -0.2701  0.6032 -0.5263
 1687SOL    HW116694   1.798   4.455   5.729  0.1422  0.3891 -1.3922
 1687SOL    HW216695   1.838   4.317   5.696  0.6441 -0.9712  3.0783
 1688SOL     OW16696   1.912   4.161   1.016  0.3157 -0.2029 -0.4745
 1688SOL    HW116697   1.844   4.175   0.950 -0.2384 -1.6412 -0.2120
 1688SOL    HW216698   1.938   4.070   1.006  0.8792 -0.0383 -0.5151
 1689SOL     OW16699   2.913   2.318   9.322 -0.1492 -0.0387 -0.5133
 1689SOL    HW116700   2.894   2.406   9.290 -0.3736  0.1982  0.2673
 1689SOL    HW216701   2.986   2.293   9.265  0.4331  1.0804 -0.2483
 1690SOL     OW16702   3.846   2.319   6.093  0.7264 -0.5804 -0.0512
 1690SOL    HW116703   3.932   2.340   6.056  1.5838 -0.8029  1.7748
 1690SOL    HW216704   3.834   2.238   6.044  3.9288 -2.2566  1.8879
 1691SOL     OW16705   0.353   2.586   7.960  0.2740 -0.4980 -0.0069
 1691SOL    HW116706   0.394   2.642   8.026 -0.1800 -0.6860  0.4282
 1691SOL    HW216707   0.265   2.622   7.964  0.5107  0.1296 -0.3961
 1692SOL     OW16708   0.888   2.073   2.845 -0.1436  0.4449 -0.4007
 1692SOL    HW116709   0.826   2.111   2.782  2.1236  4.2333 -0.3825
 1692SOL    HW216710   0.955   2.142   2.840  0.3236 -0.0319 -0.6795
 1693SOL     OW16711   0.813   0.145   3.041  0.1499 -0.3137  0.3823
 1693SOL    HW116712   0.904   0.116   3.040  0.4942  0.7817  0.0511
 1693SOL    HW216713   0.806   0.177   3.131  0.5575 -1.0913  0.6840
 1694SOL     OW16714   3.274   0.987  13.022  0.1522 -0.2320 -0.2293
 1694SOL    HW116715   3.369   0.986  13.027  0.1923  1.6508 -0.5518
 1694SOL    HW216716   3.262   0.901  12.982  2.7440  0.2671 -2.0790
 1695SOL     OW16717   2.147   2.178   6.932 -0.7027  0.8799 -0.8425
 1695SOL    HW116718   2.064   2.140   6.905 -0.8496  1.2556 -0.9232
 1695SOL    HW216719   2.198   2.188   6.852 -0.3909  0.5145 -0.6883
 1696SOL     OW16720   0.521   0.029   4.140 -0.1982 -0.3608  0.3697
 1696SOL    HW116721   0.451   0.094   4.137  0.0378 -0.2444 -3.3537
 1696SOL    HW216722   0.505   4.689   4.201 -1.2695 -3.4214 -3.4792
 1697SOL     OW16723   1.654   0.687   6.877  0.0640 -0.8052  0.2770
 1697SOL    HW116724   1.630   0.620   6.940  0.2210  0.2088  1.4085
 1697SOL    HW216725   1.606   0.672   6.796  1.5072 -0.2290 -0.6837
 1698SOL     OW16726   2.332   2.519  11.131 -0.4558 -0.5456  0.3226
 1698SOL    HW116727   2.353   2.612  11.126  0.2461 -0.7627 -0.8039
 1698SOL    HW216728   2.259   2.517  11.193 -0.0351  1.3376  0.8940
 1699SOL     OW16729   2.103   0.748   5.078  0.0938  0.0810 -0.0374
 1699SOL    HW116730   2.176   0.699   5.041 -0.0735 -0.7348  0.7089
 1699SOL    HW216731   2.136   0.838   5.083 -2.5183  1.0035  0.8579
 1700SOL     OW16732   4.029   2.888   9.646  0.1622  0.0647  0.4893
 1700SOL    HW116733   4.030   2.881   9.741 -1.0295 -2.7104  0.2989
 1700SOL    HW216734   4.105   2.946   9.637 -0.9408  1.4010 -0.2771
 1701SOL     OW16735   2.925   3.903   4.420 -0.0586  0.7290 -0.2353
 1701SOL    HW116736   2.955   3.955   4.494  1.4815  0.1681 -0.4562
 1701SOL    HW216737   2.920   3.968   4.349 -0.3997  0.9560 -0.0017
 1702SOL     OW16738   3.991   4.467  10.318 -0.1726  0.6713  0.7437
 1702SOL    HW116739   4.075   4.420  10.315 -2.0037 -2.6766  1.8829
 1702SOL    HW216740   4.022   4.553  10.348  2.0526 -0.2057  1.0086
 1703SOL     OW16741   0.641   1.371  16.240 -0.2862 -0.6355  0.3119
 1703SOL    HW116742   0.684   1.399  16.159  0.4395 -0.2275  0.8354
 1703SOL    HW216743   0.582   1.310  16.197  1.1680 -1.3158 -0.7095
 1704SOL     OW16744   2.602   0.483   4.306 -0.2563 -0.9235 -0.3884
 1704SOL    HW116745   2.541   0.506   4.236 -0.8443 -1.1324  0.0571
 1704SOL    HW216746   2.664   0.556   4.310 -0.8420 -0.3644 -1.3529
 1705SOL     OW16747   4.700   0.140   6.680 -0.3673 -0.7521 -0.5267
 1705SOL    HW116748   4.626   0.092   6.719  0.6053 -2.8240 -1.2517
 1705SOL    HW216749   4.659   0.227   6.676  0.9013  0.0046  2.8000
 1706SOL     OW16750   4.518   0.717   7.458 -0.0581 -0.1515  0.1286
 1706SOL    HW116751   4.493   0.724   7.550  0.5815  1.7603  0.1755
 1706SOL    HW216752   4.532   0.623   7.456  1.6300  0.0749  1.5175
 1707SOL     OW16753   1.483   3.129   2.579  0.5421 -0.2923  0.5478
 1707SOL    HW116754   1.473   3.134   2.484  0.9058 -2.9751  0.3628
 1707SOL    HW216755   1.571   3.091   2.578 -0.3130 -2.2975 -0.5251
 1708SOL     OW16756   3.763   1.391  10.607 -0.1476 -0.0955 -0.8476
 1708SOL    HW116757   3.853   1.376  10.635 -1.2718 -0.9191  2.3178
 1708SOL    HW216758   3.728   1.302  10.613  2.1494 -0.9837 -0.8084
 1709SOL     OW16759   2.059   3.265   1.332  0.0072 -0.6534 -0.1250
 1709SOL    HW116760   2.152   3.286   1.337  0.4680 -2.6739 -0.5024
 1709SOL    HW216761   2.047   3.297   1.243  2.2143  1.1446  0.2202
 1710SOL     OW16762   0.093   1.037  17.443  0.6486 -0.0427  0.9059
 1710SOL    HW116763   0.108   1.127  17.416 -0.8027 -0.4621 -1.3022
 1710SOL    HW216764   0.015   1.050  17.497  0.0814  0.2406  0.0260
 1711SOL     OW16765   0.004   1.733   8.542  0.5154 -0.4814 -0.7138
 1711SOL    HW116766   4.642   1.756   8.536  0.7982  1.4925  2.4895
 1711SOL    HW216767   0.007   1.657   8.600  0.2257  0.1326  0.1057
 1712SOL     OW16768   4.251   4.070  14.471 -0.3110  0.1706  0.1394
 1712SOL    HW116769   4.249   3.979  14.502  0.1299  0.2753  0.4817
 1712SOL    HW216770   4.338   4.095  14.504 -0.2241  0.2312 -0.1376
 1713SOL     OW16771   2.952   2.567  15.280  0.5154 -0.1590 -0.2020
 1713SOL    HW116772   2.880   2.619  15.244  0.5436 -0.9211 -1.3828
 1713SOL    HW216773   2.922   2.560  15.370  0.2951  0.4367 -0.2335
 1714SOL     OW16774   4.257   3.411   4.975  0.0258 -0.1971  0.1252
 1714SOL    HW116775   4.217   3.441   4.893 -3.7382  0.7832  2.3281
 1714SOL    HW216776   4.259   3.316   4.966 -4.3981 -0.5193  2.6249
 1715SOL     OW16777   4.145   3.412  13.328  0.4608  0.8223  0.2805
 1715SOL    HW116778   4.093   3.354  13.384  1.0645 -0.6448 -0.6851
 1715SOL    HW216779   4.199   3.456  13.394  0.8992 -0.2860  0.6753
 1716SOL     OW16780   3.604   3.802   5.553 -0.3268 -0.1524 -0.7670
 1716SOL    HW116781   3.601   3.707   5.556 -0.0296 -0.1325  0.1004
 1716SOL    HW216782   3.520   3.817   5.509 -0.7430 -0.3947 -0.0452
 1717SOL     OW16783   3.698   3.823   7.663  0.0355 -0.1525  0.3781
 1717SOL    HW116784   3.664   3.900   7.619 -0.1183 -0.1410  0.5184
 1717SOL    HW216785   3.620   3.774   7.689 -0.6863 -0.4580 -2.3323
 1718SOL     OW16786   1.011   2.214  15.004 -0.0931  0.1925  0.1292
 1718SOL    HW116787   0.921   2.230  15.033  0.6595  2.1036  1.4456
 1718SOL    HW216788   0.997   2.131  14.958  1.7728 -1.7243  3.0225
 1719SOL     OW16789   0.328   2.222   8.174  0.5737 -0.1283  0.0542
 1719SOL    HW116790   0.400   2.160   8.162  1.3817  0.5458  1.3155
 1719SOL    HW216791   0.261   2.159   8.202  0.9581 -1.6637 -2.4867
 1720SOL     OW16792   2.611   3.966   4.150  0.2678 -0.3604 -0.4306
 1720SOL    HW116793   2.555   3.924   4.084  0.4104 -0.7087 -0.3335
 1720SOL    HW216794   2.695   3.921   4.143  0.0136 -0.6829 -1.4171
 1721SOL     OW16795   2.681   2.345   6.377 -0.7266  0.3579  0.2057
 1721SOL    HW116796   2.750   2.407   6.399 -1.3177  1.2542 -0.4845
 1721SOL    HW216797   2.632   2.337   6.459  0.7718 -1.1533  0.9595
 1722SOL     OW16798   3.990   3.463   1.568 -0.0440 -0.0952  0.2441
 1722SOL    HW116799   3.914   3.416   1.601 -0.3777 -0.4980 -1.0953
 1722SOL    HW216800   4.046   3.395   1.531 -0.7502  0.3009 -1.5692
 1723SOL     OW16801   4.463   3.588   5.580  0.0408 -0.1354  0.4709
 1723SOL    HW116802   4.501   3.533   5.649 -0.2604 -0.6456  0.2313
 1723SOL    HW216803   4.471   3.673   5.624 -1.5253 -0.3017  1.0871
 1724SOL     OW16804   0.002   1.875   3.075  0.3099  0.5982 -0.6822
 1724SOL    HW116805   4.721   1.944   3.011 -1.9335 -0.0179 -0.9128
 1724SOL    HW216806   4.701   1.800   3.025 -1.6549  0.9558  0.0395
 1725SOL     OW16807   0.574   3.767   2.934  0.1808  0.6915 -0.5958
 1725SOL    HW116808   0.536   3.844   2.892 -1.7726  0.5447  0.8680
 1725SOL    HW216809   0.516   3.755   3.010 -0.7817  0.8050 -1.3066
 1726SOL     OW16810   2.079   4.063   5.222 -0.3027  0.4352 -0.1619
 1726SOL    HW116811   2.174   4.065   5.207 -0.3374  3.2565  0.0569
 1726SOL    HW216812   2.078   4.159   5.217 -0.4974  0.4573  0.2560
 1727SOL     OW16813   0.418   1.506   3.823 -0.0717  0.1267 -0.1235
 1727SOL    HW116814   0.403   1.599   3.803 -0.3161 -0.1625 -1.2687
 1727SOL    HW216815   0.478   1.509   3.898 -1.0213 -0.7922  0.6536
 1728SOL     OW16816   4.561   3.455   3.198 -0.1273  0.7135 -0.0682
 1728SOL    HW116817   4.571   3.367   3.161 -0.4193  0.3062  0.8244
 1728SOL    HW216818   4.517   3.436   3.280  0.5457 -0.8582 -0.0731
 1729SOL     OW16819   3.738   4.411   7.209 -0.0054 -0.1422  0.7724
 1729SOL    HW116820   3.801   4.357   7.256 -0.5383  0.3057  2.0114
 1729SOL    HW216821   3.730   4.481   7.274  0.8481  3.0482 -2.5398
 1730SOL     OW16822   0.067   1.002   5.830  0.4062  0.0998 -0.2330
 1730SOL    HW116823   0.140   0.953   5.869 -0.3713 -0.1626  0.9045
 1730SOL    HW216824   0.116   1.020   5.750 -0.5365  1.1097 -0.5834
 1731SOL     OW16825   3.885   3.084   3.198 -0.3119  0.3713 -0.4781
 1731SOL    HW116826   3.888   3.023   3.271 -1.1184  0.7225 -0.1455
 1731SOL    HW216827   3.926   3.034   3.128  1.9978 -0.7649  1.6954
 1732SOL     OW16828   0.528   0.975   6.044 -0.0290  0.4467 -0.1082
 1732SOL    HW116829   0.547   1.057   5.997 -1.1507  0.0514 -1.2537
 1732SOL    HW216830   0.570   0.914   5.983  1.4049  1.3712 -0.0630
 1733SOL     OW16831   0.127   3.183   9.678  0.4229  0.1572  0.2415
 1733SOL    HW116832   0.162   3.123   9.612 -1.3714 -0.6427  0.0416
 1733SOL    HW216833   0.135   3.267   9.631  3.5470 -0.7312 -0.8473
 1734SOL     OW16834   2.188   4.624   8.063  0.2935 -0.1368  0.5635
 1734SOL    HW116835   2.104   4.579   8.054 -0.1974  0.9961 -0.4711
 1734SOL    HW216836   2.177   4.683   8.138  1.0298  0.1373  0.4516
 1735SOL     OW16837   0.456   3.253   4.228 -0.1175  0.7837 -0.0772
 1735SOL    HW116838   0.409   3.329   4.262 -1.1689  0.5638 -1.0728
 1735SOL    HW216839   0.469   3.213   4.314  1.1425 -0.9253 -1.0485
 1736SOL     OW16840   4.583   2.515   2.359 -0.3282  0.6890  0.4102
 1736SOL    HW116841   4.575   2.442   2.297  3.6931 -1.3435  2.3020
 1736SOL    HW216842   4.675   2.539   2.349 -0.7169  1.6172 -0.9545
 1737SOL     OW16843   1.402   0.988   8.065 -0.4008 -0.0413 -0.0398
 1737SOL    HW116844   1.491   1.024   8.063 -0.3114 -0.2111  0.9931
 1737SOL    HW216845   1.424   0.897   8.045 -1.2219 -0.0521 -0.8730
 1738SOL     OW16846   2.922   0.947   7.543  0.0856 -0.3572  0.1720
 1738SOL    HW116847   2.931   1.040   7.522 -0.0569  0.1977  2.5666
 1738SOL    HW216848   2.902   0.914   7.456 -0.8442 -1.7222  0.9070
 1739SOL     OW16849   0.644   3.349  10.938  0.0307 -0.0576  0.2142
 1739SOL    HW116850   0.587   3.274  10.954 -0.5499  0.6263  1.3650
 1739SOL    HW216851   0.687   3.325  10.856  1.0031  2.4453 -0.0046
 1740SOL     OW16852   4.701   3.780  11.216 -0.1221 -0.0895 -0.7339
 1740SOL    HW116853   0.009   3.767  11.130  2.1494  0.2042  0.2544
 1740SOL    HW216854   0.004   3.862  11.251 -0.7864 -0.4431  0.7709
 1741SOL     OW16855   2.095   4.545   7.379 -0.3863  0.0924  0.0560
 1741SOL    HW116856   2.065   4.615   7.322 -2.6566 -1.9320 -1.2217
 1741SOL    HW216857   2.134   4.490   7.311 -0.0420 -0.0356  0.3556
 1742SOL     OW16858   2.398   3.566   0.321  0.1687 -0.1536 -0.0838
 1742SOL    HW116859   2.432   3.523   0.243 -1.2141  0.6538 -1.1229
 1742SOL    HW216860   2.460   3.637   0.339  0.7583 -0.9527  1.1037
 1743SOL     OW16861   2.797   2.595   4.516 -0.5515 -0.1905  0.1652
 1743SOL    HW116862   2.854   2.529   4.556  1.2415  0.7654 -0.7950
 1743SOL    HW216863   2.866   2.661   4.508 -0.3859 -0.5411 -1.2721
 1744SOL     OW16864   3.146   1.485   7.995 -0.5120 -0.3128 -0.0095
 1744SOL    HW116865   3.077   1.420   7.986 -1.4592  0.4994  1.4160
 1744SOL    HW216866   3.218   1.450   7.942 -1.1570  0.5118 -1.4226
 1745SOL     OW16867   0.130   0.277   3.727  0.0995 -0.1840  0.5952
 1745SOL    HW116868   0.168   0.209   3.782 -1.3923 -1.6246 -0.1555
 1745SOL    HW216869   0.206   0.314   3.682  0.4475 -1.6301 -0.0137
 1746SOL     OW16870   0.444   0.084   2.513  1.0739  0.2520 -0.0053
 1746SOL    HW116871   0.424   0.052   2.601 -0.5964 -0.0549 -0.5086
 1746SOL    HW216872   0.490   0.007   2.480  1.3487  0.6355 -0.5196
 1747SOL     OW16873   1.928   2.096   6.866 -0.1700  0.1702  0.5176
 1747SOL    HW116874   1.867   2.163   6.896  0.8444 -0.0168  3.0468
 1747SOL    HW216875   1.902   2.070   6.778  0.0772  1.1098  0.1716
 1748SOL     OW16876   2.217   1.527   1.781 -1.0144 -0.1207 -0.5830
 1748SOL    HW116877   2.303   1.531   1.739 -0.9029  2.0390 -0.1416
 1748SOL    HW216878   2.250   1.548   1.868  1.2505 -1.4968 -1.1130
 1749SOL     OW16879   2.906   0.640   4.978  0.0975  0.2730  0.0755
 1749SOL    HW116880   2.967   0.582   5.022 -0.7315  1.1454  2.3641
 1749SOL    HW216881   2.928   0.630   4.885 -0.2527 -1.8800  0.2394
 1750SOL     OW16882   4.533   4.695   5.708  0.8372 -0.2605 -0.0502
 1750SOL    HW116883   4.480   4.615   5.713  0.7823 -0.3452 -2.0080
 1750SOL    HW216884   4.607   4.662   5.657  1.7160  1.6700 -0.0288
 1751SOL     OW16885   0.213   1.403   5.425  0.4296 -0.4250  0.0960
 1751SOL    HW116886   0.244   1.358   5.347  0.2720 -1.1459  0.4490
 1751SOL    HW216887   0.299   1.416   5.465 -0.0309  0.8289  0.6913
 1752SOL     OW16888   0.094   3.851   3.945 -0.4733  0.1016 -1.0024
 1752SOL    HW116889   0.015   3.861   3.893  0.9071  2.0683 -2.6815
 1752SOL    HW216890   0.087   3.761   3.978 -0.8538 -0.0490 -1.4943
 1753SOL     OW16891   2.579   2.874  12.033  0.4553  0.2191  0.6138
 1753SOL    HW116892   2.561   2.875  12.127  0.4745  2.9384  0.5911
 1753SOL    HW216893   2.647   2.941  12.032  0.3688  0.3066  0.5052
 1754SOL     OW16894   2.486   4.114   7.981  0.3693  0.1060  0.0397
 1754SOL    HW116895   2.480   4.122   7.886 -2.0384 -1.0292  0.0927
 1754SOL    HW216896   2.540   4.037   7.999  1.4465  0.9429  0.3548
 1755SOL     OW16897   4.147   2.949   9.090 -0.1012 -0.4184 -0.4055
 1755SOL    HW116898   4.059   2.964   9.054 -1.2456 -2.7907  1.4075
 1755SOL    HW216899   4.140   2.856   9.112  0.1858 -0.4893 -0.6156
 1756SOL     OW16900   3.401   2.974   8.567  0.3928  0.3503 -0.0806
 1756SOL    HW116901   3.360   3.046   8.615  2.1207  0.7367  0.8202
 1756SOL    HW216902   3.327   2.923   8.534 -0.2023  0.5037  1.0190
 1757SOL     OW16903   0.395   2.402   2.468 -0.3007 -0.4375 -0.0407
 1757SOL    HW116904   0.466   2.455   2.504 -0.3902 -1.2776  1.3765
 1757SOL    HW216905   0.321   2.463   2.469 -2.0275 -2.5599  0.4834
 1758SOL     OW16906   0.652   0.318   5.144  0.2193  0.6498  0.0293
 1758SOL    HW116907   0.604   0.330   5.062 -0.4050  0.4432  0.3631
 1758SOL    HW216908   0.585   0.305   5.211  0.6885  1.7411  0.7013
 1759SOL     OW16909   0.559   4.218   1.395  0.0384 -0.1012  0.0503
 1759SOL    HW116910   0.527   4.262   1.316  0.5133 -0.9981 -0.6351
 1759SOL    HW216911   0.597   4.137   1.362  2.0656  1.0230 -0.4452
 1760SOL     OW16912   2.699   2.890  17.053  0.0520  0.1718 -0.2140
 1760SOL    HW116913   2.689   2.974  17.010  0.9582 -0.6826 -2.0821
 1760SOL    HW216914   2.764   2.858  16.990  0.8411  0.2258  0.5714
 1761SOL     OW16915   4.230   1.110   5.813 -0.7254 -0.0199 -0.4034
 1761SOL    HW116916   4.180   1.189   5.793 -3.0173 -0.8786  1.9941
 1761SOL    HW216917   4.249   1.110   5.907  1.9291  0.4936 -0.9240
 1762SOL     OW16918   0.347   1.817  16.145 -0.2922  0.1515  0.0796
 1762SOL    HW116919   0.317   1.798  16.233  2.4095 -1.8058  0.5841
 1762SOL    HW216920   0.409   1.744  16.141  1.5014  1.7685 -2.0662
 1763SOL     OW16921   2.710   2.091  11.837 -0.4551  1.3819 -0.1985
 1763SOL    HW116922   2.778   2.158  11.826  2.3618 -1.4354  0.0030
 1763SOL    HW216923   2.754   2.010  11.811  0.2911  0.4572  3.8367
 1764SOL     OW16924   3.494   2.647   4.394 -0.5214 -0.2990  0.3440
 1764SOL    HW116925   3.430   2.698   4.444 -0.6312  0.0800 -0.1784
 1764SOL    HW216926   3.571   2.645   4.451 -0.2291 -0.7248 -0.0728
 1765SOL     OW16927   3.782   1.339   4.376 -0.1151 -0.1409  0.0320
 1765SOL    HW116928   3.740   1.262   4.415  1.3545 -0.3858  1.1059
 1765SOL    HW216929   3.785   1.321   4.282 -0.9012  0.4929 -0.1153
 1766SOL     OW16930   1.723   0.658   5.500 -0.3141 -0.2603  0.2251
 1766SOL    HW116931   1.780   0.733   5.486 -1.2462  0.2306 -0.8750
 1766SOL    HW216932   1.700   0.640   5.409  2.6204 -3.0042  0.0270
 1767SOL     OW16933   3.076   4.700  16.774  0.2521  0.5843  0.1048
 1767SOL    HW116934   3.019   0.037  16.741  0.1438 -1.2512 -3.5138
 1767SOL    HW216935   3.083   4.642  16.699 -3.8415  1.8336 -1.2101
 1768SOL     OW16936   2.143   1.076   8.861  0.1335  0.1846  0.2645
 1768SOL    HW116937   2.182   1.158   8.831  0.8834 -0.3170 -0.1320
 1768SOL    HW216938   2.063   1.097   8.910 -0.5631 -1.2143 -0.2671
 1769SOL     OW16939   1.410   3.649   6.450  0.0839 -0.2446 -0.2794
 1769SOL    HW116940   1.362   3.716   6.498 -1.8428 -0.7482 -1.4842
 1769SOL    HW216941   1.497   3.687   6.441  0.8192 -1.6022  1.1852
 1770SOL     OW16942   0.816   2.239   3.199 -0.0543 -0.1409 -0.2257
 1770SOL    HW116943   0.841   2.331   3.195 -0.2240 -0.1866 -2.3896
 1770SOL    HW216944   0.736   2.239   3.147 -0.9782 -2.4644  1.1977
 1771SOL     OW16945   3.313   1.205   7.317  0.1214  0.2736  0.9573
 1771SOL    HW116946   3.350   1.279   7.269 -0.2742 -1.0142 -1.2910
 1771SOL    HW216947   3.271   1.156   7.247  3.3037 -1.1245  0.0086
 1772SOL     OW16948   4.230   4.234   3.757  0.0363 -0.2946  0.3217
 1772SOL    HW116949   4.196   4.308   3.707  2.8397  1.4884  1.0425
 1772SOL    HW216950   4.162   4.166   3.758 -1.6086  1.3234 -2.0820
 1773SOL     OW16951   0.708   4.231   9.117 -0.1333  0.3345  0.2138
 1773SOL    HW116952   0.703   4.263   9.027 -2.5105 -1.2162 -0.2227
 1773SOL    HW216953   0.707   4.141   9.084  2.2177  0.5138 -0.3260
 1774SOL     OW16954   2.228   4.501   5.039  0.3229 -0.0310 -0.1906
 1774SOL    HW116955   2.217   4.526   4.947 -0.2397 -0.7215 -0.3163
 1774SOL    HW216956   2.191   4.580   5.079 -0.6527  0.7387 -2.5700
 1775SOL     OW16957   0.055   3.889   1.719  0.5017  0.7023 -0.4069
 1775SOL    HW116958   4.703   3.920   1.754  0.4081 -2.1701  1.8974
 1775SOL    HW216959   0.056   3.922   1.629  0.0202 -0.8886 -0.9847
 1776SOL     OW16960   0.623   0.810  14.263 -0.0623 -0.2096  0.1598
 1776SOL    HW116961   0.533   0.828  14.288 -0.2132  1.1091 -1.2960
 1776SOL    HW216962   0.648   0.731  14.310  0.6424  1.0203  1.8600
 1777SOL     OW16963   2.193   4.446   7.136  0.3945  0.3561  0.2562
 1777SOL    HW116964   2.280   4.464   7.102  0.6334 -1.8565 -0.2361
 1777SOL    HW216965   2.130   4.496   7.084 -0.2327 -1.7992 -1.0250
 1778SOL     OW16966   2.887   0.261   1.123  0.1181 -0.1363  0.3501
 1778SOL    HW116967   2.906   0.240   1.215  0.0004  0.0473  0.4152
 1778SOL    HW216968   2.937   0.193   1.078 -0.5415  0.5720 -1.4665
 1779SOL     OW16969   4.438   1.800   8.520 -0.0354 -0.0519 -0.0044
 1779SOL    HW116970   4.356   1.755   8.540 -0.1576 -0.1105 -0.6191
 1779SOL    HW216971   4.428   1.823   8.427 -1.9096 -0.4677  0.0930
 1780SOL     OW16972   3.957   3.691   6.874  0.0910  0.7812 -0.2816
 1780SOL    HW116973   3.944   3.738   6.792  0.4622  2.9034  0.8850
 1780SOL    HW216974   4.035   3.640   6.853 -0.2697 -0.8347  2.3210
 1781SOL     OW16975   0.119   3.938   5.265 -0.0356 -0.4100  0.1703
 1781SOL    HW116976   0.080   4.021   5.239 -0.9914 -0.6349  0.8649
 1781SOL    HW216977   0.162   3.968   5.345  1.5812 -0.5662 -0.6423
 1782SOL     OW16978   0.809   1.328   5.170 -0.5419 -0.5401  0.0353
 1782SOL    HW116979   0.772   1.398   5.224 -0.9819 -0.2907 -0.5997
 1782SOL    HW216980   0.728   1.287   5.140 -1.0752  1.2387 -0.9321
 1783SOL     OW16981   4.483   1.895   6.359 -0.3302 -0.1805 -0.3670
 1783SOL    HW116982   4.559   1.950   6.381 -1.3295  1.9931 -2.3762
 1783SOL    HW216983   4.518   1.833   6.296  0.1916  1.1374 -1.3751
 1784SOL     OW16984   2.591   3.305  11.995  0.1849 -0.3426 -0.4954
 1784SOL    HW116985   2.655   3.376  11.994  0.1756 -0.3524 -2.8250
 1784SOL    HW216986   2.607   3.258  11.913  0.8420 -0.5843 -0.2287
 1785SOL     OW16987   0.864   0.278   8.304  0.2611 -0.1407 -0.5257
 1785SOL    HW116988   0.819   0.201   8.338  3.0290 -1.7658 -0.4929
 1785SOL    HW216989   0.860   0.340   8.377  0.2104  0.3142 -0.9159
 1786SOL     OW16990   0.961   4.618   8.242 -0.3641 -0.1724  0.2637
 1786SOL    HW116991   0.963   4.665   8.158  0.6640 -1.3717 -0.3937
 1786SOL    HW216992   1.027   4.553   8.217  1.5063  0.7010  3.0120
 1787SOL     OW16993   1.166   4.025   0.603 -0.5251  0.0300  0.3982
 1787SOL    HW116994   1.140   3.973   0.527  0.7847 -2.0259  1.3303
 1787SOL    HW216995   1.156   4.115   0.575  2.2286  0.4860  0.8832
 1788SOL     OW16996   1.196   4.580   8.790 -0.1693 -0.5534  0.7109
 1788SOL    HW116997   1.205   4.491   8.757  1.2094 -1.2987  3.1720
 1788SOL    HW216998   1.252   4.578   8.867 -1.7779 -1.2540  1.8508
 1789SOL     OW16999   0.674   3.291   8.715 -0.4115  0.2106 -0.4325
 1789SOL    HW117000   0.718   3.365   8.675 -1.0308  0.6091 -0.3806
 1789SOL    HW217001   0.593   3.280   8.664 -0.5449  0.5868 -0.2958
 1790SOL     OW17002   3.642   3.495  13.084 -0.5836  0.0488  0.5005
 1790SOL    HW117003   3.691   3.575  13.062 -2.3916  1.0669  0.1662
 1790SOL    HW217004   3.647   3.493  13.180  3.2399 -0.3853  0.2897
 1791SOL     OW17005   0.804   1.409  10.042 -0.3512  0.4194 -0.0042
 1791SOL    HW117006   0.863   1.437  10.113 -0.0458  0.4945 -0.2868
 1791SOL    HW217007   0.787   1.487   9.990 -0.7726 -0.0790 -0.6035
 1792SOL     OW17008   0.768   2.114   9.450 -0.2415 -0.4595 -0.5631
 1792SOL    HW117009   0.808   2.165   9.520  0.7695 -0.8582 -0.8448
 1792SOL    HW217010   0.726   2.172   9.387  0.2495  0.6098  0.1075
 1793SOL     OW17011   2.365   2.271  13.427  0.0796  0.5081  0.4644
 1793SOL    HW117012   2.350   2.301  13.517  0.8579 -1.1637  1.1678
 1793SOL    HW217013   2.307   2.328  13.377  0.1616 -0.0873 -0.2958
 1794SOL     OW17014   3.450   0.322   2.091 -0.5813  0.7897  0.3196
 1794SOL    HW117015   3.464   0.266   2.015 -2.7898 -0.9171  1.1725
 1794SOL    HW217016   3.531   0.372   2.094  0.4617 -0.8549 -0.5579
 1795SOL     OW17017   0.882   0.800   6.859 -0.1249 -0.4252 -0.2547
 1795SOL    HW117018   0.876   0.713   6.896 -0.8546 -0.6068 -0.7940
 1795SOL    HW217019   0.856   0.857   6.931 -3.1602 -3.8086  1.3055
 1796SOL     OW17020   1.303   2.935   4.946  0.3862  0.3606 -0.0967
 1796SOL    HW117021   1.220   2.887   4.939  0.6571 -0.5545  2.7281
 1796SOL    HW217022   1.328   2.954   4.856 -1.1804 -1.1591 -0.8606
 1797SOL     OW17023   1.633   0.295   8.541 -0.3701  0.0516  0.4622
 1797SOL    HW117024   1.564   0.305   8.607 -0.4702  0.0957  0.3504
 1797SOL    HW217025   1.587   0.238   8.480 -1.0886  1.0674  0.0794
 1798SOL     OW17026   3.725   1.797   4.857  0.6540  0.0033  0.1101
 1798SOL    HW117027   3.665   1.762   4.791 -0.3204 -1.9384  2.0294
 1798SOL    HW217028   3.807   1.752   4.840 -0.2196 -1.1574 -1.0125
 1799SOL     OW17029   2.225   4.257   7.379  0.6030 -0.0550 -0.1141
 1799SOL    HW117030   2.229   4.320   7.307 -0.3213  1.8186  1.4739
 1799SOL    HW217031   2.285   4.189   7.350 -0.5891 -1.0317 -0.2732
 1800SOL     OW17032   3.295   1.898   1.583  0.2814  0.0222 -0.5590
 1800SOL    HW117033   3.353   1.861   1.650  0.3192  1.4205  0.1798
 1800SOL    HW217034   3.353   1.967   1.553  0.0189  0.1751 -0.7177
 1801SOL     OW17035   3.549   1.306   3.398 -0.1853 -0.9629  0.3072
 1801SOL    HW117036   3.475   1.255   3.433 -2.5697  1.1957 -1.6402
 1801SOL    HW217037   3.517   1.395   3.410  1.1120 -0.7281  1.9518
 1802SOL     OW17038   1.132   0.659   8.602  0.2430 -0.2021 -0.6576
 1802SOL    HW117039   1.081   0.593   8.649  2.2455 -1.7516 -0.6881
 1802SOL    HW217040   1.223   0.640   8.625 -0.4762 -1.0474  1.4815
 1803SOL     OW17041   1.687   1.227   7.081  0.3573 -0.1398  0.0007
 1803SOL    HW117042   1.598   1.252   7.104  1.3111  2.5516  0.7288
 1803SOL    HW217043   1.693   1.139   7.118 -0.2638 -1.0079 -1.9526
 1804SOL     OW17044   4.164   0.790   4.258 -0.5781 -0.0178 -0.6423
 1804SOL    HW117045   4.126   0.743   4.332 -3.7076  1.5920 -1.2186
 1804SOL    HW217046   4.094   0.792   4.192 -0.4570 -0.6025 -0.7915
 1805SOL     OW17047   0.529   1.804   5.803  0.8059  0.3397 -0.0811
 1805SOL    HW117048   0.539   1.844   5.890 -1.8044 -2.5779  1.5145
 1805SOL    HW217049   0.439   1.829   5.783  0.3829  0.2907  1.7877
 1806SOL     OW17050   1.930   1.350   7.267  0.5998 -0.1756 -0.6841
 1806SOL    HW117051   1.948   1.258   7.250 -1.3484 -0.7488  0.4156
 1806SOL    HW217052   1.942   1.379   7.177 -1.3751  0.0624 -0.8731
 1807SOL     OW17053   3.664   4.597  10.488 -0.2269 -0.1740  0.6347
 1807SOL    HW117054   3.586   4.649  10.470  0.9084  1.2154 -0.3148
 1807SOL    HW217055   3.721   4.634  10.420  2.3718  0.0405  2.9148
 1808SOL     OW17056   3.652   4.639   6.043 -0.0024 -0.1782 -0.0911
 1808SOL    HW117057   3.608   4.554   6.037 -1.4273  0.7084 -2.2776
 1808SOL    HW217058   3.658   4.672   5.953  0.9802 -0.6104 -0.1893
 1809SOL     OW17059   2.703   1.516   3.369  0.1695  0.5870 -0.2594
 1809SOL    HW117060   2.610   1.540   3.365  0.1938  1.0475  1.9298
 1809SOL    HW217061   2.709   1.482   3.459  0.4514  0.0222 -0.4945
 1810SOL     OW17062   1.268   0.582   9.474 -0.7353  0.1909 -0.5441
 1810SOL    HW117063   1.331   0.557   9.541 -0.0690 -3.3907 -2.5203
 1810SOL    HW217064   1.200   0.599   9.539 -2.9355 -1.8830 -2.2812
 1811SOL     OW17065   3.090   0.829   0.648 -0.0339  0.2727  0.0786
 1811SOL    HW117066   3.097   0.734   0.647 -0.9556  0.1889  0.8709
 1811SOL    HW217067   2.996   0.837   0.631 -0.5127  2.3155  3.5013
 1812SOL     OW17068   4.294   4.465   9.373 -0.2681 -0.5022  1.0290
 1812SOL    HW117069   4.220   4.439   9.428 -0.6263  0.5113  1.0328
 1812SOL    HW217070   4.258   4.545   9.333  1.5890 -0.3207 -0.2404
 1813SOL     OW17071   3.656   4.031   1.141 -0.1720  0.0190 -0.0700
 1813SOL    HW117072   3.599   3.974   1.192  0.9245  1.3679  2.6306
 1813SOL    HW217073   3.628   4.011   1.051  1.4274 -0.6449 -0.4204
 1814SOL     OW17074   4.633   4.325   3.289  0.3592  0.1906 -0.1317
 1814SOL    HW117075   4.581   4.253   3.254 -0.8335  0.8166  0.3427
 1814SOL    HW217076   4.692   4.337   3.215 -1.9871  0.3306 -1.9611
 1815SOL     OW17077   4.172   2.114  11.545 -0.3163  0.2972 -0.3985
 1815SOL    HW117078   4.215   2.165  11.613  0.4276 -2.3500  1.1090
 1815SOL    HW217079   4.083   2.100  11.580  0.1473 -0.8914  0.3041
 1816SOL     OW17080   2.573   2.618   6.471  0.4123  0.7193 -0.4657
 1816SOL    HW117081   2.646   2.610   6.532  0.5066  1.3158 -0.5022
 1816SOL    HW217082   2.608   2.602   6.384 -0.1273  0.9311 -0.7223
 1817SOL     OW17083   3.084   2.955  14.697 -0.3477 -0.1886  0.5821
 1817SOL    HW117084   3.164   3.004  14.716 -2.0212  1.3915  3.5692
 1817SOL    HW217085   3.051   2.999  14.619 -1.1751  0.0204  1.0422
 1818SOL     OW17086   2.711   4.155   2.824  0.1412  0.0227  0.4296
 1818SOL    HW117087   2.648   4.217   2.786 -0.0827  0.1623  1.0196
 1818SOL    HW217088   2.656   4.076   2.831  0.2408  0.0561  1.6832
 1819SOL     OW17089   4.484   2.422  16.371  0.1839 -0.1641 -0.1771
 1819SOL    HW117090   4.484   2.328  16.352  1.4890  0.4047 -2.8985
 1819SOL    HW217091   4.570   2.416  16.412 -0.5706  0.4035  1.5089
 1820SOL     OW17092   0.287   0.540   3.364 -0.0559 -0.7096  1.0154
 1820SOL    HW117093   0.340   0.620   3.376  0.2203 -0.4279 -2.0658
 1820SOL    HW217094   0.303   0.493   3.445  2.5824 -1.0200  0.3241
 1821SOL     OW17095   0.258   0.687   9.129  0.0552  0.1931 -0.5537
 1821SOL    HW117096   0.272   0.673   9.222  0.0684  0.6486 -0.4864
 1821SOL    HW217097   0.345   0.712   9.099  0.8560  0.3971  1.9318
 1822SOL     OW17098   1.456   0.328  15.644  0.2633 -0.2316 -0.1320
 1822SOL    HW117099   1.517   0.293  15.709  2.9047 -0.6533 -2.8200
 1822SOL    HW217100   1.379   0.329  15.700  1.1143 -0.0392  1.0273
 1823SOL     OW17101   1.049   0.002   1.997 -0.6844  0.1765 -0.5541
 1823SOL    HW117102   1.032   4.667   1.930 -2.1784  1.8460 -1.8247
 1823SOL    HW217103   0.978   0.064   1.980 -1.3789 -0.7317 -0.9872
 1824SOL     OW17104   1.168   1.610   2.674  0.5353 -0.7228  0.7602
 1824SOL    HW117105   1.221   1.688   2.662 -1.1305  0.4773  1.1666
 1824SOL    HW217106   1.196   1.596   2.765 -1.0306 -0.9491  1.2113
 1825SOL     OW17107   3.230   1.972  14.108  0.2117 -0.0831 -0.0663
 1825SOL    HW117108   3.326   1.972  14.101  0.1857 -3.4655 -0.2894
 1825SOL    HW217109   3.220   1.973  14.204  0.5766  0.1335 -0.0283
 1826SOL     OW17110   2.271   0.980   7.318  0.1187 -0.0657 -0.2145
 1826SOL    HW117111   2.296   1.072   7.309 -4.0033  1.1791  0.9516
 1826SOL    HW217112   2.243   0.965   7.408  1.5542  0.1200  0.2711
 1827SOL     OW17113   0.404   3.337   5.803  0.3281 -0.2755  0.7120
 1827SOL    HW117114   0.490   3.373   5.823 -0.4668  1.4444  1.0566
 1827SOL    HW217115   0.412   3.341   5.707 -1.9914 -1.4279  0.4796
 1828SOL     OW17116   2.530   2.837   6.672 -0.2301 -0.3172 -0.4233
 1828SOL    HW117117   2.557   2.896   6.602 -2.2344  0.9581 -0.1053
 1828SOL    HW217118   2.505   2.761   6.620 -0.7265  1.0631 -2.1909
 1829SOL     OW17119   2.552   4.578   5.968  0.4841  0.5160 -0.5511
 1829SOL    HW117120   2.476   4.558   6.023 -1.2456  0.3670 -2.9588
 1829SOL    HW217121   2.588   4.647   6.023  1.3146  1.8256 -2.7475
 1830SOL     OW17122   3.805   2.665   4.497 -0.2385  0.7836  0.3413
 1830SOL    HW117123   3.753   2.590   4.527  0.3626  0.1832 -0.1317
 1830SOL    HW217124   3.884   2.622   4.466  0.7719  3.0891 -0.1861
 1831SOL     OW17125   2.558   4.308   4.866 -0.0664  0.2573  0.4247
 1831SOL    HW117126   2.571   4.386   4.812 -3.0834  0.7882  0.4580
 1831SOL    HW217127   2.525   4.250   4.797 -0.1869 -0.1746  0.8409
 1832SOL     OW17128   2.691   2.042   9.232  0.0183 -0.8316  0.6011
 1832SOL    HW117129   2.703   2.070   9.323 -0.0981  3.0997 -0.5755
 1832SOL    HW217130   2.780   2.050   9.197 -0.1529  0.6717  0.5169
 1833SOL     OW17131   1.555   0.337   2.895  0.3243  0.0074  0.4196
 1833SOL    HW117132   1.645   0.367   2.904  0.7606 -0.3920 -2.4941
 1833SOL    HW217133   1.563   0.244   2.913 -2.0257  0.0014  1.4096
 1834SOL     OW17134   2.648   0.125   4.042  0.0287  0.9956  0.3232
 1834SOL    HW117135   2.685   0.046   4.005 -2.5107 -0.7691  1.5175
 1834SOL    HW217136   2.727   0.155   4.087  1.2290 -1.2320 -0.3342
 1835SOL     OW17137   2.533   1.231   2.336  0.2999 -0.2723 -0.0367
 1835SOL    HW117138   2.620   1.193   2.325  0.4007 -0.6862  2.0225
 1835SOL    HW217139   2.489   1.148   2.318  1.2670 -0.7972  0.0474
 1836SOL     OW17140   0.653   1.835   9.423 -0.4023 -0.0058  0.0087
 1836SOL    HW117141   0.637   1.827   9.329  0.7650  0.7396 -0.2626
 1836SOL    HW217142   0.680   1.927   9.424  0.3620 -0.2227 -0.5721
 1837SOL     OW17143   1.464   0.217  16.879  0.5198  0.0933 -0.6889
 1837SOL    HW117144   1.443   0.187  16.968  0.2725 -0.6859 -1.0073
 1837SOL    HW217145   1.535   0.277  16.901 -1.0919  1.6041  0.3630
 1838SOL     OW17146   1.062   4.027   8.008 -0.3949  0.5139  0.3012
 1838SOL    HW117147   0.969   4.009   7.997 -0.1551 -0.1231 -0.6775
 1838SOL    HW217148   1.096   4.016   7.919 -1.1371  0.0674  0.0720
 1839SOL     OW17149   4.280   2.791   9.393  0.4649 -0.0965 -0.0986
 1839SOL    HW117150   4.303   2.711   9.440 -0.9565 -0.2638  0.3021
 1839SOL    HW217151   4.224   2.752   9.326 -0.2306  2.1217 -0.8120
 1840SOL     OW17152   4.299   1.154  12.792 -0.7727  0.7875  0.7020
 1840SOL    HW117153   4.379   1.102  12.791 -0.3463  1.4928 -2.6201
 1840SOL    HW217154   4.321   1.219  12.859  0.0922  0.5733  0.6277
 1841SOL     OW17155   2.024   3.260   3.177  0.0638 -0.4330  0.6962
 1841SOL    HW117156   2.050   3.172   3.204 -3.7325 -1.5406  0.7612
 1841SOL    HW217157   1.985   3.232   3.094  0.1213  1.1307  0.1409
 1842SOL     OW17158   3.574   3.264   3.657  0.6444 -0.4055 -0.2996
 1842SOL    HW117159   3.604   3.344   3.701 -0.0324 -0.7602  0.7776
 1842SOL    HW217160   3.518   3.298   3.587 -0.5187 -2.0585 -0.1644
 1843SOL     OW17161   3.228   1.723   8.627  0.6276  0.3960 -0.3525
 1843SOL    HW117162   3.218   1.702   8.720 -1.0809  0.1064 -0.5952
 1843SOL    HW217163   3.308   1.676   8.604  2.1116  2.5811  0.3490
 1844SOL     OW17164   0.265   0.523   8.154 -0.1732 -0.0418  0.1228
 1844SOL    HW117165   0.341   0.474   8.122 -0.7930 -0.5056 -0.6077
 1844SOL    HW217166   0.294   0.544   8.243  0.2953  1.4973 -0.3840
 1845SOL     OW17167   4.098   0.965  14.338 -0.3190 -0.2335 -0.2186
 1845SOL    HW117168   4.167   1.019  14.299 -0.9125  0.6647 -0.0279
 1845SOL    HW217169   4.052   1.029  14.393 -1.4469  0.2028 -1.6771
 1846SOL     OW17170   3.787   4.143   5.053  0.5373  0.4168  0.4400
 1846SOL    HW117171   3.865   4.088   5.044  0.4819  0.7481 -2.1224
 1846SOL    HW217172   3.777   4.150   4.958 -0.4926 -1.1125  0.4343
 1847SOL     OW17173   3.435   1.037   5.586  0.0573  0.2664 -0.0238
 1847SOL    HW117174   3.361   1.082   5.545  0.4030  1.7341  0.9855
 1847SOL    HW217175   3.508   1.085   5.548 -0.0732 -0.0805 -0.7195
 1848SOL     OW17176   0.965   0.149   7.657 -0.2812  0.3970  0.6388
 1848SOL    HW117177   0.915   0.095   7.718  1.4739 -0.6270  1.1868
 1848SOL    HW217178   0.938   0.115   7.572 -0.6786  0.5898  0.6884
 1849SOL     OW17179   3.552   1.256   4.012  0.2916  0.1739 -0.1104
 1849SOL    HW117180   3.549   1.271   3.917  0.4763 -1.5390 -0.3915
 1849SOL    HW217181   3.464   1.282   4.038  0.7281 -0.9560  2.4370
 1850SOL     OW17182   3.269   3.919  17.377 -0.1847 -0.0695 -0.1363
 1850SOL    HW117183   3.243   3.988  17.316 -1.8016 -1.7991 -1.3997
 1850SOL    HW217184   3.188   3.870  17.392  1.0798 -2.1633 -0.2428
 1851SOL     OW17185   3.317   3.475   6.927  0.0427 -0.4978  0.1401
 1851SOL    HW117186   3.370   3.478   6.847  1.1432 -0.0791  0.8988
 1851SOL    HW217187   3.258   3.402   6.908 -1.1246  1.0394 -2.1396
 1852SOL     OW17188   4.421   3.994   9.359  0.8661 -0.3340 -0.2123
 1852SOL    HW117189   4.444   4.085   9.339  0.8225  0.0199  1.3556
 1852SOL    HW217190   4.326   4.002   9.353  0.5350 -1.8082  3.2106
 1853SOL     OW17191   0.969   3.990  16.701  0.4595 -0.4472  0.0391
 1853SOL    HW117192   1.004   3.945  16.778 -0.4054  1.3033  1.4639
 1853SOL    HW217193   0.964   4.080  16.734  0.9314 -0.8040  1.0744
 1854SOL     OW17194   4.144   0.551  14.060  0.1316 -0.1371  1.0049
 1854SOL    HW117195   4.180   0.560  13.971 -0.4442  0.3976  0.8249
 1854SOL    HW217196   4.054   0.584  14.052  0.1429 -0.0219  1.3582
 1855SOL     OW17197   4.043   3.041  12.323 -0.0335  0.3678  0.0468
 1855SOL    HW117198   4.018   3.027  12.232  0.4365 -0.6662  0.0714
 1855SOL    HW217199   4.021   2.960  12.369  3.0800 -1.4962 -1.7030
 1856SOL     OW17200   1.041   2.314   0.516  0.0331 -0.4430 -0.1943
 1856SOL    HW117201   1.046   2.410   0.522  2.0915 -0.3670 -2.8708
 1856SOL    HW217202   1.054   2.299   0.422  0.6889 -3.6106  0.4190
 1857SOL     OW17203   4.729   1.147   9.262  0.5184  0.0080  0.0386
 1857SOL    HW117204   4.635   1.142   9.279  0.5803  1.3900  0.7548
 1857SOL    HW217205   0.002   1.102   9.177 -2.1597 -3.1526  1.5911
 1858SOL     OW17206   3.232   3.863   3.520  0.4746  0.7339 -0.4594
 1858SOL    HW117207   3.307   3.848   3.462  0.8286  0.0841  0.1647
 1858SOL    HW217208   3.269   3.862   3.609 -1.0324 -0.1605  0.1649
 1859SOL     OW17209   3.380   1.426  14.370 -0.4978 -0.2995  0.7130
 1859SOL    HW117210   3.331   1.408  14.290 -0.6214 -3.1476  1.4082
 1859SOL    HW217211   3.333   1.362  14.424 -0.9445 -1.1832 -0.7281
 1860SOL     OW17212   2.000   2.363  10.230  0.6665 -0.1623  0.2763
 1860SOL    HW117213   1.958   2.439  10.270 -0.0576 -1.2091  1.4973
 1860SOL    HW217214   1.990   2.392  10.139  0.4010  0.3775  0.4743
 1861SOL     OW17215   3.877   3.764  11.806 -0.0620  0.0455 -0.3007
 1861SOL    HW117216   3.851   3.802  11.721 -2.4234 -0.4791  0.1882
 1861SOL    HW217217   3.960   3.726  11.778 -0.6159 -0.5202 -1.1618
 1862SOL     OW17218   3.503   0.491   9.753 -0.3923  0.0097 -0.7127
 1862SOL    HW117219   3.516   0.569   9.698 -2.3667  1.3677  0.7618
 1862SOL    HW217220   3.414   0.501   9.785 -0.7087 -1.6519 -1.0784
 1863SOL     OW17221   1.210   1.892  12.715 -0.3758 -0.4887  0.4677
 1863SOL    HW117222   1.186   1.934  12.798 -1.7851 -0.5074  0.0786
 1863SOL    HW217223   1.124   1.859  12.690  0.4567 -3.3058  1.3278
 1864SOL     OW17224   4.213   1.000   6.581 -0.0094  0.1717 -0.3605
 1864SOL    HW117225   4.146   1.068   6.592 -1.1362 -1.2629  1.6816
 1864SOL    HW217226   4.206   0.980   6.487 -0.2819  0.4907 -0.4094
 1865SOL     OW17227   2.262   1.055   6.235  0.1897  0.0371 -0.6774
 1865SOL    HW117228   2.251   1.131   6.292 -0.4109 -0.6618  0.1371
 1865SOL    HW217229   2.309   0.984   6.279 -0.2054 -0.8135 -1.6386
 1866SOL     OW17230   0.276   3.304   7.663  0.3022 -0.2870 -0.5162
 1866SOL    HW117231   0.266   3.272   7.753  1.7393  1.8749  0.4242
 1866SOL    HW217232   0.297   3.397   7.673  0.1878  0.0347 -3.2887
 1867SOL     OW17233   1.043   2.668   3.977  0.0316 -0.0083 -0.4947
 1867SOL    HW117234   1.023   2.585   3.934 -0.2130  0.1033 -0.5989
 1867SOL    HW217235   1.131   2.657   4.011 -0.8538  0.9575  2.1398
 1868SOL     OW17236   3.950   4.401  10.002  0.6776  0.1875 -0.5130
 1868SOL    HW117237   4.033   4.386  10.048  0.6689  3.1516  0.4472
 1868SOL    HW217238   3.909   4.464  10.061 -0.5030 -1.4413  0.3849
 1869SOL     OW17239   0.224   2.314   5.085 -0.0011  0.0792  0.0047
 1869SOL    HW117240   0.162   2.264   5.033  1.2657 -1.2595 -0.2453
 1869SOL    HW217241   0.185   2.348   5.165 -1.9771 -2.3918  0.0822
 1870SOL     OW17242   1.031   1.120   2.103 -0.3349 -0.1691  0.0095
 1870SOL    HW117243   0.963   1.144   2.039  1.3601  0.9521 -1.3773
 1870SOL    HW217244   1.088   1.187   2.066  0.0055 -0.2995  0.3096
 1871SOL     OW17245   3.887   2.940  17.486 -0.2375 -0.0748  0.4868
 1871SOL    HW117246   3.968   2.955  17.536 -0.8623 -1.4775  1.9036
 1871SOL    HW217247   3.831   3.003  17.531  0.9096  1.1205  0.2507
 1872SOL     OW17248   1.180   2.425   2.311 -0.2506 -0.1948  0.2367
 1872SOL    HW117249   1.189   2.492   2.243 -0.0889  1.3035  1.7269
 1872SOL    HW217250   1.263   2.379   2.307 -0.7359 -1.0365 -0.2745
 1873SOL     OW17251   0.225   0.726   5.393  0.2351  0.2324 -0.5223
 1873SOL    HW117252   0.137   0.692   5.404 -0.4140  1.6952 -1.2915
 1873SOL    HW217253   0.215   0.795   5.327 -1.7373  2.3492  1.9823
 1874SOL     OW17254   2.080   4.618   9.940  0.6971 -0.3752 -0.7584
 1874SOL    HW117255   2.166   4.602   9.901  0.3388 -2.9570 -0.4829
 1874SOL    HW217256   2.073   4.553  10.010  0.1827 -0.3322 -0.7676
 1875SOL     OW17257   1.373   2.811   8.447  0.2187 -0.2323 -0.0281
 1875SOL    HW117258   1.363   2.809   8.542  2.2635 -3.7404  0.1249
 1875SOL    HW217259   1.281   2.807   8.421 -0.0185 -0.0972  0.8038
 1876SOL     OW17260   1.808   3.639  14.368  0.0165 -0.0021 -0.0512
 1876SOL    HW117261   1.732   3.623  14.424  2.4757 -0.8960  3.0342
 1876SOL    HW217262   1.803   3.734  14.362  0.0177 -0.0922 -1.4444
 1877SOL     OW17263   1.925   2.749   2.190 -0.1755 -0.3330  0.0833
 1877SOL    HW117264   1.916   2.655   2.181 -0.2455 -0.1752 -1.5484
 1877SOL    HW217265   1.975   2.757   2.109 -1.1099  1.9577 -0.2790
 1878SOL     OW17266   2.862   2.545   6.420  0.1925 -0.1203  0.1459
 1878SOL    HW117267   2.908   2.608   6.476 -1.3079 -0.0535  1.2859
 1878SOL    HW217268   2.928   2.535   6.351 -0.8532  1.9517 -1.1588
 1879SOL     OW17269   4.585   2.853   9.513  0.5570 -0.0320  0.2887
 1879SOL    HW117270   4.562   2.777   9.566  2.6600 -1.7778 -1.3134
 1879SOL    HW217271   4.660   2.823   9.461 -2.0181  0.1815 -3.6226
 1880SOL     OW17272   1.803   1.653  11.382  0.5562  0.7379 -0.4230
 1880SOL    HW117273   1.896   1.673  11.385  0.6073  0.0079  2.3319
 1880SOL    HW217274   1.778   1.640  11.473 -0.7576 -1.4015 -1.0868
 1881SOL     OW17275   0.637   3.843  11.123  1.0834 -0.0540  0.0427
 1881SOL    HW117276   0.642   3.752  11.093  0.7530 -0.8746  2.4999
 1881SOL    HW217277   0.728   3.873  11.117 -0.1605  3.4470 -1.3808
 1882SOL     OW17278   2.857   1.483  13.988 -0.1949  0.3285 -0.2128
 1882SOL    HW117279   2.786   1.511  13.930  1.2105 -0.3376 -2.2241
 1882SOL    HW217280   2.892   1.571  14.002  2.8214 -0.8870 -0.1570
 1883SOL     OW17281   3.834   3.938   7.840 -0.0024 -0.2810  0.3815
 1883SOL    HW117282   3.862   4.008   7.781 -1.7979  1.3253  1.4043
 1883SOL    HW217283   3.790   3.884   7.774 -0.5767 -0.8589  1.2414
 1884SOL     OW17284   0.830   0.993   6.514 -0.1070 -0.0431  0.1913
 1884SOL    HW117285   0.804   0.902   6.528  0.3922 -0.5091 -1.9769
 1884SOL    HW217286   0.761   1.020   6.453 -0.0631  0.9779  0.5854
 1885SOL     OW17287   0.148   3.504   2.773 -0.1742  0.4355 -0.0361
 1885SOL    HW117288   0.149   3.514   2.868  0.9825 -1.5930  0.1575
 1885SOL    HW217289   0.057   3.532   2.766 -0.6452 -1.5070 -1.4703
 1886SOL     OW17290   3.904   3.425   7.934 -0.0511 -0.1019 -0.7397
 1886SOL    HW117291   3.866   3.441   7.847 -0.9649 -3.3851 -0.9691
 1886SOL    HW217292   3.957   3.504   7.939  0.4304 -0.3375 -1.9524
 1887SOL     OW17293   1.652   4.148  13.403  0.4424 -0.3455 -0.3112
 1887SOL    HW117294   1.571   4.195  13.422  2.8451  3.8635 -0.5748
 1887SOL    HW217295   1.618   4.070  13.359 -1.4946  1.3627 -1.8287
 1888SOL     OW17296   1.097   1.898   5.935 -0.3921 -0.2806 -0.5790
 1888SOL    HW117297   1.052   1.981   5.952  0.5617 -0.4917  2.9488
 1888SOL    HW217298   1.035   1.830   5.960 -1.4318  0.4588 -1.1194
 1889SOL     OW17299   1.583   0.994  12.139 -0.5416 -0.1224  0.3145
 1889SOL    HW117300   1.604   0.913  12.186  1.1747  0.5379  0.6826
 1889SOL    HW217301   1.645   0.988  12.066 -0.9716 -0.0410 -0.0600
 1890SOL     OW17302   3.644   0.753   7.430  0.0707  0.7886  0.1896
 1890SOL    HW117303   3.684   0.775   7.346  1.3545 -2.1623  0.0063
 1890SOL    HW217304   3.705   0.686   7.461  2.2631  3.1237  0.8798
 1891SOL     OW17305   0.287   3.036   9.503 -0.0538  0.5993  0.2249
 1891SOL    HW117306   0.360   2.977   9.525  0.1439  0.8853  0.3388
 1891SOL    HW217307   0.331   3.070   9.425 -0.3682  1.3128  0.3581
 1892SOL     OW17308   3.738   3.875  10.568 -0.6101 -0.3297  0.4888
 1892SOL    HW117309   3.756   3.966  10.542 -0.6427 -0.9523 -1.6978
 1892SOL    HW217310   3.683   3.839  10.498  0.4074 -1.5484  0.3103
 1893SOL     OW17311   3.860   4.309   2.286  0.3233 -0.2376  0.3181
 1893SOL    HW117312   3.816   4.378   2.236  0.6207  1.8357  2.8959
 1893SOL    HW217313   3.933   4.358   2.326  1.5482 -4.0644  2.7340
 1894SOL     OW17314   1.919   0.514  16.915  0.1113  0.0070  0.0495
 1894SOL    HW117315   1.939   0.431  16.873  0.8566 -0.4096  1.2185
 1894SOL    HW217316   1.939   0.575  16.845 -2.8438  2.0771  1.0008
 1895SOL     OW17317   4.422   3.651   8.399 -0.2140  0.6971 -0.3136
 1895SOL    HW117318   4.461   3.718   8.342  1.7256 -0.9180 -0.9096
 1895SOL    HW217319   4.353   3.705   8.437  0.4042  0.7953  0.6824
 1896SOL     OW17320   4.093   0.362   6.824  0.3964 -0.2321  0.5650
 1896SOL    HW117321   4.063   0.298   6.889  0.1376 -1.2735 -0.5800
 1896SOL    HW217322   4.098   0.437   6.883  0.6356 -0.8170  1.3069
 1897SOL     OW17323   4.304   3.732   0.790  0.1039  0.2512  0.1939
 1897SOL    HW117324   4.352   3.815   0.786  0.1175  0.2996  1.5582
 1897SOL    HW217325   4.220   3.760   0.755  0.5175  0.1141 -0.9137
 1898SOL     OW17326   1.306   1.818   9.242 -0.8094 -0.2128 -0.2567
 1898SOL    HW117327   1.237   1.837   9.306 -0.5649 -0.3747  0.0568
 1898SOL    HW217328   1.357   1.762   9.301  0.2769 -0.9385 -1.9024
 1899SOL     OW17329   0.709   4.243  17.004 -0.1201  0.2216  0.7301
 1899SOL    HW117330   0.758   4.268  17.081 -0.8924  0.6985  1.0716
 1899SOL    HW217331   0.623   4.274  17.034 -1.1229 -2.8802  1.0483
 1900SOL     OW17332   4.015   1.177   2.686 -0.6866  0.8933 -0.1289
 1900SOL    HW117333   3.973   1.128   2.757 -1.0831 -1.0466 -1.7051
 1900SOL    HW217334   3.953   1.151   2.618 -0.7217 -2.5290  1.1859
 1901SOL     OW17335   0.252   4.560   7.868 -0.2452 -0.4906 -0.4524
 1901SOL    HW117336   0.306   4.558   7.947  0.5686 -1.1061 -1.0182
 1901SOL    HW217337   0.322   4.560   7.803  1.0521 -0.0883  0.9518
 1902SOL     OW17338   1.360   1.104   7.106 -0.1151 -0.4702 -0.5881
 1902SOL    HW117339   1.315   1.039   7.160 -0.6030  0.1065 -0.2939
 1902SOL    HW217340   1.419   1.149   7.167 -0.2668 -1.6691  0.4354
 1903SOL     OW17341   4.477   4.597   6.524  0.5332  0.0621  0.2008
 1903SOL    HW117342   4.539   4.533   6.491 -0.0537 -0.1887 -0.3997
 1903SOL    HW217343   4.388   4.569   6.506  0.3452  0.8800 -0.1649
 1904SOL     OW17344   4.038   1.296  16.797  0.2163  0.0771 -0.5709
 1904SOL    HW117345   4.075   1.384  16.791  0.7466 -0.1272 -0.2570
 1904SOL    HW217346   3.966   1.313  16.859  1.6870 -0.7137  1.3265
 1905SOL     OW17347   3.348   1.040   5.257 -0.2667 -0.7799  0.6134
 1905SOL    HW117348   3.265   1.008   5.293 -0.7734  1.4153  1.4491
 1905SOL    HW217349   3.365   0.967   5.198 -2.6989 -0.5358 -0.3920
 1906SOL     OW17350   2.007   0.082  15.615  0.0828  0.5572 -0.1489
 1906SOL    HW117351   1.972   0.014  15.558  1.0758  0.3879 -0.5493
 1906SOL    HW217352   2.003   0.158  15.557  2.4173  0.0912 -0.9108
 1907SOL     OW17353   1.873   0.561  12.187 -0.5797 -0.4698 -0.4286
 1907SOL    HW117354   1.802   0.532  12.244 -2.0892  0.6923 -1.6920
 1907SOL    HW217355   1.831   0.589  12.106  1.2678  1.8210 -0.6138
 1908SOL     OW17356   3.206   0.574  13.492  0.0145  0.2011 -0.2530
 1908SOL    HW117357   3.286   0.581  13.439 -0.0293 -0.9918 -0.4747
 1908SOL    HW217358   3.152   0.646  13.459 -2.8099 -2.1970 -0.8105
 1909SOL     OW17359   2.139   2.648   9.668  0.6360  0.1156 -0.0811
 1909SOL    HW117360   2.126   2.710   9.740 -0.1751  1.6079 -1.4917
 1909SOL    HW217361   2.201   2.583   9.700  0.7733  0.8720  1.1960
 1910SOL     OW17362   2.225   3.668  17.591 -0.1509  0.0833 -0.1107
 1910SOL    HW117363   2.146   3.656  17.538 -0.8034 -0.1557  0.9229
 1910SOL    HW217364   2.293   3.654  17.524 -0.6357 -2.0561 -0.1305
 1911SOL     OW17365   3.078   1.789  14.295 -0.0870 -0.2261  0.2936
 1911SOL    HW117366   3.130   1.736  14.355 -0.8495 -3.2819 -1.7401
 1911SOL    HW217367   3.120   1.875  14.300 -1.6772  0.6640 -1.9266
 1912SOL     OW17368   0.882   3.770   2.194  0.0451 -0.2073 -0.6205
 1912SOL    HW117369   0.876   3.718   2.274 -0.2894 -0.7197 -0.9775
 1912SOL    HW217370   0.914   3.852   2.232 -0.9053  0.3792 -1.0871
 1913SOL     OW17371   4.648   3.576   6.373  0.1848  0.1237  0.1536
 1913SOL    HW117372   4.701   3.545   6.447  1.7595 -2.2367 -2.0027
 1913SOL    HW217373   4.564   3.537   6.398  0.6413 -1.8797 -1.4419
 1914SOL     OW17374   2.214   1.945   1.146 -0.0205 -0.2750 -0.1842
 1914SOL    HW117375   2.300   1.903   1.139 -0.5953 -1.6997  1.3202
 1914SOL    HW217376   2.189   1.951   1.053 -1.5068 -1.9560  0.0984
 1915SOL     OW17377   2.502   2.912  14.769 -0.2573 -0.3133 -0.4371
 1915SOL    HW117378   2.498   2.933  14.862 -1.7289 -0.6173 -0.4246
 1915SOL    HW217379   2.413   2.879  14.754 -0.4442 -0.3589  0.8241
 1916SOL     OW17380   3.316   1.368   5.696  0.2631 -0.1779  0.0129
 1916SOL    HW117381   3.345   1.436   5.635 -0.1303  0.1307  0.1733
 1916SOL    HW217382   3.280   1.304   5.635 -0.8951  0.3493  0.1360
 1917SOL     OW17383   3.615   4.267  16.940 -0.0322  0.3134 -0.3436
 1917SOL    HW117384   3.624   4.198  16.875 -0.9068 -1.9262  1.9409
 1917SOL    HW217385   3.665   4.336  16.895  1.2000 -0.3022  0.0853
 1918SOL     OW17386   0.238   0.156   8.384 -0.3546  0.3922 -0.4016
 1918SOL    HW117387   0.202   0.239   8.414 -2.2798 -1.2255  1.6922
 1918SOL    HW217388   0.307   0.139   8.448  0.1031 -1.7905 -1.4735
 1919SOL     OW17389   4.614   3.837   7.343 -0.1764 -0.2872  0.0808
 1919SOL    HW117390   4.611   3.831   7.248  0.7373 -0.7252  0.0847
 1919SOL    HW217391   4.696   3.790   7.360  1.5771  1.2263 -4.3775
 1920SOL     OW17392   4.552   2.512   9.238 -0.7203 -0.3753  0.0970
 1920SOL    HW117393   4.636   2.525   9.283 -0.6255  0.9062 -0.4428
 1920SOL    HW217394   4.521   2.442   9.295  3.3693 -1.9763  0.3439
 1921SOL     OW17395   0.453   1.030   6.718  0.1256 -0.3272  0.3440
 1921SOL    HW117396   0.528   0.970   6.720 -0.8109 -1.5528 -1.7876
 1921SOL    HW217397   0.403   0.999   6.643 -0.4464  0.4392  0.4158
 1922SOL     OW17398   3.334   0.432   7.107 -0.0488 -0.8072 -0.0185
 1922SOL    HW117399   3.391   0.355   7.102 -0.0330 -1.0231  3.3050
 1922SOL    HW217400   3.258   0.388   7.147  1.4777 -0.5031  3.2419
 1923SOL     OW17401   1.324   2.512  16.227 -0.0121 -0.0972 -0.5669
 1923SOL    HW117402   1.231   2.490  16.215  0.3509 -1.1913 -1.4100
 1923SOL    HW217403   1.370   2.500  16.143  1.0336 -1.4820  0.2051
 1924SOL     OW17404   4.714   4.515   7.166  0.2993 -0.0829  0.0412
 1924SOL    HW117405   4.627   4.550   7.184  1.1203  1.9560 -0.0344
 1924SOL    HW217406   0.034   4.594   7.151  3.0938 -1.6946  1.2224
 1925SOL     OW17407   1.044   4.215   2.524  0.1518 -0.4155 -0.2794
 1925SOL    HW117408   1.060   4.170   2.607 -2.2653 -1.3503 -0.3308
 1925SOL    HW217409   1.093   4.155   2.467  1.1646 -0.6262  0.8205
 1926SOL     OW17410   1.233   2.685  13.768 -0.1255  0.5267 -0.4726
 1926SOL    HW117411   1.232   2.679  13.672  2.1283 -1.1337 -0.4050
 1926SOL    HW217412   1.307   2.624  13.778  0.3035  0.8548 -1.5541
 1927SOL     OW17413   2.507   3.811   7.933 -0.0809  0.6545  0.0836
 1927SOL    HW117414   2.544   3.751   7.998 -0.5552  0.0729 -0.1775
 1927SOL    HW217415   2.521   3.759   7.854 -1.0510 -0.7249  0.7999
 1928SOL     OW17416   2.226   1.927   1.856 -0.0718  0.2988 -0.0899
 1928SOL    HW117417   2.236   2.017   1.827 -1.8049  0.3446 -0.5345
 1928SOL    HW217418   2.174   1.933   1.936 -2.6555 -2.0257 -1.5956
 1929SOL     OW17419   1.061   2.228   5.719  0.2939  0.2725  0.6099
 1929SOL    HW117420   1.115   2.179   5.657 -0.7583  0.8962 -0.8000
 1929SOL    HW217421   1.072   2.316   5.683  1.4916  0.4993  1.5069
 1930SOL     OW17422   0.424   4.330   9.338 -0.6356  0.1069 -0.0205
 1930SOL    HW117423   0.354   4.334   9.403  0.0682  0.8190  0.6885
 1930SOL    HW217424   0.366   4.304   9.266 -2.2689  3.3813  0.1068
 1931SOL     OW17425   4.704   3.533   5.000 -0.2061 -0.0211  0.3121
 1931SOL    HW117426   4.648   3.494   5.067 -0.4922  2.2777  1.4160
 1931SOL    HW217427   4.645   3.606   4.978 -1.2783 -0.4745  1.6834
 1932SOL     OW17428   0.636   3.981  11.541  0.0051 -0.2167  0.2095
 1932SOL    HW117429   0.667   3.891  11.528  0.6908 -0.3329  2.6817
 1932SOL    HW217430   0.695   4.024  11.603 -1.0884  0.0513  1.0475
 1933SOL     OW17431   2.840   4.678  12.424 -0.1717 -0.0035  0.5367
 1933SOL    HW117432   2.821   4.635  12.340 -0.0617  0.2053  0.4072
 1933SOL    HW217433   2.805   0.034  12.406 -1.3688 -0.7900 -0.9952
 1934SOL     OW17434   2.875   2.084   7.439 -0.0601  0.4046 -0.3634
 1934SOL    HW117435   2.933   2.036   7.499 -0.4221  0.1063 -0.2513
 1934SOL    HW217436   2.863   2.166   7.485 -0.7967 -0.0734  0.2978
 1935SOL     OW17437   3.085   3.302   8.027  0.1588  0.0006  0.3471
 1935SOL    HW117438   3.146   3.284   7.956 -0.5411  1.1184 -0.5328
 1935SOL    HW217439   3.146   3.321   8.097 -0.0300 -0.6377  0.6873
 1936SOL     OW17440   1.644   2.950   8.079 -0.4820 -0.1649 -0.1286
 1936SOL    HW117441   1.580   2.892   8.121 -0.4302  1.4342  2.1856
 1936SOL    HW217442   1.716   2.888   8.072  0.6719  1.1893 -0.0705
 1937SOL     OW17443   0.344   2.387   4.051  0.0657  0.4063 -0.2686
 1937SOL    HW117444   0.284   2.455   4.019  1.5561  0.9347 -1.9085
 1937SOL    HW217445   0.431   2.426   4.049  0.6256 -0.9550 -2.5404
 1938SOL     OW17446   0.712   0.213   7.344  0.9003  0.0853  0.8545
 1938SOL    HW117447   0.676   0.130   7.373 -0.0186  0.3570  0.4908
 1938SOL    HW217448   0.633   0.266   7.337 -0.2201 -1.6987 -0.0221
 1939SOL     OW17449   4.131   2.102   2.669  0.1470  0.0338 -0.4209
 1939SOL    HW117450   4.054   2.061   2.628 -0.0689  1.2477 -1.2258
 1939SOL    HW217451   4.195   2.037   2.638 -0.0070  0.2174 -1.1331
 1940SOL     OW17452   0.943   4.573   1.676 -0.3920  0.4245 -0.4122
 1940SOL    HW117453   1.006   4.542   1.611  1.8179 -0.0938  1.9807
 1940SOL    HW217454   0.941   4.501   1.740 -0.6819  0.1413 -0.7388
 1941SOL     OW17455   4.691   4.438   9.613 -0.3818  0.1818 -0.0920
 1941SOL    HW117456   4.604   4.469   9.588 -0.6250  1.2907  2.1351
 1941SOL    HW217457   4.719   4.507   9.674 -0.8745  1.4292 -1.2765
 1942SOL     OW17458   4.550   2.758   6.584  0.4768  0.1917  0.2763
 1942SOL    HW117459   4.616   2.814   6.624 -1.9849  1.1233  3.0526
 1942SOL    HW217460   4.524   2.715   6.665 -0.2844 -1.3396 -0.7701
 1943SOL     OW17461   4.693   1.774   5.761 -0.2976 -0.7571  0.1226
 1943SOL    HW117462   0.028   1.764   5.692 -2.5337  0.6622 -2.2099
 1943SOL    HW217463   0.026   1.785   5.831 -0.2055 -0.3619 -0.0220
 1944SOL     OW17464   0.355   0.008   9.913 -0.6086  0.3011  0.0077
 1944SOL    HW117465   0.396   0.023   9.998 -0.2376 -1.1313  0.0846
 1944SOL    HW217466   0.385   0.083   9.860  2.2654 -1.4700 -0.8874
 1945SOL     OW17467   2.731   2.808   2.869  0.0488  0.3371 -0.1187
 1945SOL    HW117468   2.825   2.795   2.881 -0.4958 -1.6084  1.9133
 1945SOL    HW217469   2.699   2.736   2.924  1.8479 -1.6299 -1.6483
 1946SOL     OW17470   0.004   2.201  13.787 -0.5111  0.2011 -0.1499
 1946SOL    HW117471   0.072   2.134  13.781  0.3283  1.0871 -0.4763
 1946SOL    HW217472   0.056   2.266  13.740  1.2291 -3.0258 -2.6899
 1947SOL     OW17473   4.427   0.950   8.352  0.5407 -0.1434  0.3989
 1947SOL    HW117474   4.439   0.970   8.445 -2.3280  0.7607  0.5792
 1947SOL    HW217475   4.365   0.878   8.365  0.4085  0.4009  2.8831
 1948SOL     OW17476   2.459   3.663   5.680  0.1064  0.6729  0.2879
 1948SOL    HW117477   2.430   3.579   5.714  3.5513 -0.6297 -0.0253
 1948SOL    HW217478   2.452   3.649   5.585 -0.0049 -1.4999  0.6191
 1949SOL     OW17479   1.287   0.698   3.740 -0.3686 -0.1279 -0.2941
 1949SOL    HW117480   1.344   0.634   3.699  0.4240  1.9731 -2.4245
 1949SOL    HW217481   1.314   0.776   3.692  2.3679 -0.3065  0.9457
 1950SOL     OW17482   1.751   1.267   1.568  0.1917 -0.4007  0.5858
 1950SOL    HW117483   1.802   1.243   1.491  0.7917  2.5387  0.0638
 1950SOL    HW217484   1.686   1.197   1.573 -0.6173  0.3409  0.5540
 1951SOL     OW17485   4.563   0.877  11.702 -0.3608 -0.2373 -0.1803
 1951SOL    HW117486   4.575   0.967  11.673  0.1825 -0.7859 -1.7104
 1951SOL    HW217487   4.481   0.891  11.748 -1.0226 -0.6131 -1.2353
 1952SOL     OW17488   2.314   1.255   6.399 -0.6069 -0.6558 -0.5246
 1952SOL    HW117489   2.323   1.334   6.346  1.6193 -1.5602 -1.5031
 1952SOL    HW217490   2.405   1.239   6.424 -0.4759  0.1047 -0.5304
 1953SOL     OW17491   3.121   1.298   9.290 -0.2221  0.5628  0.1510
 1953SOL    HW117492   3.059   1.329   9.356 -0.6586 -1.3970  0.6758
 1953SOL    HW217493   3.190   1.361   9.310 -1.2437  1.7459 -0.0276
 1954SOL     OW17494   1.048   4.599  16.968 -0.2059 -0.7496  0.3260
 1954SOL    HW117495   1.039   4.641  16.882 -0.1557  1.9445  1.6563
 1954SOL    HW217496   1.046   4.680  17.018 -2.1786 -0.5774 -0.0338
 1955SOL     OW17497   2.792   3.157   7.623  1.0591 -0.2370  0.4707
 1955SOL    HW117498   2.789   3.161   7.719 -1.8393 -1.9318  0.4432
 1955SOL    HW217499   2.699   3.152   7.602  1.4552 -0.2642 -1.2452
 1956SOL     OW17500   1.065   0.026  17.186 -0.2898  0.1903 -0.2907
 1956SOL    HW117501   1.085   0.102  17.131  0.8688  0.8614  1.0517
 1956SOL    HW217502   1.144   0.013  17.240  0.4925  1.6052 -1.0855
 1957SOL     OW17503   1.856   2.568   9.801  1.1616  0.0370 -0.4222
 1957SOL    HW117504   1.775   2.593   9.758  1.8674  1.3625 -0.9720
 1957SOL    HW217505   1.891   2.652   9.831  0.4244 -0.5217  2.0293
 1958SOL     OW17506   0.365   3.183   5.009 -0.1444 -0.5507 -0.6451
 1958SOL    HW117507   0.326   3.160   4.924 -0.2799  2.2511 -1.3435
 1958SOL    HW217508   0.452   3.144   5.003 -0.3599 -0.5617 -3.5642
 1959SOL     OW17509   2.381   4.602   6.295 -0.1341 -0.4421  0.7342
 1959SOL    HW117510   2.435   4.580   6.371 -2.4463  0.4054  2.6393
 1959SOL    HW217511   2.331   4.521   6.291 -1.0546  0.2681 -2.2042
 1960SOL     OW17512   4.147   1.403  14.152 -0.5119 -0.2543 -0.1989
 1960SOL    HW117513   4.168   1.337  14.086 -0.1652  0.6204 -0.9628
 1960SOL    HW217514   4.055   1.389  14.176 -0.7867 -0.7593 -1.5201
 1961SOL     OW17515   0.454   3.528   7.733  0.0162  0.4975  0.1270
 1961SOL    HW117516   0.401   3.604   7.708  0.5069  1.0946  0.8868
 1961SOL    HW217517   0.494   3.564   7.813  0.8645  0.0610 -0.0973
 1962SOL     OW17518   0.888   3.659   2.452 -0.0645  0.1329 -0.4398
 1962SOL    HW117519   0.956   3.722   2.477 -0.6275  0.4467  0.2953
 1962SOL    HW217520   0.866   3.626   2.539  1.2645  1.7038  0.4990
 1963SOL     OW17521   3.775   3.962   8.558 -0.2858 -0.0466 -0.4213
 1963SOL    HW117522   3.783   4.055   8.580  2.6085  0.1811 -2.3645
 1963SOL    HW217523   3.825   3.929   8.633 -4.3197 -0.1455  2.2449
 1964SOL     OW17524   3.532   3.550   6.453  0.1705 -0.6211 -0.8300
 1964SOL    HW117525   3.560   3.639   6.474  0.6388 -1.3526  1.5944
 1964SOL    HW217526   3.618   3.520   6.424 -0.3651 -0.9570 -2.0657
 1965SOL     OW17527   2.808   1.715  12.054  0.2265 -0.3670 -0.1120
 1965SOL    HW117528   2.832   1.638  12.105 -0.6513 -1.1431 -0.8596
 1965SOL    HW217529   2.714   1.720  12.071  0.2669  0.6296 -0.1831
 1966SOL     OW17530   0.325   3.491   6.498  0.2107 -0.0799 -0.2186
 1966SOL    HW117531   0.360   3.527   6.579  2.3419 -1.1804 -0.6412
 1966SOL    HW217532   0.293   3.574   6.462  0.7925  0.8174  1.3663
 1967SOL     OW17533   3.467   0.867  17.639  0.1473  0.1187  0.3215
 1967SOL    HW117534   3.556   0.900  17.653  0.4064 -1.0680  1.4292
 1967SOL    HW217535   3.482   0.832  17.552  2.5602 -1.3526  1.3275
 1968SOL     OW17536   2.254   1.568   5.014 -0.3177 -0.8282  0.4916
 1968SOL    HW117537   2.213   1.551   5.099 -2.3832  2.5438  0.1389
 1968SOL    HW217538   2.184   1.546   4.954 -2.2591  0.4454  2.3088
 1969SOL     OW17539   3.983   1.058   9.219 -0.1612 -0.6786  0.5802
 1969SOL    HW117540   4.032   0.984   9.256 -0.1540 -2.2110 -2.5289
 1969SOL    HW217541   3.922   1.065   9.293  0.3036 -2.8586  1.1925
 1970SOL     OW17542   0.915   3.583   3.973  0.7123  0.7619  0.2297
 1970SOL    HW117543   0.936   3.668   4.011  2.0943  0.2588  0.5726
 1970SOL    HW217544   0.929   3.604   3.880  3.0492  0.0848  0.4411
 1971SOL     OW17545   3.039   2.185  13.769  0.0422 -0.0642  0.8653
 1971SOL    HW117546   3.110   2.170  13.707 -1.0048 -2.5688  0.3093
 1971SOL    HW217547   3.036   2.281  13.762  0.3132 -0.4240 -3.8963
 1972SOL     OW17548   3.997   3.319   5.546  0.3647 -0.3985  0.4639
 1972SOL    HW117549   3.964   3.343   5.633 -0.1481  0.4255  0.0321
 1972SOL    HW217550   4.068   3.383   5.541 -0.5022  0.5916  0.8400
 1973SOL     OW17551   2.333   0.053   7.201  0.5002  0.3515  0.5522
 1973SOL    HW117552   2.390   0.050   7.124  0.7185  1.6614  0.6502
 1973SOL    HW217553   2.401   0.091   7.257 -0.8043  1.6576  1.2287
 1974SOL     OW17554   2.283   1.154   5.302 -0.1484 -0.0970  0.2771
 1974SOL    HW117555   2.364   1.112   5.273 -0.9845 -0.6695 -1.2362
 1974SOL    HW217556   2.310   1.245   5.290 -1.7646 -0.1244 -3.4262
 1975SOL     OW17557   3.240   0.650  15.447 -0.1507 -0.5510 -0.3474
 1975SOL    HW117558   3.162   0.630  15.395  2.0308 -1.2181 -3.3594
 1975SOL    HW217559   3.278   0.563  15.455  1.3225  0.1784  0.6791
 1976SOL     OW17560   2.710   3.471   2.920 -0.0576 -0.1466  0.3668
 1976SOL    HW117561   2.801   3.499   2.924 -1.0429  3.3878 -2.0681
 1976SOL    HW217562   2.721   3.407   2.850  1.1603  1.2821 -0.7308
 1977SOL     OW17563   2.504   1.568   5.779  0.1286 -0.0550 -0.2154
 1977SOL    HW117564   2.421   1.522   5.792  0.4795 -0.5082  0.4122
 1977SOL    HW217565   2.544   1.577   5.865 -0.2015  1.2555 -0.2075
 1978SOL     OW17566   3.586   4.054   7.564 -0.2085  0.0224 -0.3805
 1978SOL    HW117567   3.640   4.133   7.557 -0.6779  0.5485  1.8088
 1978SOL    HW217568   3.550   4.067   7.651  0.3858  2.3111 -0.4762
 1979SOL     OW17569   0.497   4.435   2.891  0.0744 -0.3433 -0.8970
 1979SOL    HW117570   0.496   4.370   2.961  0.5049 -0.0060 -0.5765
 1979SOL    HW217571   0.510   4.514   2.943  1.5983 -0.9665 -0.3175
 1980SOL     OW17572   4.092   0.824   5.812 -0.1261 -0.3273  0.3887
 1980SOL    HW117573   4.153   0.896   5.823  0.7316 -0.6384 -2.1742
 1980SOL    HW217574   4.018   0.868   5.853  0.0611  0.8501 -0.5476
 1981SOL     OW17575   2.470   1.690  12.897 -0.4429 -0.2388  0.5096
 1981SOL    HW117576   2.533   1.631  12.940 -0.9519 -1.5768 -0.6006
 1981SOL    HW217577   2.406   1.696  12.968 -0.5813 -1.7595  0.5143
 1982SOL     OW17578   2.701   4.567   5.318 -0.3014  0.0294 -0.3645
 1982SOL    HW117579   2.629   4.630   5.316  0.4247  0.8696  0.0252
 1982SOL    HW217580   2.653   4.484   5.313 -0.4260  0.0463  0.5379
 1983SOL     OW17581   2.284   4.092  15.098  0.3812 -0.0659 -0.3080
 1983SOL    HW117582   2.203   4.139  15.079  0.0964 -0.5365 -0.2589
 1983SOL    HW217583   2.332   4.176  15.100 -0.6624  0.4997  0.7778
 1984SOL     OW17584   2.321   1.870   2.831  0.0147  0.4850 -0.0270
 1984SOL    HW117585   2.365   1.841   2.751  0.4674 -1.2913  0.8676
 1984SOL    HW217586   2.284   1.793   2.876  1.4812  0.6774  1.4820
 1985SOL     OW17587   3.217   0.050   6.884  0.0263  0.1522  0.5654
 1985SOL    HW117588   3.225   0.140   6.915  0.5752 -0.0391  0.9882
 1985SOL    HW217589   3.132   0.019   6.913 -0.4200  0.0400 -0.8750
 1986SOL     OW17590   4.388   0.386   6.196 -0.3211  0.1753 -0.0600
 1986SOL    HW117591   4.414   0.437   6.119 -1.5888 -0.4315 -0.8963
 1986SOL    HW217592   4.375   0.456   6.260  0.9213  1.7974 -1.5718
 1987SOL     OW17593   3.618   3.066   2.950 -0.2211  0.3076  0.2928
 1987SOL    HW117594   3.625   3.072   2.854  1.3411  1.5680  0.4882
 1987SOL    HW217595   3.678   3.139   2.967 -1.7741  2.1094 -1.9391
 1988SOL     OW17596   1.579   0.545  14.719  0.0015  0.3157  0.4619
 1988SOL    HW117597   1.572   0.634  14.684  0.1460 -0.0083 -0.3877
 1988SOL    HW217598   1.648   0.564  14.784 -0.6540  1.6744  0.7592
 1989SOL     OW17599   2.742   3.772   4.809  0.1738  0.2448  0.0634
 1989SOL    HW117600   2.754   3.678   4.826  0.5408  0.0807 -1.1235
 1989SOL    HW217601   2.671   3.765   4.745  1.1053 -0.3265 -0.9094
 1990SOL     OW17602   3.658   0.703   9.611 -0.8073 -0.4548 -0.2422
 1990SOL    HW117603   3.717   0.717   9.685  0.6942 -0.7300 -1.3774
 1990SOL    HW217604   3.724   0.679   9.546 -1.7777 -2.6066 -0.4571
 1991SOL     OW17605   1.261   4.554  16.642  0.9035 -0.2973 -0.3736
 1991SOL    HW117606   1.204   4.550  16.566 -0.5948 -0.4291  0.7613
 1991SOL    HW217607   1.214   4.625  16.686 -0.2566 -0.4408 -1.4057
 1992SOL     OW17608   4.591   4.624   6.770 -0.3899 -0.5594 -0.4317
 1992SOL    HW117609   4.522   4.595   6.829  0.0223 -2.3259 -0.8055
 1992SOL    HW217610   4.551   4.626   6.683  0.5570  1.4904 -0.8100
 1993SOL     OW17611   4.246   2.651   1.445 -0.3311  0.3495 -0.7461
 1993SOL    HW117612   4.170   2.618   1.397  0.4845 -0.5900 -1.4012
 1993SOL    HW217613   4.271   2.724   1.388  0.3083  2.8629  2.7830
 1994SOL     OW17614   1.176   1.406   8.775 -0.1283  0.0722  0.0613
 1994SOL    HW117615   1.159   1.316   8.747  1.6127 -1.1468  2.8908
 1994SOL    HW217616   1.191   1.392   8.869 -2.8823  1.3671  0.7049
 1995SOL     OW17617   3.428   0.508  13.355 -0.0122 -0.3624 -0.5668
 1995SOL    HW117618   3.521   0.493  13.339  0.2563  0.2314  0.4240
 1995SOL    HW217619   3.386   0.458  13.285  0.7402  0.8752 -1.9174
 1996SOL     OW17620   2.099   0.630   7.967  1.1618 -0.1915  0.3489
 1996SOL    HW117621   2.078   0.720   7.941 -1.7646 -1.0760 -0.3086
 1996SOL    HW217622   2.090   0.600   7.877 -0.9156  1.6080 -0.0323
 1997SOL     OW17623   2.176   2.325  10.436  0.9334 -1.0299 -0.0016
 1997SOL    HW117624   2.138   2.340  10.349 -3.5066 -2.8862  1.6295
 1997SOL    HW217625   2.100   2.331  10.493  1.2157 -2.4002  0.5164
 1998SOL     OW17626   3.358   2.835   4.596 -0.6915  0.2771 -0.0179
 1998SOL    HW117627   3.435   2.891   4.610 -0.3344  0.0346 -1.0365
 1998SOL    HW217628   3.331   2.812   4.685  0.8078  0.6003  0.5167
 1999SOL     OW17629   1.842   0.039   3.649  0.2800  0.5635  0.0670
 1999SOL    HW117630   1.821   0.040   3.743 -0.4206 -1.2551 -0.0613
 1999SOL    HW217631   1.799   4.691   3.615  2.3720 -0.4610 -0.1888
 2000SOL     OW17632   3.542   2.110   6.502  0.0899 -0.7726  0.1254
 2000SOL    HW117633   3.511   2.114   6.593  0.1520 -0.2512  0.1230
 2000SOL    HW217634   3.636   2.096   6.499  0.2882  0.8280 -0.6194
 2001SOL     OW17635   1.323   0.669  16.787  0.4690  0.0854  0.1086
 2001SOL    HW117636   1.242   0.618  16.789 -0.7265  1.7628 -4.4146
 2001SOL    HW217637   1.320   0.725  16.865  0.8875  2.0861 -1.3141
 2002SOL     OW17638   3.893   2.382   6.398  0.1615 -0.8564  0.2625
 2002SOL    HW117639   3.973   2.332   6.379  0.6464  0.5322 -1.3442
 2002SOL    HW217640   3.864   2.412   6.312 -0.6103 -0.0536  0.8072
 2003SOL     OW17641   4.537   0.423  13.847 -0.0121 -0.4983  0.0366
 2003SOL    HW117642   4.599   0.464  13.907  1.3262 -1.2797 -0.8063
 2003SOL    HW217643   4.570   0.334  13.851  1.2526 -0.0960 -1.3244
 2004SOL     OW17644   1.541   2.731   0.444  0.0507  0.1151  0.9066
 2004SOL    HW117645   1.458   2.729   0.396  1.0576  0.1120 -0.8671
 2004SOL    HW217646   1.507   2.673   0.512  0.6377  1.2352  2.1543
 2005SOL     OW17647   2.777   1.820  13.433  0.5027  0.0083  0.2463
 2005SOL    HW117648   2.865   1.807  13.467  0.9092  3.4726  0.5183
 2005SOL    HW217649   2.748   1.901  13.475 -0.0231 -0.3312  0.5340
 2006SOL     OW17650   2.492   1.891   6.596 -0.1841  0.2547 -0.6262
 2006SOL    HW117651   2.578   1.852   6.611 -0.4983 -0.3460 -0.3830
 2006SOL    HW217652   2.511   1.952   6.524  0.0127  0.1552 -0.6582
 2007SOL     OW17653   3.544   3.160  15.331 -0.0778 -0.1079 -0.2170
 2007SOL    HW117654   3.553   3.253  15.312  0.1152 -0.2813 -0.9672
 2007SOL    HW217655   3.479   3.144  15.263  1.5248  0.7669 -1.9595
 2008SOL     OW17656   3.496   3.929   1.654  0.3949  0.1809 -0.1006
 2008SOL    HW117657   3.425   3.984   1.621  0.5456  2.7787  3.8275
 2008SOL    HW217658   3.569   3.953   1.598 -0.6742  0.2326 -1.4648
 2009SOL     OW17659   3.428   2.173   6.734 -0.3427  0.2051 -0.1392
 2009SOL    HW117660   3.418   2.091   6.784  3.1240  0.1017  0.4365
 2009SOL    HW217661   3.435   2.238   6.804 -0.9784 -1.4564  1.4803
 2010SOL     OW17662   4.656   3.641   4.058  0.5326 -0.0475 -0.2337
 2010SOL    HW117663   4.627   3.584   3.986  1.1325 -2.1822  1.1975
 2010SOL    HW217664   4.585   3.702   4.075  0.1316 -1.0297  1.5813
 2011SOL     OW17665   1.366   0.632   1.759 -0.8300 -0.0222 -0.1250
 2011SOL    HW117666   1.409   0.603   1.839  1.1994 -0.0498 -1.2123
 2011SOL    HW217667   1.287   0.668   1.799 -1.9929 -1.1064 -1.4278
 2012SOL     OW17668   4.203   3.375  14.249  0.4000  0.2051 -0.2782
 2012SOL    HW117669   4.225   3.287  14.279  0.9826  0.3837 -0.1859
 2012SOL    HW217670   4.109   3.377  14.232  1.0178  2.7284 -3.5461
 2013SOL     OW17671   4.388   4.448   5.016 -0.0160  0.4688 -0.5996
 2013SOL    HW117672   4.402   4.501   4.937  0.9865  0.5222 -0.3772
 2013SOL    HW217673   4.359   4.512   5.082 -3.0047 -0.8998 -0.5592
 2014SOL     OW17674   1.106   1.002   6.416 -0.3032  0.4842  0.4315
 2014SOL    HW117675   1.144   1.057   6.485 -0.4554 -0.6792  1.4450
 2014SOL    HW217676   1.020   0.998   6.457  0.5299  0.9045  2.2189
 2015SOL     OW17677   4.454   2.504   1.314 -0.2934 -0.6588 -0.4013
 2015SOL    HW117678   4.389   2.553   1.365 -0.5220 -2.8513  1.4125
 2015SOL    HW217679   4.479   2.436   1.376  0.5626 -0.7357 -0.8453
 2016SOL     OW17680   0.858   0.198   4.765 -0.5446 -0.5386 -0.9619
 2016SOL    HW117681   0.892   0.146   4.692 -0.5351 -1.4112 -0.3290
 2016SOL    HW217682   0.799   0.256   4.716  0.4831  2.7911  1.6999
 2017SOL     OW17683   4.152   4.570  13.936  0.0516  0.1092  0.5271
 2017SOL    HW117684   4.214   4.549  14.006  0.5725 -0.9963 -0.2705
 2017SOL    HW217685   4.081   4.612  13.985  0.7239  1.9511 -0.0544
 2018SOL     OW17686   1.876   2.988   1.519  0.2561 -0.3708 -0.4426
 2018SOL    HW117687   1.821   2.942   1.584  0.5074  2.1934  1.5665
 2018SOL    HW217688   1.843   2.942   1.442 -1.2615 -1.4647  0.8333
 2019SOL     OW17689   0.570   0.015   7.477 -0.2119  0.3061  0.4139
 2019SOL    HW117690   0.502   0.042   7.538 -1.1028 -0.6861 -0.1532
 2019SOL    HW217691   0.570   4.654   7.503 -0.1835  0.0009 -0.6678
 2020SOL     OW17692   0.363   0.303  11.784  0.0880 -0.0719  0.2900
 2020SOL    HW117693   0.368   0.266  11.696 -3.0914 -0.7073  0.3947
 2020SOL    HW217694   0.454   0.279  11.804 -0.2745 -1.8137 -0.2281
 2021SOL     OW17695   3.106   0.676   5.931 -0.0102 -0.0995 -0.1870
 2021SOL    HW117696   3.155   0.736   5.876  0.6792  1.2184  1.8513
 2021SOL    HW217697   3.021   0.672   5.887 -0.2299 -1.3552  0.3298
 2022SOL     OW17698   0.350   2.904   5.769  0.5424  0.1205 -0.3580
 2022SOL    HW117699   0.283   2.954   5.724 -1.0644 -1.5845  0.1110
 2022SOL    HW217700   0.418   2.970   5.760  2.7504 -1.9963  0.6418
 2023SOL     OW17701   2.972   3.833   8.083  0.1616 -0.5882 -0.3890
 2023SOL    HW117702   2.906   3.903   8.090  0.5135 -0.4275  1.2047
 2023SOL    HW217703   3.000   3.826   8.174 -1.8227 -3.3894  0.0036
 2024SOL     OW17704   4.271   4.628   6.025  0.0552  0.6294 -0.3203
 2024SOL    HW117705   4.338   4.693   6.004 -1.3278  1.0486 -3.5465
 2024SOL    HW217706   4.285   4.560   5.959  0.6410  0.8563 -0.4284
 2025SOL     OW17707   4.337   1.334   7.860 -0.4243  0.6322 -0.2450
 2025SOL    HW117708   4.293   1.297   7.937  0.0275 -0.5242 -0.5472
 2025SOL    HW217709   4.307   1.279   7.789  1.0589  1.0145 -1.1784
 2026SOL     OW17710   4.509   1.480   0.565  0.0814  0.4213  0.3748
 2026SOL    HW117711   4.526   1.556   0.509  0.0762 -0.1497 -0.4091
 2026SOL    HW217712   4.542   1.406   0.513 -1.9967 -0.8394  0.8340
 2027SOL     OW17713   2.596   2.281  11.312 -0.1298  0.2413  0.1905
 2027SOL    HW117714   2.629   2.235  11.389 -1.8294  0.9253  1.3304
 2027SOL    HW217715   2.611   2.375  11.325  1.7498 -0.0769  0.3076
 2028SOL     OW17716   0.918   4.636   9.496 -0.0885 -0.2771  0.1173
 2028SOL    HW117717   0.888   4.693   9.425 -0.8220  1.0879  1.5097
 2028SOL    HW217718   1.011   4.638   9.476 -0.4322 -0.9758 -1.5608
 2029SOL     OW17719   0.740   4.672  16.489  0.5846 -0.1124 -0.5947
 2029SOL    HW117720   0.645   4.662  16.500  0.5051  1.0938 -0.1288
 2029SOL    HW217721   0.771   4.612  16.557  1.2441  1.8495  0.8670
 2030SOL     OW17722   1.756   4.506   2.186 -0.2770  0.3432  0.4840
 2030SOL    HW117723   1.689   4.556   2.233 -1.1533 -0.8483  0.4844
 2030SOL    HW217724   1.831   4.514   2.245  1.2707  0.3328 -1.4402
 2031SOL     OW17725   3.096   3.086   3.742 -0.1796 -0.1673 -0.1979
 2031SOL    HW117726   3.015   3.122   3.777 -0.3750 -1.4709  0.6844
 2031SOL    HW217727   3.153   3.107   3.815  1.8200 -1.4642 -1.3687
 2032SOL     OW17728   2.875   0.577   4.289 -0.2977  0.1670  0.1309
 2032SOL    HW117729   2.963   0.605   4.312 -0.4953  0.4220  0.5668
 2032SOL    HW217730   2.854   0.528   4.368  1.3812  0.0580  0.5055
 2033SOL     OW17731   1.711   2.832   5.457  0.2761 -0.5363  0.3743
 2033SOL    HW117732   1.711   2.851   5.363 -1.3079  0.3522  0.5379
 2033SOL    HW217733   1.616   2.831   5.475  0.3639  0.5901  0.8966
 2034SOL     OW17734   2.561   0.605   8.736  0.9339  0.5745  0.0542
 2034SOL    HW117735   2.522   0.692   8.728  1.4661  0.6135 -1.9946
 2034SOL    HW217736   2.584   0.596   8.829 -0.3045  0.3314  0.3411
 2035SOL     OW17737   0.195   3.725   6.351 -0.3924 -0.6958 -0.2082
 2035SOL    HW117738   0.268   3.757   6.299 -2.5734  1.9855 -1.6700
 2035SOL    HW217739   0.130   3.705   6.284 -1.2457 -0.2733  0.4897
 2036SOL     OW17740   2.030   4.111   6.968 -0.0383  0.1600  0.4021
 2036SOL    HW117741   1.939   4.108   6.940  0.0178  0.1808  0.2182
 2036SOL    HW217742   2.022   4.101   7.063 -1.1221  0.7674  0.3710
 2037SOL     OW17743   0.712   2.353   9.742  0.4006 -1.2373 -0.0935
 2037SOL    HW117744   0.801   2.320   9.740  0.7443 -0.3906  1.0538
 2037SOL    HW217745   0.655   2.279   9.763 -0.7484 -0.6373 -1.0645
 2038SOL     OW17746   1.710   1.439  12.942 -0.1124 -0.1875 -0.0372
 2038SOL    HW117747   1.761   1.442  13.023 -0.3353 -2.2109  0.1685
 2038SOL    HW217748   1.759   1.379  12.886  1.4822  0.3055  0.8200
 2039SOL     OW17749   3.812   2.374  14.527 -0.3543  0.2254  0.0933
 2039SOL    HW117750   3.829   2.387  14.434 -0.0633 -0.5897  0.0336
 2039SOL    HW217751   3.870   2.299  14.542 -1.5114 -0.9215 -1.2094
 2040SOL     OW17752   4.403   4.492   1.456  0.0387  0.0418 -0.2579
 2040SOL    HW117753   4.369   4.403   1.448 -1.7698  0.8762 -1.6444
 2040SOL    HW217754   4.465   4.479   1.528 -1.2996 -1.4925  0.6177
 2041SOL     OW17755   1.215   2.163   6.965 -0.3737  1.1497 -0.0783
 2041SOL    HW117756   1.265   2.168   6.884 -0.1062  1.4720  0.1062
 2041SOL    HW217757   1.231   2.250   7.003 -0.9052  0.4614  1.6998
 2042SOL     OW17758   2.887   4.402   4.597 -0.5836 -0.0578 -0.5553
 2042SOL    HW117759   2.945   4.366   4.664 -0.6008  0.3554 -0.3199
 2042SOL    HW217760   2.807   4.426   4.644  0.0662  1.2790 -0.1368
 2043SOL     OW17761   4.402   2.249   7.775  0.5093  0.3223  0.4729
 2043SOL    HW117762   4.348   2.280   7.848  0.7291 -0.1416  0.8288
 2043SOL    HW217763   4.417   2.334   7.733 -1.3322 -0.1693 -1.1551
 2044SOL     OW17764   4.633   2.590   2.902  0.1202 -0.3262 -0.0684
 2044SOL    HW117765   4.600   2.639   2.977  1.6419  0.5031  0.0580
 2044SOL    HW217766   4.597   2.502   2.910  0.9265 -0.6289  0.2206
 2045SOL     OW17767   3.230   0.497   5.667  0.1302 -0.1274 -0.3251
 2045SOL    HW117768   3.200   0.421   5.716  2.5983 -0.7723  0.1588
 2045SOL    HW217769   3.311   0.511   5.716  0.8421 -1.4740 -1.1462
 2046SOL     OW17770   3.815   3.851   3.640 -0.0570 -0.2553 -0.5908
 2046SOL    HW117771   3.741   3.846   3.701  0.5645  0.5270  0.2218
 2046SOL    HW217772   3.828   3.760   3.612 -2.7312 -0.1270 -2.2228
 2047SOL     OW17773   4.308   1.129  12.236  0.6450  0.4087  0.2474
 2047SOL    HW117774   4.347   1.147  12.151 -0.0093 -0.9108 -0.3306
 2047SOL    HW217775   4.365   1.185  12.289 -0.2573  1.1256  0.4549
 2048SOL     OW17776   4.455   0.692   5.945 -0.4464 -0.0800  0.2493
 2048SOL    HW117777   4.389   0.680   6.012 -1.2990  4.2872  0.2306
 2048SOL    HW217778   4.446   0.786   5.928 -2.5065 -0.2674  0.3421
 2049SOL     OW17779   4.669   2.125   2.941  0.0156  0.3913 -0.1603
 2049SOL    HW117780   4.593   2.111   2.885  0.2563  1.4516 -0.7338
 2049SOL    HW217781   0.008   2.149   2.881 -1.3251  1.9285 -1.1088
 2050SOL     OW17782   4.290   4.694   1.942 -0.1528 -0.2467 -0.4042
 2050SOL    HW117783   4.269   4.635   1.869 -2.1904  0.6001 -0.5001
 2050SOL    HW217784   4.382   4.675   1.964  0.0786  0.4424 -0.7979
 2051SOL     OW17785   2.795   3.763  15.308  0.2893 -0.1346  0.2978
 2051SOL    HW117786   2.787   3.675  15.270  2.7268 -0.4087  0.4344
 2051SOL    HW217787   2.825   3.811  15.231 -1.4761 -0.7592 -0.7845
 2052SOL     OW17788   0.451   1.230   7.662 -0.1103  0.0213  0.1828
 2052SOL    HW117789   0.543   1.206   7.675 -0.2113 -0.8568 -0.8051
 2052SOL    HW217790   0.440   1.285   7.740 -0.1352  1.0092 -0.5083
 2053SOL     OW17791   2.932   3.393   6.497  0.0919 -0.3139  0.0464
 2053SOL    HW117792   2.996   3.455   6.530  0.6208 -0.4333 -0.7469
 2053SOL    HW217793   2.922   3.414   6.404 -0.8616  0.0908  0.2368
 2054SOL     OW17794   3.964   4.138   0.821 -0.2831  0.1722  0.2065
 2054SOL    HW117795   4.012   4.152   0.739 -0.7229  0.1890 -0.0504
 2054SOL    HW217796   3.890   4.197   0.806 -0.1845 -0.3651 -2.3885
 2055SOL     OW17797   3.436   1.559   3.094  0.2226  0.2528 -0.4513
 2055SOL    HW117798   3.427   1.610   3.014  0.3793  0.6367 -0.2249
 2055SOL    HW217799   3.517   1.511   3.078 -0.4747 -0.3024 -2.3110
 2056SOL     OW17800   1.312   0.729   2.058  0.3714  0.4247  0.3994
 2056SOL    HW117801   1.246   0.661   2.067  1.8237 -1.0465 -0.1851
 2056SOL    HW217802   1.394   0.685   2.082  0.1614  0.5646  1.3638
 2057SOL     OW17803   0.051   0.609   5.743  0.2116 -0.1685 -0.2691
 2057SOL    HW117804   0.143   0.583   5.741 -0.0653 -1.1099 -1.1064
 2057SOL    HW217805   0.050   0.661   5.823  2.2202  0.1920 -0.4759
 2058SOL     OW17806   2.220   0.635   1.010  0.3598 -0.0840  0.5286
 2058SOL    HW117807   2.180   0.554   0.978 -1.1033  1.1724 -0.8342
 2058SOL    HW217808   2.161   0.657   1.081  0.9738 -0.1693  1.0678
 2059SOL     OW17809   1.652   4.421   7.053 -0.0370  0.2995  0.0392
 2059SOL    HW117810   1.701   4.411   6.972 -0.6535 -1.1859 -0.1494
 2059SOL    HW217811   1.679   4.344   7.104 -2.6778 -0.4429  0.2924
 2060SOL     OW17812   1.004   2.824   1.433 -0.4942 -0.1340 -0.5260
 2060SOL    HW117813   1.057   2.769   1.375  0.0616 -0.7943  0.6058
 2060SOL    HW217814   1.045   2.807   1.517  0.7847  3.1234 -0.5014
 2061SOL     OW17815   3.128   4.471  11.567  0.1209  0.0235 -0.4261
 2061SOL    HW117816   3.120   4.549  11.511 -3.4010  0.2494  0.4091
 2061SOL    HW217817   3.218   4.486  11.597  0.6162  0.1554 -1.9749
 2062SOL     OW17818   2.432   3.671   6.138  0.4022 -0.2641  0.1648
 2062SOL    HW117819   2.380   3.670   6.218  0.0889 -2.6699 -0.0593
 2062SOL    HW217820   2.386   3.600   6.093  0.8808 -0.7658  0.4659
 2063SOL     OW17821   2.045   3.041   3.376  0.1904  0.3536 -1.0006
 2063SOL    HW117822   2.139   3.034   3.360  0.2167 -1.3392 -0.0939
 2063SOL    HW217823   2.046   3.124   3.425 -0.6908 -0.2974  0.1416
 2064SOL     OW17824   1.057   1.040   1.481  0.3657 -0.1610 -0.6281
 2064SOL    HW117825   0.987   1.047   1.416  1.1145 -2.9153 -1.7559
 2064SOL    HW217826   1.104   0.959   1.461  2.1764  0.9545 -0.8915
 2065SOL     OW17827   2.547   4.717   8.315  0.0688 -0.4993  0.2098
 2065SOL    HW117828   2.492   0.050   8.360 -0.2887 -0.6287 -0.0401
 2065SOL    HW217829   2.560   0.028   8.230 -0.8606 -1.7091 -0.5287
 2066SOL     OW17830   3.408   4.036   8.557 -0.3308  0.2024  0.1111
 2066SOL    HW117831   3.402   4.132   8.560  0.5818  0.2964 -1.6270
 2066SOL    HW217832   3.438   4.005   8.643  2.5755  2.0867 -0.2131
 2067SOL     OW17833   3.500   1.722   1.689 -0.4413  0.4207 -0.3555
 2067SOL    HW117834   3.439   1.659   1.652 -1.4486  0.6350  0.9119
 2067SOL    HW217835   3.580   1.688   1.650 -1.0994 -1.4913 -0.0263
 2068SOL     OW17836   2.184   3.205   0.546 -0.2301 -0.2110 -0.2960
 2068SOL    HW117837   2.159   3.195   0.637 -0.8466  1.7189 -0.2538
 2068SOL    HW217838   2.277   3.229   0.549 -0.4896  0.8164 -0.6250
 2069SOL     OW17839   4.117   0.644   1.719 -0.4000 -0.0273 -0.3247
 2069SOL    HW117840   4.130   0.632   1.813 -0.3952 -0.1000 -0.3349
 2069SOL    HW217841   4.149   0.734   1.711 -0.3311  0.0859  1.1182
 2070SOL     OW17842   2.871   3.138   6.723  0.1104 -0.3546 -0.1945
 2070SOL    HW117843   2.934   3.199   6.683 -0.4662  0.1042 -0.4036
 2070SOL    HW217844   2.842   3.190   6.798  1.0861 -0.7305  0.4371
 2071SOL     OW17845   4.082   0.931   7.575 -0.0113  0.1734 -0.4515
 2071SOL    HW117846   3.988   0.935   7.593 -0.0704 -0.2178 -0.6729
 2071SOL    HW217847   4.095   0.852   7.521  0.7458  0.1822 -0.2777
 2072SOL     OW17848   0.388   1.794  11.394  0.0820  0.2491 -0.5386
 2072SOL    HW117849   0.390   1.888  11.379 -2.6564  0.2475 -0.8815
 2072SOL    HW217850   0.295   1.770  11.401 -0.0544  0.6759 -0.9138
 2073SOL     OW17851   0.597   1.036   4.886  0.3359 -0.5870  0.0541
 2073SOL    HW117852   0.549   1.013   4.807  2.3234 -1.5608 -0.8752
 2073SOL    HW217853   0.684   1.061   4.853 -0.0765  2.0737  1.0029
 2074SOL     OW17854   1.878   2.392  15.035 -0.1833  0.1142 -0.2602
 2074SOL    HW117855   1.821   2.468  15.028  1.3518  1.2757 -0.1806
 2074SOL    HW217856   1.862   2.346  14.952  0.2383 -0.5017 -0.0044
 2075SOL     OW17857   2.143   4.383   2.140  0.4360 -0.0198 -0.2041
 2075SOL    HW117858   2.140   4.474   2.108 -1.1160 -0.6216 -1.7464
 2075SOL    HW217859   2.087   4.385   2.218 -0.3529  1.1414 -0.7963
 2076SOL     OW17860   1.273   1.560   3.974  0.6751 -0.1845 -1.2004
 2076SOL    HW117861   1.250   1.584   3.884 -0.3356  2.0832 -0.3402
 2076SOL    HW217862   1.182   1.538   3.992  0.9878 -0.7203 -0.3111
 2077SOL     OW17863   1.531   2.645  10.454 -0.1392  0.2008 -0.5665
 2077SOL    HW117864   1.579   2.588  10.515  0.6317  0.2613 -1.1105
 2077SOL    HW217865   1.460   2.588  10.427 -1.1139  1.0149  0.2918
 2078SOL     OW17866   1.985   2.549   3.672 -0.3193  0.3726 -0.9538
 2078SOL    HW117867   1.977   2.643   3.689  0.4540  0.2058  0.3240
 2078SOL    HW217868   2.080   2.554   3.663 -0.1925  0.6920  0.6192
 2079SOL     OW17869   2.842   0.538   6.510  0.6069  0.1768 -0.2018
 2079SOL    HW117870   2.775   0.558   6.575  0.3042 -2.2424  0.2335
 2079SOL    HW217871   2.904   0.492   6.568  0.1855  2.3758  1.9754
 2080SOL     OW17872   4.314   1.616   5.126 -0.4965  0.5122 -0.0038
 2080SOL    HW117873   4.334   1.570   5.044  1.4394  2.1641 -0.4613
 2080SOL    HW217874   4.240   1.666   5.094 -0.6267  1.0067  1.0695
 2081SOL     OW17875   2.791   4.064   3.524  0.4295 -0.2667 -0.7513
 2081SOL    HW117876   2.883   4.045   3.507  0.9054 -0.5402  2.1494
 2081SOL    HW217877   2.777   4.159   3.531  1.9597 -0.0141 -1.0253
 2082SOL     OW17878   2.912   0.930   3.949 -0.2075  0.0498  0.9014
 2082SOL    HW117879   2.943   0.953   4.036  0.2392 -0.1857  0.8061
 2082SOL    HW217880   2.860   0.851   3.960  0.0347 -0.4899 -1.8208
 2083SOL     OW17881   3.781   4.274   7.575  0.1968  0.2584 -0.4070
 2083SOL    HW117882   3.810   4.357   7.537 -0.5251  0.5564 -0.3114
 2083SOL    HW217883   3.859   4.239   7.618  0.0747 -1.3382 -1.4683
 2084SOL     OW17884   3.145   2.020   2.658 -0.1886 -0.7438  0.9551
 2084SOL    HW117885   3.188   2.088   2.606 -0.9684  0.7512  2.2653
 2084SOL    HW217886   3.058   2.028   2.619  1.3074  0.9752 -1.9890
 2085SOL     OW17887   1.217   3.208  11.180 -0.4276 -0.4453  0.0881
 2085SOL    HW117888   1.309   3.226  11.199 -0.8187  0.5142  1.0854
 2085SOL    HW217889   1.206   3.152  11.103  1.7617  1.2983 -1.4902
 2086SOL     OW17890   3.594   3.336   3.280  0.2131  0.4287 -0.7412
 2086SOL    HW117891   3.532   3.348   3.351  1.4753  0.2777  0.3891
 2086SOL    HW217892   3.679   3.354   3.319 -1.8871 -0.0340  4.0354
 2087SOL     OW17893   4.454   0.678   3.415 -1.3063 -0.4436  0.5338
 2087SOL    HW117894   4.472   0.700   3.506 -0.0079  1.3245 -0.1594
 2087SOL    HW217895   4.543   0.686   3.380 -1.1117 -0.9240  0.9300
 2088SOL     OW17896   2.886   0.200   5.009  0.1386 -0.4805  0.5164
 2088SOL    HW117897   2.885   0.105   5.016  1.5514 -0.5715 -0.7065
 2088SOL    HW217898   2.917   0.235   5.092  1.8250  0.3187 -0.4623
 2089SOL     OW17899   2.903   2.688   2.210 -0.3172  0.1134  0.4036
 2089SOL    HW117900   2.882   2.776   2.179 -0.3651 -1.1386 -3.0849
 2089SOL    HW217901   2.825   2.644   2.176 -1.8667  2.5255  0.8173
 2090SOL     OW17902   3.739   1.636  13.654 -0.1259 -0.5538 -1.1946
 2090SOL    HW117903   3.654   1.663  13.689  0.6922  0.0495  0.3470
 2090SOL    HW217904   3.774   1.700  13.592 -0.8561  0.1589 -0.8700
 2091SOL     OW17905   2.648   3.429   7.432  0.2576 -0.1284  0.3534
 2091SOL    HW117906   2.669   3.442   7.524  0.5652  0.9291  0.1315
 2091SOL    HW217907   2.581   3.362   7.448  0.3392 -0.1041  0.7896
 2092SOL     OW17908   1.907   3.391   0.591  0.3932 -0.2077  0.2648
 2092SOL    HW117909   1.947   3.321   0.642 -0.7738 -1.4252 -0.4838
 2092SOL    HW217910   1.925   3.370   0.499 -1.6568  0.0862 -0.2054
 2093SOL     OW17911   4.314   1.511   6.165  0.5041  0.0981  0.3337
 2093SOL    HW117912   4.326   1.450   6.238  0.1214  2.0414  2.0146
 2093SOL    HW217913   4.220   1.509   6.147  0.4843 -2.1523  0.6375
 2094SOL     OW17914   0.231   1.626   6.629 -0.2556 -0.6202  0.0027
 2094SOL    HW117915   0.236   1.536   6.663  1.2981 -1.4555 -2.4653
 2094SOL    HW217916   0.157   1.651   6.685 -1.1778 -1.0104 -1.0329
 2095SOL     OW17917   0.974   1.782   1.611  0.3429 -0.4294  0.1820
 2095SOL    HW117918   1.029   1.705   1.602 -2.3665 -2.5345  1.6020
 2095SOL    HW217919   0.893   1.755   1.568  0.8860 -0.5293 -0.7747
 2096SOL     OW17920   4.274   0.028   3.307 -0.4516 -0.3119 -0.0743
 2096SOL    HW117921   4.305   0.083   3.236  0.9475 -1.1950 -0.1293
 2096SOL    HW217922   4.229   0.093   3.361 -1.5216 -0.6131 -0.5881
 2097SOL     OW17923   4.229   4.137   6.877 -0.1874  0.2152  0.0885
 2097SOL    HW117924   4.188   4.160   6.794  0.5288 -1.7659 -0.8006
 2097SOL    HW217925   4.185   4.197   6.939 -1.2698 -1.0585  0.5530
 2098SOL     OW17926   0.276   2.038  12.103  0.2897 -0.1014 -0.0698
 2098SOL    HW117927   0.358   2.002  12.070  1.4429  2.0998  0.4082
 2098SOL    HW217928   0.284   1.995  12.189 -0.0945 -1.8892 -0.9144
 2099SOL     OW17929   0.710   0.684  10.161  0.6773 -0.2669 -0.2281
 2099SOL    HW117930   0.621   0.692  10.125 -0.3719 -1.1892  2.1701
 2099SOL    HW217931   0.751   0.732  10.089  1.8412 -1.9855 -0.7102
 2100SOL     OW17932   2.780   1.072   8.937  0.4764  0.2243  0.2126
 2100SOL    HW117933   2.696   1.101   8.901  0.9022 -2.8705 -3.2628
 2100SOL    HW217934   2.785   1.128   9.015 -0.6924 -0.0092  0.4453
 2101SOL     OW17935   3.371   3.553   8.047 -0.2257 -0.5351 -0.3073
 2101SOL    HW117936   3.430   3.508   7.987  0.9108  1.7785 -0.9186
 2101SOL    HW217937   3.308   3.588   7.984 -0.2967 -1.7691 -0.9117
 2102SOL     OW17938   0.052   0.321   7.595  0.0681  0.3405  0.1189
 2102SOL    HW117939   0.105   0.281   7.526  0.2255 -2.6728  1.9452
 2102SOL    HW217940   0.071   0.413   7.577  0.6077  0.3831  0.9063
 2103SOL     OW17941   0.299   2.872   6.096 -0.8969  0.6367 -0.6225
 2103SOL    HW117942   0.220   2.872   6.150  0.3753 -1.2603  1.2550
 2103SOL    HW217943   0.295   2.953   6.045  2.0001  0.3004 -1.4327
 2104SOL     OW17944   0.507   4.486   6.624  0.6717 -0.0521 -0.2203
 2104SOL    HW117945   0.504   4.575   6.589  0.3947  0.9843  2.4077
 2104SOL    HW217946   0.415   4.458   6.630 -0.1988  3.0067  0.8257
 2105SOL     OW17947   4.179   3.645   1.575  0.1207 -0.6579 -0.2350
 2105SOL    HW117948   4.099   3.594   1.582  0.7597 -1.7502 -0.8790
 2105SOL    HW217949   4.179   3.672   1.483  0.3982  0.2150  0.0151
 2106SOL     OW17950   2.058   3.160   1.749 -0.0589 -0.2001 -0.5849
 2106SOL    HW117951   1.983   3.184   1.695  0.3059 -1.0002 -1.4523
 2106SOL    HW217952   2.035   3.217   1.823  3.5648  1.0064 -0.3521
 2107SOL     OW17953   2.700   1.000   6.315 -0.3994 -0.4544  0.1295
 2107SOL    HW117954   2.658   1.082   6.341 -0.5399 -0.2897 -0.6279
 2107SOL    HW217955   2.749   0.980   6.395 -1.0004 -2.3054  0.0339
 2108SOL     OW17956   1.679   2.146   9.713  0.1661  0.0658  0.0196
 2108SOL    HW117957   1.706   2.222   9.763  0.4105  0.2752 -0.4326
 2108SOL    HW217958   1.743   2.145   9.642 -0.2502 -0.1929 -0.3582
 2109SOL     OW17959   4.334   1.360   6.407 -0.2930 -0.2235  0.0899
 2109SOL    HW117960   4.366   1.426   6.468 -0.4310  0.1993 -0.2930
 2109SOL    HW217961   4.252   1.341   6.454 -0.1237  1.4531  1.0691
 2110SOL     OW17962   1.816   3.207   7.807  0.5683 -0.0347 -0.0726
 2110SOL    HW117963   1.721   3.219   7.814  0.3521 -2.1069  0.5377
 2110SOL    HW217964   1.823   3.210   7.712 -1.1788 -0.8755 -0.2286
 2111SOL     OW17965   4.587   4.429   1.672 -0.1796 -0.5167 -0.5206
 2111SOL    HW117966   4.682   4.418   1.674 -0.2202 -0.7142  0.6709
 2111SOL    HW217967   4.549   4.376   1.742 -1.0579 -0.7028 -1.1313
 2112SOL     OW17968   3.508   1.766   2.013  0.1985 -0.0881  0.1234
 2112SOL    HW117969   3.458   1.685   2.027 -1.3924  0.7577 -0.6668
 2112SOL    HW217970   3.502   1.756   1.918 -0.3472 -3.1886  0.4701
 2113SOL     OW17971   2.747   2.534   6.713  0.6909 -0.0806  0.3526
 2113SOL    HW117972   2.787   2.490   6.788  0.7325 -3.8893 -1.8927
 2113SOL    HW217973   2.822   2.585   6.684  1.5933 -0.1869  2.5056
 2114SOL     OW17974   2.503   3.902   1.878 -0.3091  0.2095  0.4479
 2114SOL    HW117975   2.452   3.978   1.906  0.5383  0.8733  0.2001
 2114SOL    HW217976   2.487   3.844   1.953 -1.0432 -1.3146 -0.9018
 2115SOL     OW17977   1.973   2.233   4.916 -0.6148 -0.1899  0.1445
 2115SOL    HW117978   2.013   2.239   4.829  1.1960 -3.3812  0.7395
 2115SOL    HW217979   1.896   2.178   4.901 -0.9387 -0.0865  1.4567
 2116SOL     OW17980   0.565   4.552   6.027 -0.1483 -0.1478 -0.1391
 2116SOL    HW117981   0.637   4.572   6.086  1.4137 -3.2072 -1.0006
 2116SOL    HW217982   0.520   4.481   6.073 -1.1488  0.9461  0.5700
 2117SOL     OW17983   0.291   3.122   8.694  0.6674 -0.0229  0.2221
 2117SOL    HW117984   0.206   3.160   8.671  0.6682 -0.1840 -0.0548
 2117SOL    HW217985   0.266   3.061   8.763  0.1782 -0.6294 -0.4854
 2118SOL     OW17986   2.115   2.264   8.987  0.6432  0.3611 -0.0637
 2118SOL    HW117987   2.141   2.349   9.020  1.5988 -0.3937  1.1059
 2118SOL    HW217988   2.199   2.221   8.972 -0.4777 -1.3152 -1.7200
 2119SOL     OW17989   4.655   1.769   7.253  0.1527 -0.0953 -0.1002
 2119SOL    HW117990   4.696   1.710   7.316  0.2749  1.1921  1.0326
 2119SOL    HW217991   4.644   1.717   7.174  1.6503 -1.2620  0.4583
 2120SOL     OW17992   3.860   2.191  10.464 -0.2229 -0.0687 -0.0389
 2120SOL    HW117993   3.951   2.179  10.491 -0.4418  0.5340  0.9485
 2120SOL    HW217994   3.883   2.241  10.386 -0.9055 -2.0438 -1.5008
 2121SOL     OW17995   0.139   3.988  16.669 -0.2192 -0.0038  0.1084
 2121SOL    HW117996   0.149   3.994  16.573 -3.2145 -0.4622 -0.2301
 2121SOL    HW217997   0.045   4.002  16.672 -0.2198 -0.2993  1.1497
 2122SOL     OW17998   1.106   3.281   5.041  0.4130  0.1610  0.1917
 2122SOL    HW117999   1.073   3.224   4.971 -0.5184 -0.6746  1.3060
 2122SOL    HW218000   1.164   3.220   5.086  0.0529 -1.0899 -1.0251
 2123SOL     OW18001   1.562   1.407   9.656  0.5361  0.2048  0.1235
 2123SOL    HW118002   1.603   1.487   9.623  1.8623  0.1740  1.6977
 2123SOL    HW218003   1.620   1.339   9.621 -1.0231 -0.3475 -1.3890
 2124SOL     OW18004   3.688   2.315  10.642  0.5496  0.7127 -0.2759
 2124SOL    HW118005   3.615   2.254  10.633  1.5144  0.0331 -3.7243
 2124SOL    HW218006   3.745   2.274  10.576 -1.1901 -1.3983 -0.4756
 2125SOL     OW18007   0.041   0.697   8.983  0.1220 -0.2903  0.2070
 2125SOL    HW118008   0.122   0.708   9.033  1.2727 -2.2388 -1.2200
 2125SOL    HW218009   0.061   0.684   8.890  0.7833  0.4035  0.2505
 2126SOL     OW18010   1.740   2.924   8.381  0.0601  0.4523  0.2496
 2126SOL    HW118011   1.668   2.985   8.364 -3.3872 -3.5147  0.7487
 2126SOL    HW218012   1.733   2.913   8.475 -1.7463  1.2027  0.1942
 2127SOL     OW18013   2.986   4.062   4.195  0.2933 -0.5453 -0.1450
 2127SOL    HW118014   2.939   4.020   4.123 -0.8589  1.7650 -0.7542
 2127SOL    HW218015   2.961   4.151   4.169 -0.7948 -1.2874 -1.6591
 2128SOL     OW18016   2.534   1.059   4.755 -0.4470 -0.2114 -0.2013
 2128SOL    HW118017   2.452   1.092   4.719 -0.8956 -1.4721 -0.3319
 2128SOL    HW218018   2.553   1.121   4.825  0.6792 -0.4752 -0.2720
 2129SOL     OW18019   1.358   1.304   5.728 -0.3614 -0.1240  0.8606
 2129SOL    HW118020   1.382   1.213   5.745 -4.1740 -1.3755 -0.4876
 2129SOL    HW218021   1.280   1.292   5.782 -0.0737 -0.3569  1.2272
 2130SOL     OW18022   2.364   0.955   3.749  0.9078 -0.5030 -0.3089
 2130SOL    HW118023   2.378   1.024   3.684 -0.5532 -1.7074 -1.9033
 2130SOL    HW218024   2.290   0.912   3.705 -0.0178  1.3343 -0.5559
 2131SOL     OW18025   0.251   3.731   6.946 -0.2915 -0.3113  0.3237
 2131SOL    HW118026   0.182   3.789   6.913 -0.5146 -1.7843 -1.7679
 2131SOL    HW218027   0.226   3.729   7.039 -0.4437 -2.7225  0.2397
 2132SOL     OW18028   1.718   0.187  16.424 -0.3537 -0.2003  0.9315
 2132SOL    HW118029   1.806   0.225  16.422 -0.6384  0.4964  1.5015
 2132SOL    HW218030   1.691   0.226  16.341  0.7375 -0.7899  0.3145
 2133SOL     OW18031   3.505   0.224  10.387 -0.0164  0.4058  0.1819
 2133SOL    HW118032   3.456   0.304  10.369 -0.3067  0.0920 -0.4387
 2133SOL    HW218033   3.559   0.255  10.459 -0.4956  2.1229 -0.2036
 2134SOL     OW18034   0.275   2.410   9.419 -0.1629  0.0041  0.0706
 2134SOL    HW118035   0.310   2.325   9.444 -1.2460 -0.1756  0.9740
 2134SOL    HW218036   0.341   2.473   9.448  0.8367 -0.2685 -1.6117
 2135SOL     OW18037   2.629   0.510  16.734 -0.3329 -0.3738  0.1214
 2135SOL    HW118038   2.700   0.559  16.692 -0.9673 -0.4796 -1.0815
 2135SOL    HW218039   2.673   0.428  16.756  1.7425  0.6470 -0.1655
 2136SOL     OW18040   3.476   2.832   5.802  0.2760 -0.2633 -0.5487
 2136SOL    HW118041   3.506   2.896   5.867 -0.3393  0.6713 -1.1760
 2136SOL    HW218042   3.516   2.866   5.722 -1.5589  2.1551 -0.4533
 2137SOL     OW18043   2.008   1.057  10.666 -0.4025  0.0704 -0.0899
 2137SOL    HW118044   1.924   1.099  10.685  0.4687  1.4389  0.7311
 2137SOL    HW218045   2.032   1.020  10.751  0.7162  1.0355  0.0008
 2138SOL     OW18046   3.619   2.770   2.764  0.1900 -0.2788 -0.4776
 2138SOL    HW118047   3.530   2.745   2.791 -0.4694  1.2287 -1.2131
 2138SOL    HW218048   3.586   2.855   2.735  0.8032  0.2144  0.2841
 2139SOL     OW18049   4.195   4.691   6.277  0.4869  0.4804  0.3017
 2139SOL    HW118050   4.210   0.054   6.273  0.2154  0.5816  1.7091
 2139SOL    HW218051   4.216   4.662   6.188  0.4480  1.5803 -0.0710
 2140SOL     OW18052   1.344   3.525   5.570  0.0265 -0.7536  0.0058
 2140SOL    HW118053   1.330   3.537   5.476 -1.1535  1.4196  0.4664
 2140SOL    HW218054   1.257   3.522   5.608  0.6973  0.1275  1.6239
 2141SOL     OW18055   0.121   4.299   8.673 -0.1062  0.0998  0.4340
 2141SOL    HW118056   0.053   4.245   8.632  0.1509  0.6628 -0.7112
 2141SOL    HW218057   0.188   4.240   8.708  1.0106  0.8387 -0.4887
 2142SOL     OW18058   2.791   4.245   2.356 -0.0840  0.5687  0.0097
 2142SOL    HW118059   2.730   4.250   2.430  0.7339 -0.0977  0.7343
 2142SOL    HW218060   2.774   4.336   2.332 -1.0689  0.4120  0.1080
 2143SOL     OW18061   2.264   0.445   8.685 -0.0197 -0.3231  0.1745
 2143SOL    HW118062   2.172   0.422   8.669  0.5558 -1.2033 -1.8465
 2143SOL    HW218063   2.248   0.512   8.752 -1.9280  1.5386 -2.1584
 2144SOL     OW18064   1.743   2.416   0.189  0.2721  0.3463  0.2530
 2144SOL    HW118065   1.672   2.430   0.252  0.7680 -1.2735  1.1608
 2144SOL    HW218066   1.712   2.333   0.154 -0.5739  0.7707 -0.0209
 2145SOL     OW18067   0.762   0.486   5.383 -0.0120  0.4293 -0.0771
 2145SOL    HW118068   0.766   0.581   5.384 -1.6889  0.5062  0.4277
 2145SOL    HW218069   0.748   0.467   5.291  1.3977  0.1421 -0.2242
 2146SOL     OW18070   1.273   2.450   9.573 -0.3465 -0.1210  0.8524
 2146SOL    HW118071   1.272   2.393   9.650 -3.8455 -0.0669  0.8332
 2146SOL    HW218072   1.367   2.457   9.559 -0.1547 -2.0790  1.2586
 2147SOL     OW18073   0.144   2.555   3.996 -0.0942 -0.7409  0.3521
 2147SOL    HW118074   0.110   2.640   4.024 -0.7551  0.0094 -2.7523
 2147SOL    HW218075   0.082   2.502   4.046  0.2305 -2.3033 -0.9341
 2148SOL     OW18076   2.428   3.450   0.066  0.1766 -0.0955 -0.2399
 2148SOL    HW118077   2.339   3.456   0.031  1.0519  0.4043 -2.3873
 2148SOL    HW218078   2.480   3.480  17.717 -1.7026 -0.9895 -1.9271
 2149SOL     OW18079   4.675   3.525   8.717  0.5295  0.4858 -0.0028
 2149SOL    HW118080   4.621   3.450   8.742 -1.1764  0.2400 -4.3853
 2149SOL    HW218081   4.662   3.566   8.802  0.0385 -1.1662  0.7357
 2150SOL     OW18082   1.982   1.804   3.454 -0.5682 -0.1002 -0.4318
 2150SOL    HW118083   1.937   1.884   3.426  2.5142  1.7088 -0.2799
 2150SOL    HW218084   2.024   1.823   3.539 -1.3141 -0.8749  0.1021
 2151SOL     OW18085   3.443   2.167   7.781 -0.1811 -0.2619 -0.2223
 2151SOL    HW118086   3.466   2.117   7.859  2.4446  1.5916  0.2077
 2151SOL    HW218087   3.350   2.180   7.800 -0.4534 -4.2616  1.2869
 2152SOL     OW18088   1.270   3.667  15.612  0.4257 -0.0763 -0.1298
 2152SOL    HW118089   1.229   3.730  15.672 -1.1707  1.5482 -2.8818
 2152SOL    HW218090   1.358   3.701  15.599 -0.7721  2.1703 -2.4659
 2153SOL     OW18091   0.081   0.806  10.074 -0.1296 -0.1046  0.4144
 2153SOL    HW118092   0.173   0.785  10.059  0.0380  1.4774 -0.7298
 2153SOL    HW218093   0.091   0.864  10.150 -1.5646 -0.5982  0.9924
 2154SOL     OW18094   1.233   2.849   3.259 -0.4021 -0.6032  0.3143
 2154SOL    HW118095   1.326   2.862   3.243  0.0086 -1.0431  2.3984
 2154SOL    HW218096   1.222   2.917   3.325 -1.2942  0.4140 -0.8782
 2155SOL     OW18097   1.683   3.248  11.742 -0.0188  0.2273 -0.3666
 2155SOL    HW118098   1.633   3.250  11.661  0.9599  0.5060 -0.9629
 2155SOL    HW218099   1.659   3.165  11.781  0.9022 -0.0846 -0.4615
 2156SOL     OW18100   2.246   4.044  13.433 -0.3097  0.0512  0.0349
 2156SOL    HW118101   2.304   3.980  13.473  0.0574  0.6330  0.4314
 2156SOL    HW218102   2.160   4.003  13.429 -0.1030 -0.4341  0.7409
 2157SOL     OW18103   1.235   0.921   5.246  0.1544  0.0349  0.1865
 2157SOL    HW118104   1.286   0.900   5.324  1.9696 -1.0368 -1.3090
 2157SOL    HW218105   1.204   0.838   5.209  2.8305 -1.2572  0.8865
 2158SOL     OW18106   3.789   3.987   1.429 -0.0325 -0.3905  0.7427
 2158SOL    HW118107   3.777   3.899   1.464  2.3202 -0.2208  1.9947
 2158SOL    HW218108   3.878   3.977   1.396 -1.5094 -1.5046 -2.9279
 2159SOL     OW18109   0.798   4.047  12.968 -0.3674 -0.1216  0.2570
 2159SOL    HW118110   0.747   3.979  12.924  1.4325 -1.9247  0.9866
 2159SOL    HW218111   0.774   4.036  13.060  0.8831 -2.0013  0.3540
 2160SOL     OW18112   1.973   3.854  11.782  0.0564 -0.5563  0.3430
 2160SOL    HW118113   1.932   3.940  11.773  0.8179 -0.1954  0.3362
 2160SOL    HW218114   2.049   3.864  11.725  0.1366 -2.0993  0.1839
 2161SOL     OW18115   1.903   3.471   1.599 -0.1266 -0.2008 -0.2480
 2161SOL    HW118116   1.837   3.406   1.574 -1.0452  0.6642 -0.0822
 2161SOL    HW218117   1.916   3.528   1.522  0.7950 -2.6850 -1.9441
 2162SOL     OW18118   2.616   3.677   5.919 -0.0349  0.4600  0.0650
 2162SOL    HW118119   2.566   3.684   5.838 -0.4694 -0.3239  0.2584
 2162SOL    HW218120   2.554   3.714   5.982 -0.1366  3.2026 -1.6508
 2163SOL     OW18121   0.527   1.152  10.573 -0.1185  0.1054  0.1512
 2163SOL    HW118122   0.596   1.215  10.552  0.5652 -0.4570  0.6745
 2163SOL    HW218123   0.465   1.213  10.613 -1.6206 -0.4537 -1.3259
 2164SOL     OW18124   1.596   4.607   9.770 -0.2890 -1.0449 -0.0598
 2164SOL    HW118125   1.584   4.603   9.676  0.5132 -1.9951 -0.1206
 2164SOL    HW218126   1.609   4.516   9.796  0.3578 -1.4839 -1.9738
 2165SOL     OW18127   4.123   0.683  16.447  0.0723 -0.2845  0.2794
 2165SOL    HW118128   4.047   0.723  16.405  0.6410  0.7709  0.2360
 2165SOL    HW218129   4.180   0.666  16.372  0.4033  0.9159  0.2541
 2166SOL     OW18130   2.924   0.401   8.589 -0.0890  0.0465  0.3169
 2166SOL    HW118131   2.935   0.455   8.667  1.2775 -0.7758  0.6956
 2166SOL    HW218132   2.914   0.469   8.522 -0.4227  0.4730  0.8057
 2167SOL     OW18133   3.606   3.463   2.691 -0.6100  0.0064 -0.0044
 2167SOL    HW118134   3.643   3.431   2.774 -0.8352 -2.1735 -0.7680
 2167SOL    HW218135   3.597   3.391   2.630 -0.8573 -1.6626  1.9932
 2168SOL     OW18136   1.159   1.875   2.298  0.3242  0.2059 -0.2524
 2168SOL    HW118137   1.079   1.898   2.344 -0.4518 -2.3812 -0.3162
 2168SOL    HW218138   1.152   1.944   2.232 -1.4223  0.2843  0.0164
 2169SOL     OW18139   2.197   0.346  16.551 -0.1624  0.0513  0.4192
 2169SOL    HW118140   2.263   0.390  16.496 -2.1904  1.0867 -1.1641
 2169SOL    HW218141   2.243   0.266  16.575  1.5167  1.0948  0.7064
 2170SOL     OW18142   0.504   2.537  13.151  0.0664 -0.3589 -0.0850
 2170SOL    HW118143   0.516   2.584  13.233  1.2827  0.0955 -0.5338
 2170SOL    HW218144   0.474   2.610  13.097 -1.2198 -0.2250  0.8079
 2171SOL     OW18145   0.582   0.733   5.586  0.2137  0.2731  0.6013
 2171SOL    HW118146   0.525   0.801   5.624 -2.1872 -1.8131  0.7408
 2171SOL    HW218147   0.545   0.734   5.498  0.3583 -1.6127  0.5338
 2172SOL     OW18148   3.498   0.265   8.825 -0.4328 -0.0087 -0.3787
 2172SOL    HW118149   3.413   0.310   8.823 -1.0092 -1.1897 -3.3580
 2172SOL    HW218150   3.560   0.336   8.841 -1.9804  1.9014 -2.8841
 2173SOL     OW18151   0.719   1.650   6.641  0.8627  0.0462 -0.4073
 2173SOL    HW118152   0.638   1.600   6.645  1.2570 -0.5681  0.0491
 2173SOL    HW218153   0.749   1.610   6.723 -1.6021 -0.3276  0.3059
 2174SOL     OW18154   1.469   0.292  16.479  0.0344  0.2097 -0.1972
 2174SOL    HW118155   1.470   0.374  16.527 -3.0069  0.4605 -0.5552
 2174SOL    HW218156   1.560   0.263  16.483 -0.1320 -0.4332 -0.9568
 2175SOL     OW18157   3.980   3.914   9.009 -0.9417  0.2478  0.0984
 2175SOL    HW118158   4.025   3.850   9.064 -0.0094 -0.5357 -1.5830
 2175SOL    HW218159   4.037   3.991   9.020  1.9767 -1.7405 -1.0625
 2176SOL     OW18160   2.208   1.090   1.985  0.2414 -0.2037 -0.2042
 2176SOL    HW118161   2.200   1.028   1.913 -1.8852  0.1902 -0.3088
 2176SOL    HW218162   2.121   1.083   2.025  0.4251  1.6300  0.5006
 2177SOL     OW18163   2.801   3.016  11.984  0.3185  0.3206 -0.2692
 2177SOL    HW118164   2.862   3.080  12.019 -0.0877 -0.4866  1.9335
 2177SOL    HW218165   2.840   2.931  12.006  1.1687  0.8372  0.2093
 2178SOL     OW18166   0.361   1.169   8.227  0.5081 -0.5184  0.2827
 2178SOL    HW118167   0.427   1.121   8.177  0.4791  0.4301 -0.6680
 2178SOL    HW218168   0.359   1.119   8.308 -1.0839  0.2035  0.6888
 2179SOL     OW18169   2.629   0.202   0.595 -0.2394  0.1707  0.3148
 2179SOL    HW118170   2.614   0.277   0.653 -1.0707 -0.1063  0.4733
 2179SOL    HW218171   2.640   0.135   0.663 -1.6786  1.5377  1.9227
 2180SOL     OW18172   4.112   4.151  16.923  0.3230 -0.3502 -0.8212
 2180SOL    HW118173   4.195   4.197  16.913  1.4241 -1.8036  1.5015
 2180SOL    HW218174   4.050   4.212  16.963 -0.9900 -1.7395 -0.6904
 2181SOL     OW18175   0.477   3.546  17.497 -0.3746  0.2504 -0.3322
 2181SOL    HW118176   0.392   3.504  17.488  0.7153 -2.3093  1.0936
 2181SOL    HW218177   0.472   3.598  17.417  0.0920  0.7659 -0.0293
 2182SOL     OW18178   3.057   2.517   7.641  0.2535 -0.6791  0.6890
 2182SOL    HW118179   3.108   2.439   7.619 -2.6318 -2.6286  0.9684
 2182SOL    HW218180   3.112   2.576   7.693  0.3441  0.2910 -0.4991
 2183SOL     OW18181   2.530   0.872   5.475  0.3741 -0.2131  0.0657
 2183SOL    HW118182   2.448   0.904   5.439 -1.0715 -2.0841  1.7569
 2183SOL    HW218183   2.556   0.807   5.409 -1.5125  0.3693 -1.2523
 2184SOL     OW18184   1.531   4.561   5.832  0.5518  0.3179  0.2883
 2184SOL    HW118185   1.531   4.601   5.919 -4.0793 -0.4244  0.6160
 2184SOL    HW218186   1.625   4.565   5.813  0.6912 -1.5100  0.5462
 2185SOL     OW18187   4.629   3.186   3.149  0.3342  0.2062 -0.3913
 2185SOL    HW118188   4.711   3.183   3.099  1.0896  1.3022  0.7676
 2185SOL    HW218189   4.657   3.194   3.240  0.5990  0.6472 -0.5073
 2186SOL     OW18190   1.387   4.142   7.870  0.1015  0.2250  0.2101
 2186SOL    HW118191   1.431   4.061   7.892  0.8886  0.2300 -1.3872
 2186SOL    HW218192   1.396   4.144   7.775 -0.0144 -0.4112  0.1859
 2187SOL     OW18193   1.349   3.699  13.547 -0.0563  0.5210  0.1630
 2187SOL    HW118194   1.301   3.782  13.555 -0.7010  0.0057  1.7869
 2187SOL    HW218195   1.364   3.692  13.453  1.5300  1.7376  0.3320
 2188SOL     OW18196   0.998   2.093  11.283  0.2435  0.1150  0.6391
 2188SOL    HW118197   1.055   2.124  11.212 -2.2870  2.7094 -0.2569
 2188SOL    HW218198   0.975   2.014  11.234  0.3567  1.1302 -1.0649
 2189SOL     OW18199   1.482   0.636   3.107  0.0229  0.1717  0.3941
 2189SOL    HW118200   1.412   0.619   3.044  1.4184  2.2050 -1.7389
 2189SOL    HW218201   1.434   0.690   3.169  0.6692  1.3661 -0.1358
 2190SOL     OW18202   0.161   4.122   9.708  0.4898  0.1495  0.1377
 2190SOL    HW118203   0.075   4.166   9.706  0.0426 -0.8030 -1.5867
 2190SOL    HW218204   0.129   4.040   9.671  1.4854 -0.2110  0.0822
 2191SOL     OW18205   0.753   0.339   2.843 -0.0438 -0.3769 -0.5412
 2191SOL    HW118206   0.774   0.271   2.907  0.9330 -0.5122 -1.0028
 2191SOL    HW218207   0.709   0.281   2.782  1.4916 -2.5504  0.4236
 2192SOL     OW18208   3.386   0.569   6.464 -0.4836  0.2923  0.1164
 2192SOL    HW118209   3.353   0.480   6.462  0.0373  0.1241 -0.6961
 2192SOL    HW218210   3.473   0.550   6.500 -0.0016  2.2399 -0.0309
 2193SOL     OW18211   2.715   2.731   5.278 -0.4037  0.3987 -0.4302
 2193SOL    HW118212   2.671   2.814   5.262  0.3934  0.8237 -0.4013
 2193SOL    HW218213   2.638   2.681   5.250  0.0031 -0.3685 -0.1825
 2194SOL     OW18214   2.635   4.538   9.128  0.5942 -0.2794  0.2777
 2194SOL    HW118215   2.593   4.457   9.157  0.8375  0.2382  2.0624
 2194SOL    HW218216   2.674   4.509   9.045 -1.5220  1.8897 -1.4969
 2195SOL     OW18217   4.187   1.204   7.645 -0.3433  0.1228  0.2166
 2195SOL    HW118218   4.117   1.254   7.686 -1.7283 -0.8196 -0.9925
 2195SOL    HW218219   4.138   1.128   7.613  0.7406 -1.4388  2.1839
 2196SOL     OW18220   3.136   1.662  13.819 -0.1942  0.0905  0.3900
 2196SOL    HW118221   3.095   1.672  13.904 -0.6525 -1.3776  0.3521
 2196SOL    HW218222   3.103   1.575  13.796 -0.7701  1.1983 -2.9849
 2197SOL     OW18223   0.484   2.965   7.609 -0.7073  0.2892  0.3035
 2197SOL    HW118224   0.548   3.033   7.590 -1.0591  0.5934  0.2034
 2197SOL    HW218225   0.432   2.995   7.685 -0.4995 -0.4056  0.7178
 2198SOL     OW18226   4.576   3.462   5.778  0.0493  0.7417  0.2662
 2198SOL    HW118227   4.550   3.404   5.850 -0.5044 -1.1171 -1.4291
 2198SOL    HW218228   4.671   3.456   5.785 -0.1171 -1.9653  0.2579
 2199SOL     OW18229   2.957   1.035  15.288 -0.0575  0.3761 -0.2054
 2199SOL    HW118230   3.003   0.964  15.243  0.4773 -0.8147  2.2528
 2199SOL    HW218231   2.879   0.991  15.322 -1.2123  2.2464 -0.4469
 2200SOL     OW18232   3.721   2.109   4.071 -0.0280 -0.2781 -0.4923
 2200SOL    HW118233   3.733   2.050   3.996 -1.0283 -0.6146 -0.3845
 2200SOL    HW218234   3.636   2.146   4.046 -1.5093 -2.6202  1.0729
 2201SOL     OW18235   0.980   3.804   4.622 -0.4705 -0.5659 -0.5284
 2201SOL    HW118236   1.053   3.777   4.566  0.1227 -2.4769  1.1617
 2201SOL    HW218237   1.004   3.782   4.712 -1.2745  2.4869  0.4286
 2202SOL     OW18238   3.030   2.429   4.483  0.3380  0.4400 -0.5652
 2202SOL    HW118239   3.075   2.430   4.398  2.6842 -0.8502  0.6576
 2202SOL    HW218240   3.083   2.365   4.531  1.7187  1.3798 -0.8137
 2203SOL     OW18241   2.454   2.635   5.121 -0.3303  0.3383 -0.2751
 2203SOL    HW118242   2.375   2.585   5.102 -1.8286  0.9600  4.4257
 2203SOL    HW218243   2.418   2.687   5.193  0.7803  0.0897  0.4585
 2204SOL     OW18244   4.688   3.450  10.238 -0.3853 -0.3038  0.1457
 2204SOL    HW118245   4.646   3.475  10.155  0.4168 -0.3896 -0.2837
 2204SOL    HW218246   0.041   3.495  10.234 -0.3141 -0.5246 -0.9821
 2205SOL     OW18247   1.506   2.486   8.657 -0.1036  0.2247 -0.2719
 2205SOL    HW118248   1.514   2.407   8.711 -1.3195  0.1926 -0.1534
 2205SOL    HW218249   1.532   2.556   8.717  0.5739  0.4645 -0.8385
 2206SOL     OW18250   2.790   1.640   4.432  0.7169 -0.2514  0.2090
 2206SOL    HW118251   2.840   1.602   4.361 -1.1695 -1.8685 -0.2362
 2206SOL    HW218252   2.758   1.715   4.382  1.9236 -0.7119 -1.2344
 2207SOL     OW18253   0.798   0.473   7.189  0.0510 -0.3697 -0.6913
 2207SOL    HW118254   0.717   0.521   7.172 -0.3943 -0.1412  2.1921
 2207SOL    HW218255   0.774   0.393   7.142  0.4277 -1.7537  1.4460
 2208SOL     OW18256   0.925   1.837   9.255 -0.1301 -0.0446  0.5912
 2208SOL    HW118257   0.831   1.843   9.241 -0.9458 -0.7072  5.8656
 2208SOL    HW218258   0.926   1.795   9.341  2.0704 -2.3533 -0.5507
 2209SOL     OW18259   3.454   0.382   4.509  0.3613  0.1346 -0.5239
 2209SOL    HW118260   3.434   0.347   4.596  0.9633 -0.2853 -0.5518
 2209SOL    HW218261   3.536   0.429   4.526  1.2459 -1.3866 -0.5063
 2210SOL     OW18262   1.209   0.562   8.164  0.2594 -0.2895  0.3753
 2210SOL    HW118263   1.264   0.485   8.175 -0.1978 -0.9620 -2.0032
 2210SOL    HW218264   1.168   0.542   8.080  1.8562 -1.7207 -0.0601
 2211SOL     OW18265   4.469   3.252   0.085 -0.2554  0.1586  0.0822
 2211SOL    HW118266   4.465   3.313   0.011 -0.0206 -0.4374 -0.4285
 2211SOL    HW218267   4.484   3.311   0.159  2.2659  1.7915 -1.7311
 2212SOL     OW18268   1.896   2.881   5.801 -0.2660 -0.6029  0.3643
 2212SOL    HW118269   1.874   2.958   5.852  0.8356  0.4181 -0.7007
 2212SOL    HW218270   1.828   2.831   5.847  1.9627 -3.7023  0.2385
 2213SOL     OW18271   2.900   0.416   5.656  0.4627 -0.1502 -0.1944
 2213SOL    HW118272   2.856   0.378   5.732  0.1282 -3.2586 -1.9467
 2213SOL    HW218273   2.963   0.479   5.692 -1.6037  1.8276 -0.0536
 2214SOL     OW18274   3.485   3.295   2.488 -0.3746 -0.5065 -0.1092
 2214SOL    HW118275   3.551   3.267   2.424 -1.8603  0.4032 -2.0172
 2214SOL    HW218276   3.410   3.244   2.460  0.1377 -1.0475 -0.5023
 2215SOL     OW18277   1.635   4.020   8.993 -0.1023 -0.0871  0.0453
 2215SOL    HW118278   1.629   3.941   9.046 -3.4916 -0.4303 -0.8657
 2215SOL    HW218279   1.629   4.089   9.059 -0.5533  0.0542 -0.1454
 2216SOL     OW18280   2.118   0.959   6.035  0.2830 -0.0421  0.6890
 2216SOL    HW118281   2.174   0.886   6.010  1.4775  0.8970  0.6470
 2216SOL    HW218282   2.168   1.007   6.101  0.6927  2.0722 -1.1538
 2217SOL     OW18283   2.220   2.245  11.381  0.3040 -0.2715 -0.1118
 2217SOL    HW118284   2.250   2.320  11.330 -0.3725 -0.1533 -0.3332
 2217SOL    HW218285   2.158   2.290  11.438 -0.0553 -0.6092 -0.2388
 2218SOL     OW18286   0.072   2.441   4.481  0.1041 -0.3101  0.0213
 2218SOL    HW118287   4.717   2.401   4.492 -0.8510  1.3882 -1.3498
 2218SOL    HW218288   0.077   2.498   4.557  2.2110 -1.3591  0.6621
 2219SOL     OW18289   3.740   0.275   1.375  0.3791 -0.2462 -0.3185
 2219SOL    HW118290   3.823   0.228   1.366  0.4672  0.4065 -2.9346
 2219SOL    HW218291   3.765   0.343   1.437  1.0307 -0.3396 -0.4782
 2220SOL     OW18292   3.086   0.149   0.974  0.1029 -0.1027 -0.6767
 2220SOL    HW118293   3.167   0.118   1.016  0.8635  0.9450 -1.3779
 2220SOL    HW218294   3.119   0.229   0.933 -1.7657  0.2964 -1.4043
 2221SOL     OW18295   1.832   0.767   4.997  0.4347 -0.1854 -0.0863
 2221SOL    HW118296   1.923   0.739   5.006  0.3445 -0.7282 -0.9333
 2221SOL    HW218297   1.853   0.839   4.937 -0.2895  0.4814  0.4605
 2222SOL     OW18298   2.785   4.682   7.714  0.6717 -0.3486 -0.3423
 2222SOL    HW118299   2.737   0.010   7.657  0.1124 -0.3916  0.0802
 2222SOL    HW218300   2.735   4.686   7.795 -0.1703  0.9543 -0.9351
 2223SOL     OW18301   2.023   0.785  12.178  0.1070 -0.0951  0.6499
 2223SOL    HW118302   2.029   0.766  12.272  0.3016 -0.4445  0.5676
 2223SOL    HW218303   1.965   0.713  12.153  0.1971 -0.0255  0.2341
 2224SOL     OW18304   0.799   0.955   7.065  0.5328 -0.6528  0.1582
 2224SOL    HW118305   0.876   0.970   7.119  0.3645 -0.3982  0.3284
 2224SOL    HW218306   0.778   1.044   7.035  3.2422 -0.4559 -1.1751
 2225SOL     OW18307   3.768   3.596   8.487 -0.2971 -0.2372 -0.0655
 2225SOL    HW118308   3.726   3.591   8.401  2.9504  1.9375 -1.7637
 2225SOL    HW218309   3.858   3.618   8.465 -0.5054  1.6605  1.0352
 2226SOL     OW18310   1.802   2.541   6.895  0.5903  0.1106  0.4750
 2226SOL    HW118311   1.895   2.539   6.873 -0.2076 -0.1265 -2.8873
 2226SOL    HW218312   1.772   2.589   6.818  0.6432  1.8312  1.5219
 2227SOL     OW18313   4.644   0.298   0.627 -0.4189  0.3682  0.3136
 2227SOL    HW118314   4.629   0.392   0.611 -2.2028 -0.2821 -1.8197
 2227SOL    HW218315   4.577   0.276   0.691  1.6296 -2.2339  1.5478
 2228SOL     OW18316   2.475   2.117  11.996  0.1414  0.4675  0.2190
 2228SOL    HW118317   2.547   2.120  11.934 -0.4766  1.1433 -0.4547
 2228SOL    HW218318   2.522   2.067  12.063  0.6996 -1.3146 -1.5085
 2229SOL     OW18319   3.666   1.320   0.537  0.0418 -0.7440 -0.1922
 2229SOL    HW118320   3.632   1.369   0.612  0.8909 -0.6504  0.1316
 2229SOL    HW218321   3.586   1.274   0.513  0.5785 -2.6444  1.6530
 2230SOL     OW18322   0.893   1.140   8.335 -0.1294  0.0002  0.2530
 2230SOL    HW118323   0.798   1.144   8.332 -0.1642  1.1279  2.7066
 2230SOL    HW218324   0.909   1.081   8.409  1.9111  1.6531  1.1483
 2231SOL     OW18325   4.032   2.451  10.495  0.5664  0.3000  0.2558
 2231SOL    HW118326   4.049   2.377  10.437 -0.2448 -0.1325  0.5809
 2231SOL    HW218327   3.967   2.495  10.439  0.1083 -1.3517 -0.5204
 2232SOL     OW18328   3.679   0.498  13.267 -0.7263  0.0192  0.2911
 2232SOL    HW118329   3.755   0.518  13.322 -0.0636 -0.7556 -0.3333
 2232SOL    HW218330   3.721   0.448  13.196 -0.0826 -0.2550  0.8632
 2233SOL     OW18331   0.664   3.695   9.180  0.4737 -0.3442 -0.1749
 2233SOL    HW118332   0.577   3.709   9.216  0.4379 -1.5914  0.2222
 2233SOL    HW218333   0.713   3.749   9.242  0.7310  0.8057 -1.3792
 2234SOL     OW18334   2.457   0.915   7.587 -0.0837  0.0011 -0.0681
 2234SOL    HW118335   2.399   0.840   7.596  0.9892 -0.8378 -0.1966
 2234SOL    HW218336   2.528   0.889   7.645  0.3936  1.0941 -0.1566
 2235SOL     OW18337   0.306   3.956   1.806  0.1040 -0.2598 -0.1542
 2235SOL    HW118338   0.214   3.958   1.779  0.0969 -1.0886 -0.1746
 2235SOL    HW218339   0.347   4.006   1.735  1.3402 -0.7541  0.2233
 2236SOL     OW18340   3.135   2.686   3.108  0.1262  0.2371  0.1633
 2236SOL    HW118341   3.164   2.598   3.131  1.1532  0.3448 -0.6871
 2236SOL    HW218342   3.211   2.741   3.129  0.8443 -0.0520 -1.6770
 2237SOL     OW18343   1.366   2.816   8.731 -0.3562  0.5813 -0.2287
 2237SOL    HW118344   1.458   2.833   8.752 -0.5882  2.6603 -0.8720
 2237SOL    HW218345   1.357   2.733   8.778 -1.2542 -0.7791 -2.8325
 2238SOL     OW18346   3.984   3.438   2.912  0.6349 -0.0425 -0.0367
 2238SOL    HW118347   4.018   3.444   3.001  1.9282  1.6593 -0.6449
 2238SOL    HW218348   3.918   3.507   2.912  0.9436  0.2590 -1.2535
 2239SOL     OW18349   0.252   4.589  10.848 -0.1690 -0.5570 -0.4266
 2239SOL    HW118350   0.204   4.529  10.791  0.0287 -2.4499  1.3493
 2239SOL    HW218351   0.258   4.670  10.798  0.9624 -0.7402 -0.5972
 2240SOL     OW18352   0.555   0.153  10.078 -0.2956 -0.2202  0.3403
 2240SOL    HW118353   0.626   0.101  10.115 -1.0814 -0.9917  0.7445
 2240SOL    HW218354   0.486   0.149  10.144 -0.8239  0.4598 -0.1612
 2241SOL     OW18355   0.146   1.531   4.254  0.0704 -0.1054 -0.2127
 2241SOL    HW118356   0.135   1.448   4.207 -0.8989 -0.2329  0.2447
 2241SOL    HW218357   0.170   1.597   4.189 -1.1222  0.4714 -0.0512
 2242SOL     OW18358   0.726   3.221   2.221  0.6726  0.0984 -0.0350
 2242SOL    HW118359   0.633   3.216   2.199  0.2171  0.8368  1.7597
 2242SOL    HW218360   0.776   3.212   2.140 -0.7391 -1.4706 -0.7327
 2243SOL     OW18361   1.062   4.604   3.814 -0.2535 -0.3553  0.4815
 2243SOL    HW118362   1.047   4.650   3.731 -2.5166 -0.0732  1.0283
 2243SOL    HW218363   0.990   4.637   3.869  0.6703  0.4146  1.2265
 2244SOL     OW18364   2.495   1.788  17.488 -0.0761  0.0855  0.5537
 2244SOL    HW118365   2.534   1.743  17.413  2.4882  1.0220  1.3415
 2244SOL    HW218366   2.406   1.802  17.454  0.1454 -0.0810 -0.1064
 2245SOL     OW18367   2.937   0.219  13.918  0.2144  1.0188 -0.1489
 2245SOL    HW118368   2.874   0.259  13.978 -1.7696 -0.3071 -1.3469
 2245SOL    HW218369   3.013   0.250  13.967  0.2592 -0.6603  0.8022
 2246SOL     OW18370   4.319   1.495  13.316  0.0570 -0.3197 -0.9700
 2246SOL    HW118371   4.402   1.455  13.294 -0.1233 -1.0995 -0.2475
 2246SOL    HW218372   4.260   1.420  13.323 -0.0117 -0.1513  0.3217
 2247SOL     OW18373   1.894   4.255   1.765  0.5277 -0.6315  0.1340
 2247SOL    HW118374   1.847   4.306   1.831 -2.4751 -1.5332 -1.3049
 2247SOL    HW218375   1.842   4.175   1.768 -0.1797 -0.1643  0.1262
 2248SOL     OW18376   1.805   4.142   6.818 -0.2905  0.4371 -0.2371
 2248SOL    HW118377   1.724   4.138   6.870  0.3262  0.6504  0.7430
 2248SOL    HW218378   1.799   4.233   6.790 -0.9471  0.5531  0.2815
 2249SOL     OW18379   1.705   0.236  16.121 -0.5643  0.4985  0.2320
 2249SOL    HW118380   1.764   0.161  16.113 -0.1725  0.8685 -0.3120
 2249SOL    HW218381   1.761   0.309  16.146  0.0751 -0.2484  1.0143
 2250SOL     OW18382   4.486   0.150   8.353  0.0431  0.2300  0.4457
 2250SOL    HW118383   4.529   0.232   8.376 -1.2802  0.5227  1.8521
 2250SOL    HW218384   4.468   0.163   8.260  0.3277 -1.1245  0.1923
 2251SOL     OW18385   4.512   0.713   6.861  0.6251  0.0004  0.0295
 2251SOL    HW118386   4.510   0.755   6.947 -0.9449 -2.0535  1.0169
 2251SOL    HW218387   4.431   0.749   6.825  0.2417 -0.7480  0.1442
 2252SOL     OW18388   3.569   1.544  10.006 -0.1537  0.2366 -0.3732
 2252SOL    HW118389   3.530   1.462   9.975  0.6342 -0.5151  0.5801
 2252SOL    HW218390   3.541   1.537  10.097  1.9965 -2.1917  0.1011
 2253SOL     OW18391   4.149   2.953   5.387 -0.2457  0.4804  0.4056
 2253SOL    HW118392   4.206   3.014   5.434  0.3507 -0.2011  0.5689
 2253SOL    HW218393   4.114   3.019   5.327 -0.3480 -0.3202 -0.4208
 2254SOL     OW18394   3.515   2.082  14.392  0.5383  0.1428  0.5906
 2254SOL    HW118395   3.514   2.176  14.374  0.4509  0.0960  0.3486
 2254SOL    HW218396   3.547   2.054  14.307 -1.0394  0.5233 -0.1392
 2255SOL     OW18397   1.632   2.249   8.813 -0.4413  0.4782  0.1812
 2255SOL    HW118398   1.619   2.165   8.769 -0.7960  1.3858 -1.4411
 2255SOL    HW218399   1.725   2.241   8.833  0.2767 -1.7782 -4.1844
 2256SOL     OW18400   1.353   0.756   7.002  0.4074 -0.0814  0.2877
 2256SOL    HW118401   1.447   0.763   7.019  0.4286  0.6322 -0.1202
 2256SOL    HW218402   1.345   0.801   6.918  1.0262 -0.1774  0.1713
 2257SOL     OW18403   4.296   2.383   7.987 -0.2339 -0.2474 -0.0040
 2257SOL    HW118404   4.246   2.465   7.986 -0.6178 -0.4944 -0.9839
 2257SOL    HW218405   4.285   2.348   8.075 -0.0718  0.4056  0.2770
 2258SOL     OW18406   3.229   3.137   1.891  0.4163  0.0262  0.5154
 2258SOL    HW118407   3.245   3.130   1.797  2.2303  0.4277  0.7965
 2258SOL    HW218408   3.217   3.045   1.915  0.1687 -0.2343 -0.6032
 2259SOL     OW18409   2.229   1.931  15.916  0.1087 -0.4258 -0.4859
 2259SOL    HW118410   2.221   1.870  15.990 -1.2464  0.7044  0.3019
 2259SOL    HW218411   2.145   1.976  15.911 -0.1216 -0.7877  0.0836
 2260SOL     OW18412   0.846   3.646   5.634  0.5357  0.5532  0.2620
 2260SOL    HW118413   0.778   3.587   5.601 -1.1182  2.3311  0.4758
 2260SOL    HW218414   0.922   3.589   5.641  0.4728  0.2385 -1.5738
 2261SOL     OW18415   0.616   2.204   3.726 -0.3634 -0.1359 -0.7008
 2261SOL    HW118416   0.575   2.120   3.745 -1.1809  0.5873  0.6940
 2261SOL    HW218417   0.563   2.243   3.657  0.6092  2.1766 -0.1516
 2262SOL     OW18418   3.952   4.474   4.817  0.3115 -0.2336  0.3344
 2262SOL    HW118419   4.035   4.427   4.808  1.9614  2.6402  0.7155
 2262SOL    HW218420   3.938   4.448   4.908  0.0037  0.1391  0.3969
 2263SOL     OW18421   2.566   2.967   1.934  0.2055  0.1847  0.1415
 2263SOL    HW118422   2.508   2.892   1.947 -1.2521  1.1319 -0.9057
 2263SOL    HW218423   2.629   2.964   2.006 -0.9092 -0.4374  1.0941
 2264SOL     OW18424   4.096   4.099   2.922  0.0533 -0.1805  0.4368
 2264SOL    HW118425   4.160   4.158   2.964 -1.8046  1.1918  1.3659
 2264SOL    HW218426   4.128   4.068   2.838 -2.9332 -1.9805 -0.0455
 2265SOL     OW18427   3.414   1.652   6.308 -0.0880 -0.1264  0.2358
 2265SOL    HW118428   3.362   1.579   6.273 -0.6698  0.2286  0.3526
 2265SOL    HW218429   3.360   1.707   6.365 -0.9475 -0.0525 -0.6425
 2266SOL     OW18430   0.558   4.563  16.177 -0.3834  0.5158 -0.0372
 2266SOL    HW118431   0.633   4.602  16.133 -3.0343  2.5041 -2.7587
 2266SOL    HW218432   0.489   4.579  16.113 -0.3839 -1.1765 -0.4722
 2267SOL     OW18433   1.293   2.189   9.222 -0.7315  0.0272 -0.5811
 2267SOL    HW118434   1.207   2.149   9.211 -0.1063 -0.4989 -3.6405
 2267SOL    HW218435   1.347   2.137   9.162 -0.0842 -0.7093  0.6478
 2268SOL     OW18436   2.488   1.649   4.638 -0.1478  0.5943  0.0243
 2268SOL    HW118437   2.472   1.701   4.559 -0.2477  1.1402  0.4026
 2268SOL    HW218438   2.413   1.679   4.690  0.4068  0.0856  1.1159
 2269SOL     OW18439   4.636   4.340  10.719  0.1683  0.2267  0.3698
 2269SOL    HW118440   4.599   4.298  10.641  1.0134  0.4395 -0.1459
 2269SOL    HW218441   4.724   4.368  10.695  0.8566 -0.7886  1.6762
 2270SOL     OW18442   0.346   0.635  12.316 -0.2331 -0.2974  0.0919
 2270SOL    HW118443   0.349   0.655  12.223  0.8772 -0.4585  0.0833
 2270SOL    HW218444   0.365   0.541  12.319  0.0582 -0.2796 -1.2734
 2271SOL     OW18445   0.272   2.815  13.892  0.4797 -0.1227 -0.0826
 2271SOL    HW118446   0.275   2.769  13.976 -0.3952  0.7412  0.4330
 2271SOL    HW218447   0.365   2.815  13.872  0.2567  0.3062 -1.1366
 2272SOL     OW18448   3.923   3.616   3.567 -0.7330 -0.0076 -0.4558
 2272SOL    HW118449   3.979   3.580   3.636 -3.5866 -1.8646  0.8595
 2272SOL    HW218450   3.983   3.624   3.492  0.2395  2.0384  0.5614
 2273SOL     OW18451   0.229   1.725  16.368  0.2242  0.0679  0.3677
 2273SOL    HW118452   0.308   1.673  16.379  0.9391  0.9022 -0.8670
 2273SOL    HW218453   0.164   1.682  16.425 -0.3972 -0.8045 -1.0177
 2274SOL     OW18454   3.941   0.957   4.564  0.6715 -0.4826  0.1337
 2274SOL    HW118455   4.007   1.027   4.568 -0.3620  0.4836  0.4578
 2274SOL    HW218456   3.857   0.999   4.543  0.3112 -1.3532 -0.1556
 2275SOL     OW18457   0.297   3.035   8.351  0.3356  0.1092 -0.0732
 2275SOL    HW118458   0.300   2.965   8.417 -1.7193 -0.3633 -0.4916
 2275SOL    HW218459   0.202   3.044   8.345  0.3850 -0.4646 -1.8057
 2276SOL     OW18460   2.420   2.630   2.215 -0.5895 -0.0320 -0.9525
 2276SOL    HW118461   2.370   2.633   2.296  0.3991 -0.6751 -0.3089
 2276SOL    HW218462   2.363   2.567   2.170  1.7954 -1.2324 -2.3109
 2277SOL     OW18463   1.347   1.815   6.795  0.2227  0.1736  0.0256
 2277SOL    HW118464   1.421   1.780   6.844 -0.6257  0.3458  1.4455
 2277SOL    HW218465   1.279   1.804   6.862 -0.5253  0.9308 -0.6163
 2278SOL     OW18466   2.035   1.770   5.939 -0.2831  0.9007  0.0188
 2278SOL    HW118467   2.018   1.771   5.844  0.9440 -2.6930 -0.2491
 2278SOL    HW218468   1.953   1.732   5.972 -0.4747 -1.0495 -2.6588
 2279SOL     OW18469   0.506   2.845   2.751 -0.4284  0.4764  0.4837
 2279SOL    HW118470   0.468   2.925   2.715 -0.4640  0.1553 -0.1806
 2279SOL    HW218471   0.432   2.806   2.798 -0.9550 -0.0006 -0.7392
 2280SOL     OW18472   0.691   2.966  13.324  0.6049 -0.1413  0.2984
 2280SOL    HW118473   0.701   2.967  13.229 -1.8076 -1.9905  0.0424
 2280SOL    HW218474   0.611   2.918  13.342  0.7040 -0.0740  0.9428
 2281SOL     OW18475   3.493   1.330   2.094  0.2556 -0.0363  0.4899
 2281SOL    HW118476   3.565   1.324   2.157  1.0554  2.2850 -0.2017
 2281SOL    HW218477   3.544   1.336   2.014  0.2699  3.2718  0.7342
 2282SOL     OW18478   3.106   0.024   4.532  0.5157 -0.3163  0.1067
 2282SOL    HW118479   3.072   0.041   4.620  1.7538  0.6420  0.4020
 2282SOL    HW218480   3.198   0.040   4.551 -0.3013  0.9605  3.0414
 2283SOL     OW18481   1.997   2.116  10.691 -0.0387  0.0763  0.6756
 2283SOL    HW118482   2.088   2.099  10.716  0.3006 -1.6783 -1.7934
 2283SOL    HW218483   2.017   2.206  10.666  0.0165 -0.3127 -0.6962
 2284SOL     OW18484   0.096   1.290   2.161 -0.1721 -0.1062  0.3301
 2284SOL    HW118485   0.046   1.294   2.243 -3.2509  0.2221 -1.5738
 2284SOL    HW218486   0.169   1.348   2.185 -0.1183 -0.4171  0.9176
 2285SOL     OW18487   0.489   4.084   1.642 -0.4273  0.3548  0.2880
 2285SOL    HW118488   0.559   4.021   1.658  1.1045  2.5590  2.3432
 2285SOL    HW218489   0.498   4.108   1.550  0.0173 -0.2520  0.1715
 2286SOL     OW18490   3.069   1.422  13.734  0.1808  0.2025 -0.9983
 2286SOL    HW118491   3.095   1.346  13.785  0.7265  0.4583 -0.8966
 2286SOL    HW218492   2.979   1.403  13.708 -0.0805 -2.0374  1.5173
 2287SOL     OW18493   3.841   1.295   6.054 -0.0693  0.1659 -0.0043
 2287SOL    HW118494   3.751   1.264   6.051  0.0223 -0.0828 -0.3207
 2287SOL    HW218495   3.881   1.224   6.104  0.6582  1.5732  1.4057
 2288SOL     OW18496   2.619   2.328  10.589 -0.0763  0.4917  0.0850
 2288SOL    HW118497   2.713   2.341  10.580 -0.2347  2.0685  0.6611
 2288SOL    HW218498   2.598   2.320  10.496 -1.0930 -0.5244  0.4040
 2289SOL     OW18499   3.706   4.104   3.222 -0.3340  0.3106 -0.1165
 2289SOL    HW118500   3.771   4.136   3.159  0.7601 -0.4452  0.6197
 2289SOL    HW218501   3.762   4.075   3.294 -1.1230  1.1307  0.8239
 2290SOL     OW18502   4.162   3.545   9.375  0.5411 -0.4703 -0.4862
 2290SOL    HW118503   4.199   3.489   9.307  0.1969 -1.3741  0.0650
 2290SOL    HW218504   4.077   3.503   9.385 -0.2170  1.0693 -0.4069
 2291SOL     OW18505   4.571   2.080  13.210 -0.3839  0.8178  0.3694
 2291SOL    HW118506   4.536   2.005  13.163 -2.0447  0.4482  2.1878
 2291SOL    HW218507   4.640   2.120  13.157 -1.9695  2.5543 -0.3777
 2292SOL     OW18508   0.675   4.035   3.098  0.8854 -0.1919  0.0919
 2292SOL    HW118509   0.738   3.969   3.068 -1.3607 -1.2369 -2.3753
 2292SOL    HW218510   0.669   3.997   3.185 -0.2460  0.5710  0.3364
 2293SOL     OW18511   0.371   1.244   5.248  0.3394  0.2184 -0.2209
 2293SOL    HW118512   0.425   1.264   5.171  2.5889 -1.1910  0.9802
 2293SOL    HW218513   0.419   1.171   5.287 -1.9558 -0.9601  0.3992
 2294SOL     OW18514   3.680   4.008   7.293 -0.0534 -0.1964  0.2047
 2294SOL    HW118515   3.616   4.069   7.256 -1.8049 -2.3602 -0.2648
 2294SOL    HW218516   3.642   3.978   7.375 -1.9512 -0.0128 -0.6107
 2295SOL     OW18517   3.084   1.682   3.118  0.5230 -0.1232  0.2028
 2295SOL    HW118518   3.170   1.710   3.148 -0.7030  1.0562  2.5943
 2295SOL    HW218519   3.049   1.639   3.196  0.4485  0.3568  0.4270
 2296SOL     OW18520   1.157   2.112   4.156  0.1480 -0.6256  0.2669
 2296SOL    HW118521   1.080   2.074   4.115 -1.5850  0.4885  2.4862
 2296SOL    HW218522   1.149   2.205   4.135  1.3146 -0.3029  1.2142
 2297SOL     OW18523   2.422   1.796  12.675  0.4174  0.3020  0.2047
 2297SOL    HW118524   2.367   1.874  12.685  0.1739  0.2952 -1.0640
 2297SOL    HW218525   2.438   1.777  12.768  1.2496 -0.0596 -0.0163
 2298SOL     OW18526   3.424   0.155   8.535 -0.0455  0.1989  0.1452
 2298SOL    HW118527   3.368   0.087   8.497  0.5886  1.1052 -2.4617
 2298SOL    HW218528   3.364   0.200   8.594 -0.7480 -1.2095  0.5056
 2299SOL     OW18529   0.612   3.875   2.403 -0.5783 -0.2458  0.4107
 2299SOL    HW118530   0.627   3.791   2.447 -0.0595 -1.2860 -1.7239
 2299SOL    HW218531   0.526   3.898   2.439 -0.8320 -1.4370  0.5836
 2300SOL     OW18532   4.095   0.669   1.990  0.1626 -0.2226 -0.1647
 2300SOL    HW118533   4.149   0.631   2.058  0.6831 -0.2025 -0.5723
 2300SOL    HW218534   4.085   0.762   2.013  0.0027 -1.0942  3.1940
 2301SOL     OW18535   3.687   0.566   4.463 -0.2116 -0.3829 -0.3959
 2301SOL    HW118536   3.726   0.541   4.379 -0.0800 -1.2633 -0.0778
 2301SOL    HW218537   3.757   0.531   4.519  0.3509 -0.0417 -0.8951
 2302SOL     OW18538   0.953   2.753   7.104  0.0995 -0.8077  0.3616
 2302SOL    HW118539   1.045   2.761   7.079  0.0512 -1.5840 -0.0766
 2302SOL    HW218540   0.963   2.729   7.196  1.9426  1.3585  0.7165
 2303SOL     OW18541   2.976   0.744   6.168  0.2051  0.1137 -0.2168
 2303SOL    HW118542   3.031   0.822   6.164 -0.0239  0.1582 -2.3901
 2303SOL    HW218543   3.021   0.687   6.106 -0.4801 -0.9436  0.2521
 2304SOL     OW18544   2.684   0.677   6.737  0.4886  0.2124  0.8617
 2304SOL    HW118545   2.602   0.628   6.728 -1.0661  2.7070  1.4197
 2304SOL    HW218546   2.654   0.761   6.704 -1.8536 -1.5756 -1.5708
 2305SOL     OW18547   4.677   2.366  17.103  0.0410 -0.4770 -0.3633
 2305SOL    HW118548   4.719   2.304  17.043  1.8069  1.5034 -1.1790
 2305SOL    HW218549   4.699   2.325  17.186  2.6657 -2.5067 -2.0390
 2306SOL     OW18550   0.622   0.676   2.424  0.4013 -0.1876 -0.5385
 2306SOL    HW118551   0.632   0.747   2.487  1.1737  0.3879 -1.3176
 2306SOL    HW218552   0.529   0.655   2.435  0.5247 -0.1040  0.6416
 2307SOL     OW18553   1.408   0.056   9.845  0.1128  0.2894  0.3343
 2307SOL    HW118554   1.476   4.723   9.823  0.7450  0.9198  0.4601
 2307SOL    HW218555   1.372   0.013   9.922 -0.2460 -1.0185 -0.5552
 2308SOL     OW18556   2.072   0.538   3.864  0.1603 -0.2233  0.8889
 2308SOL    HW118557   2.042   0.456   3.826 -2.2827  1.0790 -0.0321
 2308SOL    HW218558   1.990   0.589   3.856  0.6544 -0.0992 -3.7652
 2309SOL     OW18559   4.148   2.836  15.572  0.2782  0.1797  0.3512
 2309SOL    HW118560   4.078   2.775  15.598 -0.3869  0.7240 -0.1545
 2309SOL    HW218561   4.119   2.917  15.615 -1.5884  0.0975 -0.7519
 2310SOL     OW18562   0.375   1.765   8.178  0.3062  0.0324 -0.0721
 2310SOL    HW118563   0.376   1.779   8.273 -0.4050 -2.3459  0.2697
 2310SOL    HW218564   0.355   1.672   8.167  2.2436 -0.5907  1.6839
 2311SOL     OW18565   2.303   4.621   9.776  0.1725  0.1761  0.6863
 2311SOL    HW118566   2.296   4.712   9.748 -0.3806  0.3750  1.4849
 2311SOL    HW218567   2.382   4.624   9.830  0.8700  2.3685 -0.4467
 2312SOL     OW18568   1.285   0.964   2.222  0.5710 -0.3496 -0.5732
 2312SOL    HW118569   1.327   0.915   2.152  2.8596  3.1411 -1.6510
 2312SOL    HW218570   1.221   1.014   2.172 -1.3913 -0.3234  1.9579
 2313SOL     OW18571   1.463   1.733   5.506  0.2323 -0.0575  0.3732
 2313SOL    HW118572   1.403   1.692   5.569 -0.9309 -2.4357 -2.2872
 2313SOL    HW218573   1.494   1.795   5.572  1.6413  0.4286 -0.7544
 2314SOL     OW18574   3.317   3.376   1.742 -0.6294 -0.4625 -0.2776
 2314SOL    HW118575   3.256   3.420   1.800 -0.3154 -0.3591 -0.0224
 2314SOL    HW218576   3.383   3.333   1.796  0.4755  1.4660 -0.0749
 2315SOL     OW18577   0.055   4.274   7.230  0.9136  0.2153 -0.3001
 2315SOL    HW118578   0.032   4.366   7.221 -2.3235 -0.6998 -1.4126
 2315SOL    HW218579   0.016   4.251   7.145  1.2025 -2.0938  0.1785
 2316SOL     OW18580   2.892   1.693   2.164 -0.7068 -0.1189 -0.1239
 2316SOL    HW118581   2.890   1.732   2.076 -1.2078 -0.6287 -0.3375
 2316SOL    HW218582   2.800   1.687   2.189 -1.2222  0.5149 -1.8132
 2317SOL     OW18583   2.927   4.346  13.632 -0.1715 -0.0297  0.2617
 2317SOL    HW118584   3.021   4.336  13.648 -0.6851 -0.2023  3.0350
 2317SOL    HW218585   2.919   4.438  13.655  1.3944 -0.3550  2.0584
 2318SOL     OW18586   2.300   3.623  11.601 -0.5619 -0.1206 -0.1586
 2318SOL    HW118587   2.310   3.647  11.509  0.0895 -0.4306 -0.1683
 2318SOL    HW218588   2.211   3.588  11.601 -0.8600  0.6355 -0.3504
 2319SOL     OW18589   2.667   4.368   8.013 -0.0271  0.0744  0.6152
 2319SOL    HW118590   2.630   4.364   8.101  1.1473 -1.6100  1.0301
 2319SOL    HW218591   2.602   4.313   7.968 -0.4546 -0.0760  1.4152
 2320SOL     OW18592   4.065   0.813  13.896  0.0228 -0.4180 -0.1442
 2320SOL    HW118593   4.000   0.804  13.965  1.0625  1.1130  1.0473
 2320SOL    HW218594   4.048   0.907  13.886 -1.7681 -0.6925  0.4249
 2321SOL     OW18595   0.629   0.507  11.127 -0.2455  0.2198  0.4856
 2321SOL    HW118596   0.546   0.501  11.079  0.5990 -0.0445 -0.9250
 2321SOL    HW218597   0.685   0.476  11.057  0.9680 -0.1663  1.6231
 2322SOL     OW18598   4.372   3.465   3.686 -0.3249  0.0879 -0.4120
 2322SOL    HW118599   4.435   3.536   3.703 -1.2011  1.0066 -1.0252
 2322SOL    HW218600   4.404   3.407   3.755 -0.5009  1.7292  1.0527
 2323SOL     OW18601   4.225   3.857   2.144 -0.4669  0.2597  0.6315
 2323SOL    HW118602   4.268   3.872   2.229  1.0528 -0.0889 -0.0713
 2323SOL    HW218603   4.185   3.941   2.122 -0.7536  0.6022  2.4139
 2324SOL     OW18604   2.383   3.414   2.138 -0.0687 -0.2511 -0.3509
 2324SOL    HW118605   2.359   3.364   2.215 -1.5619  0.4698 -0.3509
 2324SOL    HW218606   2.475   3.433   2.155 -0.6581  0.5868  1.8409
 2325SOL     OW18607   0.701   3.970   3.909  0.3571 -0.1430 -0.2835
 2325SOL    HW118608   0.682   4.060   3.938  0.1991 -0.4011  0.4195
 2325SOL    HW218609   0.795   3.974   3.891  0.6151  0.4086  1.1515
 2326SOL     OW18610   1.163   2.328   7.865  0.4200  0.2726  0.2606
 2326SOL    HW118611   1.081   2.372   7.888  0.6708  0.2834  1.1389
 2326SOL    HW218612   1.148   2.337   7.771 -1.7142  0.3787  0.6033
 2327SOL     OW18613   2.193   0.216   2.537  0.0258  0.1802 -0.0438
 2327SOL    HW118614   2.269   0.201   2.592  1.0778 -0.9729 -1.8161
 2327SOL    HW218615   2.225   0.227   2.447 -3.4843  1.5498 -1.1387
 2328SOL     OW18616   2.993   1.795  16.485 -0.0137 -0.0604  0.3322
 2328SOL    HW118617   2.972   1.863  16.549  1.1401 -0.6532  1.3452
 2328SOL    HW218618   3.011   1.725  16.548  1.7808  1.0223  1.0237
 2329SOL     OW18619   2.839   1.200  15.114  0.6592 -0.4257 -0.3624
 2329SOL    HW118620   2.890   1.157  15.183  0.5566  0.0582  0.0170
 2329SOL    HW218621   2.833   1.142  15.039  2.0959 -0.2885 -0.5909
 2330SOL     OW18622   0.659   2.519   7.146 -0.1957  0.3623  0.0179
 2330SOL    HW118623   0.567   2.492   7.146  0.2158 -1.0307  0.4898
 2330SOL    HW218624   0.681   2.520   7.239 -0.7919  0.4090  0.1628
 2331SOL     OW18625   1.969   4.309   4.275  0.3866  0.3594  0.3696
 2331SOL    HW118626   1.924   4.228   4.300  0.7295 -0.9818 -3.3780
 2331SOL    HW218627   1.970   4.299   4.180 -0.8808  0.7959  0.3150
 2332SOL     OW18628   1.876   0.695   5.896  0.8469 -0.1380  1.0476
 2332SOL    HW118629   1.967   0.712   5.871  0.0244  2.3670 -0.2152
 2332SOL    HW218630   1.861   0.781   5.935 -1.3408 -0.0275 -0.0289
 2333SOL     OW18631   2.075   3.367   6.100 -0.1726  0.3026 -0.3878
 2333SOL    HW118632   2.158   3.412   6.087  0.9498 -2.0343 -1.3919
 2333SOL    HW218633   2.023   3.425   6.045  1.0647  0.5953 -1.2376
 2334SOL     OW18634   2.508   3.891   8.291  0.4973 -0.3350 -0.3440
 2334SOL    HW118635   2.527   3.804   8.255  2.7482 -0.7276  1.8027
 2334SOL    HW218636   2.575   3.897   8.359  2.6938 -0.1726 -2.4999
 2335SOL     OW18637   1.026   0.028   9.132 -0.5869 -0.1172 -0.1709
 2335SOL    HW118638   0.990   0.008   9.045 -0.4667 -0.8797 -0.0454
 2335SOL    HW218639   0.951   0.035   9.190 -0.3035  0.6291  0.1181
 2336SOL     OW18640   1.273   4.718   2.147  0.5903  0.3834 -0.5878
 2336SOL    HW118641   1.181   4.707   2.123  0.5908 -2.1659  0.6102
 2336SOL    HW218642   1.296   4.630   2.176  2.5331  1.2889  0.6048
 2337SOL     OW18643   2.406   1.820   3.109  0.5828 -0.3001 -0.0436
 2337SOL    HW118644   2.492   1.796   3.075  1.4085  2.3596  0.1186
 2337SOL    HW218645   2.396   1.779   3.194 -2.3223 -0.5606 -0.5177
 2338SOL     OW18646   2.087   0.251   6.680  0.3253 -0.6900  0.2135
 2338SOL    HW118647   2.099   0.175   6.622 -3.3219 -1.2452  0.1836
 2338SOL    HW218648   2.156   0.232   6.742  2.3316  0.2610 -1.7292
 2339SOL     OW18649   2.646   1.824   9.385 -0.5494 -0.1008  0.9693
 2339SOL    HW118650   2.638   1.901   9.328  0.7381 -0.9900 -0.4065
 2339SOL    HW218651   2.611   1.761   9.322  2.8243 -1.1284  0.1134
 2340SOL     OW18652   3.046   2.378   8.620 -0.1451 -0.5337 -0.2971
 2340SOL    HW118653   3.087   2.296   8.645 -0.6283 -0.6674  0.0620
 2340SOL    HW218654   3.124   2.433   8.615 -0.5338 -0.0311 -0.7849
 2341SOL     OW18655   0.454   0.331   3.894  0.1308  0.9807  0.2789
 2341SOL    HW118656   0.521   0.395   3.918  0.0056  0.9911  0.6032
 2341SOL    HW218657   0.372   0.380   3.890  0.7866  2.0925  0.3004
 2342SOL     OW18658   0.319   1.243  16.469 -0.1416 -0.4758 -0.4330
 2342SOL    HW118659   0.244   1.189  16.492  1.0894 -1.5117  1.1152
 2342SOL    HW218660   0.352   1.264  16.556  1.6314 -0.4448 -1.1128
 2343SOL     OW18661   1.475   2.415   2.668 -0.9604 -0.1905  0.2937
 2343SOL    HW118662   1.552   2.359   2.676  0.1735  1.2720 -0.3691
 2343SOL    HW218663   1.438   2.396   2.754 -2.1589 -3.0812 -0.8672
 2344SOL     OW18664   0.268   3.852   2.064  0.2715  0.1422  0.0219
 2344SOL    HW118665   0.281   3.922   2.000  0.3856  0.3990  0.3205
 2344SOL    HW218666   0.239   3.780   2.008  0.0780 -1.3252  2.0127
 2345SOL     OW18667   2.805   4.573   0.425 -0.1519 -0.0031  0.0569
 2345SOL    HW118668   2.861   4.538   0.494  0.5974  0.3601 -0.3659
 2345SOL    HW218669   2.722   4.574   0.471  0.3750  2.3629  0.9719
 2346SOL     OW18670   4.440   2.015   9.262 -0.3942  0.7649  0.6162
 2346SOL    HW118671   4.482   1.954   9.202 -1.9083 -0.0325  0.3499
 2346SOL    HW218672   4.350   1.981   9.262 -0.2493  0.3870  0.3604
 2347SOL     OW18673   2.727   0.967   7.069 -0.4085 -0.0231 -0.2692
 2347SOL    HW118674   2.679   1.004   6.995  0.0718  0.2054 -0.4643
 2347SOL    HW218675   2.660   0.942   7.132 -1.1767 -2.4141 -2.0376
 2348SOL     OW18676   1.303   0.442   2.376  0.2277 -0.0461  0.0139
 2348SOL    HW118677   1.376   0.424   2.317 -1.9625 -2.4840 -1.9727
 2348SOL    HW218678   1.343   0.476   2.456 -1.1972  0.2498  0.6010
 2349SOL     OW18679   2.646   0.045   5.696 -0.1748 -0.0402  0.2459
 2349SOL    HW118680   2.637   0.069   5.603  0.9671 -1.4613 -0.2367
 2349SOL    HW218681   2.558   0.049   5.734 -0.0026 -2.1628  0.8546
 2350SOL     OW18682   2.099   3.804  12.417  0.0744  0.4948 -0.1808
 2350SOL    HW118683   2.025   3.794  12.357  1.2164 -1.7511 -1.2019
 2350SOL    HW218684   2.070   3.758  12.496  1.8415  1.0315  0.7941
 2351SOL     OW18685   4.001   1.513  13.549  1.0257 -0.8357  0.1843
 2351SOL    HW118686   3.939   1.521  13.477  1.5349  0.7884 -0.0903
 2351SOL    HW218687   3.949   1.465  13.614  0.6897 -0.1039  0.4606
 2352SOL     OW18688   1.806   3.683  15.601 -0.0287 -0.2364  0.3794
 2352SOL    HW118689   1.867   3.610  15.586  1.6541  1.5681 -1.6133
 2352SOL    HW218690   1.789   3.706  15.510 -2.4940 -0.0401  0.8935
 2353SOL     OW18691   4.446   1.568   6.531 -0.3290  0.0724 -0.1396
 2353SOL    HW118692   4.531   1.539   6.564 -0.9813  0.4652  1.9232
 2353SOL    HW218693   4.459   1.617   6.450 -2.2934  0.8006 -0.0100
 2354SOL     OW18694   1.110   4.022   7.752  0.0531 -0.3333  0.4630
 2354SOL    HW118695   1.185   4.008   7.694 -1.5772 -2.2055 -1.2157
 2354SOL    HW218696   1.056   4.068   7.688  0.1870 -2.0135 -0.8481
 2355SOL     OW18697   3.283   3.984  15.108 -0.1378  0.0700 -0.0149
 2355SOL    HW118698   3.363   3.952  15.066 -0.5798 -1.0169 -0.0228
 2355SOL    HW218699   3.320   4.068  15.135 -0.6854  0.4022 -0.2902
 2356SOL     OW18700   1.047   1.689   6.806 -0.3702  0.1435  0.3349
 2356SOL    HW118701   1.083   1.769   6.844 -0.9806  0.9962 -0.8876
 2356SOL    HW218702   0.973   1.665   6.862 -0.7367 -1.0877 -0.6823
 2357SOL     OW18703   0.780   2.370   7.908  0.2698 -0.5872  0.4765
 2357SOL    HW118704   0.843   2.298   7.898 -0.3964 -1.0659 -0.2778
 2357SOL    HW218705   0.702   2.318   7.888 -1.0580  1.0329  1.5327
 2358SOL     OW18706   2.187   3.268   4.452  0.2681 -0.7693  0.5261
 2358SOL    HW118707   2.143   3.193   4.412 -0.2147 -0.9710  1.4206
 2358SOL    HW218708   2.278   3.240   4.443  0.4834 -0.5151  1.8153
 2359SOL     OW18709   0.373   0.147   7.620 -0.9024 -0.2746 -0.2215
 2359SOL    HW118710   0.364   0.119   7.711  0.0232 -0.0842 -0.0770
 2359SOL    HW218711   0.406   0.237   7.621 -2.6312  0.3476  1.7457
 2360SOL     OW18712   3.076   3.534   5.569  0.1406 -0.0189 -0.0772
 2360SOL    HW118713   3.009   3.490   5.621 -1.5629  1.1588 -1.2692
 2360SOL    HW218714   3.046   3.535   5.478 -0.9332 -2.6765  0.2679
 2361SOL     OW18715   4.545   4.169  10.503 -0.8509  0.8036  0.4254
 2361SOL    HW118716   4.641   4.170  10.508 -0.9446  1.1557  2.1333
 2361SOL    HW218717   4.525   4.076  10.493 -0.2242  0.7034  0.1194
 2362SOL     OW18718   2.789   3.649   9.431 -1.1061 -0.5931 -0.2694
 2362SOL    HW118719   2.705   3.661   9.475 -0.6668 -2.1115  0.9876
 2362SOL    HW218720   2.812   3.565   9.470 -0.9124 -1.0959 -1.4648
 2363SOL     OW18721   0.401   1.014   4.379  0.1648  0.1197  0.2230
 2363SOL    HW118722   0.311   0.997   4.406  0.4509 -0.0642  1.0355
 2363SOL    HW218723   0.377   1.091   4.327  1.4418  0.8380  0.6928
 2364SOL     OW18724   4.247   3.083   9.303 -0.4243 -0.0079  0.2861
 2364SOL    HW118725   4.216   3.032   9.228 -3.0158  2.1358 -0.1102
 2364SOL    HW218726   4.163   3.078   9.348 -0.1185 -0.7784  0.7914
 2365SOL     OW18727   0.195   3.668   8.116 -0.0261 -0.0773  0.0234
 2365SOL    HW118728   0.100   3.661   8.122 -0.0276  0.3151  0.4569
 2365SOL    HW218729   0.208   3.659   8.021 -0.9497  2.3305 -0.3535
 2366SOL     OW18730   1.712   1.321   5.914  0.0416  0.3742  0.0345
 2366SOL    HW118731   1.792   1.297   5.961  0.0813  0.2242 -0.1126
 2366SOL    HW218732   1.681   1.383   5.980  0.6669 -0.1990  0.8689
 2367SOL     OW18733   1.935   1.179  15.680  0.3502  0.0589  0.7810
 2367SOL    HW118734   2.016   1.186  15.630 -0.1952 -1.5281 -0.3117
 2367SOL    HW218735   1.941   1.261  15.729 -1.3092  1.3829 -1.1919
 2368SOL     OW18736   0.842   4.094  11.722  0.1312 -0.4246 -0.3546
 2368SOL    HW118737   0.893   4.173  11.742 -3.4287  1.3850  1.5667
 2368SOL    HW218738   0.907   4.026  11.739  0.5729 -0.2510 -1.3537
 2369SOL     OW18739   1.346   1.571   2.880 -0.1913  0.5741 -0.2242
 2369SOL    HW118740   1.361   1.524   2.962 -0.3147 -0.5401 -0.8419
 2369SOL    HW218741   1.361   1.661   2.911  2.1521  0.3777 -0.7773
 2370SOL     OW18742   2.139   2.150   8.074 -0.3944 -0.6048 -0.0976
 2370SOL    HW118743   2.219   2.102   8.054 -0.4111 -1.6647  2.3901
 2370SOL    HW218744   2.084   2.076   8.100  2.4623 -3.2614 -1.6232
 2371SOL     OW18745   1.133   1.196   8.645  0.0266  0.0538  0.0912
 2371SOL    HW118746   1.215   1.147   8.641 -0.5943 -0.9836 -0.0825
 2371SOL    HW218747   1.078   1.157   8.576  0.9570 -0.7896 -0.1727
 2372SOL     OW18748   3.590   2.324   1.506 -0.4029  0.2259  0.1825
 2372SOL    HW118749   3.683   2.347   1.505  0.0939 -1.8428  0.0597
 2372SOL    HW218750   3.570   2.340   1.599  0.6113  1.5610  0.1680
 2373SOL     OW18751   3.937   1.767   2.468 -0.1261  0.1408  0.4465
 2373SOL    HW118752   3.924   1.852   2.511 -1.2992  0.1584  0.0652
 2373SOL    HW218753   3.942   1.707   2.543  0.3342 -0.4103 -0.0277
 2374SOL     OW18754   2.383   2.044  17.114 -0.1508 -0.1375 -0.5734
 2374SOL    HW118755   2.439   2.121  17.121  1.5355 -1.6247  2.4838
 2374SOL    HW218756   2.323   2.065  17.186  1.3592 -1.4608  1.0725
 2375SOL     OW18757   1.781   3.886   6.865 -0.4179  0.3220  0.0661
 2375SOL    HW118758   1.821   3.963   6.825 -0.2439  0.4710  0.5339
 2375SOL    HW218759   1.687   3.901   6.851 -0.6616 -0.7362  0.5285
 2376SOL     OW18760   4.007   2.640  11.690  0.5139 -0.1302  0.3478
 2376SOL    HW118761   4.001   2.728  11.653  0.6882  0.1594  1.0209
 2376SOL    HW218762   3.921   2.632  11.732 -1.3409 -0.3942 -3.4468
 2377SOL     OW18763   0.312   1.109   1.687 -0.1089  0.3161  0.7140
 2377SOL    HW118764   0.287   1.085   1.776 -1.3130  1.4919  0.6822
 2377SOL    HW218765   0.327   1.020   1.655 -0.0268 -0.0463  1.7768
 2378SOL     OW18766   1.416   4.505   7.695 -0.5115  0.4260 -0.0061
 2378SOL    HW118767   1.416   4.455   7.613  1.2526  3.1260 -1.6301
 2378SOL    HW218768   1.504   4.479   7.722 -0.8740 -0.6522  0.1341
 2379SOL     OW18769   0.354   4.642   3.478  0.0653 -0.0532  0.4947
 2379SOL    HW118770   0.346   4.717   3.419  0.2657 -0.9794 -0.7151
 2379SOL    HW218771   0.405   4.579   3.427  1.6902  1.4226  0.2725
 2380SOL     OW18772   1.304   1.906   8.769  0.0637  0.7428 -0.3092
 2380SOL    HW118773   1.224   1.958   8.757 -1.0696 -0.8306  0.4148
 2380SOL    HW218774   1.264   1.827   8.805  0.6092  1.2419  1.3915
 2381SOL     OW18775   1.747   4.268  12.165  0.0308  0.0019 -0.0360
 2381SOL    HW118776   1.756   4.360  12.191 -2.1262 -0.1335  1.2069
 2381SOL    HW218777   1.833   4.247  12.129 -0.8675 -1.2138 -1.4752
 2382SOL     OW18778   0.682   1.941   2.434 -0.3279 -0.0137 -0.8536
 2382SOL    HW118779   0.591   1.948   2.462 -0.5420  1.4140 -1.9186
 2382SOL    HW218780   0.675   1.895   2.350 -0.2275 -0.6794 -0.4981
 2383SOL     OW18781   3.088   1.183  17.650 -0.5140  0.3669 -0.2760
 2383SOL    HW118782   3.104   1.201  17.557 -1.4559 -0.7633 -0.6523
 2383SOL    HW218783   3.100   1.089  17.638 -0.3508  0.2646  0.7070
 2384SOL     OW18784   4.077   4.475   7.302 -0.3993 -0.5407  0.2440
 2384SOL    HW118785   4.032   4.392   7.320  1.5547 -1.3714  1.3605
 2384SOL    HW218786   4.084   4.508   7.392  1.3483  2.8457 -1.1344
 2385SOL     OW18787   0.758   4.662   8.665  0.2958 -0.1571 -0.5848
 2385SOL    HW118788   0.729   4.572   8.651  0.5709 -0.4162  0.5349
 2385SOL    HW218789   0.742   4.662   8.759 -2.8606  0.1960 -1.1245
 2386SOL     OW18790   1.542   1.698  11.837 -0.3165 -0.2799 -0.2551
 2386SOL    HW118791   1.550   1.697  11.933 -1.5603 -1.7772 -0.1528
 2386SOL    HW218792   1.530   1.791  11.821  0.1854 -0.3506 -1.0212
 2387SOL     OW18793   3.559   1.611   9.171  0.1117 -0.0167  0.2944
 2387SOL    HW118794   3.640   1.649   9.204  1.1792  1.6205 -4.3006
 2387SOL    HW218795   3.566   1.522   9.206  1.7394 -0.0182 -0.0551
 2388SOL     OW18796   1.020   3.224   8.701 -0.6265  0.0452 -0.0565
 2388SOL    HW118797   0.981   3.279   8.770  0.5267 -0.0548  0.6833
 2388SOL    HW218798   1.114   3.240   8.703 -0.8360  0.8172  3.1969
 2389SOL     OW18799   1.829   1.505   4.364  0.6580  0.1475  0.3738
 2389SOL    HW118800   1.886   1.530   4.437  1.7103  0.6418 -0.6173
 2389SOL    HW218801   1.761   1.572   4.374  0.8003  0.1708  1.2672
 2390SOL     OW18802   3.001   3.054   4.857  0.6504  0.2955 -0.0266
 2390SOL    HW118803   2.968   3.020   4.774  1.6435 -0.4560 -0.1128
 2390SOL    HW218804   2.924   3.039   4.912 -0.1386 -0.4616 -1.3256
 2391SOL     OW18805   0.914   1.442   4.954 -0.4301  0.3905 -0.0301
 2391SOL    HW118806   0.878   1.411   5.037  0.0069 -0.4663 -0.1640
 2391SOL    HW218807   0.985   1.381   4.937 -1.5628 -1.0945  0.5693
 2392SOL     OW18808   1.088   3.413   4.412  0.4030 -0.0229 -0.4708
 2392SOL    HW118809   1.041   3.472   4.353  1.7945  1.4778 -0.0752
 2392SOL    HW218810   1.118   3.338   4.360 -2.0083 -1.0858 -0.3095
 2393SOL     OW18811   2.461   0.778   3.371  0.2041 -0.2002  0.0088
 2393SOL    HW118812   2.462   0.683   3.386  0.6476 -0.0146  1.1059
 2393SOL    HW218813   2.556   0.787   3.377  0.2885 -1.3330  0.5225
 2394SOL     OW18814   2.308   1.774   5.326  0.7952  0.0116 -0.6936
 2394SOL    HW118815   2.236   1.836   5.327  0.9206  0.0465  2.8863
 2394SOL    HW218816   2.280   1.699   5.273  0.3926 -1.0879  1.0893
 2395SOL     OW18817   4.046   1.144   8.369  0.0269 -0.5950  0.9687
 2395SOL    HW118818   4.034   1.226   8.418  1.4427  0.6585 -0.7508
 2395SOL    HW218819   4.077   1.080   8.433 -0.7115 -2.6636 -0.7574
 2396SOL     OW18820   4.662   3.793  14.204 -0.9432 -0.2194 -0.6092
 2396SOL    HW118821   4.673   3.699  14.218  0.4995  0.2351  1.3295
 2396SOL    HW218822   4.620   3.788  14.118 -0.1832  0.0130 -0.9950
 2397SOL     OW18823   3.202   2.479   2.812 -0.0535 -0.0256 -0.0870
 2397SOL    HW118824   3.138   2.408   2.815  1.0811 -1.0805 -0.6595
 2397SOL    HW218825   3.161   2.536   2.747 -1.1184 -0.1794  0.4556
 2398SOL     OW18826   1.780   1.956  16.219 -0.3572 -0.7758 -0.4216
 2398SOL    HW118827   1.686   1.973  16.216  0.1057  2.0461  1.7442
 2398SOL    HW218828   1.785   1.919  16.307  0.8728 -0.2361 -0.2736
 2399SOL     OW18829   3.392   4.355   5.549 -0.1232 -1.0476  0.3365
 2399SOL    HW118830   3.351   4.313   5.625  3.2859 -1.0638  2.1447
 2399SOL    HW218831   3.332   4.429   5.548  0.9340 -0.1871  1.4550
 2400SOL     OW18832   2.232   0.516  13.944  0.6833  0.1361  0.2772
 2400SOL    HW118833   2.233   0.534  13.850  1.3635 -2.0407 -0.1230
 2400SOL    HW218834   2.319   0.480  13.961 -0.0008 -1.1571  0.9578
 2401SOL     OW18835   2.468   3.339   6.632  0.3320 -0.6923  0.2799
 2401SOL    HW118836   2.413   3.294   6.696 -1.5364  2.5099  0.9625
 2401SOL    HW218837   2.406   3.395   6.585  0.2949 -1.2737 -0.3699
 2402SOL     OW18838   1.093   3.835   5.493 -0.2074  0.1386  0.1572
 2402SOL    HW118839   1.073   3.764   5.432 -1.8152  1.0741 -0.3912
 2402SOL    HW218840   1.180   3.852   5.455 -0.2980  0.9636  0.3214
 2403SOL     OW18841   3.779   0.679   4.753  0.4240 -0.0437  0.3577
 2403SOL    HW118842   3.817   0.593   4.735 -2.0695 -1.4780  1.8811
 2403SOL    HW218843   3.857   0.731   4.734  0.5176 -0.6409 -0.8865
 2404SOL     OW18844   2.770   2.045   3.744  0.3279 -0.0010 -0.3094
 2404SOL    HW118845   2.784   2.137   3.721  0.1495  0.7167  2.3469
 2404SOL    HW218846   2.694   2.026   3.689 -0.4654 -1.5641  1.3205
 2405SOL     OW18847   0.931   4.564   5.135  0.1617  0.1686 -0.0981
 2405SOL    HW118848   0.960   4.644   5.178 -2.2312  1.1623 -0.3149
 2405SOL    HW218849   0.954   4.503   5.205  1.8232 -0.1467 -0.9263
 2406SOL     OW18850   3.367   0.838   3.648 -0.3594 -0.1148 -0.2155
 2406SOL    HW118851   3.277   0.809   3.657 -0.1386 -0.5087  0.7598
 2406SOL    HW218852   3.412   0.764   3.689  2.2677  0.0030 -2.9074
 2407SOL     OW18853   3.728   1.277   2.831  0.0336 -0.0610 -0.9190
 2407SOL    HW118854   3.747   1.367   2.858  0.9041 -1.7930  4.1635
 2407SOL    HW218855   3.646   1.300   2.786  0.5062  2.6178 -0.3778
 2408SOL     OW18856   1.107   3.480   5.919 -0.1887 -0.1560  0.1584
 2408SOL    HW118857   1.043   3.456   5.985 -1.0537 -2.5881 -1.5615
 2408SOL    HW218858   1.194   3.455   5.950 -0.3917  1.1184  1.7813
 2409SOL     OW18859   0.674   2.381  17.093 -0.1227  0.4847 -0.5785
 2409SOL    HW118860   0.647   2.460  17.046  0.9083  1.4999  0.5468
 2409SOL    HW218861   0.765   2.357  17.076 -0.0835 -0.5993  1.2050
 2410SOL     OW18862   3.892   0.833  16.369 -0.3071 -0.3936  0.0072
 2410SOL    HW118863   3.801   0.862  16.369 -0.2077 -0.0564  0.9804
 2410SOL    HW218864   3.894   0.802  16.279  1.3587 -1.2833  0.3463
 2411SOL     OW18865   3.448   2.751  14.029 -0.0020 -0.2100  0.1923
 2411SOL    HW118866   3.432   2.814  14.100  1.1805  0.0287  0.2518
 2411SOL    HW218867   3.511   2.794  13.971  0.4441 -2.4291 -0.9652
 2412SOL     OW18868   4.516   4.555   2.313 -0.4464 -0.2411 -0.1485
 2412SOL    HW118869   4.530   4.632   2.258  1.1046 -0.9655 -0.7526
 2412SOL    HW218870   4.554   4.484   2.262  1.5890 -0.5336  1.7593
 2413SOL     OW18871   3.395   4.244   2.370 -0.8489 -0.3358 -0.1016
 2413SOL    HW118872   3.386   4.323   2.317 -0.6348  0.5708  1.2057
 2413SOL    HW218873   3.385   4.278   2.458  0.0546 -1.8121  0.5755
 2414SOL     OW18874   0.896   0.410   9.322 -0.0171  0.2629 -0.5970
 2414SOL    HW118875   0.930   0.460   9.397  1.3226 -0.9579 -0.3924
 2414SOL    HW218876   0.929   0.471   9.257  0.5856  1.3204  0.6975
 2415SOL     OW18877   0.889   3.790   7.190 -0.0785 -0.0284 -0.2161
 2415SOL    HW118878   0.887   3.863   7.129  0.7981  1.5577  1.6718
 2415SOL    HW218879   0.942   3.826   7.261 -0.1275 -0.0530 -0.1669
 2416SOL     OW18880   4.070   3.765   9.217 -0.1092 -0.2015 -0.1860
 2416SOL    HW118881   4.107   3.845   9.254  2.1954 -1.8265  1.0637
 2416SOL    HW218882   4.110   3.693   9.266  0.7170 -0.6285 -1.4695
 2417SOL     OW18883   0.879   2.862  16.939  0.3901 -0.1742 -0.0665
 2417SOL    HW118884   0.887   2.810  17.019 -2.0672  2.3272  1.7431
 2417SOL    HW218885   0.912   2.947  16.967  1.0649 -0.1376 -0.9660
 2418SOL     OW18886   1.004   4.119   2.794  0.4012 -0.1509  0.5676
 2418SOL    HW118887   0.939   4.049   2.789  1.1231 -0.8586  0.9351
 2418SOL    HW218888   1.046   4.113   2.880  1.1857  2.5147  0.3701
 2419SOL     OW18889   2.108   4.034   4.319  0.4510 -0.4338 -0.0238
 2419SOL    HW118890   2.093   4.051   4.413  0.3002  1.1175 -0.3281
 2419SOL    HW218891   2.188   4.084   4.302 -0.4200  1.0997  0.3582
 2420SOL     OW18892   4.472   2.899   7.205 -0.5262 -0.5390  0.2033
 2420SOL    HW118893   4.387   2.896   7.160 -2.0221  3.1102  2.8245
 2420SOL    HW218894   4.437   2.916   7.292  0.7485 -0.7014  0.7435
 2421SOL     OW18895   0.731   1.243   3.029 -0.0936  0.4100  0.4847
 2421SOL    HW118896   0.791   1.300   3.077  0.0531 -1.5501  2.5989
 2421SOL    HW218897   0.790   1.227   2.955  1.2733 -0.4720  1.7571
 2422SOL     OW18898   3.446   1.879   9.773  0.2831 -0.3263  0.0927
 2422SOL    HW118899   3.524   1.855   9.821 -0.5239 -0.2662  1.4398
 2422SOL    HW218900   3.421   1.800   9.725 -1.2655 -0.6848  1.4888
 2423SOL     OW18901   1.156   0.596   6.360 -0.5515 -1.1244  0.1265
 2423SOL    HW118902   1.135   0.526   6.298 -2.0193 -0.6877  0.1550
 2423SOL    HW218903   1.196   0.556   6.438 -3.5404 -3.0162  0.6611
 2424SOL     OW18904   3.506   3.059   6.453  0.5693 -0.4264  0.3460
 2424SOL    HW118905   3.490   3.142   6.409  2.9190 -1.0134 -1.6427
 2424SOL    HW218906   3.594   3.039   6.419 -0.4350 -1.1592 -1.8569
 2425SOL     OW18907   0.603   0.780  15.028 -0.2155 -0.5727 -0.3823
 2425SOL    HW118908   0.684   0.819  15.060 -0.7646  0.0974  0.1840
 2425SOL    HW218909   0.566   0.739  15.106 -0.4665 -1.0399 -0.7482
 2426SOL     OW18910   4.520   4.156   4.051 -0.1267 -0.5627  0.2005
 2426SOL    HW118911   4.582   4.198   3.991  0.5568  0.6752  1.8021
 2426SOL    HW218912   4.524   4.219   4.122  4.9206 -1.8840  1.1422
 2427SOL     OW18913   1.879   2.632  14.164  0.5155 -0.2776 -0.8089
 2427SOL    HW118914   1.850   2.569  14.230 -0.8629  2.8247  1.5354
 2427SOL    HW218915   1.810   2.633  14.097 -0.9579  3.2756  0.8054
 2428SOL     OW18916   0.632   2.874  15.824  0.2419  0.3524 -0.0393
 2428SOL    HW118917   0.675   2.906  15.745  4.4026  0.7987  2.4019
 2428SOL    HW218918   0.596   2.796  15.781  1.0688 -0.1507  0.1801
 2429SOL     OW18919   1.323   1.442   4.950  0.5325  0.2526  0.1249
 2429SOL    HW118920   1.274   1.505   5.002  1.3912 -1.0680  2.5378
 2429SOL    HW218921   1.370   1.394   5.019  0.0190 -2.2578 -1.2748
 2430SOL     OW18922   4.059   1.481   6.133  0.0017 -0.7630 -0.8077
 2430SOL    HW118923   3.999   1.419   6.092  1.5985 -1.7670 -1.6157
 2430SOL    HW218924   4.013   1.565   6.130  2.2208  0.5330  0.7946
 2431SOL     OW18925   3.868   3.440  11.688  0.1950  0.3270  0.3599
 2431SOL    HW118926   3.878   3.530  11.658 -2.2124  0.6832  0.6302
 2431SOL    HW218927   3.792   3.421  11.633  0.0951  0.2091  0.5377
 2432SOL     OW18928   0.027   4.638   8.555 -0.0248 -0.1972 -0.2440
 2432SOL    HW118929   4.720   4.725   8.558 -0.6592 -0.4830  0.1408
 2432SOL    HW218930   4.681   4.585   8.534 -0.5690 -0.5932  2.6531
 2433SOL     OW18931   0.274   1.140  15.120  0.0816 -0.0435 -0.0807
 2433SOL    HW118932   0.228   1.201  15.063  0.2446 -0.0835 -0.2529
 2433SOL    HW218933   0.320   1.090  15.053  0.2342 -0.3710  0.2685
 2434SOL     OW18934   4.168   3.155   7.984 -0.6419 -0.0351 -0.0622
 2434SOL    HW118935   4.169   3.131   8.076  0.3545 -1.9890 -0.5786
 2434SOL    HW218936   4.255   3.191   7.965 -0.2832 -0.6041  0.4998
 2435SOL     OW18937   3.732   0.633   1.146 -0.0509 -0.4620 -0.5226
 2435SOL    HW118938   3.726   0.611   1.239  1.6286 -1.8923 -0.7469
 2435SOL    HW218939   3.822   0.607   1.125  0.2228  0.9706 -1.1497
 2436SOL     OW18940   2.909   0.885   7.261  0.0707 -0.3070 -0.1912
 2436SOL    HW118941   2.997   0.916   7.240 -0.3067  2.1961  1.9340
 2436SOL    HW218942   2.859   0.920   7.188 -0.6055 -2.4572 -0.7500
 2437SOL     OW18943   2.447   1.451  14.056  0.1960 -0.5307  0.2057
 2437SOL    HW118944   2.391   1.385  14.014 -0.3946  0.3044 -0.3133
 2437SOL    HW218945   2.421   1.538  14.026 -1.7829 -1.1665  0.0780
 2438SOL     OW18946   1.893   2.616   8.938 -0.3504 -0.1295  0.8760
 2438SOL    HW118947   1.855   2.580   9.018 -1.1184  3.0597  1.9568
 2438SOL    HW218948   1.902   2.545   8.874 -1.5352 -0.3382  0.9375
 2439SOL     OW18949   1.932   3.433  14.624 -0.0649 -0.3307 -0.3540
 2439SOL    HW118950   2.020   3.450  14.590  0.1109 -0.3192  0.1134
 2439SOL    HW218951   1.891   3.397  14.546 -0.0174  1.7198 -1.3246
 2440SOL     OW18952   0.541   2.442   9.531  0.0828  0.6630 -0.1909
 2440SOL    HW118953   0.586   2.426   9.613 -1.6716 -1.0890  0.4298
 2440SOL    HW218954   0.595   2.392   9.470 -1.6983 -0.7630 -0.5861
 2441SOL     OW18955   0.117   2.522   2.293 -0.0399 -0.3757 -1.0744
 2441SOL    HW118956   0.112   2.427   2.301 -0.1697 -0.3075 -0.3135
 2441SOL    HW218957   0.109   2.523   2.198  2.7599  1.0608 -1.2889
 2442SOL     OW18958   2.354   4.602   7.710 -0.1785  0.1426 -0.5063
 2442SOL    HW118959   2.371   4.535   7.644 -0.0838  0.0956 -0.4348
 2442SOL    HW218960   2.260   4.613   7.703  0.0528  2.1825 -0.6109
 2443SOL     OW18961   1.458   1.310   5.156 -0.0877  0.1825  0.1952
 2443SOL    HW118962   1.507   1.373   5.210 -0.9535  2.8793 -2.1401
 2443SOL    HW218963   1.417   1.250   5.217 -1.0800  0.1761 -0.4823
 2444SOL     OW18964   2.566   0.070   2.968  0.4702  0.1129  0.0182
 2444SOL    HW118965   2.599   0.155   2.998  0.3777  0.2818 -0.3674
 2444SOL    HW218966   2.563   0.076   2.873 -0.7700  0.0383  0.0596
 2445SOL     OW18967   3.313   0.219  14.354  0.3870  0.1817  0.3102
 2445SOL    HW118968   3.223   0.200  14.328  0.4320  0.7602 -0.2544
 2445SOL    HW218969   3.302   0.178  14.440  1.4983 -0.8589 -0.0524
 2446SOL     OW18970   1.363   4.310   5.718  0.0063  0.2855  0.4283
 2446SOL    HW118971   1.393   4.369   5.787  3.1576 -1.5667  0.6423
 2446SOL    HW218972   1.361   4.222   5.755  0.0315  1.2881  2.7984
 2447SOL     OW18973   0.356   1.497   8.101  0.1754  0.6958 -0.2311
 2447SOL    HW118974   0.407   1.480   8.180 -1.3288  0.0950  0.6072
 2447SOL    HW218975   0.279   1.441   8.104  0.8553 -0.2161  0.3088
 2448SOL     OW18976   2.423   4.027   3.169 -0.2459  0.2174 -0.1655
 2448SOL    HW118977   2.477   3.969   3.223  1.8634  1.7238 -0.6713
 2448SOL    HW218978   2.472   4.109   3.178  2.1116 -1.2723  0.4874
 2449SOL     OW18979   3.378   2.225   5.910 -0.1275 -0.7073 -0.2081
 2449SOL    HW118980   3.297   2.253   5.866  0.1667 -0.2127 -0.4245
 2449SOL    HW218981   3.437   2.194   5.842 -1.0936 -0.6096 -1.0851
 2450SOL     OW18982   2.349   0.024   5.750 -0.1988  0.5963  0.5244
 2450SOL    HW118983   2.378   4.712   5.830  0.2115  1.2340  0.7253
 2450SOL    HW218984   2.319   0.105   5.792  1.6720  1.3542  0.4309
 2451SOL     OW18985   4.086   3.729   2.374  0.0931  0.8560 -0.3519
 2451SOL    HW118986   4.082   3.764   2.285 -0.3154 -0.5483 -0.8834
 2451SOL    HW218987   4.155   3.662   2.370  0.8781  1.5997  1.0281
 2452SOL     OW18988   4.683   3.539   3.650 -0.0537  0.2590 -0.2966
 2452SOL    HW118989   4.616   3.607   3.652  0.3750  0.6911 -0.8202
 2452SOL    HW218990   4.727   3.564   3.569  2.1811 -4.1360 -0.4631
 2453SOL     OW18991   0.194   0.382   9.152 -0.4258  0.6628 -0.4161
 2453SOL    HW118992   0.149   0.306   9.116 -0.6191  0.2437  0.7204
 2453SOL    HW218993   0.132   0.430   9.206  0.3520  0.4658  0.6601
 2454SOL     OW18994   2.301   0.569  10.957  0.3022  0.3414  0.1624
 2454SOL    HW118995   2.341   0.619  11.028 -0.6892  0.8943  0.3398
 2454SOL    HW218996   2.266   0.492  11.002 -0.0600  0.9836  0.9838
 2455SOL     OW18997   0.163   3.079  14.191  0.4879 -0.2582 -0.2964
 2455SOL    HW118998   0.186   3.141  14.260 -0.0593  0.0712 -0.4106
 2455SOL    HW218999   0.100   3.129  14.139 -0.7989  1.3459  2.8364
 2456SOL     OW19000   0.165   2.132  15.797  1.0654 -0.2635  0.2178
 2456SOL    HW119001   0.208   2.050  15.822  1.2335  0.0168  0.8490
 2456SOL    HW219002   0.201   2.141  15.709  1.0995 -0.4062  0.2164
 2457SOL     OW19003   0.426   4.570   3.767  0.3355  0.1389 -0.4318
 2457SOL    HW119004   0.478   4.651   3.761 -1.0872  0.9241 -2.4421
 2457SOL    HW219005   0.408   4.560   3.674  1.0095 -1.4958 -0.3776
 2458SOL     OW19006   2.207   3.465   6.989 -0.3203 -0.6138  0.0947
 2458SOL    HW119007   2.257   3.387   7.016 -1.5253 -1.5187 -0.2626
 2458SOL    HW219008   2.144   3.471   7.061  0.9574  0.2042  1.1486
 2459SOL     OW19009   2.792   2.272   4.277  0.2541 -0.4821  0.2095
 2459SOL    HW119010   2.882   2.279   4.247 -0.3682 -2.9173 -2.1695
 2459SOL    HW219011   2.794   2.192   4.331 -2.4578 -1.0157 -0.4462
 2460SOL     OW19012   2.737   0.207   2.642  0.3270  0.0536 -0.8312
 2460SOL    HW119013   2.764   0.292   2.606 -2.0799  1.4601  0.6827
 2460SOL    HW219014   2.823   0.168   2.659 -0.5493 -1.7831 -0.6229
 2461SOL     OW19015   1.652   0.103  15.506 -0.0610  0.1917  1.0958
 2461SOL    HW119016   1.594   0.165  15.550 -0.0498  0.0218  1.3543
 2461SOL    HW219017   1.601   0.022  15.509 -1.8803  1.3732  1.7623
 2462SOL     OW19018   4.269   3.411  12.614  0.3572 -0.6912 -0.1627
 2462SOL    HW119019   4.216   3.402  12.693  1.0328 -1.1068  0.2356
 2462SOL    HW219020   4.206   3.375  12.551  0.1877 -1.9976  0.7608
 2463SOL     OW19021   2.983   2.217   4.683  0.1850 -0.3605 -0.1405
 2463SOL    HW119022   2.935   2.280   4.737 -0.7635 -1.2321  0.0439
 2463SOL    HW219023   2.961   2.141   4.737 -0.0719  2.3022  3.4469
 2464SOL     OW19024   2.280   1.410   8.177  0.2383  0.0099  0.0624
 2464SOL    HW119025   2.336   1.440   8.106 -0.0532 -0.8355 -0.5161
 2464SOL    HW219026   2.336   1.344   8.220 -1.8383 -1.9019 -0.1476
 2465SOL     OW19027   3.190   3.587   2.442 -0.4309  0.2758 -0.3101
 2465SOL    HW119028   3.209   3.527   2.514 -1.8361  0.8681  0.5400
 2465SOL    HW219029   3.206   3.526   2.369 -0.1983 -0.2328  0.1681
 2466SOL     OW19030   2.739   2.326  15.641  0.3867 -0.0336 -0.0764
 2466SOL    HW119031   2.708   2.321  15.731  0.7993  1.0445  0.1237
 2466SOL    HW219032   2.665   2.294  15.588 -0.9609 -1.8780  2.9439
 2467SOL     OW19033   2.977   1.635   7.378  0.1953 -0.7010 -0.2643
 2467SOL    HW119034   3.068   1.663   7.391 -0.3087 -0.1298  2.0612
 2467SOL    HW219035   2.942   1.643   7.467  1.9708  0.3036  0.3477
 2468SOL     OW19036   4.291   3.856   8.083  0.6947  0.1427 -0.1422
 2468SOL    HW119037   4.277   3.762   8.087 -1.8701  0.4878 -0.8194
 2468SOL    HW219038   4.355   3.876   8.151  0.4207 -0.3573  0.2687
 2469SOL     OW19039   3.591   2.651   3.268 -0.1339 -0.1638  0.2558
 2469SOL    HW119040   3.677   2.622   3.237  0.4575  1.5982  0.2359
 2469SOL    HW219041   3.580   2.722   3.205 -1.3313 -0.8719 -0.3206
 2470SOL     OW19042   1.271   3.534  10.315  0.1001 -0.0655  0.3121
 2470SOL    HW119043   1.223   3.585  10.380 -2.1833 -0.7187 -0.8605
 2470SOL    HW219044   1.259   3.598  10.245  1.2398 -0.5950 -0.3678
 2471SOL     OW19045   0.300   0.404  12.035 -0.2600 -0.2552  0.0177
 2471SOL    HW119046   0.250   0.479  12.004  1.3904  1.0797  0.5761
 2471SOL    HW219047   0.301   0.341  11.962  0.8807 -0.4108  0.1717
 2472SOL     OW19048   3.705   2.969   0.965  0.2232  0.7275 -0.8183
 2472SOL    HW119049   3.647   2.960   0.890 -2.0192 -1.3221  1.2024
 2472SOL    HW219050   3.651   2.973   1.044  1.2174 -1.4502 -0.0186
 2473SOL     OW19051   2.516   2.919   4.615 -0.5108  0.1918 -0.2613
 2473SOL    HW119052   2.514   2.840   4.668 -0.8112 -0.1962 -0.8447
 2473SOL    HW219053   2.579   2.974   4.663 -1.3760  0.8858  0.0922
 2474SOL     OW19054   2.509   3.170   4.005  0.0716  0.7328  0.2859
 2474SOL    HW119055   2.551   3.152   3.922 -1.4673  2.2076 -0.8182
 2474SOL    HW219056   2.531   3.088   4.050 -1.6858  0.8010  1.2940
 2475SOL     OW19057   3.218   1.384   5.950  0.4416 -0.3348 -0.0079
 2475SOL    HW119058   3.155   1.312   5.955  0.3936 -0.1256  2.1889
 2475SOL    HW219059   3.254   1.369   5.862 -0.4900 -0.9030 -0.2980
 2476SOL     OW19060   2.017   2.079   2.382 -0.4016  0.0333  0.1390
 2476SOL    HW119061   1.988   2.082   2.473 -1.1214  0.1699 -0.0962
 2476SOL    HW219062   2.038   1.985   2.386  1.2916  0.3372 -1.6623
 2477SOL     OW19063   4.448   1.294   1.771 -0.6955 -0.0122  0.0928
 2477SOL    HW119064   4.394   1.231   1.818 -0.8524 -0.4055 -0.6255
 2477SOL    HW219065   4.514   1.320   1.836 -0.6646  0.7032 -0.2263
 2478SOL     OW19066   3.556   4.621   4.375 -0.4170  0.1881 -0.2937
 2478SOL    HW119067   3.552   4.607   4.470  2.1100 -0.1725 -0.2468
 2478SOL    HW219068   3.641   4.663   4.362 -0.5527 -0.1175 -2.2237
 2479SOL     OW19069   2.561   2.727   4.848 -0.3539  0.3900  0.2801
 2479SOL    HW119070   2.544   2.666   4.919 -1.4825  1.6565  1.0890
 2479SOL    HW219071   2.539   2.811   4.888  0.5425  0.8959 -0.3002
 2480SOL     OW19072   0.542   0.030  13.149  0.1562 -0.8623  0.1833
 2480SOL    HW119073   0.565   4.710  13.072 -0.8595 -2.7730  1.1680
 2480SOL    HW219074   0.624   0.076  13.170  0.3482 -1.5021  0.8320
 2481SOL     OW19075   0.638   1.219  16.846 -0.2703 -0.3764 -0.4524
 2481SOL    HW119076   0.608   1.188  16.760 -0.9858 -2.3134  0.5105
 2481SOL    HW219077   0.704   1.283  16.818  0.2574 -0.4372  0.6586
 2482SOL     OW19078   1.710   1.594  11.648 -1.0352  0.1907 -0.1360
 2482SOL    HW119079   1.677   1.634  11.728 -0.1119 -0.9256  0.8057
 2482SOL    HW219080   1.628   1.550  11.627 -1.2077  0.4863 -0.0668
 2483SOL     OW19081   0.517   1.089   2.653  0.2331  0.1714  0.0494
 2483SOL    HW119082   0.451   1.146   2.614 -0.6332 -0.4278  0.6340
 2483SOL    HW219083   0.593   1.147   2.646 -0.5019  1.0376 -0.7312
 2484SOL     OW19084   4.070   1.372  12.361  0.0062 -0.4427  0.0240
 2484SOL    HW119085   4.009   1.298  12.363 -2.1198  1.3149  1.4873
 2484SOL    HW219086   4.131   1.355  12.433 -2.6328  0.9038  2.6086
 2485SOL     OW19087   0.698   4.234   3.982  0.4591 -0.0220  0.0066
 2485SOL    HW119088   0.612   4.275   3.987  0.6034  0.3814 -0.7348
 2485SOL    HW219089   0.727   4.260   3.894  4.0571  1.4715  1.6208
 2486SOL     OW19090   3.743   3.168   7.121 -0.2475 -0.2520 -0.2590
 2486SOL    HW119091   3.836   3.166   7.101  0.0312  1.3381  0.8763
 2486SOL    HW219092   3.726   3.092   7.176  0.6947  0.5042  1.0672
 2487SOL     OW19093   0.989   2.824   9.274  0.1502  0.0143  0.3312
 2487SOL    HW119094   0.933   2.763   9.322 -0.4563  1.9145  2.0162
 2487SOL    HW219095   0.940   2.845   9.194  0.7158  1.9182  0.4971
 2488SOL     OW19096   3.491   0.624   5.413 -0.2562 -0.3215  0.0719
 2488SOL    HW119097   3.560   0.684   5.386 -3.0045  3.2558  0.9042
 2488SOL    HW219098   3.445   0.665   5.487 -1.8841 -0.6054 -0.8023
 2489SOL     OW19099   2.311   2.786  11.960  0.0277 -0.0705 -0.0426
 2489SOL    HW119100   2.335   2.701  11.923  0.4542 -0.1828  0.4925
 2489SOL    HW219101   2.392   2.827  11.989  0.3668  0.4605 -1.7274
 2490SOL     OW19102   2.133   2.265   1.544  0.2812  0.1146 -0.3283
 2490SOL    HW119103   2.067   2.200   1.519 -0.2230  0.0396  1.1997
 2490SOL    HW219104   2.143   2.318   1.465  0.3495  4.5706  2.6766
 2491SOL     OW19105   0.367   2.800   7.344  0.6031 -0.0808  0.1722
 2491SOL    HW119106   0.405   2.848   7.418 -0.3742  2.8208 -1.2520
 2491SOL    HW219107   0.396   2.709   7.352  1.7603  0.4774  2.3231
 2492SOL     OW19108   1.241   0.754  17.046 -0.6548 -0.2141  0.1489
 2492SOL    HW119109   1.274   0.782  17.132  0.6356 -2.6647  0.4674
 2492SOL    HW219110   1.152   0.787  17.043 -0.4425  0.2317 -0.9691
 2493SOL     OW19111   1.892   0.213  15.835 -0.4165  0.5058 -0.4130
 2493SOL    HW119112   1.923   0.155  15.766 -2.2037 -1.1151  0.1304
 2493SOL    HW219113   1.876   0.153  15.908 -0.3639  1.8472  0.7084
 2494SOL     OW19114   1.684   0.592   4.869  0.0184  0.0183 -0.8727
 2494SOL    HW119115   1.724   0.520   4.917 -2.0415  1.0367  2.4281
 2494SOL    HW219116   1.720   0.667   4.916 -1.8628 -0.9819  2.1543
 2495SOL     OW19117   0.270   2.012   9.297 -0.3152 -0.1529  0.4234
 2495SOL    HW119118   0.228   1.952   9.358 -0.3197  0.5267  1.0912
 2495SOL    HW219119   0.265   1.954   9.221  0.4678  0.7378 -0.3092
 2496SOL     OW19120   4.134   2.866  12.919  0.3838 -0.3931 -0.2675
 2496SOL    HW119121   4.163   2.806  12.851  1.9828  0.7994 -0.6552
 2496SOL    HW219122   4.190   2.831  12.988 -1.7515 -0.9532  1.1967
 2497SOL     OW19123   4.638   2.140   9.017  0.1984  0.2912 -0.9421
 2497SOL    HW119124   4.633   2.223   8.970  1.0811  0.6550 -0.3915
 2497SOL    HW219125   4.664   2.171   9.103 -0.4083  1.0658 -1.0310
 2498SOL     OW19126   1.220   4.001   4.380 -0.3853 -0.1352 -0.1369
 2498SOL    HW119127   1.247   3.950   4.456  0.4848 -1.4279 -1.3358
 2498SOL    HW219128   1.252   4.091   4.392  0.7853 -0.7189  1.1926
 2499SOL     OW19129   0.467   1.419  11.496  0.2439 -0.0050  0.1671
 2499SOL    HW119130   0.438   1.371  11.574  1.3446 -0.4300  0.3120
 2499SOL    HW219131   0.389   1.471  11.475  1.0898  1.4376  0.6464
 2500SOL     OW19132   3.795   1.798   8.296 -0.0774  0.0999 -0.4779
 2500SOL    HW119133   3.710   1.843   8.298 -1.2261 -2.0972  1.6027
 2500SOL    HW219134   3.830   1.846   8.222  1.8951  0.5344  0.7481
 2501SOL     OW19135   1.109   3.219   6.909 -0.6111 -0.1926 -0.3837
 2501SOL    HW119136   1.015   3.212   6.926 -0.7050 -0.4830 -1.0305
 2501SOL    HW219137   1.104   3.217   6.813 -0.4921  1.9723 -0.4324
 2502SOL     OW19138   4.228   1.287   8.596 -0.0708  0.4639  0.0452
 2502SOL    HW119139   4.139   1.322   8.593 -0.6344 -0.8647  1.7681
 2502SOL    HW219140   4.223   1.192   8.588  0.1617  0.1861  3.2177
 2503SOL     OW19141   2.847   4.394   7.697 -0.0164  0.0946  0.1694
 2503SOL    HW119142   2.828   4.487   7.711  1.9097  0.3464  1.1046
 2503SOL    HW219143   2.895   4.378   7.778 -0.0138 -2.1214 -0.2876
 2504SOL     OW19144   0.627   2.026   4.610 -0.0746 -0.0228  0.8342
 2504SOL    HW119145   0.538   2.007   4.580  0.1203  1.2003 -0.4796
 2504SOL    HW219146   0.617   2.013   4.705  0.2897 -3.6392  0.4135
 2505SOL     OW19147   4.343   4.682   4.847 -0.1002  0.4791 -0.0555
 2505SOL    HW119148   4.275   4.705   4.909  1.6417  1.1488  1.5868
 2505SOL    HW219149   4.331   0.004   4.768 -0.7953 -0.2259 -0.4376
 2506SOL     OW19150   1.043   4.133  15.353 -0.0873  0.5369  0.5773
 2506SOL    HW119151   0.961   4.083  15.357  0.0266  0.7083  4.3758
 2506SOL    HW219152   1.049   4.160  15.444 -1.6775 -1.2381  1.2189
 2507SOL     OW19153   1.924   0.374   3.091 -0.6240 -0.0067 -0.0717
 2507SOL    HW119154   1.961   0.433   3.025 -0.7861 -0.2493 -0.3800
 2507SOL    HW219155   1.936   0.290   3.046  0.5125 -1.4180  2.9021
 2508SOL     OW19156   0.660   2.311   5.292 -0.3184 -0.1471 -0.1985
 2508SOL    HW119157   0.620   2.399   5.298 -1.4691 -0.7266  0.6440
 2508SOL    HW219158   0.607   2.270   5.224  1.0791 -0.9353 -0.8130
 2509SOL     OW19159   3.907   1.499   4.544 -0.8257  0.1420 -0.6944
 2509SOL    HW119160   3.990   1.500   4.496 -0.1327 -0.4245  0.4876
 2509SOL    HW219161   3.855   1.446   4.483 -1.5102 -0.2519  0.2421
 2510SOL     OW19162   0.017   4.649  13.307 -0.4887  0.0597 -0.1426
 2510SOL    HW119163   4.665   4.678  13.270 -1.3459 -0.5952  1.2753
 2510SOL    HW219164   0.072   4.727  13.301  0.8080 -0.5800  3.2742
 2511SOL     OW19165   2.817   4.293  16.085 -0.5306  0.0593 -0.0673
 2511SOL    HW119166   2.871   4.291  16.006  2.0020  1.6030  1.6406
 2511SOL    HW219167   2.736   4.256  16.048 -1.0098  2.5353 -1.4700
 2512SOL     OW19168   1.104   1.264  16.516  0.0614 -0.3437  0.5267
 2512SOL    HW119169   1.075   1.174  16.502  0.5123 -0.2331 -1.1293
 2512SOL    HW219170   1.049   1.317  16.458 -0.5013 -0.9582  0.5017
 2513SOL     OW19171   2.240   4.342   6.687  0.0473  0.1337  0.0325
 2513SOL    HW119172   2.293   4.355   6.765 -1.9682 -3.0574  1.9282
 2513SOL    HW219173   2.157   4.371   6.725  0.1373  0.0448  0.2928
 2514SOL     OW19174   1.385   0.788   6.257 -0.1556 -0.2876  0.1850
 2514SOL    HW119175   1.306   0.745   6.288 -0.5057 -1.1590 -1.8953
 2514SOL    HW219176   1.457   0.758   6.312  0.8928  3.3738  0.8293
 2515SOL     OW19177   2.700   2.716   6.205  0.0221 -0.2169 -0.0528
 2515SOL    HW119178   2.672   2.642   6.151  0.1662  0.8924 -1.6489
 2515SOL    HW219179   2.784   2.681   6.235 -0.2296  0.6881  1.7090
 2516SOL     OW19180   1.109   2.299  17.698  0.2579  0.2366  0.2322
 2516SOL    HW119181   1.185   2.277  17.645 -0.7391  0.9782 -1.5104
 2516SOL    HW219182   1.067   2.213  17.697 -0.0517  0.3892  0.1664
 2517SOL     OW19183   0.501   1.936   3.693 -0.0678 -0.2359  0.1786
 2517SOL    HW119184   0.554   1.899   3.622  1.3138 -2.2223  2.2237
 2517SOL    HW219185   0.425   1.975   3.650 -1.9858 -2.4861  1.5131
 2518SOL     OW19186   0.641   4.081   5.482  0.0104  0.1550 -0.1653
 2518SOL    HW119187   0.705   4.014   5.457  1.8600  0.9327  2.4338
 2518SOL    HW219188   0.699   4.146   5.521  0.9602 -1.0332  0.4365
 2519SOL     OW19189   0.993   2.958   8.196  0.0436 -0.2199  0.0175
 2519SOL    HW119190   0.990   3.050   8.172 -0.4749 -0.4092 -0.6333
 2519SOL    HW219191   0.899   2.949   8.210  0.0459  0.4752  0.4880
 2520SOL     OW19192   3.774   1.094   3.544 -0.4700 -0.5161  0.4581
 2520SOL    HW119193   3.826   1.114   3.466  1.7778 -0.8915  1.8667
 2520SOL    HW219194   3.769   1.001   3.523  1.3564 -0.7166  0.9179
 2521SOL     OW19195   1.889   2.447  14.397 -0.2230  0.0122  0.0068
 2521SOL    HW119196   1.859   2.502  14.470 -0.5076  2.2204 -1.7800
 2521SOL    HW219197   1.806   2.427  14.355  0.7318 -2.4403 -0.6867
 2522SOL     OW19198   1.050   1.217   0.839  0.2383 -0.4432  0.3790
 2522SOL    HW119199   1.025   1.305   0.809  1.1029  0.5364  2.5172
 2522SOL    HW219200   1.013   1.162   0.770  0.8600 -0.2395 -0.1199
 2523SOL     OW19201   1.205   1.617   6.576 -0.2282 -0.3361 -0.0645
 2523SOL    HW119202   1.203   1.697   6.523  0.5589 -0.0842  0.2849
 2523SOL    HW219203   1.149   1.651   6.646  1.6165  0.0810  1.2034
 2524SOL     OW19204   3.452   1.969   2.731 -0.1616  0.5947 -0.7079
 2524SOL    HW119205   3.538   2.010   2.716 -0.7526  2.1171  0.0882
 2524SOL    HW219206   3.404   1.982   2.649  0.0274 -3.1801 -1.4178
 2525SOL     OW19207   0.378   4.660   3.184 -0.2549 -0.2295  0.0388
 2525SOL    HW119208   0.457   4.685   3.136 -0.6598  1.5464  0.2904
 2525SOL    HW219209   0.337   0.015   3.176  0.2636  0.0496  0.3809
 2526SOL     OW19210   2.758   0.336   5.419  0.0061 -0.7628 -0.3382
 2526SOL    HW119211   2.841   0.313   5.377  0.1630  0.0514 -0.4806
 2526SOL    HW219212   2.797   0.360   5.504  0.7656  3.3472 -1.8429
 2527SOL     OW19213   1.789   1.088  13.800 -0.1932 -0.0306  0.5416
 2527SOL    HW119214   1.694   1.087  13.809 -0.1545 -0.6844  0.8956
 2527SOL    HW219215   1.815   1.052  13.885  2.4316  0.1360 -0.1885
 2528SOL     OW19216   0.754   1.179   2.003  0.0320 -0.1110 -0.1224
 2528SOL    HW119217   0.692   1.237   1.959 -0.3934 -0.6284 -0.1973
 2528SOL    HW219218   0.747   1.201   2.095  0.6013 -1.2439  0.1891
 2529SOL     OW19219   4.140   4.475   2.095 -0.0954  0.0716  0.1802
 2529SOL    HW119220   4.105   4.531   2.165  0.7408 -1.3197  1.7007
 2529SOL    HW219221   4.177   4.540   2.035  2.6300 -0.1328  1.6126
 2530SOL     OW19222   2.579   4.505  16.250 -0.5217 -0.4812 -0.3135
 2530SOL    HW119223   2.564   4.558  16.328  1.4540  0.7012 -0.7414
 2530SOL    HW219224   2.561   4.423  16.296  0.9537 -2.5751 -3.4478
 2531SOL     OW19225   0.566   0.993   5.195  0.3285  0.0829 -0.1394
 2531SOL    HW119226   0.658   1.017   5.204  0.1104  0.7424  0.3986
 2531SOL    HW219227   0.560   0.970   5.103  0.8396  0.1742 -0.1957
 2532SOL     OW19228   1.877   2.938   4.153  0.1320  0.2199 -0.6414
 2532SOL    HW119229   1.969   2.922   4.133 -0.2670  0.4215 -2.6238
 2532SOL    HW219230   1.836   2.879   4.091 -3.9629  0.9788  1.3522
 2533SOL     OW19231   1.408   1.456  13.754 -0.0731 -0.0817 -0.9918
 2533SOL    HW119232   1.320   1.418  13.751 -0.7930  1.4882  0.4926
 2533SOL    HW219233   1.414   1.495  13.667  0.8649  1.2704 -0.3188
 2534SOL     OW19234   4.537   4.023   0.327  0.1498 -0.3059  0.4142
 2534SOL    HW119235   4.627   4.056   0.333  0.8960 -1.7345 -2.6222
 2534SOL    HW219236   4.491   4.105   0.315 -0.3866 -0.8411 -1.1842
 2535SOL     OW19237   4.622   1.289   7.537  0.4722 -0.2631 -0.2395
 2535SOL    HW119238   4.657   1.221   7.480 -0.5507 -0.6953 -0.3502
 2535SOL    HW219239   4.656   1.277   7.626 -0.3752  0.9706  0.2614
 2536SOL     OW19240   2.626   1.318  14.872  0.3753  0.7585  0.1298
 2536SOL    HW119241   2.673   1.371  14.936  1.2468 -0.8880  0.8518
 2536SOL    HW219242   2.668   1.344  14.790  0.0701  1.5583  0.2350
 2537SOL     OW19243   4.563   3.614  11.807 -0.1542  0.4375 -0.2175
 2537SOL    HW119244   4.576   3.530  11.763  0.5545 -0.2009  1.2282
 2537SOL    HW219245   4.568   3.595  11.900  0.3357  1.3002 -0.0771
 2538SOL     OW19246   2.353   2.895   2.576  0.2997  0.5145  0.4151
 2538SOL    HW119247   2.281   2.937   2.622 -1.5177  0.8569 -2.7662
 2538SOL    HW219248   2.315   2.808   2.569 -0.5505  1.1066 -2.1314
 2539SOL     OW19249   1.074   1.080  15.276  0.4229 -0.4431  0.2251
 2539SOL    HW119250   1.125   1.098  15.354  0.4074  1.3122 -0.1470
 2539SOL    HW219251   1.029   1.004  15.312  0.3127 -0.0695  0.8731
 2540SOL     OW19252   4.672   0.681   6.332 -0.3548 -0.0350  0.0206
 2540SOL    HW119253   4.590   0.708   6.372  0.0419  0.1189  0.7428
 2540SOL    HW219254   4.724   0.755   6.363 -2.0287  0.7974  0.8439
 2541SOL     OW19255   4.473   0.745   5.499 -0.5381 -0.3880  0.0602
 2541SOL    HW119256   4.563   0.772   5.516 -0.7736  0.9712 -0.7954
 2541SOL    HW219257   4.436   0.830   5.525  0.0845 -0.5396  1.4347
 2542SOL     OW19258   2.874   3.699   7.861 -0.8829  0.4862  0.7215
 2542SOL    HW119259   2.928   3.737   7.931 -1.5029  1.2822  0.7650
 2542SOL    HW219260   2.894   3.605   7.860 -1.5838  0.3048  2.7059
 2543SOL     OW19261   0.453   2.881   4.929  0.2408 -0.0662 -0.1431
 2543SOL    HW119262   0.470   2.801   4.878  1.5389  1.4198 -2.0317
 2543SOL    HW219263   0.371   2.903   4.885  1.0749 -1.7286 -2.5408
 2544SOL     OW19264   4.175   3.054   3.493 -0.2057  0.5630  0.2230
 2544SOL    HW119265   4.103   3.057   3.429 -1.3697  1.2406  1.5648
 2544SOL    HW219266   4.248   3.026   3.437  0.4075  3.8994 -0.6390
 2545SOL     OW19267   4.613   2.844  13.070  0.1591  0.4175 -0.1573
 2545SOL    HW119268   4.665   2.783  13.123  0.0733  0.7911  0.3604
 2545SOL    HW219269   4.663   2.925  13.074  0.7906 -0.0301  0.9564
 2546SOL     OW19270   4.173   0.719  15.923 -0.4016 -0.0171  0.3956
 2546SOL    HW119271   4.104   0.737  15.859 -0.7697 -1.3930  0.4013
 2546SOL    HW219272   4.193   0.813  15.928  1.4598 -0.4171  0.3086
 2547SOL     OW19273   2.657   0.494   6.018  0.2061 -0.2051  0.4260
 2547SOL    HW119274   2.681   0.530   6.103  0.1081 -0.7069  0.6684
 2547SOL    HW219275   2.621   0.568   5.969  0.5576  0.0422  0.5405
 2548SOL     OW19276   3.387   1.601   7.542  0.0695  0.3621 -0.6013
 2548SOL    HW119277   3.436   1.530   7.583 -0.4738  0.2466 -0.1482
 2548SOL    HW219278   3.418   1.598   7.452  3.5558  0.2572  0.6051
 2549SOL     OW19279   0.946   1.642   9.474  0.1293 -0.4193  0.1948
 2549SOL    HW119280   0.994   1.563   9.499  0.6202  0.7512  2.9459
 2549SOL    HW219281   0.984   1.712   9.527 -0.2808 -0.7799  0.9629
 2550SOL     OW19282   1.121   3.391   2.122 -0.3092  0.0656 -0.3348
 2550SOL    HW119283   1.165   3.437   2.194  2.0390  0.0693 -1.7644
 2550SOL    HW219284   1.039   3.439   2.130  1.2136  2.5563  0.3642
 2551SOL     OW19285   3.842   1.620   9.634  0.1555 -0.0997 -0.4752
 2551SOL    HW119286   3.911   1.568   9.675 -0.9601 -0.9657  0.2945
 2551SOL    HW219287   3.890   1.698   9.604 -1.1632  0.7802 -0.3245
 2552SOL     OW19288   4.535   4.505   8.537  0.0541 -0.3222  0.3209
 2552SOL    HW119289   4.542   4.413   8.560  0.7144 -0.1036  1.0087
 2552SOL    HW219290   4.495   4.486   8.452  0.3539  3.2351 -0.6397
 2553SOL     OW19291   3.269   0.325  13.167  0.1789  0.2064  0.2163
 2553SOL    HW119292   3.249   0.404  13.117  1.9862 -0.0353 -0.8765
 2553SOL    HW219293   3.191   0.274  13.142  1.6025 -1.7032 -0.3651
 2554SOL     OW19294   1.146   4.466   2.278 -0.2776  0.5073  0.0789
 2554SOL    HW119295   1.176   4.484   2.367 -0.5909  1.6400 -0.0357
 2554SOL    HW219296   1.222   4.414   2.250 -0.8198  1.0695 -2.4359
 2555SOL     OW19297   2.070   2.722   1.678 -0.1094 -0.2269  0.3882
 2555SOL    HW119298   1.977   2.741   1.685 -0.6016 -1.7949 -1.7733
 2555SOL    HW219299   2.091   2.739   1.769  0.6998 -0.1775  0.1941
 2556SOL     OW19300   1.573   4.262   8.652 -0.2558  0.3087  0.0347
 2556SOL    HW119301   1.536   4.349   8.662 -2.7783 -0.3135 -3.7920
 2556SOL    HW219302   1.637   4.270   8.581 -0.3909  3.2703  0.2739
 2557SOL     OW19303   2.308   1.731  14.960 -0.4322  0.0864  0.4741
 2557SOL    HW119304   2.334   1.821  14.939 -1.0724  0.6333  2.0926
 2557SOL    HW219305   2.320   1.736  15.055 -0.0777  0.2616  0.4201
 2558SOL     OW19306   3.796   1.889   4.540  0.4870 -0.6501  0.7917
 2558SOL    HW119307   3.719   1.945   4.551  0.6475 -0.4552  0.9299
 2558SOL    HW219308   3.777   1.806   4.585 -0.0365  0.0859  1.9167
 2559SOL     OW19309   3.912   0.371   6.316  0.1405 -0.2260  0.1136
 2559SOL    HW119310   3.840   0.430   6.293  0.1397  0.4151  1.7512
 2559SOL    HW219311   3.909   0.368   6.412  2.8222  0.3519  0.2151
 2560SOL     OW19312   4.649   4.635   8.149  0.0431 -0.3060  0.1839
 2560SOL    HW119313   4.658   4.725   8.119 -2.7614  1.1445  3.6477
 2560SOL    HW219314   4.604   4.648   8.232 -0.4811 -0.1444 -0.1204
 2561SOL     OW19315   3.881   4.218   6.019 -0.0671 -0.5853 -0.6787
 2561SOL    HW119316   3.827   4.285   5.975  1.3338  0.4167 -0.8647
 2561SOL    HW219317   3.811   4.169   6.061  2.2318 -2.5611  0.8402
 2562SOL     OW19318   4.680   2.687   1.644  0.4421 -0.7825 -0.4022
 2562SOL    HW119319   4.717   2.770   1.614 -1.5444  0.4635  0.5393
 2562SOL    HW219320   4.602   2.708   1.696  0.0327  0.4309 -1.4978
 2563SOL     OW19321   2.706   3.474  15.114  0.1653  0.6934 -0.2075
 2563SOL    HW119322   2.660   3.549  15.152  1.8997  1.7295 -0.1739
 2563SOL    HW219323   2.708   3.410  15.185 -0.4171 -0.6102 -1.3665
 2564SOL     OW19324   0.484   1.096   3.408 -0.1068 -0.1907  0.2498
 2564SOL    HW119325   0.546   1.166   3.431 -1.4299  0.7682  0.8690
 2564SOL    HW219326   0.541   1.031   3.366  0.5008  0.5497 -0.0927
 2565SOL     OW19327   2.555   4.442   2.841 -0.0588 -0.7060  0.0032
 2565SOL    HW119328   2.587   4.481   2.922 -0.5446 -1.2701  0.4659
 2565SOL    HW219329   2.468   4.482   2.843  2.2411  4.4426 -2.0443
 2566SOL     OW19330   3.903   3.270   5.304 -0.1390 -0.2048 -0.0034
 2566SOL    HW119331   3.942   3.290   5.389  0.6793 -0.1800 -0.3758
 2566SOL    HW219332   3.893   3.175   5.310  0.3988 -0.3048 -0.6119
 2567SOL     OW19333   2.459   2.178   1.914  0.7634 -0.0660 -0.3136
 2567SOL    HW119334   2.435   2.119   1.985 -0.5355 -2.0719 -2.4250
 2567SOL    HW219335   2.375   2.188   1.869 -0.6256 -0.4110  2.1831
 2568SOL     OW19336   4.409   1.127   0.087  0.2980  0.2543 -0.1516
 2568SOL    HW119337   4.321   1.110   0.053 -0.7877  2.8508  1.4084
 2568SOL    HW219338   4.385   1.203   0.140  2.0169  0.3722  0.4602
 2569SOL     OW19339   3.476   2.370  11.918 -0.1086  0.2518 -0.0811
 2569SOL    HW119340   3.419   2.341  11.988 -0.8077  1.0723 -0.3237
 2569SOL    HW219341   3.404   2.396  11.861  0.0539 -2.0856 -1.3972
 2570SOL     OW19342   2.488   1.662   8.451  0.0874  0.2813  0.1950
 2570SOL    HW119343   2.566   1.634   8.404  0.6660  0.3141  1.1263
 2570SOL    HW219344   2.465   1.737   8.397  0.0657  1.2362  1.5495
 2571SOL     OW19345   1.518   3.386   0.208 -0.2758  0.2468  0.4446
 2571SOL    HW119346   1.464   3.375   0.287  0.9988 -1.2548  1.0977
 2571SOL    HW219347   1.586   3.438   0.250 -0.6900  0.7791  0.4636
 2572SOL     OW19348   1.189   4.332   6.425  0.0264 -0.2876  0.1593
 2572SOL    HW119349   1.280   4.343   6.453 -0.4198  3.2025  0.2011
 2572SOL    HW219350   1.158   4.270   6.491 -1.4863 -0.7841 -1.0246
 2573SOL     OW19351   3.509   0.025   3.955  0.7925  0.3281 -0.2060
 2573SOL    HW119352   3.600   0.002   3.975 -0.0014 -2.4513  0.3420
 2573SOL    HW219353   3.462   4.700   4.017 -1.9122  0.5044 -2.1089
 2574SOL     OW19354   1.373   2.848   2.370 -0.1193  0.5648  0.3771
 2574SOL    HW119355   1.463   2.869   2.347 -0.3892  1.2666 -0.0258
 2574SOL    HW219356   1.379   2.784   2.441  0.6470  0.8013  0.5236
 2575SOL     OW19357   2.939   0.505   7.650 -0.0916  0.0671  0.4617
 2575SOL    HW119358   2.849   0.515   7.619 -1.9194  0.5194  5.9753
 2575SOL    HW219359   2.946   0.566   7.724 -2.2266 -0.9318  1.4572
 2576SOL     OW19360   2.386   3.752   7.173  0.1417 -0.0915 -0.4664
 2576SOL    HW119361   2.331   3.682   7.208  1.6686 -0.5387  1.0297
 2576SOL    HW219362   2.456   3.740   7.237  1.4542 -0.1498 -1.9253
 2577SOL     OW19363   0.834   3.001   1.540 -0.0604 -0.9534 -0.1752
 2577SOL    HW119364   0.779   2.934   1.581 -0.1253 -0.9652 -0.2790
 2577SOL    HW219365   0.886   2.948   1.479  0.8084  1.4497 -1.5430
 2578SOL     OW19366   3.490   4.025   7.836 -0.4426 -0.3746  0.5251
 2578SOL    HW119367   3.527   4.106   7.872 -1.9730  0.2750  0.6179
 2578SOL    HW219368   3.435   4.003   7.911 -1.8746  0.9104 -0.1390
 2579SOL     OW19369   0.237   1.706   9.957  0.3874  0.4020 -0.0859
 2579SOL    HW119370   0.322   1.691  10.000  1.3325 -1.7722 -2.6922
 2579SOL    HW219371   0.252   1.641   9.889  2.9493  1.2840 -0.3672
 2580SOL     OW19372   1.431   1.498   3.344 -0.1787  0.0460 -0.2427
 2580SOL    HW119373   1.404   1.466   3.258  0.6820  2.4754 -1.4036
 2580SOL    HW219374   1.446   1.420   3.397 -0.6664 -0.9154 -1.5366
 2581SOL     OW19375   0.886   0.998   4.037  0.2076  0.7218  0.1719
 2581SOL    HW119376   0.863   0.933   3.970 -0.2434 -0.4123  1.4336
 2581SOL    HW219377   0.806   1.050   4.048 -1.6170 -1.6039 -1.9226
 2582SOL     OW19378   2.335   3.138   3.359  0.5716 -0.7279  0.3981
 2582SOL    HW119379   2.416   3.088   3.347  1.6255  0.8038  1.1443
 2582SOL    HW219380   2.344   3.162   3.451 -0.2616  1.3314 -0.0488
 2583SOL     OW19381   3.272   0.842   4.135  0.6771  0.3648 -0.2298
 2583SOL    HW119382   3.320   0.762   4.109 -0.3824 -0.1921 -0.4636
 2583SOL    HW219383   3.311   0.908   4.078  0.3024 -0.5528 -1.5707
 2584SOL     OW19384   1.141   4.036   5.168  0.3811  0.6992  0.8780
 2584SOL    HW119385   1.129   4.097   5.241 -1.6189  2.7017 -1.1710
 2584SOL    HW219386   1.236   4.025   5.170  0.4541  1.1861 -0.3402
 2585SOL     OW19387   3.424   3.040   3.802 -0.1068  0.6944 -0.8269
 2585SOL    HW119388   3.365   3.110   3.832  0.6570  1.0940 -0.2556
 2585SOL    HW219389   3.483   3.098   3.753  2.0534 -1.4641 -0.7851
 2586SOL     OW19390   2.946   1.374   2.727 -0.4859 -0.6930 -0.2264
 2586SOL    HW119391   2.865   1.331   2.699 -1.0930 -0.9807  1.9657
 2586SOL    HW219392   3.007   1.303   2.706  0.1192  0.0465 -0.9510
 2587SOL     OW19393   4.266   0.437   4.877  0.0475 -0.7179  0.1415
 2587SOL    HW119394   4.245   0.526   4.906  2.4137  0.1435 -0.7716
 2587SOL    HW219395   4.323   0.460   4.804 -1.1390  1.4314 -0.1068
 2588SOL     OW19396   3.837   1.261  12.099  0.5716 -0.3543 -0.5217
 2588SOL    HW119397   3.882   1.252  12.183  0.1519  2.1039 -0.0149
 2588SOL    HW219398   3.826   1.170  12.072  0.7791  0.0386 -1.9310
 2589SOL     OW19399   3.189   0.082   6.136  0.4673  0.2010 -0.7153
 2589SOL    HW119400   3.273   0.129   6.132  0.2473  0.5465 -1.2720
 2589SOL    HW219401   3.212   4.721   6.129 -0.8465 -0.2585  1.1412
 2590SOL     OW19402   1.703   3.253   8.382  0.3870  0.5028 -0.1660
 2590SOL    HW119403   1.623   3.302   8.358  0.1385  1.0569  1.8001
 2590SOL    HW219404   1.721   3.300   8.464 -0.4153  2.0248 -0.8521
 2591SOL     OW19405   1.611   1.522   3.804  0.0242 -0.0844 -0.0072
 2591SOL    HW119406   1.564   1.584   3.859 -1.5414 -0.5216 -0.8438
 2591SOL    HW219407   1.577   1.444   3.846  1.5681 -0.0152  1.3569
 2592SOL     OW19408   0.515   0.692   8.785  0.5496  0.0707  0.5173
 2592SOL    HW119409   0.452   0.629   8.821  0.4575 -0.0587  0.1339
 2592SOL    HW219410   0.595   0.643   8.769 -0.6805 -1.6986 -0.2092
 2593SOL     OW19411   2.032   1.257   6.436  0.9330 -0.9864 -0.4595
 2593SOL    HW119412   2.024   1.165   6.460 -4.3969 -0.3882  0.0919
 2593SOL    HW219413   2.127   1.270   6.435  1.0050 -1.3589  1.0519
 2594SOL     OW19414   1.394   2.230   9.997 -0.1075 -0.1878  0.3683
 2594SOL    HW119415   1.388   2.135  10.010 -0.5614 -0.5023 -2.0218
 2594SOL    HW219416   1.438   2.222   9.912 -4.5121  3.6496 -2.2913
 2595SOL     OW19417   1.490   1.063   4.698  0.2261 -0.3228  0.0343
 2595SOL    HW119418   1.531   1.007   4.632  3.2613 -1.0805  2.5369
 2595SOL    HW219419   1.395   1.057   4.684  0.2507  0.3100 -0.3690
 2596SOL     OW19420   0.029   2.607  12.853 -0.2481 -0.3304 -0.1921
 2596SOL    HW119421   4.670   2.639  12.841 -0.4018  0.7345  3.7661
 2596SOL    HW219422   0.080   2.682  12.826 -1.4704  0.9352  0.9825
 2597SOL     OW19423   2.546   2.060   6.348 -0.0917 -0.0917  0.2897
 2597SOL    HW119424   2.601   2.136   6.365 -2.2943  1.9833 -1.8809
 2597SOL    HW219425   2.482   2.094   6.286 -0.9062 -1.3229  0.4501
 2598SOL     OW19426   2.608   3.120   3.735 -0.1319  0.0579  0.4037
 2598SOL    HW119427   2.642   3.191   3.681  0.6497  0.4399  1.3863
 2598SOL    HW219428   2.685   3.072   3.765  0.2104  1.5199  1.9091
 2599SOL     OW19429   4.689   4.243   9.395  0.3343  0.0947  0.3408
 2599SOL    HW119430   4.671   4.317   9.452  0.5214 -1.0162  1.8453
 2599SOL    HW219431   4.599   4.235   9.364  0.2048  0.6438  0.5765
 2600SOL     OW19432   1.371   1.750   2.425  0.4783  0.2927  0.0540
 2600SOL    HW119433   1.288   1.797   2.428 -0.4163 -1.3796  1.1430
 2600SOL    HW219434   1.431   1.812   2.466  0.8954 -0.4491  0.5790
 2601SOL     OW19435   0.689   4.216   1.119 -0.0510 -0.6317 -0.3729
 2601SOL    HW119436   0.704   4.161   1.196  0.6074 -0.7958 -0.6150
 2601SOL    HW219437   0.627   4.161   1.071 -0.6559 -0.4685  0.2208
 2602SOL     OW19438   3.510   1.369   7.662  0.4265 -0.2700  0.4374
 2602SOL    HW119439   3.480   1.290   7.617 -2.8664  0.5444  1.2048
 2602SOL    HW219440   3.590   1.333   7.700  1.7061 -1.4175 -3.3616
 2603SOL     OW19441   3.800   0.733   3.842 -0.2269  0.1642  0.2629
 2603SOL    HW119442   3.745   0.689   3.777  2.5497 -0.5493 -1.6146
 2603SOL    HW219443   3.739   0.783   3.896 -1.2411  0.5505 -1.2548
 2604SOL     OW19444   3.512   1.838   3.494 -0.3146 -0.0964 -0.4583
 2604SOL    HW119445   3.533   1.915   3.442  0.7900 -0.3918 -0.4455
 2604SOL    HW219446   3.555   1.769   3.444 -2.0299 -0.2983 -1.6536
 2605SOL     OW19447   3.164   2.486   4.979 -0.1183 -0.0464 -0.0661
 2605SOL    HW119448   3.259   2.490   4.968  0.1201 -0.4823  1.9085
 2605SOL    HW219449   3.153   2.397   5.013 -0.9760  0.1337  0.1074
 2606SOL     OW19450   0.540   4.532   5.164 -0.2202  0.0539 -0.1228
 2606SOL    HW119451   0.568   4.600   5.103  1.6735  0.7289  1.4926
 2606SOL    HW219452   0.614   4.537   5.225 -0.2401  0.0903 -0.1011
 2607SOL     OW19453   4.007   0.469  14.789 -0.2138  0.1066 -0.1739
 2607SOL    HW119454   3.935   0.414  14.759  1.3623 -2.2002  0.2514
 2607SOL    HW219455   4.019   0.429  14.876 -0.0001  2.5952  0.9408
 2608SOL     OW19456   0.897   1.457   5.516  0.2690  0.1882 -0.2674
 2608SOL    HW119457   0.987   1.449   5.485  1.0657 -1.3212  2.4902
 2608SOL    HW219458   0.919   1.506   5.595  2.7909 -2.7790  0.8859
 2609SOL     OW19459   4.637   4.407   4.824 -0.0674 -0.4936 -0.6407
 2609SOL    HW119460   4.717   4.361   4.800 -0.2971 -0.8701 -0.6771
 2609SOL    HW219461   4.670   4.484   4.871 -1.6156 -0.4579  0.4005
 2610SOL     OW19462   2.230   3.857   8.832 -0.0001 -0.3616 -0.2448
 2610SOL    HW119463   2.184   3.938   8.810  0.5731 -0.1841 -0.7957
 2610SOL    HW219464   2.267   3.843   8.745 -0.0821  0.7102 -0.4475
 2611SOL     OW19465   2.032   0.827  13.563  0.5544 -0.3138  0.6890
 2611SOL    HW119466   2.097   0.889  13.597  0.9750 -0.9334  1.0256
 2611SOL    HW219467   2.056   0.743  13.603 -1.5305 -2.0467 -1.6779
 2612SOL     OW19468   2.645   2.753   3.246  0.0644 -0.0436  0.1883
 2612SOL    HW119469   2.654   2.690   3.175 -0.5890 -1.0143  0.9586
 2612SOL    HW219470   2.728   2.799   3.236 -1.5172  2.5746 -0.9816
 2613SOL     OW19471   4.573   3.003   9.225 -1.0079  0.0945  0.6061
 2613SOL    HW119472   4.659   3.004   9.267 -0.5767  0.8920 -0.2960
 2613SOL    HW219473   4.576   3.090   9.186 -0.7468  0.4875  1.5127
 2614SOL     OW19474   4.565   0.806   9.946 -0.4022 -0.1969 -0.0793
 2614SOL    HW119475   4.515   0.809  10.028  2.8235  0.5337  1.8690
 2614SOL    HW219476   4.656   0.802   9.977  0.4039 -1.8522 -2.6404
 2615SOL     OW19477   4.698   1.081  16.998 -0.2259  0.0614  0.0481
 2615SOL    HW119478   4.659   1.160  16.959  0.9423  1.3531  1.5121
 2615SOL    HW219479   0.022   1.040  16.931 -1.8337  0.0410 -1.2708
 2616SOL     OW19480   3.710   1.880  11.764 -0.5043 -0.8217 -0.5387
 2616SOL    HW119481   3.748   1.927  11.838  1.6225 -0.6394 -1.7261
 2616SOL    HW219482   3.654   1.813  11.802 -0.2914  0.1388  1.4386
 2617SOL     OW19483   3.469   0.995   8.453 -0.2417  0.2570  0.2136
 2617SOL    HW119484   3.442   0.909   8.485  0.4771  0.6099  1.7521
 2617SOL    HW219485   3.516   1.021   8.532 -0.2102 -1.1695  0.6772
 2618SOL     OW19486   1.156   2.864  15.003  0.5105  0.2433  0.3065
 2618SOL    HW119487   1.078   2.815  14.977  1.3693 -1.1546  0.3956
 2618SOL    HW219488   1.151   2.939  14.944  1.1129 -0.8361 -1.1146
 2619SOL     OW19489   0.806   4.287   4.551  0.0824 -0.0616  0.4227
 2619SOL    HW119490   0.870   4.312   4.484 -0.0013 -2.4285 -0.5471
 2619SOL    HW219491   0.843   4.217   4.604  0.9939 -0.5315 -0.8201
 2620SOL     OW19492   1.157   3.344  10.503  0.1485  0.5641 -0.0738
 2620SOL    HW119493   1.080   3.397  10.484 -0.9126 -0.8856  0.1094
 2620SOL    HW219494   1.222   3.408  10.476 -0.1590  2.1632  2.9388
 2621SOL     OW19495   1.492   1.942   4.923 -0.5252  0.1269 -0.5277
 2621SOL    HW119496   1.434   1.949   4.999 -1.6871  0.7413 -1.4804
 2621SOL    HW219497   1.418   1.928   4.865 -1.1744 -0.6964  0.4979
 2622SOL     OW19498   0.670   0.139   9.484 -0.5416  0.4129  0.1383
 2622SOL    HW119499   0.733   0.123   9.413  0.4579  0.5735  0.9874
 2622SOL    HW219500   0.587   0.107   9.448 -0.5518 -0.5579  1.0222
 2623SOL     OW19501   1.243   0.907   1.646  0.4228  0.4000  0.0877
 2623SOL    HW119502   1.193   0.828   1.661 -1.8074  1.5523 -1.3637
 2623SOL    HW219503   1.180   0.979   1.650 -0.2508 -0.3355  2.9038
 2624SOL     OW19504   3.487   4.204  15.063 -0.0137  0.8765  0.6844
 2624SOL    HW119505   3.479   4.142  14.991  1.9266  0.6185  0.6916
 2624SOL    HW219506   3.464   4.283  15.015 -2.1554  1.4569  2.6896
 2625SOL     OW19507   0.646   2.012   6.424  0.2139  0.0549 -0.3235
 2625SOL    HW119508   0.599   2.092   6.401  1.9129  0.8563 -0.9489
 2625SOL    HW219509   0.701   1.985   6.351  0.0353  0.3425 -0.5620
 2626SOL     OW19510   3.478   3.437  12.639 -0.1456  0.4312  0.4252
 2626SOL    HW119511   3.471   3.531  12.628  0.7197  0.5219  0.6916
 2626SOL    HW219512   3.525   3.436  12.722  1.3044  1.0865 -0.4101
 2627SOL     OW19513   1.585   1.322   4.635  0.2021 -0.6212  0.2452
 2627SOL    HW119514   1.549   1.399   4.679  1.9325 -0.5323  1.4956
 2627SOL    HW219515   1.536   1.246   4.666 -2.7882  1.5211  0.7363
 2628SOL     OW19516   0.372   2.741   3.226  0.5717 -0.1607  0.1016
 2628SOL    HW119517   0.299   2.718   3.169  0.9954  0.4207 -0.6732
 2628SOL    HW219518   0.420   2.803   3.171  1.8546 -2.0505 -0.9088
 2629SOL     OW19519   3.469   2.647   8.615 -0.1923 -0.0047  0.8409
 2629SOL    HW119520   3.555   2.678   8.588 -1.4594  1.5512 -1.3802
 2629SOL    HW219521   3.479   2.637   8.710  1.0435 -2.5936  0.4436
 2630SOL     OW19522   0.297   3.999   3.853  0.3202  0.5704 -0.3796
 2630SOL    HW119523   0.229   3.934   3.874  1.7186 -0.6371  0.3728
 2630SOL    HW219524   0.254   4.056   3.789  3.5493 -0.4044 -3.4355
 2631SOL     OW19525   2.961   1.525  13.203 -0.4676 -0.1503 -0.4274
 2631SOL    HW119526   2.917   1.610  13.210 -0.0422  0.0748 -0.4925
 2631SOL    HW219527   2.916   1.472  13.268  0.8214 -0.1113  0.4931
 2632SOL     OW19528   4.539   1.265   1.532  0.1034  0.0363 -0.1712
 2632SOL    HW119529   4.455   1.288   1.493 -0.4211  1.2490  1.6785
 2632SOL    HW219530   4.514   1.292   1.621  0.1841  1.0184 -0.4587
 2633SOL     OW19531   2.893   3.519  14.903  0.6329 -0.7457  0.0982
 2633SOL    HW119532   2.836   3.496  14.976  1.5833 -0.4391  0.9333
 2633SOL    HW219533   2.883   3.614  14.904 -2.0804 -1.0386  0.8220
 2634SOL     OW19534   2.913   2.112  10.350  0.2323 -1.0416 -0.0065
 2634SOL    HW119535   2.906   2.125  10.445 -0.6423  0.4965 -0.2909
 2634SOL    HW219536   2.828   2.076  10.327 -0.3245  0.0411  0.3756
 2635SOL     OW19537   0.589   2.280   3.038  0.0603 -0.4956 -0.5319
 2635SOL    HW119538   0.581   2.375   3.033  1.4993 -0.3762 -0.6359
 2635SOL    HW219539   0.537   2.251   2.964  0.1016 -1.4162 -0.2040
 2636SOL     OW19540   1.117   1.588   2.074 -0.0259  0.7353 -0.0311
 2636SOL    HW119541   1.141   1.611   1.985  3.1901 -0.7058  0.4647
 2636SOL    HW219542   1.203   1.597   2.115 -0.2672 -0.8042  0.8049
 2637SOL     OW19543   0.067   1.583  13.047  0.1686 -0.0936  0.7752
 2637SOL    HW119544   0.149   1.538  13.027 -0.2367 -0.2392 -0.5688
 2637SOL    HW219545   0.005   1.517  13.019  0.0955  0.0906  0.5041
 2638SOL     OW19546   1.744   1.708   8.059  0.3820  0.3591  0.1552
 2638SOL    HW119547   1.778   1.777   8.116  0.8970 -0.9355  1.4460
 2638SOL    HW219548   1.792   1.729   7.980 -0.2931  1.7699  0.1249
 2639SOL     OW19549   0.744   1.166  13.171 -0.3752 -0.6290 -0.0369
 2639SOL    HW119550   0.768   1.173  13.078 -0.3493 -0.4147 -0.0138
 2639SOL    HW219551   0.818   1.107  13.185  2.2411  2.7074  0.1216
 2640SOL     OW19552   3.690   3.461   3.812  0.5535  0.1511  0.0299
 2640SOL    HW119553   3.632   3.520   3.860  0.8050  1.9807 -1.8663
 2640SOL    HW219554   3.758   3.460   3.879  1.2633  1.7499 -0.6645
 2641SOL     OW19555   4.158   4.146   7.247  1.0204  0.2970 -0.2905
 2641SOL    HW119556   4.190   4.233   7.271  0.2015  0.6542 -0.4854
 2641SOL    HW219557   4.217   4.110   7.181  0.1549 -0.7391 -0.4941
 2642SOL     OW19558   3.363   0.243   3.927  0.0104 -0.7067 -0.3284
 2642SOL    HW119559   3.388   0.153   3.946  1.7433 -0.0836  0.4342
 2642SOL    HW219560   3.393   0.287   4.007 -1.0584  0.8204 -0.7548
 2643SOL     OW19561   3.146   2.126   1.851  0.5113  0.0198  0.4276
 2643SOL    HW119562   3.124   2.037   1.825 -0.5623  0.4411 -0.0933
 2643SOL    HW219563   3.109   2.173   1.776 -2.0244  0.5806  2.0326
 2644SOL     OW19564   4.131   1.432   5.419  0.0423 -0.1124  0.2189
 2644SOL    HW119565   4.087   1.437   5.504  0.4383 -2.4907  0.5668
 2644SOL    HW219566   4.096   1.499   5.360 -1.1171 -2.0365 -1.2935
 2645SOL     OW19567   0.403   0.244  10.496  0.0517  0.1290 -0.2994
 2645SOL    HW119568   0.426   0.335  10.516  0.0127  0.2486 -0.8077
 2645SOL    HW219569   0.485   0.213  10.458 -0.2632 -1.3608  0.2215
 2646SOL     OW19570   0.889   2.193   3.706 -0.0419 -0.1284  0.8061
 2646SOL    HW119571   0.802   2.203   3.744  0.9076  0.0188  2.9214
 2646SOL    HW219572   0.871   2.210   3.613  1.2807  0.4399  0.6657
 2647SOL     OW19573   1.776   4.610   4.951  0.4118 -0.0981 -0.0779
 2647SOL    HW119574   1.714   4.566   5.009  0.3220  1.3723  0.9191
 2647SOL    HW219575   1.820   4.537   4.908 -1.3894 -0.2876 -1.6113
 2648SOL     OW19576   4.531   0.670   8.558  0.0693  0.2002  0.3588
 2648SOL    HW119577   4.457   0.677   8.497 -1.8769 -2.0492  2.4763
 2648SOL    HW219578   4.521   0.583   8.597 -1.5437  0.7111  1.0536
 2649SOL     OW19579   1.959   1.566   8.546  0.0470 -0.1242  0.2133
 2649SOL    HW119580   2.037   1.524   8.508  0.3075  1.5041 -1.0516
 2649SOL    HW219581   1.945   1.651   8.505 -3.2285  0.6002  2.8729
 2650SOL     OW19582   1.157   1.634   5.420  0.1601 -0.6466  0.4136
 2650SOL    HW119583   1.176   1.543   5.445  3.7508 -0.3187 -1.1781
 2650SOL    HW219584   1.186   1.691   5.491 -0.0488 -0.6324  0.4878
 2651SOL     OW19585   2.637   4.610   7.418 -0.5080  0.4913  0.0678
 2651SOL    HW119586   2.582   4.574   7.488 -0.0651 -0.2643  0.0225
 2651SOL    HW219587   2.609   4.701   7.417 -0.2980  0.5562  0.1178
 2652SOL     OW19588   0.671   3.948  11.909  0.0231 -0.1338  0.9436
 2652SOL    HW119589   0.596   4.006  11.899  0.1992 -0.3203 -1.5341
 2652SOL    HW219590   0.738   4.012  11.882  1.2582 -1.4619  0.8385
 2653SOL     OW19591   3.433   3.353   9.026  0.0985  0.3499  0.1530
 2653SOL    HW119592   3.498   3.384   9.089 -0.3065 -0.3652  0.9109
 2653SOL    HW219593   3.466   3.266   9.003 -0.9775  0.2804 -1.1233
 2654SOL     OW19594   3.052   3.020   3.095 -0.0359 -0.4202 -1.0017
 2654SOL    HW119595   3.131   2.997   3.145 -0.2138  1.1098 -0.0111
 2654SOL    HW219596   3.000   2.945   3.126 -1.5630  1.1694  0.3597
 2655SOL     OW19597   1.277   2.518   1.547 -0.3726  0.1931  0.1483
 2655SOL    HW119598   1.241   2.505   1.459  0.2247 -0.9365  0.0748
 2655SOL    HW219599   1.370   2.538   1.536 -0.6234  0.9201 -0.6331
 2656SOL     OW19600   0.402   3.776   0.424 -0.4713  0.3906 -0.0419
 2656SOL    HW119601   0.323   3.728   0.448 -0.2700  0.0577 -0.0410
 2656SOL    HW219602   0.436   3.814   0.505 -2.1010 -0.0184  0.8336
 2657SOL     OW19603   1.324   3.809  11.521  0.5815  0.9631  0.4910
 2657SOL    HW119604   1.363   3.896  11.524 -0.2711  1.4187 -1.1262
 2657SOL    HW219605   1.377   3.762  11.457 -0.2153 -1.9820  1.9968
 2658SOL     OW19606   3.704   0.566  17.647 -0.4079  0.8028  0.4535
 2658SOL    HW119607   3.669   0.477  17.653 -0.0519  0.6905  0.8952
 2658SOL    HW219608   3.682   0.585  17.556 -0.6392  1.9279  0.7452
 2659SOL     OW19609   3.004   1.620   8.504  0.2685  0.0057 -0.1118
 2659SOL    HW119610   3.080   1.669   8.537 -0.4612 -0.2705  1.9774
 2659SOL    HW219611   3.018   1.629   8.410 -0.2493 -1.7004 -0.3502
 2660SOL     OW19612   3.817   0.833   9.343 -0.7102  0.3024 -0.2250
 2660SOL    HW119613   3.899   0.813   9.299 -1.0738 -0.8729 -0.3702
 2660SOL    HW219614   3.750   0.786   9.293 -0.7252 -0.0501  0.1269
 2661SOL     OW19615   2.937   1.063   1.690 -0.1931 -0.4914 -0.1024
 2661SOL    HW119616   2.939   0.993   1.756  1.3907 -0.3276  0.0156
 2661SOL    HW219617   3.025   1.097   1.703  0.0839 -0.8137 -1.1160
 2662SOL     OW19618   0.045   2.171   4.909  0.3944  0.8784  0.1683
 2662SOL    HW119619   0.049   2.108   4.981 -1.3176  1.4875  0.7933
 2662SOL    HW219620   4.684   2.166   4.885  0.8651  0.1490 -1.4791
 2663SOL     OW19621   1.595   1.687   4.437 -0.5746  0.0595 -0.1855
 2663SOL    HW119622   1.552   1.609   4.473 -0.4285  0.8160  1.6098
 2663SOL    HW219623   1.529   1.756   4.440 -2.1609 -1.4529 -0.4828
 2664SOL     OW19624   2.423   0.569   6.699 -0.0610  0.2329  0.3606
 2664SOL    HW119625   2.441   0.475   6.701  1.1108  0.4718  0.7356
 2664SOL    HW219626   2.369   0.598   6.772  3.1471  0.3541  2.6605
 2665SOL     OW19627   0.567   1.253   1.622  0.5006 -0.0985 -0.0285
 2665SOL    HW119628   0.493   1.193   1.630 -0.3958  1.0359  0.1396
 2665SOL    HW219629   0.645   1.216   1.664 -0.7860 -2.4896  0.2747
 2666SOL     OW19630   1.668   1.503  15.717 -0.0045  0.3465 -0.2223
 2666SOL    HW119631   1.647   1.593  15.742  0.8558  0.2835  0.7397
 2666SOL    HW219632   1.763   1.507  15.713 -0.1308  0.0182 -3.2491
 2667SOL     OW19633   1.741   3.822   4.229 -0.0608  0.3109  0.3985
 2667SOL    HW119634   1.792   3.758   4.278  1.5366  0.9802 -0.3686
 2667SOL    HW219635   1.771   3.906   4.265 -0.4027  0.4471  0.3639
 2668SOL     OW19636   1.437   0.521   5.206 -0.3173 -0.3079 -0.6495
 2668SOL    HW119637   1.484   0.465   5.267 -3.0251 -0.8251  0.9938
 2668SOL    HW219638   1.391   0.447   5.164 -1.3999  1.2225 -2.1699
 2669SOL     OW19639   3.910   2.152   3.713  0.2155  0.2046  0.1869
 2669SOL    HW119640   3.955   2.086   3.660 -0.8563 -1.0125  0.7842
 2669SOL    HW219641   3.856   2.091   3.764 -1.3247  0.5113 -1.0943
 2670SOL     OW19642   3.328   2.974   3.506 -0.0997  0.8628 -0.1995
 2670SOL    HW119643   3.353   3.006   3.593 -0.0869  0.5719 -0.0952
 2670SOL    HW219644   3.385   2.898   3.497 -1.4049  0.1882 -2.6856
 2671SOL     OW19645   1.085   1.329   1.113 -0.4262 -0.0737  0.1195
 2671SOL    HW119646   1.140   1.268   1.161  0.9124  0.3423 -0.8614
 2671SOL    HW219647   1.068   1.271   1.038  0.3132  0.6101 -0.5766
 2672SOL     OW19648   0.906   3.573  16.725  0.3176  0.1982  0.1589
 2672SOL    HW119649   0.895   3.646  16.664  0.4375 -0.6862 -0.9223
 2672SOL    HW219650   1.000   3.559  16.718  0.3188 -0.9177  2.3405
 2673SOL     OW19651   1.055   0.187   3.781  0.4896 -0.3213  0.7420
 2673SOL    HW119652   0.970   0.231   3.777 -0.2137 -1.9511 -2.2647
 2673SOL    HW219653   1.113   0.263   3.788  0.9796 -0.5081 -1.4233
 2674SOL     OW19654   3.000   4.362  16.307 -0.4320 -0.0521 -0.0664
 2674SOL    HW119655   2.938   4.341  16.237 -2.4619 -0.0427  1.7402
 2674SOL    HW219656   2.944   4.341  16.381 -0.3097 -2.1033 -0.5478
 2675SOL     OW19657   0.677   3.727  11.405 -0.2278  0.4825  0.5324
 2675SOL    HW119658   0.769   3.703  11.390 -1.1815 -1.0114 -2.8390
 2675SOL    HW219659   0.643   3.735  11.316  1.3080 -3.2785 -0.3953
 2676SOL     OW19660   0.022   3.833   1.215 -0.1109 -0.1316  0.2125
 2676SOL    HW119661   0.074   3.753   1.228 -0.2827 -0.4560 -1.0672
 2676SOL    HW219662   4.696   3.803   1.144 -1.7358  2.9566  0.2323
 2677SOL     OW19663   3.964   0.885   9.615 -0.3602 -0.8811  0.1088
 2677SOL    HW119664   3.915   0.892   9.532 -0.7013  0.9516  0.4660
 2677SOL    HW219665   4.031   0.819   9.595 -1.5482 -1.7352 -1.1257
 2678SOL     OW19666   1.243   2.000  10.077 -0.5360 -0.4025 -0.1183
 2678SOL    HW119667   1.210   2.063  10.142 -2.6386 -1.3340 -0.2956
 2678SOL    HW219668   1.232   1.917  10.123 -1.7806  0.3218  0.8952
 2679SOL     OW19669   3.682   2.210   9.643 -0.1666 -0.0990  0.3361
 2679SOL    HW119670   3.674   2.242   9.733  0.2928  1.1140 -0.0487
 2679SOL    HW219671   3.711   2.288   9.594 -1.1036  0.2556  0.3523
 2680SOL     OW19672   2.039   2.648   8.376  0.0070 -0.5705 -0.0019
 2680SOL    HW119673   2.070   2.731   8.341 -0.3554 -0.7012 -0.6348
 2680SOL    HW219674   2.095   2.642   8.453  1.3660  0.9344 -0.8843
 2681SOL     OW19675   1.855   2.552   9.257  0.1048 -0.4986 -0.1005
 2681SOL    HW119676   1.878   2.645   9.249  1.2762 -0.7930 -0.1542
 2681SOL    HW219677   1.885   2.541   9.348 -1.0295  0.7808  0.4317
 2682SOL     OW19678   0.318   2.091   7.446 -0.3387 -0.1841  0.1473
 2682SOL    HW119679   0.332   2.101   7.540 -1.5742 -0.6014  0.3889
 2682SOL    HW219680   0.242   2.149   7.439 -0.5293 -0.8513 -3.6251
 2683SOL     OW19681   4.400   1.495   4.425 -0.1225  0.0092  0.3752
 2683SOL    HW119682   4.416   1.456   4.339  0.0986  1.0921 -0.0736
 2683SOL    HW219683   4.477   1.551   4.427 -1.6785  2.1222  1.4911
 2684SOL     OW19684   0.046   2.457   5.248  0.8074  0.0010 -0.1299
 2684SOL    HW119685   0.017   2.469   5.339 -2.9818  1.5720 -1.5890
 2684SOL    HW219686   4.700   2.481   5.199  1.0521 -0.6515 -0.8339
 2685SOL     OW19687   3.552   3.919   8.368 -0.7584 -0.2225 -0.1505
 2685SOL    HW119688   3.482   3.951   8.425 -0.4281  1.9606 -0.9724
 2685SOL    HW219689   3.632   3.920   8.421 -0.6179 -0.3225 -0.3595
 2686SOL     OW19690   3.669   2.390   3.651  0.4675  0.0209 -0.2800
 2686SOL    HW119691   3.746   2.435   3.617  0.6557 -1.7225 -2.1909
 2686SOL    HW219692   3.698   2.302   3.676 -0.9487 -0.1829  0.5975
 2687SOL     OW19693   3.909   1.546   5.542 -0.0166 -0.1186 -0.1994
 2687SOL    HW119694   3.884   1.506   5.625 -1.4284 -1.1572 -1.1260
 2687SOL    HW219695   3.830   1.521   5.494 -1.3314 -1.7207  2.7856
 2688SOL     OW19696   1.771   3.785  17.418 -0.1238 -0.4805  0.3690
 2688SOL    HW119697   1.770   3.690  17.430 -1.5286 -0.7344 -1.7089
 2688SOL    HW219698   1.791   3.810  17.508 -1.4142 -0.0214  0.5297
 2689SOL     OW19699   3.931   4.653   8.119  0.5430 -0.1448  0.1103
 2689SOL    HW119700   3.961   4.658   8.209 -3.8657 -1.1946  1.6606
 2689SOL    HW219701   3.839   4.627   8.121  0.8155 -1.4572 -3.1380
 2690SOL     OW19702   3.525   1.849   3.761  0.1742  0.0015 -0.0928
 2690SOL    HW119703   3.503   1.835   3.669 -2.9926  0.7767  0.5534
 2690SOL    HW219704   3.452   1.906   3.785 -0.1272 -0.9612  1.2865
 2691SOL     OW19705   2.079   3.461   3.341  0.0370  0.3006 -0.0132
 2691SOL    HW119706   2.066   3.417   3.425  0.0681  1.7100  0.7370
 2691SOL    HW219707   2.072   3.392   3.274  1.9095  0.2370 -0.1436
 2692SOL     OW19708   0.372   4.174   7.278 -0.5313 -0.5392  0.0970
 2692SOL    HW119709   0.389   4.238   7.209  1.2312 -0.8640  0.2365
 2692SOL    HW219710   0.277   4.176   7.262  0.0022 -0.3448 -2.9777
 2693SOL     OW19711   1.094   4.402   7.815  0.1812 -0.0143  0.4735
 2693SOL    HW119712   1.160   4.335   7.798  0.0240  0.2124 -0.9746
 2693SOL    HW219713   1.014   4.365   7.777  1.1711  0.7253 -2.2800
 2694SOL     OW19714   3.438   1.225  13.468  0.1961 -0.1528 -0.2296
 2694SOL    HW119715   3.445   1.303  13.412 -2.2579  1.2623  1.4245
 2694SOL    HW219716   3.429   1.155  13.404  0.2898  0.5439 -1.0124
 2695SOL     OW19717   0.996   2.080  11.845  0.1132  0.0043  0.2769
 2695SOL    HW119718   1.023   2.159  11.799  0.8167  0.6653  1.8355
 2695SOL    HW219719   1.061   2.012  11.827  2.3169  2.2147 -0.1174
 2696SOL     OW19720   0.780   3.838   5.421 -0.1659 -0.0881  0.1016
 2696SOL    HW119721   0.796   3.831   5.327 -0.7913  0.1689 -0.0293
 2696SOL    HW219722   0.775   3.747   5.450  1.5116 -0.2443 -0.1266
 2697SOL     OW19723   3.199   4.725   8.052  0.2327  0.5206 -0.3166
 2697SOL    HW119724   3.247   0.071   8.024 -0.3368  0.6424 -0.9529
 2697SOL    HW219725   3.260   4.652   8.039  1.9788  2.1700 -1.3648
 2698SOL     OW19726   4.692   2.448   7.315 -0.0671  0.1102 -0.0502
 2698SOL    HW119727   4.672   2.495   7.234 -2.2550  0.0468  0.4439
 2698SOL    HW219728   4.727   2.524   7.362 -0.4620 -0.5466  1.3094
 2699SOL     OW19729   1.620   2.084   7.513 -0.3790  0.1685  0.6970
 2699SOL    HW119730   1.709   2.099   7.547  0.2859 -1.0758 -0.5043
 2699SOL    HW219731   1.618   1.993   7.541  0.8406 -0.4924 -1.3730
 2700SOL     OW19732   4.546   1.875  13.637  0.8605  0.0427  0.3364
 2700SOL    HW119733   4.460   1.873  13.594  0.6082  0.8279  0.8103
 2700SOL    HW219734   4.580   1.938  13.573 -3.5399  1.3373 -0.7293
 2701SOL     OW19735   1.593   0.301   9.153 -0.3828  0.6484 -0.0530
 2701SOL    HW119736   1.545   0.308   9.235  1.6345 -1.3329  1.2667
 2701SOL    HW219737   1.656   0.231   9.164 -2.1181 -0.9933 -0.6332
 2702SOL     OW19738   3.449   1.987   6.078 -0.1494 -0.1297  0.2443
 2702SOL    HW119739   3.401   1.909   6.050 -1.4627  1.0053 -0.7179
 2702SOL    HW219740   3.406   2.063   6.038 -1.2592 -0.7151  0.3338
 2703SOL     OW19741   2.863   0.899   1.485 -0.0396  0.9171 -0.2288
 2703SOL    HW119742   2.941   0.917   1.433  0.1964 -2.2570 -0.9580
 2703SOL    HW219743   2.876   0.956   1.561  0.4820  2.4430 -1.4585
 2704SOL     OW19744   1.066   3.559  14.371 -0.6703 -0.2133  0.3752
 2704SOL    HW119745   0.998   3.600  14.425  0.9843 -0.8802  2.9904
 2704SOL    HW219746   1.053   3.465  14.384 -4.0587  0.0905 -0.8838
 2705SOL     OW19747   3.008   2.357   7.315 -0.1305  0.0654  0.0985
 2705SOL    HW119748   2.991   2.424   7.249 -2.3942 -0.3456  0.2569
 2705SOL    HW219749   2.922   2.337   7.354 -1.0461  2.8446 -0.4655
 2706SOL     OW19750   3.403   2.986  14.582  0.1269 -0.3795 -0.3307
 2706SOL    HW119751   3.367   3.056  14.527 -0.3940 -0.5679 -0.2270
 2706SOL    HW219752   3.360   3.006  14.666 -0.8514  0.8090 -1.1124
 2707SOL     OW19753   0.289   0.191   0.847  0.5383  0.3884 -0.0213
 2707SOL    HW119754   0.251   0.179   0.761 -1.7142 -0.4754  1.0970
 2707SOL    HW219755   0.239   0.135   0.906 -0.2030  1.4535  0.3584
 2708SOL     OW19756   4.086   4.170   9.084 -0.0739 -0.5320  0.4567
 2708SOL    HW119757   4.171   4.202   9.056  0.2933 -1.8244  0.0754
 2708SOL    HW219758   4.060   4.245   9.137  1.3968  1.5477 -1.8049
 2709SOL     OW19759   2.352   4.007   2.922 -0.1984 -0.0925  0.0501
 2709SOL    HW119760   2.260   4.004   2.896  0.7690 -2.1542 -3.1855
 2709SOL    HW219761   2.358   4.023   3.016  1.2996 -2.4454  0.3797
 2710SOL     OW19762   2.178   1.729   8.743  0.4947 -0.3271  0.2452
 2710SOL    HW119763   2.145   1.726   8.833  1.6364 -0.4162  0.6711
 2710SOL    HW219764   2.173   1.823   8.724  2.0843  0.0543  1.6101
 2711SOL     OW19765   3.983   3.087   4.809 -0.1217 -0.1088  0.2486
 2711SOL    HW119766   3.921   3.089   4.882 -0.1925  0.8634  0.1615
 2711SOL    HW219767   4.069   3.102   4.849  0.2276  1.3968 -1.0566
 2712SOL     OW19768   3.599   1.928  13.525 -0.1614  0.2851 -0.1369
 2712SOL    HW119769   3.666   1.988  13.558 -1.2389  1.0224  0.7072
 2712SOL    HW219770   3.567   1.911  13.614  0.7170 -1.3946 -0.1249
 2713SOL     OW19771   4.041   4.486   5.761 -0.2187  0.1066  0.3565
 2713SOL    HW119772   4.032   4.565   5.708  0.8677  0.7070  1.0879
 2713SOL    HW219773   3.951   4.474   5.794 -0.1778 -0.4684  0.2722
 2714SOL     OW19774   2.281   4.117   2.528  1.2394 -0.1928  0.3367
 2714SOL    HW119775   2.343   4.045   2.516  2.3118  0.4165  2.1428
 2714SOL    HW219776   2.198   4.069   2.529  0.3526  1.2704 -2.0675
 2715SOL     OW19777   3.093   2.054   3.124  0.6775 -0.8705 -0.2858
 2715SOL    HW119778   3.028   1.992   3.092 -1.1614  0.7505  0.3626
 2715SOL    HW219779   3.141   2.082   3.046  1.8832  1.2060  1.1940
 2716SOL     OW19780   0.342   0.552  15.088 -0.3498 -0.0212 -0.4762
 2716SOL    HW119781   0.330   0.565  14.994  0.2812  0.2022 -0.5274
 2716SOL    HW219782   0.420   0.497  15.095 -0.3586 -0.0604 -0.6842
 2717SOL     OW19783   1.896   3.425   5.231  0.2895  0.4669  0.1584
 2717SOL    HW119784   1.864   3.447   5.143  3.4055 -0.3734 -1.1893
 2717SOL    HW219785   1.845   3.481   5.289  1.6614  1.6276  0.2426
 2718SOL     OW19786   3.022   1.309   8.930 -0.0322 -0.3045 -0.2067
 2718SOL    HW119787   2.995   1.347   8.847  0.8084 -1.3024 -0.9389
 2718SOL    HW219788   2.957   1.335   8.995 -0.2961 -0.0204 -0.5868
 2719SOL     OW19789   0.452   1.806   4.239 -0.3454 -0.0819  0.0494
 2719SOL    HW119790   0.449   1.871   4.169  0.2489  1.8888  1.8412
 2719SOL    HW219791   0.362   1.809   4.271 -0.2270 -0.0643  0.3780
 2720SOL     OW19792   0.915   1.472   9.725  0.0946  0.7206  0.2310
 2720SOL    HW119793   0.964   1.402   9.769 -1.9333 -1.3409 -0.7281
 2720SOL    HW219794   0.862   1.411   9.673 -0.5301  0.5456  1.0681
 2721SOL     OW19795   1.118   1.317  14.741  0.1151  0.3534 -0.0210
 2721SOL    HW119796   1.188   1.278  14.794 -0.6496 -1.4671 -0.3707
 2721SOL    HW219797   1.158   1.313  14.654  0.4952  0.4750  0.1461
 2722SOL     OW19798   4.719   3.222   9.929  0.4896 -0.5273  0.1167
 2722SOL    HW119799   0.009   3.208   9.837 -1.2220 -3.5335  0.2040
 2722SOL    HW219800   0.009   3.315   9.943  1.2471 -0.7240  0.2580
 2723SOL     OW19801   1.978   1.850  10.165  0.0556  0.6868  0.2157
 2723SOL    HW119802   1.983   1.798  10.246  1.3951  0.2729 -0.1342
 2723SOL    HW219803   1.945   1.933  10.198 -1.6630 -1.0808  2.9942
 2724SOL     OW19804   1.545   1.605  10.636 -0.8584 -0.3673 -0.3112
 2724SOL    HW119805   1.637   1.590  10.612 -0.3712  1.0799  0.6165
 2724SOL    HW219806   1.537   1.700  10.638  1.5452 -0.1371 -0.7431
 2725SOL     OW19807   1.977   2.431   8.730 -0.3181 -0.2168  0.7911
 2725SOL    HW119808   2.016   2.344   8.731  0.5325  0.1480 -0.0395
 2725SOL    HW219809   1.916   2.422   8.658 -1.3618  3.2975  1.2169
 2726SOL     OW19810   2.066   1.917   5.682  0.6318 -0.3559  0.0515
 2726SOL    HW119811   2.122   1.994   5.677  0.6046 -0.3820 -0.6534
 2726SOL    HW219812   1.985   1.951   5.720  1.2809 -0.1458  1.2627
 2727SOL     OW19813   1.556   2.473   5.716 -0.1115  0.8560 -0.6347
 2727SOL    HW119814   1.519   2.536   5.654  1.6326  1.2811 -1.2242
 2727SOL    HW219815   1.649   2.492   5.710  0.1739  0.1372  1.5247
 2728SOL     OW19816   3.898   2.033   3.433  0.2619 -0.0059  0.0369
 2728SOL    HW119817   3.807   2.008   3.415 -0.2862  2.0711 -0.0693
 2728SOL    HW219818   3.903   2.122   3.398  1.8976 -0.0866  0.0850
 2729SOL     OW19819   3.056   4.135   2.357  0.1219  0.4930 -0.0167
 2729SOL    HW119820   3.117   4.181   2.299  3.3531 -2.9091  0.7289
 2729SOL    HW219821   2.978   4.190   2.347  0.2364  0.5398 -0.6814
 2730SOL     OW19822   0.128   3.734   3.167 -0.6013 -0.2704  0.1759
 2730SOL    HW119823   0.076   3.792   3.112 -0.6146 -1.1173 -0.6956
 2730SOL    HW219824   0.154   3.792   3.239 -0.4150 -3.1055  2.3978
 2731SOL     OW19825   2.869   4.368   3.015  0.0605 -0.2179 -0.2546
 2731SOL    HW119826   2.943   4.425   3.033 -0.0745 -0.1064 -0.0372
 2731SOL    HW219827   2.795   4.429   3.022 -0.1375 -0.3922 -0.8786
 2732SOL     OW19828   3.036   1.181  11.887 -0.7379  0.2710  0.1714
 2732SOL    HW119829   2.993   1.095  11.891  0.0025 -0.1099 -0.1758
 2732SOL    HW219830   3.015   1.202  11.796  0.1712 -0.2053 -0.1456
 2733SOL     OW19831   1.991   3.673  10.632  0.1165 -0.0084  0.2522
 2733SOL    HW119832   2.052   3.727  10.684  2.0777  0.7084 -2.7930
 2733SOL    HW219833   2.029   3.659  10.546 -1.4532  0.1518 -0.4636
 2734SOL     OW19834   2.091   3.639   0.095  0.2065 -0.0207 -0.6337
 2734SOL    HW119835   2.093   3.734   0.100 -0.7863 -0.0858  1.0854
 2734SOL    HW219836   2.138   3.629   0.012  0.9734 -1.9363  0.0450
 2735SOL     OW19837   4.055   2.926   7.956  0.1402  0.0553 -0.2142
 2735SOL    HW119838   3.968   2.967   7.954  0.1696  0.2077  1.8786
 2735SOL    HW219839   4.114   3.000   7.947  1.1178 -0.6636  0.4067
 2736SOL     OW19840   1.834   0.449  16.531  0.1140 -0.2187 -0.4951
 2736SOL    HW119841   1.870   0.420  16.615  1.2172  0.0220 -0.8824
 2736SOL    HW219842   1.754   0.493  16.560 -1.0693 -1.2017 -2.2665
 2737SOL     OW19843   1.475   2.332   3.266  0.0100 -0.4946 -0.3211
 2737SOL    HW119844   1.549   2.393   3.262  0.4786 -1.1706 -1.7459
 2737SOL    HW219845   1.474   2.321   3.361 -0.7323  1.4176 -0.1034
 2738SOL     OW19846   1.585   0.007  12.095  1.0502 -0.0327  0.2869
 2738SOL    HW119847   1.543   4.709  12.176  0.8375 -1.8774 -0.4909
 2738SOL    HW219848   1.546   4.671  12.039  2.6621  0.4938 -1.4619
 2739SOL     OW19849   2.615   0.657  12.512  0.0342 -0.1873  0.1151
 2739SOL    HW119850   2.665   0.652  12.431  0.2705 -1.5897  0.3511
 2739SOL    HW219851   2.651   0.742  12.536 -1.6649  0.2587  1.1181
 2740SOL     OW19852   3.459   0.648   3.825 -0.1348  1.1101  0.1582
 2740SOL    HW119853   3.461   0.669   3.919  0.8622  1.9503 -0.0397
 2740SOL    HW219854   3.520   0.575   3.836 -2.0810 -0.5515 -0.2792
 2741SOL     OW19855   1.236   4.713   7.714 -0.1156 -0.2149 -0.1026
 2741SOL    HW119856   1.304   4.648   7.698  0.4163  0.2113  0.4432
 2741SOL    HW219857   1.160   4.656   7.724 -0.5335  0.6119  1.3458
 2742SOL     OW19858   0.828   4.526   3.132  0.5988 -0.1240 -0.6801
 2742SOL    HW119859   0.898   4.542   3.196 -1.4691  0.2349  1.4617
 2742SOL    HW219860   0.840   4.431   3.129  2.1893  0.0872 -0.9642
 2743SOL     OW19861   1.112   0.586   2.668 -0.3886  0.2977  0.2060
 2743SOL    HW119862   1.041   0.605   2.606  0.3443 -0.9044 -1.0034
 2743SOL    HW219863   1.067   0.570   2.751 -1.5315  0.1212 -0.4448
 2744SOL     OW19864   3.647   2.986   8.436 -0.6952  0.6511  0.5119
 2744SOL    HW119865   3.664   2.893   8.449  0.0044  0.7332  0.1726
 2744SOL    HW219866   3.554   2.992   8.456 -1.1044 -2.0140 -0.5970
 2745SOL     OW19867   1.863   1.149   8.231  0.8019 -0.3824  0.4684
 2745SOL    HW119868   1.803   1.185   8.297  1.8313  1.5936  0.3313
 2745SOL    HW219869   1.888   1.066   8.272 -0.0199 -0.9477 -0.1838
 2746SOL     OW19870   3.892   1.281   3.703  0.0410  0.1836 -0.1164
 2746SOL    HW119871   3.977   1.307   3.667  0.4072  2.9877  2.7552
 2746SOL    HW219872   3.853   1.232   3.630 -1.7194  0.7692  0.4365
 2747SOL     OW19873   0.765   0.491   8.147 -0.8711  0.5297  0.2642
 2747SOL    HW119874   0.808   0.573   8.169 -2.3204  0.9178  1.6439
 2747SOL    HW219875   0.816   0.428   8.199 -0.4852  1.8194  1.4257
 2748SOL     OW19876   1.825   0.984   1.516  0.2617 -0.0028  0.2049
 2748SOL    HW119877   1.745   0.990   1.465  0.9390  1.6918 -0.6720
 2748SOL    HW219878   1.790   0.939   1.593  0.7751  1.7682  1.4795
 2749SOL     OW19879   1.370   0.892   4.962 -0.1578  0.1772 -0.1493
 2749SOL    HW119880   1.450   0.938   4.987  0.1646  0.5283 -1.8814
 2749SOL    HW219881   1.341   0.940   4.885 -0.9607  2.0864  1.3363
 2750SOL     OW19882   2.303   0.588   4.611  0.1496  0.8153 -0.3088
 2750SOL    HW119883   2.302   0.497   4.639 -1.0413  0.5739 -1.1432
 2750SOL    HW219884   2.301   0.575   4.517 -1.2347 -1.4216  0.0409
 2751SOL     OW19885   3.991   2.489   0.560  0.2352  0.3625 -0.2262
 2751SOL    HW119886   3.939   2.568   0.577 -1.5616 -1.1361  1.3494
 2751SOL    HW219887   3.920   2.426   0.547 -0.1435  0.7439 -0.0009
 2752SOL     OW19888   2.713   2.786  15.078 -0.1910 -1.0042  0.0959
 2752SOL    HW119889   2.626   2.815  15.049  0.1821  0.1892  0.1730
 2752SOL    HW219890   2.766   2.850  15.031 -0.8002 -0.4968  0.0918
 2753SOL     OW19891   0.780   3.778   0.814  0.1830  0.1740  0.3083
 2753SOL    HW119892   0.783   3.777   0.909  0.0307 -1.2359  0.2978
 2753SOL    HW219893   0.822   3.863   0.800 -0.6998  1.0286  2.8445
 2754SOL     OW19894   2.719   0.824  14.710 -0.0765  0.3149 -0.0223
 2754SOL    HW119895   2.684   0.897  14.660 -1.6471 -0.4647 -0.0710
 2754SOL    HW219896   2.639   0.788  14.749 -0.3611 -0.0636 -0.9547
 2755SOL     OW19897   0.921   1.549   8.821 -0.2004 -0.2798  0.3024
 2755SOL    HW119898   0.984   1.587   8.882 -0.7523 -0.9149  1.2600
 2755SOL    HW219899   0.959   1.466   8.793 -0.1362  0.2143 -1.1070
 2756SOL     OW19900   4.267   1.880  16.886 -0.2418 -0.1218 -0.3842
 2756SOL    HW119901   4.281   1.943  16.957  0.5477 -0.1748 -0.4906
 2756SOL    HW219902   4.261   1.797  16.933 -0.4307  0.8017  1.2247
 2757SOL     OW19903   2.793   3.754   5.537 -0.0242  0.6424 -0.4335
 2757SOL    HW119904   2.820   3.823   5.598 -0.0485 -0.9796  1.4251
 2757SOL    HW219905   2.822   3.806   5.462  2.1574  4.1144  2.8480
 2758SOL     OW19906   2.568   0.056  10.338 -0.0494 -0.2346 -0.0075
 2758SOL    HW119907   2.504   0.063  10.409  0.7987 -1.3508  0.8638
 2758SOL    HW219908   2.516   0.090  10.265 -0.8016  0.1091  0.6869
 2759SOL     OW19909   3.692   3.368   1.455  0.8728  0.4273  0.0044
 2759SOL    HW119910   3.610   3.416   1.467  0.8578  1.0852 -2.7487
 2759SOL    HW219911   3.699   3.325   1.540 -2.6658 -0.0883  0.0346
 2760SOL     OW19912   3.048   2.112   5.567  0.2897 -0.8116  0.0020
 2760SOL    HW119913   3.074   2.151   5.484  1.6743  2.0580  1.8108
 2760SOL    HW219914   3.049   2.019   5.543 -0.8073 -0.5691 -1.0147
 2761SOL     OW19915   2.647   3.513   4.305  0.3830 -0.1236  0.0121
 2761SOL    HW119916   2.731   3.545   4.272  0.2391  1.3302  1.0501
 2761SOL    HW219917   2.664   3.424   4.337 -1.1256 -0.6284 -0.5762
 2762SOL     OW19918   2.690   0.631   3.177  0.0018  0.0337 -0.0842
 2762SOL    HW119919   2.694   0.612   3.270 -1.9252 -1.3369 -0.2892
 2762SOL    HW219920   2.783   0.635   3.155  0.2890  0.5708  1.2256
 2763SOL     OW19921   2.204   1.786   7.025 -0.3427  0.0222  0.4125
 2763SOL    HW119922   2.197   1.880   7.009 -2.1728 -0.3832 -1.1165
 2763SOL    HW219923   2.122   1.753   6.988 -0.0856  1.6661 -1.6113
 2764SOL     OW19924   2.635   1.278   6.997  0.2852 -0.0901 -0.2436
 2764SOL    HW119925   2.628   1.208   6.933  1.6940  1.4210 -2.0492
 2764SOL    HW219926   2.571   1.240   7.058 -1.2300  3.1062  0.1784
 2765SOL     OW19927   2.135   3.291   9.960  0.3565 -0.6519  0.1671
 2765SOL    HW119928   2.043   3.314   9.952  0.6018  0.5594  0.9016
 2765SOL    HW219929   2.186   3.371   9.947  1.1967 -1.2747 -0.3596
 2766SOL     OW19930   1.421   3.970  14.125  0.0657  0.0125  0.2583
 2766SOL    HW119931   1.458   3.897  14.174 -2.8476 -1.2690  0.5734
 2766SOL    HW219932   1.326   3.957  14.122 -0.2335  1.9525  1.0948
 2767SOL     OW19933   0.761   2.355   5.688  0.0965 -0.3670  0.1492
 2767SOL    HW119934   0.678   2.386   5.653  0.9625  0.3893 -1.2387
 2767SOL    HW219935   0.822   2.375   5.617  0.8932 -1.8806  0.4252
 2768SOL     OW19936   0.443   1.389   8.332 -0.3137 -0.3532  0.1531
 2768SOL    HW119937   0.364   1.400   8.386 -1.0023  0.8871 -1.0999
 2768SOL    HW219938   0.412   1.311   8.286  0.9901 -0.9349  0.2633
 2769SOL     OW19939   2.874   4.358   5.762 -0.1048 -0.9292  0.4248
 2769SOL    HW119940   2.848   4.381   5.851  1.0089  1.6779  0.0574
 2769SOL    HW219941   2.800   4.389   5.709 -0.7536 -0.6375  1.5161
 2770SOL     OW19942   4.240   4.699  16.010  0.7417  0.5311  0.7047
 2770SOL    HW119943   4.282   0.054  16.009  0.7641  0.5454  1.8973
 2770SOL    HW219944   4.311   4.636  16.021  1.9414  1.6678 -0.5507
 2771SOL     OW19945   4.167   0.963   6.991  0.5099 -0.1361  0.0861
 2771SOL    HW119946   4.114   0.890   7.023 -1.3208  0.3802 -1.7081
 2771SOL    HW219947   4.130   0.972   6.903 -0.7248 -0.2013  0.5870
 2772SOL     OW19948   3.746   4.270   4.355 -0.4143  0.0253 -0.2420
 2772SOL    HW119949   3.719   4.354   4.392 -1.3400 -0.4727  0.1977
 2772SOL    HW219950   3.838   4.276   4.328 -0.2667  2.4133  0.7604
 2773SOL     OW19951   0.244   2.031   7.082 -1.5340 -0.3407 -0.6637
 2773SOL    HW119952   0.264   1.956   7.139  2.9097  0.6881 -0.8757
 2773SOL    HW219953   0.247   1.987   6.997  1.3574 -1.4074 -0.0288
 2774SOL     OW19954   0.533   2.511   7.764  0.0359  0.3558 -0.0982
 2774SOL    HW119955   0.585   2.590   7.780  0.2839  0.2011 -0.1455
 2774SOL    HW219956   0.460   2.519   7.826  1.4926 -0.4908  1.7235
 2775SOL     OW19957   3.815   2.938   4.517  0.0403  0.2258 -0.1720
 2775SOL    HW119958   3.807   2.843   4.504  0.0988  0.1483  0.3326
 2775SOL    HW219959   3.910   2.952   4.516 -0.0958  1.2141  1.3935
 2776SOL     OW19960   0.289   2.295   8.891 -0.7811  0.2921  0.0918
 2776SOL    HW119961   0.302   2.256   8.805  1.0994 -0.0767  0.5610
 2776SOL    HW219962   0.203   2.261   8.919 -0.3170 -0.2837  0.8143
 2777SOL     OW19963   2.044   1.946   4.590  0.6402 -0.3089 -0.2158
 2777SOL    HW119964   2.124   1.896   4.605 -0.5622 -2.5681 -1.3125
 2777SOL    HW219965   2.000   1.909   4.666 -2.0670 -0.6173 -1.9401
 2778SOL     OW19966   2.151   1.548  16.288  0.0202  0.6828  0.4772
 2778SOL    HW119967   2.205   1.506  16.354  2.4634  0.3084 -1.7404
 2778SOL    HW219968   2.062   1.526  16.313  1.0573 -3.7463  0.2217
 2779SOL     OW19969   3.911   1.088  12.331 -0.4544  0.0007  0.6125
 2779SOL    HW119970   3.824   1.049  12.336  0.4926 -1.9766  1.9839
 2779SOL    HW219971   3.921   1.114  12.423  0.2960 -1.2473  0.8934
 2780SOL     OW19972   1.156   3.078   3.047  0.1377  0.6255 -0.5539
 2780SOL    HW119973   1.192   3.083   2.958  1.7487 -2.1714 -0.0338
 2780SOL    HW219974   1.194   3.000   3.086 -1.9348 -0.0791  0.0341
 2781SOL     OW19975   4.672   0.577   9.782  0.0270 -0.1397  0.1382
 2781SOL    HW119976   0.003   0.622   9.724  0.9776 -0.3121  1.0205
 2781SOL    HW219977   4.627   0.650   9.824  2.3811  1.8943 -0.8471
 2782SOL     OW19978   3.187   1.748  10.224  0.0112 -0.4704  0.1407
 2782SOL    HW119979   3.223   1.763  10.136 -0.1052  2.9179  0.6701
 2782SOL    HW219980   3.119   1.683  10.206  0.4294 -1.0413  0.6341
 2783SOL     OW19981   1.779   2.231   7.197  0.0596 -0.1417 -0.2886
 2783SOL    HW119982   1.842   2.300   7.176 -0.1303  0.4506  1.0764
 2783SOL    HW219983   1.728   2.240   7.117 -0.1147 -0.4210 -0.2105
 2784SOL     OW19984   2.147   3.889   3.678  0.1241  0.3895 -0.1017
 2784SOL    HW119985   2.150   3.862   3.770 -1.3534  2.3407  0.5228
 2784SOL    HW219986   2.238   3.916   3.669  0.0871  1.0004  1.3827
 2785SOL     OW19987   0.930   3.643  11.421  0.1514 -0.5933 -0.0149
 2785SOL    HW119988   0.961   3.692  11.497  0.9634 -1.3486  0.1509
 2785SOL    HW219989   0.940   3.555  11.457 -0.6596 -0.7910 -0.2745
 2786SOL     OW19990   4.104   3.604  13.138 -0.2254 -0.2642 -0.7651
 2786SOL    HW119991   4.155   3.563  13.069  1.5974 -0.4355  0.6732
 2786SOL    HW219992   4.138   3.549  13.209  2.5127  0.3696 -1.5612
 2787SOL     OW19993   3.757   4.654   2.919  0.1529  0.1613  0.4163
 2787SOL    HW119994   3.773   4.585   2.855 -0.2024  0.6036 -0.1600
 2787SOL    HW219995   3.838   4.661   2.968  0.8990 -5.1871 -0.0828
 2788SOL     OW19996   3.906   4.248   7.332  0.6611  0.0503  0.5933
 2788SOL    HW119997   3.844   4.189   7.376  0.6057  0.3090  0.8599
 2788SOL    HW219998   3.978   4.195   7.297  0.4303  1.0975 -1.4156
 2789SOL     OW19999   2.382   2.753   7.697 -0.1496 -0.9352 -0.2106
 2789SOL    HW120000   2.356   2.843   7.680  0.2594 -0.2931  2.6223
 2789SOL    HW220001   2.426   2.767   7.781  0.3005  2.4855 -1.0373
 2790SOL     OW20002   1.127   0.802   6.741 -0.9752 -0.2108 -0.2744
 2790SOL    HW120003   1.046   0.811   6.791 -0.5892  1.1324  0.0993
 2790SOL    HW220004   1.190   0.858   6.785  1.0338 -1.4409 -1.6024
 2791SOL     OW20005   4.449   1.048  13.710 -0.5324  0.4639  0.1084
 2791SOL    HW120006   4.404   0.984  13.655  1.3624 -0.0120 -0.8879
 2791SOL    HW220007   4.378   1.112  13.700 -1.2758 -0.5755 -1.2656
 2792SOL     OW20008   2.578   1.191  12.879  0.3429  0.1779 -0.2431
 2792SOL    HW120009   2.570   1.247  12.956  2.8166 -0.2053  0.2975
 2792SOL    HW220010   2.508   1.230  12.827 -0.3714 -0.2884  0.3572
 2793SOL     OW20011   0.470   4.057   5.257  0.2264 -0.1538 -0.4340
 2793SOL    HW120012   0.540   4.045   5.320 -0.9873 -2.1050  0.5505
 2793SOL    HW220013   0.503   4.133   5.209  1.2061  0.6317  1.4982
 2794SOL     OW20014   4.064   2.151   0.531 -0.0025 -0.3210  0.2644
 2794SOL    HW120015   3.988   2.190   0.573  0.1039 -0.1008  0.2551
 2794SOL    HW220016   4.136   2.195   0.576 -1.3460  0.5081  1.5942
 2795SOL     OW20017   1.864   1.510   1.481 -0.7004 -0.1712  0.1823
 2795SOL    HW120018   1.879   1.470   1.395 -1.4568  0.9793 -0.4926
 2795SOL    HW220019   1.810   1.443   1.525  0.8200 -2.2066 -1.0456
 2796SOL     OW20020   1.156   3.929   5.966 -0.1650  0.0999 -0.3717
 2796SOL    HW120021   1.242   3.971   5.964 -1.0636  1.8730 -1.6900
 2796SOL    HW220022   1.146   3.875   5.888  0.7674  1.3573 -1.3409
 2797SOL     OW20023   4.165   1.596  14.363 -0.0373  0.0871 -0.4555
 2797SOL    HW120024   4.182   1.545  14.284  0.4226  0.3934 -0.5567
 2797SOL    HW220025   4.070   1.604  14.354  0.2085  1.2299 -2.0328
 2798SOL     OW20026   1.784   2.142  14.541 -0.2480  0.0008  0.8401
 2798SOL    HW120027   1.757   2.060  14.500 -0.7628 -0.4031  1.9891
 2798SOL    HW220028   1.703   2.194  14.534  0.9081  1.8255  0.9917
 2799SOL     OW20029   0.838   1.491  16.397 -0.5782  0.6188 -0.7163
 2799SOL    HW120030   0.779   1.432  16.350  0.1988  0.2191 -1.2064
 2799SOL    HW220031   0.876   1.543  16.326  1.9690 -0.8759 -0.4787
 2800SOL     OW20032   0.369   1.640   4.479 -0.6752  0.1872 -0.2026
 2800SOL    HW120033   0.408   1.595   4.405 -0.5226  0.3213 -0.2039
 2800SOL    HW220034   0.285   1.648   4.436  0.1039 -1.6462 -2.0428
 2801SOL     OW20035   2.590   3.848  15.012 -0.0393  0.9242  1.0778
 2801SOL    HW120036   2.534   3.864  14.936 -1.8954 -1.1473  2.0155
 2801SOL    HW220037   2.521   3.834  15.077 -0.1619 -0.1188  0.7310
 2802SOL     OW20038   2.229   3.743   0.454  0.3074 -0.0845  0.3357
 2802SOL    HW120039   2.149   3.713   0.410  0.5946 -0.0714 -0.2015
 2802SOL    HW220040   2.285   3.675   0.416  0.9133  2.7056 -3.8121
 2803SOL     OW20041   3.952   4.674   8.405  0.3294 -0.5187 -0.6481
 2803SOL    HW120042   3.869   4.669   8.453 -0.5629 -0.3805 -2.1877
 2803SOL    HW220043   4.018   4.624   8.454  0.9018  0.5292 -0.3597
 2804SOL     OW20044   1.017   1.722   7.229  0.3462 -0.4582 -0.2597
 2804SOL    HW120045   1.049   1.648   7.280  1.5730  0.4918  0.3405
 2804SOL    HW220046   1.055   1.800   7.271  0.7491  0.8326 -3.0223
 2805SOL     OW20047   4.297   2.415   5.461  0.0917  0.0563  0.0279
 2805SOL    HW120048   4.273   2.323   5.465 -1.8417  0.5578  0.2314
 2805SOL    HW220049   4.266   2.454   5.543  1.3977  2.4267 -0.5834
 2806SOL     OW20050   4.127   2.590   4.892 -0.5566 -0.2502 -0.2446
 2806SOL    HW120051   4.031   2.582   4.895 -0.5909 -0.2635 -1.5178
 2806SOL    HW220052   4.158   2.563   4.978 -3.8708  1.9623  1.6748
 2807SOL     OW20053   2.626   0.742   9.800 -0.2953 -0.1512 -0.7425
 2807SOL    HW120054   2.565   0.670   9.782 -1.1540  0.6654 -1.0911
 2807SOL    HW220055   2.564   0.812   9.822  0.0717  0.1078 -0.5351
 2808SOL     OW20056   1.840   3.257  13.106  0.0906  0.6117 -0.2671
 2808SOL    HW120057   1.790   3.202  13.166  1.8951  0.0859  0.7602
 2808SOL    HW220058   1.788   3.337  13.113 -0.7135  0.2656 -2.3059
 2809SOL     OW20059   4.447   0.723   7.711  0.6747 -0.1849 -1.3644
 2809SOL    HW120060   4.422   0.636   7.741 -0.0653  0.5261  0.1188
 2809SOL    HW220061   4.361   0.763   7.725  1.9496  2.0942 -0.0653
 2810SOL     OW20062   0.511   0.727   2.085 -0.2461 -0.3071 -1.0532
 2810SOL    HW120063   0.554   0.663   2.142 -2.8581 -0.3532  0.8945
 2810SOL    HW220064   0.537   0.692   2.000 -0.3083 -0.0857 -1.1639
 2811SOL     OW20065   0.572   3.709   4.227  0.4243 -0.5112 -0.0406
 2811SOL    HW120066   0.509   3.743   4.164  2.7177 -3.1433 -3.7225
 2811SOL    HW220067   0.628   3.786   4.238  0.3281 -0.5719  0.8805
 2812SOL     OW20068   3.495   0.821   6.827 -0.1859  0.4775  0.3734
 2812SOL    HW120069   3.511   0.733   6.863 -2.7284  0.5928  1.7977
 2812SOL    HW220070   3.437   0.797   6.755  2.8311  1.0044 -2.2111
 2813SOL     OW20071   0.946   0.741  14.590  0.2465 -0.5128 -0.7364
 2813SOL    HW120072   1.032   0.716  14.624  0.6816 -1.8550 -2.8000
 2813SOL    HW220073   0.900   0.764  14.671 -1.0452 -0.8719 -1.3610
 2814SOL     OW20074   3.620   3.514   5.577  0.0387  0.1060  0.5438
 2814SOL    HW120075   3.633   3.428   5.616  1.4502  0.5338  1.0478
 2814SOL    HW220076   3.702   3.551   5.612 -1.0713  3.7687 -0.6936
 2815SOL     OW20077   3.219   1.188   5.522 -0.4212 -0.0325  0.4212
 2815SOL    HW120078   3.135   1.144   5.536 -0.4935 -0.1715 -0.4470
 2815SOL    HW220079   3.196   1.222   5.436  0.9354 -0.6361 -0.1778
 2816SOL     OW20080   0.502   2.790   6.855  0.2343 -0.2090 -0.4602
 2816SOL    HW120081   0.435   2.789   6.924  0.6130 -0.6512 -0.0915
 2816SOL    HW220082   0.541   2.707   6.884 -1.3326 -0.5111  0.7790
 2817SOL     OW20083   0.638   3.298   1.629  0.6536  0.6430 -0.0371
 2817SOL    HW120084   0.634   3.282   1.534 -0.6256  3.8566 -0.5163
 2817SOL    HW220085   0.727   3.265   1.642 -0.6967 -3.1018 -0.1260
 2818SOL     OW20086   2.137   3.268   4.762  0.4345 -0.0893  0.2501
 2818SOL    HW120087   2.166   3.282   4.672  0.6262 -0.1218  0.3078
 2818SOL    HW220088   2.119   3.174   4.760  0.9539 -0.2487  2.9291
 2819SOL     OW20089   2.989   4.706   4.767  0.0527 -0.2195  0.1609
 2819SOL    HW120090   2.915   4.646   4.769  0.5627 -0.8552 -0.1331
 2819SOL    HW220091   3.069   4.654   4.777  0.9380  0.6437 -2.5138
 2820SOL     OW20092   2.353   0.217   5.509  0.1022  0.3927 -0.3730
 2820SOL    HW120093   2.273   0.268   5.516  0.6876  1.3200 -0.3668
 2820SOL    HW220094   2.337   0.152   5.578 -2.8278  0.5984 -0.8721
 2821SOL     OW20095   4.364   2.142   7.464 -0.4150  0.5900  0.2373
 2821SOL    HW120096   4.351   2.236   7.450 -1.0060  0.4260 -0.3118
 2821SOL    HW220097   4.328   2.135   7.553 -0.9287  2.4723  0.1902
 2822SOL     OW20098   3.204   4.559   4.863 -0.7088  0.0427  0.9451
 2822SOL    HW120099   3.208   4.613   4.942  0.2647  1.0981  0.1757
 2822SOL    HW220100   3.217   4.471   4.900  0.2137  0.5032  1.7190
 2823SOL     OW20101   0.132   2.701   1.413  0.1202  0.0655  0.4992
 2823SOL    HW120102   0.067   2.653   1.362 -0.3512  0.1683  1.0062
 2823SOL    HW220103   0.171   2.634   1.470  0.3565  0.2542  0.5592
 2824SOL     OW20104   3.467   0.140   5.496  0.1173 -0.4023 -0.5700
 2824SOL    HW120105   3.501   0.097   5.418  0.1223 -2.3157  0.4929
 2824SOL    HW220106   3.507   0.226   5.482  2.3620 -1.2260  0.7468
 2825SOL     OW20107   2.305   2.104  10.878  0.1765  0.5002 -0.2312
 2825SOL    HW120108   2.360   2.131  10.951  0.2977 -1.1852  0.3133
 2825SOL    HW220109   2.364   2.041  10.837  2.0770  1.5976  0.8323
 2826SOL     OW20110   2.644   0.847   6.096  0.0808  0.0764 -0.4251
 2826SOL    HW120111   2.581   0.807   6.156 -0.7538 -0.7264 -1.8462
 2826SOL    HW220112   2.691   0.902   6.159  0.2835 -0.3458 -0.2074
 2827SOL     OW20113   2.278   0.105   6.797 -0.3097  0.0394  0.2778
 2827SOL    HW120114   2.346   0.083   6.860  0.8712 -0.3147 -1.1273
 2827SOL    HW220115   2.283   0.020   6.753 -1.1546  0.6216 -0.9572
 2828SOL     OW20116   3.270   4.131  12.385  0.3009  0.0729  0.3369
 2828SOL    HW120117   3.282   4.046  12.343  2.8917  1.1137 -1.0394
 2828SOL    HW220118   3.227   4.172  12.310  0.4482 -1.1544 -0.4224
 2829SOL     OW20119   3.453   0.182   7.069  0.4671 -0.0371  0.6447
 2829SOL    HW120120   3.465   0.120   6.996  1.8440 -0.4441  1.2086
 2829SOL    HW220121   3.391   0.129   7.120  0.1480  0.1147  0.4148
 2830SOL     OW20122   3.610   2.445   5.601 -0.1226 -0.2070  0.0556
 2830SOL    HW120123   3.603   2.432   5.507  0.5383 -1.7262  0.2128
 2830SOL    HW220124   3.703   2.464   5.616  0.6448 -1.7297 -2.8461
 2831SOL     OW20125   2.563   2.490   1.304  0.1525  0.0809  0.6587
 2831SOL    HW120126   2.558   2.394   1.305 -0.7179  0.1122 -0.8672
 2831SOL    HW220127   2.658   2.489   1.297 -0.0900 -0.1697 -2.4540
 2832SOL     OW20128   4.116   4.073   6.268 -0.6136  0.1368  0.2568
 2832SOL    HW120129   4.110   4.027   6.184 -0.7804 -2.0813  1.4782
 2832SOL    HW220130   4.075   4.154   6.239 -0.2320  0.1157 -0.3604
 2833SOL     OW20131   0.152   1.383   9.153  0.1339  0.4511 -0.3026
 2833SOL    HW120132   0.175   1.340   9.235 -0.2633  0.1321 -0.3574
 2833SOL    HW220133   0.199   1.466   9.156  0.1835  0.3970  0.4664
 2834SOL     OW20134   0.513   1.644   3.026  0.7712  0.0906 -0.4060
 2834SOL    HW120135   0.482   1.582   3.092  0.4556 -0.5311 -1.1477
 2834SOL    HW220136   0.473   1.605   2.949  1.4550 -0.9354 -0.2242
 2835SOL     OW20137   0.237   2.798   4.551 -0.6544  0.1408 -0.0272
 2835SOL    HW120138   0.279   2.797   4.465  1.2732 -1.6286  0.9533
 2835SOL    HW220139   0.147   2.774   4.528 -0.0640 -1.3176 -0.7840
 2836SOL     OW20140   4.021   4.235   8.638 -0.1373  0.0057  0.2653
 2836SOL    HW120141   4.001   4.202   8.726 -0.4727  2.0849  0.9679
 2836SOL    HW220142   3.932   4.262   8.613  0.2286  1.2268  0.2887
 2837SOL     OW20143   2.559   3.292   1.205  0.0833  0.2447 -0.1412
 2837SOL    HW120144   2.616   3.274   1.280  1.7486 -0.0114 -1.4653
 2837SOL    HW220145   2.547   3.384   1.231 -1.3348 -0.1238  0.5154
 2838SOL     OW20146   4.126   1.985   7.192 -0.2475  0.6821  0.5365
 2838SOL    HW120147   4.203   1.993   7.247  0.4575  1.1599 -0.5159
 2838SOL    HW220148   4.095   1.895   7.192  1.1954  0.1925  2.6994
 2839SOL     OW20149   0.076   0.570   8.734 -0.4659 -0.3955  0.4654
 2839SOL    HW120150   0.007   0.505   8.721 -0.1163 -0.3186 -1.7776
 2839SOL    HW220151   0.039   0.647   8.691  0.5429 -0.3782 -0.3789
 2840SOL     OW20152   3.979   0.736  16.139  0.1324 -0.5563 -0.6882
 2840SOL    HW120153   4.054   0.718  16.082 -0.1475 -0.9381 -0.9360
 2840SOL    HW220154   3.906   0.750  16.078  1.1015 -2.0330 -2.2067
 2841SOL     OW20155   2.524   1.364   4.642  0.3241  0.5317 -0.0215
 2841SOL    HW120156   2.534   1.459   4.633  0.2121  0.2752 -2.8105
 2841SOL    HW220157   2.454   1.348   4.579 -0.3753  0.3712  0.7915
 2842SOL     OW20158   3.858   1.589   8.714 -0.4204  0.0539 -0.3505
 2842SOL    HW120159   3.811   1.618   8.636 -0.8567  1.7108  0.5272
 2842SOL    HW220160   3.807   1.512   8.738 -1.4262  0.7508 -0.2437
 2843SOL     OW20161   2.602   4.198  14.880 -0.0239  0.4675 -0.3306
 2843SOL    HW120162   2.561   4.258  14.817 -0.5188 -0.3266 -0.7536
 2843SOL    HW220163   2.659   4.146  14.824  1.5476 -0.1391  1.8256
 2844SOL     OW20164   2.270   4.024   1.999  0.1548  0.0211  0.3859
 2844SOL    HW120165   2.226   4.107   1.983 -0.9332 -0.1992  2.2966
 2844SOL    HW220166   2.223   4.002   2.079 -0.7052 -1.2897 -0.4824
 2845SOL     OW20167   3.551   0.211  14.644  0.7734 -0.3461  0.0411
 2845SOL    HW120168   3.463   0.180  14.664  0.7346 -0.3095 -0.0760
 2845SOL    HW220169   3.560   0.192  14.551  0.6406  2.4475 -0.5383
 2846SOL     OW20170   3.028   3.129   5.582  0.2482  0.0263  0.3550
 2846SOL    HW120171   3.062   3.217   5.597 -1.4517  0.5161  1.3229
 2846SOL    HW220172   3.110   3.082   5.565 -0.0986 -0.1587 -0.8109
 2847SOL     OW20173   0.374   1.657   6.392  0.1162 -0.2415 -0.0784
 2847SOL    HW120174   0.355   1.564   6.376  1.5403 -0.4066 -0.7878
 2847SOL    HW220175   0.316   1.670   6.467 -0.2411  0.5558 -0.4941
 2848SOL     OW20176   1.077   3.491   5.654 -0.2601 -0.4937  0.0706
 2848SOL    HW120177   1.094   3.406   5.615  2.1308 -0.2679  0.6308
 2848SOL    HW220178   1.095   3.479   5.748 -1.9509 -3.7093 -0.0041
 2849SOL     OW20179   2.214   3.448   5.504  0.0817  0.2448  0.0536
 2849SOL    HW120180   2.195   3.532   5.461 -1.2241 -0.6898 -1.1757
 2849SOL    HW220181   2.164   3.382   5.456 -0.1405  1.8188 -1.8826
 2850SOL     OW20182   1.128   3.898  13.466  0.1355  0.3976 -0.6892
 2850SOL    HW120183   1.101   3.947  13.389 -0.7417  1.7357  0.4509
 2850SOL    HW220184   1.051   3.846  13.490 -0.1751  1.1219 -0.1196
 2851SOL     OW20185   1.841   2.011   5.785 -0.3104 -0.1606  0.0477
 2851SOL    HW120186   1.831   2.105   5.772 -1.1463 -0.0127  1.8337
 2851SOL    HW220187   1.816   1.998   5.876 -1.0252 -1.2214 -0.3009
 2852SOL     OW20188   1.596   2.676   7.727  0.8205  0.5509  0.2403
 2852SOL    HW120189   1.597   2.667   7.822  1.6943  1.1499  0.2830
 2852SOL    HW220190   1.564   2.766   7.718 -0.9550 -0.4315 -3.7394
 2853SOL     OW20191   1.953   2.195   0.481  0.0634  0.5008  0.1876
 2853SOL    HW120192   1.943   2.177   0.388  0.6522  0.5401  0.1218
 2853SOL    HW220193   2.037   2.239   0.468 -0.1035  0.0854 -2.1567
 2854SOL     OW20194   2.137   3.339   6.660  0.3936 -0.1460 -0.0732
 2854SOL    HW120195   2.155   3.249   6.633  0.7064  0.8127 -2.9933
 2854SOL    HW220196   2.088   3.331   6.742  0.8444  1.4214  0.3500
 2855SOL     OW20197   3.031   2.684   7.424  0.3563 -0.5864  0.3718
 2855SOL    HW120198   3.047   2.614   7.488 -2.7266  0.2210  2.0204
 2855SOL    HW220199   2.963   2.741   7.460 -0.1796 -0.7851 -0.3172
 2856SOL     OW20200   1.580   2.693   4.195 -0.2889 -0.1526  0.6581
 2856SOL    HW120201   1.529   2.616   4.222  1.1619 -1.8791 -1.5418
 2856SOL    HW220202   1.568   2.700   4.101  0.3096 -1.5783  0.4686
 2857SOL     OW20203   2.989   3.411   5.830  0.0464  0.4363 -0.4410
 2857SOL    HW120204   3.058   3.347   5.811  1.5621  1.2441  2.4140
 2857SOL    HW220205   2.949   3.369   5.907  0.7539  1.8133  0.6660
 2858SOL     OW20206   1.339   2.127   9.476  0.4071  0.1323 -0.6234
 2858SOL    HW120207   1.362   2.141   9.384  2.6372  1.9915  0.2071
 2858SOL    HW220208   1.285   2.049   9.462 -0.6086  0.7694 -0.2046
 2859SOL     OW20209   3.040   1.086   9.118  0.1218 -0.1862  0.1755
 2859SOL    HW120210   3.046   1.153   9.186  1.8035 -0.2943  0.1330
 2859SOL    HW220211   3.037   1.133   9.035 -1.7542  0.6163  0.7046
 2860SOL     OW20212   3.910   2.779   7.195 -0.5517 -0.6775 -0.5663
 2860SOL    HW120213   3.952   2.710   7.246 -3.5470 -0.7026  1.7951
 2860SOL    HW220214   3.927   2.739   7.109  0.6362 -0.6292 -0.3602
 2861SOL     OW20215   2.787   0.306   6.997  0.0411 -0.1367 -0.6438
 2861SOL    HW120216   2.760   0.322   7.088  1.9934 -0.2141 -0.0629
 2861SOL    HW220217   2.863   0.362   6.981 -0.9297  1.1610 -0.7706
 2862SOL     OW20218   2.015   1.119   7.879  0.6164 -0.2289  0.2662
 2862SOL    HW120219   2.100   1.158   7.857  0.3938 -0.6910 -1.4418
 2862SOL    HW220220   2.011   1.155   7.968 -1.3091  1.6650 -0.5849
 2863SOL     OW20221   4.438   0.926   7.058 -0.1025  0.2220 -0.0606
 2863SOL    HW120222   4.480   1.012   7.055  0.4878 -0.1092 -1.3632
 2863SOL    HW220223   4.358   0.949   7.011 -0.0603  0.7097  0.1124
 2864SOL     OW20224   2.785   3.017   2.651  0.1688  0.4486 -0.3355
 2864SOL    HW120225   2.736   2.948   2.695 -0.9970  0.2014 -2.0123
 2864SOL    HW220226   2.711   3.074   2.630 -0.3860 -0.2922 -0.3729
 2865SOL     OW20227   2.441   1.596   3.389 -0.2374  0.6362  0.1026
 2865SOL    HW120228   2.376   1.557   3.330 -1.0679  0.7830  0.9185
 2865SOL    HW220229   2.404   1.683   3.407 -1.0950  0.1889  0.5154
 2866SOL     OW20230   3.212   3.572   3.802  0.0414  0.3709 -0.1743
 2866SOL    HW120231   3.191   3.511   3.731 -0.9510  1.3168 -0.7047
 2866SOL    HW220232   3.125   3.580   3.841  0.4306 -2.6490  1.3407
 2867SOL     OW20233   3.400   2.883  14.270  0.3186  0.4739  0.3580
 2867SOL    HW120234   3.443   2.834  14.340 -1.6290 -0.2818  1.0438
 2867SOL    HW220235   3.322   2.917  14.316 -0.9185 -0.6100 -0.9316
 2868SOL     OW20236   3.774   0.383  11.965  0.0864 -0.1447 -0.6288
 2868SOL    HW120237   3.812   0.408  11.881  0.3702  2.2766  0.2106
 2868SOL    HW220238   3.757   0.290  11.951 -0.7953 -0.2360  1.1121
 2869SOL     OW20239   1.163   0.907   9.673 -0.1387  0.1961  0.8359
 2869SOL    HW120240   1.150   0.818   9.708  0.0294  0.0651  0.5662
 2869SOL    HW220241   1.077   0.945   9.690 -1.8212 -2.5060 -1.5790
 2870SOL     OW20242   2.118   1.050  11.753 -0.1890 -0.4294 -0.0251
 2870SOL    HW120243   2.105   1.026  11.845 -2.2882 -1.8724 -0.7152
 2870SOL    HW220244   2.210   1.024  11.742  0.4765  2.0507 -0.2213
 2871SOL     OW20245   3.252   0.352   8.567  0.0223 -0.2973  0.1953
 2871SOL    HW120246   3.274   0.384   8.654 -1.7013 -0.3974  0.6770
 2871SOL    HW220247   3.184   0.290   8.592 -0.3453  0.0914  0.1589
 2872SOL     OW20248   3.752   1.310   8.723  0.1715 -0.3869 -0.4319
 2872SOL    HW120249   3.706   1.287   8.642 -1.0123 -1.1399  0.4619
 2872SOL    HW220250   3.684   1.295   8.787 -1.1755 -0.8637 -1.9782
 2873SOL     OW20251   3.145   2.417   2.420  0.0204 -0.3113 -0.1824
 2873SOL    HW120252   3.077   2.438   2.356 -0.1543  2.6742  0.9982
 2873SOL    HW220253   3.175   2.345   2.365 -1.5171 -0.1211 -1.2643
 2874SOL     OW20254   3.822   3.535   8.831  0.0743 -0.5758 -0.1515
 2874SOL    HW120255   3.874   3.491   8.898 -0.5757 -0.3454  0.5031
 2874SOL    HW220256   3.889   3.534   8.763  1.4286  0.7891  1.1508
 2875SOL     OW20257   0.812   3.260   7.002  0.3048 -0.0978  0.4675
 2875SOL    HW120258   0.804   3.184   6.945 -2.0063  0.3092  0.2476
 2875SOL    HW220259   0.791   3.219   7.086  0.8874 -0.7065  0.3141
 2876SOL     OW20260   0.720   0.556   7.538  0.2532 -0.2409  0.3396
 2876SOL    HW120261   0.812   0.555   7.567  0.1985 -0.4900  0.5009
 2876SOL    HW220262   0.740   0.516   7.454  1.1413 -2.2075  1.5044
 2877SOL     OW20263   2.139   2.520  11.306  0.0207  0.0953 -0.4413
 2877SOL    HW120264   2.079   2.467  11.359  0.1275  0.5632  0.1461
 2877SOL    HW220265   2.152   2.594  11.366  0.3600 -0.8249  0.6234
 2878SOL     OW20266   1.538   0.723   7.625  0.4719  0.1640 -0.3363
 2878SOL    HW120267   1.496   0.800   7.663  1.9770 -1.0484  3.7675
 2878SOL    HW220268   1.484   0.645   7.637 -2.4547  1.9923 -1.8208
 2879SOL     OW20269   2.883   2.824   1.563  0.5236  0.4441 -0.0432
 2879SOL    HW120270   2.814   2.796   1.623  1.9038 -1.3807  0.7049
 2879SOL    HW220271   2.953   2.812   1.627 -0.6920  0.4960  1.2894
 2880SOL     OW20272   4.270   1.578   2.511  0.2810  0.2258 -0.1299
 2880SOL    HW120273   4.195   1.519   2.520 -1.2879  1.4518 -5.5481
 2880SOL    HW220274   4.340   1.518   2.537 -0.2366 -0.3656 -0.1094
 2881SOL     OW20275   2.968   3.862   5.305 -0.2086  0.2193 -0.4161
 2881SOL    HW120276   2.893   3.902   5.261  0.1962  1.1928 -0.2289
 2881SOL    HW220277   3.013   3.934   5.349 -1.9881  0.5187  0.9471
 2882SOL     OW20278   2.031   4.533   2.833 -0.4575  0.0342 -0.2448
 2882SOL    HW120279   2.109   4.587   2.820 -1.1988  1.3532  0.8075
 2882SOL    HW220280   2.068   4.448   2.857 -0.4596  0.2246  0.4374
 2883SOL     OW20281   4.109   2.533   8.622 -0.2403  0.1746 -0.2941
 2883SOL    HW120282   4.154   2.499   8.699 -0.0550  0.2784 -0.3564
 2883SOL    HW220283   4.038   2.585   8.660 -0.7944 -0.2315 -0.7689
 2884SOL     OW20284   0.322   0.047   5.618  0.4959 -0.5278 -0.5038
 2884SOL    HW120285   0.348   4.697   5.574 -0.4978 -1.1287  0.0217
 2884SOL    HW220286   0.401   0.067   5.668 -0.6946  0.6463  0.9012
 2885SOL     OW20287   3.297   4.553   6.271  0.1666 -0.0537 -0.2732
 2885SOL    HW120288   3.363   4.622   6.264 -1.1997  1.0190 -2.4187
 2885SOL    HW220289   3.322   4.516   6.356  1.0152 -1.1367 -0.9953
 2886SOL     OW20290   3.154   2.236   5.356  0.3994  0.7212  0.1467
 2886SOL    HW120291   3.249   2.230   5.353  0.2067 -1.7995 -1.0119
 2886SOL    HW220292   3.118   2.308   5.303 -2.2017  0.1518  1.1255
 2887SOL     OW20293   1.660   2.862   2.469  0.1996 -0.1113 -0.1185
 2887SOL    HW120294   1.755   2.858   2.458  0.2036  0.1596 -0.1752
 2887SOL    HW220295   1.649   2.944   2.420  1.8090  0.1233 -0.0889
 2888SOL     OW20296   1.997   0.482  17.168 -0.2488  0.0156  0.1929
 2888SOL    HW120297   2.075   0.445  17.127 -0.7803 -1.8776  0.9209
 2888SOL    HW220298   1.950   0.520  17.093 -0.1074 -0.1465  0.0230
 2889SOL     OW20299   4.688   2.560  14.833 -0.0904 -0.4135 -0.8884
 2889SOL    HW120300   4.711   2.570  14.741 -0.9935 -1.1441 -1.1957
 2889SOL    HW220301   0.039   2.585  14.876 -1.1795 -0.0848  1.0347
 2890SOL     OW20302   1.277   2.628   2.085  0.0665  0.3338 -0.5655
 2890SOL    HW120303   1.367   2.625   2.117 -0.1670 -3.1337 -0.2175
 2890SOL    HW220304   1.300   2.678   2.007  0.5319  0.1467 -0.5480
 2891SOL     OW20305   3.068   2.356  11.348 -0.1458 -0.4499 -0.2039
 2891SOL    HW120306   3.084   2.327  11.438 -3.9936  2.1882  1.3056
 2891SOL    HW220307   2.977   2.383  11.355  0.2005  1.0513 -1.5199
 2892SOL     OW20308   4.220   0.573   3.781 -0.5085 -0.2904  0.0445
 2892SOL    HW120309   4.277   0.649   3.768  0.0752 -0.5311  1.2275
 2892SOL    HW220310   4.145   0.608   3.733 -1.4247 -1.3774  0.6747
 2893SOL     OW20311   4.135   0.917  11.110 -0.2018  0.1166 -0.3784
 2893SOL    HW120312   4.066   0.853  11.127 -0.2999  0.3501  0.0781
 2893SOL    HW220313   4.202   0.887  11.172  1.7739 -0.7218 -2.9034
 2894SOL     OW20314   1.880   2.079  10.258  0.3763 -0.6379  0.6705
 2894SOL    HW120315   1.813   2.103  10.322 -0.8902  0.5269 -1.0969
 2894SOL    HW220316   1.926   2.163  10.258 -1.3843  0.3258 -0.9377
 2895SOL     OW20317   2.527   3.653  15.268  0.1061 -0.3575 -0.0596
 2895SOL    HW120318   2.461   3.717  15.241 -0.3630 -1.5196 -1.6545
 2895SOL    HW220319   2.493   3.620  15.351  0.1558  0.3617  0.2480
 2896SOL     OW20320   3.318   2.509   3.284 -0.2940 -0.2498 -0.0246
 2896SOL    HW120321   3.317   2.486   3.192  0.7421 -0.4052  0.0032
 2896SOL    HW220322   3.407   2.545   3.285 -0.1972 -0.4641 -0.8913
 2897SOL     OW20323   4.101   1.484  10.516  0.3385 -0.1989 -0.2047
 2897SOL    HW120324   4.043   1.557  10.491 -2.5333 -1.8459  1.5853
 2897SOL    HW220325   4.189   1.518  10.531 -0.2361  1.7070 -1.1513
 2898SOL     OW20326   2.763   0.240   3.323 -0.5266  0.2335 -0.1254
 2898SOL    HW120327   2.772   0.333   3.344 -1.6313  0.3086  0.0205
 2898SOL    HW220328   2.737   0.255   3.232  1.1257 -1.3829 -0.8557
 2899SOL     OW20329   4.663   1.712   2.842 -0.1938  0.4382 -0.5710
 2899SOL    HW120330   4.686   1.778   2.778 -0.2076 -0.4764 -1.5181
 2899SOL    HW220331   0.015   1.683   2.879  1.0022  0.9598 -2.9138
 2900SOL     OW20332   1.210   4.185   5.403  0.1066 -0.7849 -0.4840
 2900SOL    HW120333   1.295   4.160   5.367 -0.0432 -1.3216 -0.4650
 2900SOL    HW220334   1.229   4.273   5.436  3.1869 -1.6278  0.0183
 2901SOL     OW20335   3.665   2.897   7.246 -0.0391  0.5789  0.0760
 2901SOL    HW120336   3.620   2.815   7.227 -1.0931  1.0464  0.5673
 2901SOL    HW220337   3.754   2.863   7.256 -0.3479 -0.3495 -0.3737
 2902SOL     OW20338   4.352   1.766   5.463  0.3302  0.2392 -0.3428
 2902SOL    HW120339   4.257   1.752   5.471  0.1393  1.4765 -0.4623
 2902SOL    HW220340   4.364   1.779   5.369  0.6784 -1.0562 -0.4774
 2903SOL     OW20341   0.891   0.429   1.506  0.2557 -0.0338  0.0442
 2903SOL    HW120342   0.878   0.366   1.435 -0.0523 -1.2551  1.1650
 2903SOL    HW220343   0.909   0.503   1.449 -1.0619  0.9467  0.9135
 2904SOL     OW20344   3.612   0.462   7.435 -0.1832  0.0889 -0.7282
 2904SOL    HW120345   3.532   0.411   7.443  0.7534 -1.2863 -0.0455
 2904SOL    HW220346   3.656   0.418   7.363  0.6456 -2.3685  1.2536
 2905SOL     OW20347   1.297   4.035   3.934 -0.2137  0.0246 -0.3745
 2905SOL    HW120348   1.294   3.965   3.999 -2.5453  0.9898  0.5421
 2905SOL    HW220349   1.303   4.116   3.985  1.0618  0.1491 -0.7059
 2906SOL     OW20350   4.173   1.021  14.609 -0.2693 -0.4316 -0.5139
 2906SOL    HW120351   4.252   0.974  14.637 -0.8425 -1.1925 -0.1496
 2906SOL    HW220352   4.115   0.945  14.594  2.0907 -2.7105  1.8484
 2907SOL     OW20353   3.121   2.448   8.962  0.2523 -0.0953  0.5369
 2907SOL    HW120354   3.163   2.534   8.955 -0.0916  0.0775  0.5841
 2907SOL    HW220355   3.036   2.471   8.925  0.4264 -1.9677 -1.0072
 2908SOL     OW20356   2.193   0.907   4.021  0.6242 -0.4213 -0.3607
 2908SOL    HW120357   2.178   0.964   3.945 -1.3172  1.3828  1.4044
 2908SOL    HW220358   2.274   0.931   4.065  0.2876  2.9255 -1.5528
 2909SOL     OW20359   3.042   4.570   8.258 -0.5560 -0.3450  0.4168
 2909SOL    HW120360   2.963   4.622   8.276  0.1441  0.5640  0.8677
 2909SOL    HW220361   3.040   4.585   8.164 -0.8752 -2.8850  0.0354
 2910SOL     OW20362   1.657   0.951   5.317  0.8939  0.1153  0.3793
 2910SOL    HW120363   1.644   0.857   5.307  0.8165  0.4652 -2.5536
 2910SOL    HW220364   1.743   0.952   5.360  1.8378  0.5044 -1.5172
 2911SOL     OW20365   2.009   4.343   9.757  0.3644 -0.7096 -0.8566
 2911SOL    HW120366   2.064   4.347   9.836 -1.3434 -0.8095  0.3265
 2911SOL    HW220367   1.927   4.319   9.799  0.8153 -0.8701 -0.0584
 2912SOL     OW20368   2.686   2.566   2.132 -0.2928  0.4677  0.3898
 2912SOL    HW120369   2.605   2.612   2.151  0.0001 -0.1369  3.2262
 2912SOL    HW220370   2.667   2.505   2.061 -1.1503  0.4184  0.6655
 2913SOL     OW20371   2.392   0.399   7.651 -0.7839  0.1597  0.0598
 2913SOL    HW120372   2.354   0.319   7.687  1.8049 -0.9657  0.2949
 2913SOL    HW220373   2.407   0.440   7.737 -0.4475  0.9155 -0.3563
 2914SOL     OW20374   0.795   2.916   2.781 -0.0587  0.0706 -0.3874
 2914SOL    HW120375   0.752   2.994   2.746  0.0790 -0.2695 -1.3082
 2914SOL    HW220376   0.724   2.854   2.764  0.6750 -0.8730 -0.0254
 2915SOL     OW20377   3.036   2.090  11.799  0.0795 -0.1240 -0.0731
 2915SOL    HW120378   3.121   2.111  11.760  0.7778 -1.6336  0.6129
 2915SOL    HW220379   3.062   2.008  11.841  1.3649 -0.1506 -0.9069
 2916SOL     OW20380   3.987   1.564   7.488  0.7704  0.1319 -0.0978
 2916SOL    HW120381   4.068   1.561   7.436  0.6120 -1.0278 -0.2709
 2916SOL    HW220382   3.950   1.479   7.465 -1.9952  1.4393 -0.4506
 2917SOL     OW20383   3.492   4.602   7.079  0.3685 -0.2313 -0.7802
 2917SOL    HW120384   3.519   4.530   7.022  2.1780  0.5874 -0.9509
 2917SOL    HW220385   3.399   4.583   7.091  0.4933  0.9555  2.0025
 2918SOL     OW20386   1.762   3.691   1.703 -0.0379 -0.2450 -1.0046
 2918SOL    HW120387   1.818   3.688   1.626  2.7354  0.4215  1.0084
 2918SOL    HW220388   1.820   3.644   1.763 -0.4401 -0.6374 -0.9218
 2919SOL     OW20389   1.021   4.583   8.487 -0.1574  0.1196 -0.1850
 2919SOL    HW120390   1.053   4.661   8.532 -1.5080  0.9342 -0.6237
 2919SOL    HW220391   1.024   4.601   8.393 -0.9370 -2.4112 -0.6838
 2920SOL     OW20392   3.196   3.138  17.570  0.5358 -0.0431  0.8110
 2920SOL    HW120393   3.160   3.227  17.573  0.3301 -0.0877 -0.0572
 2920SOL    HW220394   3.156   3.111  17.487  0.9290  0.0622  0.5856
 2921SOL     OW20395   3.348   0.619   5.057 -0.3432 -0.6040 -0.1437
 2921SOL    HW120396   3.381   0.701   5.093  2.7183 -1.3501 -1.2564
 2921SOL    HW220397   3.319   0.647   4.970  0.8415 -0.8213 -0.6105
 2922SOL     OW20398   1.318   0.637   9.206 -0.1037 -0.3823  0.1055
 2922SOL    HW120399   1.322   0.633   9.302 -2.6817 -1.4735  0.1718
 2922SOL    HW220400   1.307   0.545   9.184  2.2500 -0.5468 -0.4162
 2923SOL     OW20401   1.626   1.647   1.385 -0.8742 -0.1398 -0.1013
 2923SOL    HW120402   1.684   1.721   1.365 -1.1332 -0.5594 -2.4675
 2923SOL    HW220403   1.697   1.585   1.402 -2.5448 -1.4235  2.0764
 2924SOL     OW20404   0.677   1.016   4.359  0.4610 -0.0308  0.1493
 2924SOL    HW120405   0.586   0.989   4.366  0.3744  0.7941  2.1551
 2924SOL    HW220406   0.686   1.047   4.269 -1.7338 -0.2813 -0.1491
 2925SOL     OW20407   1.519   2.359   4.975  0.3482 -0.2392  0.0590
 2925SOL    HW120408   1.426   2.376   4.959  0.2947 -0.7259 -0.1630
 2925SOL    HW220409   1.538   2.429   5.037  3.2416  0.0149 -1.1282
 2926SOL     OW20410   3.402   0.633   7.495 -0.3119 -0.0759  0.0758
 2926SOL    HW120411   3.493   0.660   7.484 -0.2978  0.4701  1.5452
 2926SOL    HW220412   3.383   0.620   7.402  1.9004  0.1175 -0.4028
 2927SOL     OW20413   4.235   3.823   8.501 -0.4233 -0.4048  0.7188
 2927SOL    HW120414   4.248   3.896   8.439 -1.5411 -0.1849  0.7400
 2927SOL    HW220415   4.161   3.859   8.551 -0.0048  0.1113  0.9704
 2928SOL     OW20416   1.774   3.722   8.169  0.1638 -0.8081 -0.4642
 2928SOL    HW120417   1.713   3.700   8.098 -0.5303  3.5564 -1.2006
 2928SOL    HW220418   1.859   3.709   8.127 -0.0579 -1.1172 -0.8228
 2929SOL     OW20419   1.147   1.197  14.309 -0.2794 -0.0096 -0.2824
 2929SOL    HW120420   1.146   1.278  14.360 -0.9706 -0.6571  0.7542
 2929SOL    HW220421   1.122   1.228  14.223 -0.2820 -0.9578 -0.6246
 2930SOL     OW20422   4.104   0.533   2.583  0.3221 -0.1616 -0.5711
 2930SOL    HW120423   4.022   0.493   2.552 -1.5787  1.2312  2.6906
 2930SOL    HW220424   4.162   0.457   2.569 -0.4428 -0.7218 -0.7163
 2931SOL     OW20425   2.951   0.652   3.128 -0.4999  0.3370 -0.0556
 2931SOL    HW120426   3.018   0.610   3.181 -0.7474 -0.7530 -0.6252
 2931SOL    HW220427   3.002   0.722   3.086 -1.9829  1.2689 -0.3360
 2932SOL     OW20428   2.692   2.415   3.212 -0.3066 -0.0799  0.4457
 2932SOL    HW120429   2.713   2.331   3.253 -0.8508  0.1496  1.1880
 2932SOL    HW220430   2.761   2.468   3.251 -2.1672  3.7581 -1.5479
 2933SOL     OW20431   4.514   3.591  13.437  0.5698 -0.4357 -0.6278
 2933SOL    HW120432   4.424   3.591  13.470  0.5140  2.3048 -0.7469
 2933SOL    HW220433   4.568   3.555  13.508 -1.5485 -1.7159  0.3477
 2934SOL     OW20434   0.257   4.373   6.695 -0.6125 -0.3628  0.2276
 2934SOL    HW120435   0.217   4.381   6.782  1.3865  0.0115  1.1080
 2934SOL    HW220436   0.188   4.385   6.630  1.0051 -0.8739 -1.5833
 2935SOL     OW20437   4.096   0.552   6.240  0.2845 -0.0549  0.3593
 2935SOL    HW120438   4.032   0.482   6.253  1.2835 -1.2995 -1.3635
 2935SOL    HW220439   4.038   0.624   6.215  1.4554  1.5532  2.2954
 2936SOL     OW20440   4.577   4.262  11.247  0.6167 -0.2958  0.0666
 2936SOL    HW120441   4.511   4.292  11.310 -2.1637 -1.5539 -2.2690
 2936SOL    HW220442   4.522   4.196  11.205 -0.9496 -0.0948  1.8047
 2937SOL     OW20443   4.368   3.406   3.421  0.1486  0.2463 -0.2105
 2937SOL    HW120444   4.377   3.479   3.483  1.6136 -0.3211  0.2664
 2937SOL    HW220445   4.364   3.330   3.479  1.9694  0.5357  0.2921
 2938SOL     OW20446   4.246   3.765   3.390  0.2106 -0.5485  0.1184
 2938SOL    HW120447   4.247   3.809   3.475 -3.2262  0.4047 -0.3318
 2938SOL    HW220448   4.340   3.747   3.386  0.0931 -1.4088  1.1554
 2939SOL     OW20449   2.371   2.211   5.900 -0.1113 -0.0879 -0.1059
 2939SOL    HW120450   2.440   2.236   5.840  1.6184  1.7098  2.6328
 2939SOL    HW220451   2.375   2.119   5.874 -0.4845 -0.0115 -0.4380
 2940SOL     OW20452   4.602   2.193   5.360 -0.4594  0.1786 -0.7460
 2940SOL    HW120453   4.566   2.135   5.427 -1.0622  1.8332  0.3544
 2940SOL    HW220454   4.651   2.252   5.417 -0.2387 -0.8964  0.1734
 2941SOL     OW20455   0.923   1.559   3.743  0.0459 -0.5108 -0.2376
 2941SOL    HW120456   0.854   1.559   3.676 -0.8338  0.4944  0.6739
 2941SOL    HW220457   0.922   1.465   3.760  0.0132 -0.5068 -0.2172
 2942SOL     OW20458   0.542   2.818  17.155  0.3085 -0.8796  0.2339
 2942SOL    HW120459   0.538   2.726  17.177  0.9614 -1.0342 -0.2762
 2942SOL    HW220460   0.472   2.864  17.201  0.8854 -1.3061  1.5122
 2943SOL     OW20461   3.429   3.462   8.294  0.1751  0.5384 -0.2739
 2943SOL    HW120462   3.525   3.463   8.290  0.1416  1.3732 -0.8160
 2943SOL    HW220463   3.414   3.512   8.213 -0.0011  0.8856 -0.0241
 2944SOL     OW20464   3.596   0.167   7.656 -0.7091  0.0992  0.5259
 2944SOL    HW120465   3.672   0.225   7.655 -0.2453 -0.5639 -2.7820
 2944SOL    HW220466   3.532   0.224   7.700  0.4557  1.2126  0.7850
 2945SOL     OW20467   4.707   3.511  14.183 -0.3102 -0.0399  0.6966
 2945SOL    HW120468   0.008   3.501  14.094  0.3788 -1.0642  1.0635
 2945SOL    HW220469   0.045   3.465  14.231  0.1496  1.3035  1.3059
 2946SOL     OW20470   4.120   3.515   2.698 -0.0865  0.2567 -0.0531
 2946SOL    HW120471   4.078   3.495   2.782 -0.5934  0.2278 -0.3104
 2946SOL    HW220472   4.087   3.603   2.681  0.9019  0.7577  0.6226
 2947SOL     OW20473   2.544   0.296  10.596  0.1563  0.0483 -0.0187
 2947SOL    HW120474   2.471   0.337  10.643 -0.6891 -1.1985 -0.2383
 2947SOL    HW220475   2.501   0.210  10.589 -0.9356  0.6689 -0.9617
 2948SOL     OW20476   1.906   2.823   9.303  0.2898  0.0418  0.3212
 2948SOL    HW120477   1.951   2.882   9.364 -1.2007  1.1251  0.3633
 2948SOL    HW220478   1.905   2.879   9.225  1.9886  1.0215  0.9950
 2949SOL     OW20479   0.649   1.053   8.845  0.3544 -0.1516  0.0583
 2949SOL    HW120480   0.739   1.024   8.828  0.7402  0.3984  1.1590
 2949SOL    HW220481   0.609   0.969   8.824  1.3149 -0.2719 -1.3266
 2950SOL     OW20482   1.296   3.394   4.882 -0.0972 -0.1425 -0.5808
 2950SOL    HW120483   1.281   3.403   4.788 -1.4064  2.6481 -0.1171
 2950SOL    HW220484   1.215   3.358   4.918  0.7479 -0.7516  0.6990
 2951SOL     OW20485   3.233   4.412   7.051  0.1678 -0.0694 -0.0197
 2951SOL    HW120486   3.149   4.379   7.016  0.0761  0.3963 -0.2306
 2951SOL    HW220487   3.278   4.334   7.018  0.6356 -0.2994  1.1756
 2952SOL     OW20488   1.222   0.140   4.465  0.1334  0.0103  0.4181
 2952SOL    HW120489   1.299   0.084   4.469  0.9294  1.1946  1.7397
 2952SOL    HW220490   1.165   0.101   4.399  1.1011 -1.6741  0.5772
 2953SOL     OW20491   1.478   2.762  14.076 -1.0123  0.1029  0.2680
 2953SOL    HW120492   1.565   2.741  14.043 -0.8383  0.4863  0.4787
 2953SOL    HW220493   1.496   2.749  14.170  1.4050  0.2592 -0.1876
 2954SOL     OW20494   3.370   1.172   4.776  0.4257 -0.0435  0.6293
 2954SOL    HW120495   3.281   1.199   4.798  0.6118 -0.4172  1.8137
 2954SOL    HW220496   3.354   1.090   4.729 -0.9566  0.5339  0.0862
 2955SOL     OW20497   4.054   0.760  10.384 -0.5578  0.0620  0.2968
 2955SOL    HW120498   4.054   0.809  10.301 -1.8276  1.6738  1.2419
 2955SOL    HW220499   4.136   0.790  10.423 -0.4426  1.0616 -0.6889
 2956SOL     OW20500   1.985   3.635   1.932  0.1374 -0.0263  0.3881
 2956SOL    HW120501   2.072   3.608   1.961 -0.2210 -1.5012  0.0945
 2956SOL    HW220502   2.016   3.692   1.861  1.6866  1.4491  2.2603
 2957SOL     OW20503   0.236   1.066  11.020 -0.1925 -0.2133  0.3142
 2957SOL    HW120504   0.267   0.976  11.024  0.2770 -0.1240 -1.5996
 2957SOL    HW220505   0.147   1.055  10.986 -0.5612 -0.3161  1.2916
 2958SOL     OW20506   1.775   4.049   4.371 -0.2715 -0.7078 -0.0422
 2958SOL    HW120507   1.844   4.074   4.432 -0.2186  3.9100 -2.0176
 2958SOL    HW220508   1.701   4.091   4.414  0.4702  0.3914  0.1585
 2959SOL     OW20509   1.067   1.923   8.507 -0.0827 -0.2380 -0.1879
 2959SOL    HW120510   1.156   1.912   8.475  0.1873 -0.1172  0.5402
 2959SOL    HW220511   1.029   1.836   8.496 -0.4168 -0.1957  0.6232
 2960SOL     OW20512   0.360   4.398   8.135  0.7547 -0.1738  0.3401
 2960SOL    HW120513   0.325   4.325   8.085  0.9431  0.8830 -1.3639
 2960SOL    HW220514   0.450   4.366   8.138  0.3380 -1.6245 -2.8056
 2961SOL     OW20515   2.244   2.999   7.630  0.2823 -0.0083 -0.4619
 2961SOL    HW120516   2.174   2.952   7.584  0.2724 -1.5138  1.1052
 2961SOL    HW220517   2.222   3.092   7.628 -3.5509 -0.9527 -2.0606
 2962SOL     OW20518   3.306   3.598  14.498  0.0001  0.1756 -0.1959
 2962SOL    HW120519   3.361   3.534  14.452  0.4584 -1.0604  2.0689
 2962SOL    HW220520   3.271   3.548  14.572 -2.5609  1.0591 -0.8077
 2963SOL     OW20521   3.536   2.682   6.170 -0.6493 -0.1187  0.0564
 2963SOL    HW120522   3.536   2.587   6.157  0.3775 -0.0024 -0.7167
 2963SOL    HW220523   3.628   2.690   6.193 -0.5960  0.6144 -0.4099
 2964SOL     OW20524   1.644   1.091   0.594 -0.7752  0.1279 -0.5532
 2964SOL    HW120525   1.704   1.063   0.524 -0.7795 -0.6428 -0.2553
 2964SOL    HW220526   1.668   1.183   0.601  2.2770 -0.6121 -0.8952
 2965SOL     OW20527   0.729   3.743   7.479 -0.0285  0.2698 -0.1369
 2965SOL    HW120528   0.733   3.710   7.389  2.3791  2.5332 -0.8258
 2965SOL    HW220529   0.769   3.667   7.521  1.3918  1.5505  0.7967
 2966SOL     OW20530   4.714   4.681  14.159  0.5717 -0.2646 -0.1060
 2966SOL    HW120531   0.078   4.683  14.161  0.5685  1.0545 -0.9118
 2966SOL    HW220532   4.692   4.636  14.077  0.5155 -1.3223  0.4909
 2967SOL     OW20533   2.441   1.190   8.218 -0.7780 -0.4033  0.2095
 2967SOL    HW120534   2.411   1.100   8.217 -1.6147 -0.0971 -2.2653
 2967SOL    HW220535   2.534   1.190   8.241  0.0860  2.4915 -3.2081
 2968SOL     OW20536   2.393   3.404   4.866 -0.1356  0.1545  0.0944
 2968SOL    HW120537   2.313   3.353   4.855 -0.5786  0.6064  1.1748
 2968SOL    HW220538   2.399   3.434   4.776 -0.3313 -0.1881 -0.0320
 2969SOL     OW20539   4.251   2.245   8.458  0.3961 -0.4395 -0.7498
 2969SOL    HW120540   4.220   2.195   8.383 -0.3260 -2.4528  0.8861
 2969SOL    HW220541   4.207   2.198   8.529  1.9564 -0.6881  0.0569
 2970SOL     OW20542   0.740   0.117   5.962  0.2645 -0.0236  0.2135
 2970SOL    HW120543   0.795   0.184   5.923 -0.3131 -0.0428 -0.6190
 2970SOL    HW220544   0.685   0.085   5.891  0.0300  1.4540 -0.2624
 2971SOL     OW20545   1.845   0.387   6.812  0.2070 -0.1314  0.2530
 2971SOL    HW120546   1.856   0.383   6.717  0.3699 -0.1128  0.2703
 2971SOL    HW220547   1.935   0.373   6.843  0.1052  0.9085  1.0125
 2972SOL     OW20548   0.972   0.360   5.191  0.0223 -0.3804 -0.2449
 2972SOL    HW120549   0.901   0.296   5.190 -1.1701  0.9527 -1.5092
 2972SOL    HW220550   0.965   0.399   5.104  1.3168  0.3871  0.0018
 2973SOL     OW20551   2.628   2.990   5.228 -0.2182  0.0632 -0.4886
 2973SOL    HW120552   2.597   3.078   5.207 -0.2232 -0.5845 -3.0939
 2973SOL    HW220553   2.698   3.009   5.290 -0.8355 -0.4775  0.3755
 2974SOL     OW20554   2.161   4.185   0.022  0.3561 -0.3288  0.1770
 2974SOL    HW120555   2.196   4.150  17.665  0.4914  0.3568 -0.0593
 2974SOL    HW220556   2.105   4.111   0.045 -1.2869  0.8062 -0.1847
 2975SOL     OW20557   0.385   2.609  16.163 -0.4088  0.4897 -0.3711
 2975SOL    HW120558   0.374   2.649  16.249 -0.7705 -1.2112  0.3712
 2975SOL    HW220559   0.392   2.678  16.097 -1.8869 -1.4780 -2.6108
 2976SOL     OW20560   3.971   2.518   2.407  0.0512 -0.4422 -0.4667
 2976SOL    HW120561   3.925   2.592   2.447  1.8092  1.3245 -1.7149
 2976SOL    HW220562   3.904   2.472   2.357  1.7687 -1.6015 -1.6973
 2977SOL     OW20563   4.095   1.738   4.986  0.3087 -0.0222 -0.1541
 2977SOL    HW120564   4.042   1.659   5.002  2.2127 -1.4503 -0.9263
 2977SOL    HW220565   4.095   1.740   4.891 -0.0509  1.4037 -0.1128
 2978SOL     OW20566   2.937   3.210  14.057 -0.1324 -0.1946  0.1014
 2978SOL    HW120567   2.907   3.245  13.973 -1.4197  0.4610  0.8356
 2978SOL    HW220568   2.922   3.115  14.051  1.2659 -0.4643  1.0486
 2979SOL     OW20569   3.287   2.153   4.839 -0.1364  0.8086  0.2128
 2979SOL    HW120570   3.207   2.149   4.892  0.6922 -1.4780  1.3047
 2979SOL    HW220571   3.350   2.108   4.896  1.4942 -0.9129 -2.9601
 2980SOL     OW20572   1.824   3.295   4.787 -1.2210 -0.1030 -0.1239
 2980SOL    HW120573   1.897   3.348   4.816 -0.9326 -0.1569 -0.7458
 2980SOL    HW220574   1.862   3.207   4.789  0.6634  0.7431  0.6728
 2981SOL     OW20575   1.305   2.590   8.893  0.6623 -0.3312 -0.5754
 2981SOL    HW120576   1.362   2.518   8.919  0.9207 -0.3176 -1.0871
 2981SOL    HW220577   1.338   2.654   8.957  1.8266 -1.9652  0.4496
 2982SOL     OW20578   3.701   2.275  11.531  1.0270 -0.0061  0.4125
 2982SOL    HW120579   3.721   2.261  11.623  0.0279 -0.8534  0.4952
 2982SOL    HW220580   3.776   2.236  11.486 -1.1119 -2.2470 -1.2301
 2983SOL     OW20581   0.475   0.972   4.653  0.1837  0.0171 -0.0923
 2983SOL    HW120582   0.483   1.015   4.568  0.3999 -1.4346 -0.8048
 2983SOL    HW220583   0.394   0.923   4.638 -0.4833  1.1692 -0.2162
 2984SOL     OW20584   1.585   3.056  15.927 -0.4339  0.0270 -0.1476
 2984SOL    HW120585   1.491   3.040  15.937 -0.4635 -0.4403 -1.1995
 2984SOL    HW220586   1.599   3.136  15.877 -0.7611 -0.4752 -1.0441
 2985SOL     OW20587   3.598   1.221   7.986  0.7234 -0.1573  0.4019
 2985SOL    HW120588   3.680   1.251   8.025  0.8000  0.2739 -0.0996
 2985SOL    HW220589   3.635   1.200   7.901 -0.1256  0.4780 -0.1248
 2986SOL     OW20590   3.235   3.426   3.247 -0.0584  0.0171  0.3871
 2986SOL    HW120591   3.231   3.518   3.222 -3.5061  0.1237  1.3552
 2986SOL    HW220592   3.239   3.380   3.163 -0.1587  0.4125  0.1686
 2987SOL     OW20593   3.487   3.555  17.487  0.4844  0.0960  0.4852
 2987SOL    HW120594   3.507   3.645  17.460  0.8232  0.1734  1.0037
 2987SOL    HW220595   3.532   3.549  17.571 -3.4144 -2.0378  2.4258
 2988SOL     OW20596   4.410   2.863   4.976 -0.1873  0.2408 -0.8760
 2988SOL    HW120597   4.463   2.795   5.018  0.3862 -0.2859 -2.4791
 2988SOL    HW220598   4.368   2.806   4.912 -0.3649  0.2707 -0.7861
 2989SOL     OW20599   2.358   2.778   5.671  0.3663 -0.3146  0.3122
 2989SOL    HW120600   2.428   2.843   5.673  0.3536 -0.2733 -0.7276
 2989SOL    HW220601   2.288   2.832   5.710 -1.1758 -0.3866 -2.3333
 2990SOL     OW20602   4.560   2.611   0.576 -0.2375  0.1415  0.1336
 2990SOL    HW120603   4.546   2.682   0.639  0.5016 -0.0391  0.4938
 2990SOL    HW220604   4.475   2.587   0.539 -1.8478 -0.7013  4.4251
 2991SOL     OW20605   1.280   4.578   1.246  0.2929  0.1363 -0.2187
 2991SOL    HW120606   1.345   4.515   1.213  0.2386 -0.1466  0.2153
 2991SOL    HW220607   1.325   4.662   1.250 -0.6330  0.6226 -0.1886
 2992SOL     OW20608   3.822   0.294  14.686  0.1439 -0.0704  0.1341
 2992SOL    HW120609   3.729   0.300  14.706 -0.1423 -4.0449 -0.0428
 2992SOL    HW220610   3.825   0.231  14.615 -0.8753  0.7610 -0.6431
 2993SOL     OW20611   0.703   1.548   5.324 -0.1400 -0.5154  0.1998
 2993SOL    HW120612   0.744   1.520   5.406  0.2632 -0.5998 -0.0285
 2993SOL    HW220613   0.638   1.615   5.345 -0.6125 -1.4752  1.7591
 2994SOL     OW20614   0.676   2.889   9.671 -0.1417 -0.4212  0.2612
 2994SOL    HW120615   0.729   2.882   9.749  0.5787 -0.1573 -0.2052
 2994SOL    HW220616   0.722   2.951   9.614  0.9718 -2.4429 -1.0213
 2995SOL     OW20617   1.842   4.633   5.778  0.2123  0.6849  0.4073
 2995SOL    HW120618   1.889   4.698   5.725  0.4959  0.5414  0.4812
 2995SOL    HW220619   1.917   4.620   5.837 -0.4534 -2.4731  0.5246
 2996SOL     OW20620   2.132   2.909   0.843 -0.3339  0.2141 -0.6035
 2996SOL    HW120621   2.171   2.951   0.919 -1.0432 -0.5226  0.1565
 2996SOL    HW220622   2.072   2.979   0.817 -0.5376  0.2008 -0.1542
 2997SOL     OW20623   3.426   2.924  10.255 -0.1403 -0.2037 -0.1267
 2997SOL    HW120624   3.343   2.879  10.270  0.8607 -2.1099 -0.2698
 2997SOL    HW220625   3.471   2.870  10.320 -0.0975 -0.1889 -0.1442
 2998SOL     OW20626   2.709   1.146   8.236 -0.6220 -0.3962 -0.0135
 2998SOL    HW120627   2.785   1.091   8.258 -0.1818 -0.3790 -1.5297
 2998SOL    HW220628   2.719   1.199   8.315 -0.2802  0.6139 -0.7359
 2999SOL     OW20629   0.786   4.272  16.516  0.4961 -0.3308 -0.0495
 2999SOL    HW120630   0.779   4.363  16.545 -1.6783 -0.1482 -1.1802
 2999SOL    HW220631   0.801   4.228  16.600  2.3542  1.4846  0.5845
 3000SOL     OW20632   2.649   1.706  10.795  0.5918  0.0146  0.6659
 3000SOL    HW120633   2.639   1.633  10.735 -2.8664  1.0002  0.0758
 3000SOL    HW220634   2.737   1.734  10.770  0.0546  1.3113  0.2395
 3001SOL     OW20635   2.692   1.265   8.508 -0.3324  0.1858 -0.7544
 3001SOL    HW120636   2.750   1.223   8.571 -2.0149  2.0497  2.0030
 3001SOL    HW220637   2.658   1.342   8.552 -1.7952  1.2473 -3.7540
 3002SOL     OW20638   2.484   4.441   4.629 -0.2507  0.1107  0.4727
 3002SOL    HW120639   2.537   4.486   4.563 -2.1591  0.1614 -1.0246
 3002SOL    HW220640   2.438   4.513   4.671  2.8738  3.4742 -1.8016
 3003SOL     OW20641   2.179   0.626   8.418 -0.1217 -0.1040  0.4400
 3003SOL    HW120642   2.178   0.720   8.438  0.6184 -0.2731  1.2613
 3003SOL    HW220643   2.270   0.606   8.441 -0.7360 -1.8151  1.3451
 3004SOL     OW20644   2.244   0.863   3.507  0.4310  0.2568  0.1756
 3004SOL    HW120645   2.185   0.790   3.489  0.2034  0.8425 -1.5136
 3004SOL    HW220646   2.314   0.833   3.448 -1.2949 -2.8671 -0.2774
 3005SOL     OW20647   3.004   3.504   2.948 -0.1040  0.0168  0.0125
 3005SOL    HW120648   3.097   3.490   2.930 -0.3813 -1.2015 -0.4655
 3005SOL    HW220649   3.013   3.566   3.021 -1.8142 -0.1035  0.3403
 3006SOL     OW20650   0.997   2.681   4.587  0.4362  0.1117 -0.0726
 3006SOL    HW120651   1.028   2.764   4.623  0.9520  0.4709 -1.3185
 3006SOL    HW220652   0.915   2.670   4.636 -0.5795  1.6270 -1.4412
 3007SOL     OW20653   1.436   1.932  15.812  0.2498  0.3476  0.2956
 3007SOL    HW120654   1.447   2.023  15.784 -0.1913  0.4024  0.3089
 3007SOL    HW220655   1.347   1.920  15.844  0.4383 -0.9332  0.3282
 3008SOL     OW20656   0.570   0.876  10.946  0.0853  0.4406  0.1754
 3008SOL    HW120657   0.604   0.899  11.033  0.4893 -2.0614  0.6542
 3008SOL    HW220658   0.627   0.933  10.894  0.1882  0.0352 -0.1549
 3009SOL     OW20659   2.058   0.903   6.788  0.5466 -0.1734 -0.8052
 3009SOL    HW120660   2.004   0.824   6.782 -0.3515  0.3698  0.1153
 3009SOL    HW220661   2.033   0.933   6.876 -0.8383 -1.3718 -0.7956
 3010SOL     OW20662   0.352   2.572  10.698  0.0834  0.2002 -0.0108
 3010SOL    HW120663   0.380   2.663  10.711 -0.0216  0.1458  0.6143
 3010SOL    HW220664   0.371   2.534  10.784  0.8451  3.9020  1.4858
 3011SOL     OW20665   3.965   0.387   4.913  0.3026 -0.3829 -0.1858
 3011SOL    HW120666   4.058   0.370   4.897  0.5977  2.0818 -1.0020
 3011SOL    HW220667   3.962   0.438   4.994 -0.5335 -0.3013 -0.2763
 3012SOL     OW20668   4.374   2.580   0.871  0.7064 -0.1279  0.5145
 3012SOL    HW120669   4.432   2.641   0.827 -0.3417  1.3740  1.2088
 3012SOL    HW220670   4.291   2.573   0.824  0.4936 -1.4744  1.0971
 3013SOL     OW20671   2.751   4.575   4.804  0.4432  0.4340  0.4929
 3013SOL    HW120672   2.772   4.580   4.897  0.3988 -0.4608  0.5504
 3013SOL    HW220673   2.702   4.652   4.774 -1.3916 -0.3019  1.6424
 3014SOL     OW20674   0.101   0.288   6.998 -0.2048  0.0920  0.1876
 3014SOL    HW120675   0.135   0.363   7.047  1.2357 -0.2891 -0.2221
 3014SOL    HW220676   0.114   0.310   6.905 -0.4487 -1.6245 -0.2617
 3015SOL     OW20677   2.667   2.481   3.881  0.6294  0.3179 -0.0567
 3015SOL    HW120678   2.601   2.494   3.950  0.6442  3.2017 -0.6229
 3015SOL    HW220679   2.703   2.568   3.897 -0.7361  0.6789  1.1190
 3016SOL     OW20680   0.544   4.260   5.095 -0.2989 -0.1367 -0.7878
 3016SOL    HW120681   0.553   4.352   5.120  2.5168 -0.3304 -1.0602
 3016SOL    HW220682   0.629   4.244   5.055  0.4150  0.1545  0.6053
 3017SOL     OW20683   0.102   1.355   7.257  0.5714  0.4798  0.5453
 3017SOL    HW120684   0.178   1.331   7.309  1.8755 -2.0317 -2.4589
 3017SOL    HW220685   0.110   1.290   7.186  1.3188  1.5166 -0.3280
 3018SOL     OW20686   3.036   3.528   7.153  0.3149 -0.0840 -0.2470
 3018SOL    HW120687   3.068   3.564   7.071 -0.1856 -3.5959 -2.0090
 3018SOL    HW220688   3.085   3.580   7.217 -0.8691 -1.4930  1.7973
 3019SOL     OW20689   4.493   4.083   5.981  0.2829  0.6075 -0.4280
 3019SOL    HW120690   4.481   4.174   6.009 -0.5888  1.1737 -2.6176
 3019SOL    HW220691   4.499   4.083   5.885 -0.4948  1.0889 -0.4742
 3020SOL     OW20692   0.788   1.959   3.243 -0.2242 -0.5145  0.0485
 3020SOL    HW120693   0.816   2.046   3.212  0.8863 -1.2140 -0.9308
 3020SOL    HW220694   0.736   1.939   3.166 -0.6084  0.3465  0.0771
 3021SOL     OW20695   2.471   2.085   2.923 -0.4579  0.3245  0.6098
 3021SOL    HW120696   2.409   2.012   2.917 -0.7814  0.3789  3.1740
 3021SOL    HW220697   2.527   2.051   2.853  1.3250  1.8542  1.3097
 3022SOL     OW20698   1.871   4.035  12.372 -0.1272  0.2347  0.0846
 3022SOL    HW120699   1.955   4.041  12.327 -0.0878 -1.8789 -0.1043
 3022SOL    HW220700   1.843   4.127  12.371  3.3291  1.2529 -1.3529
 3023SOL     OW20701   0.618   0.948   3.823  0.2404  0.5932 -0.2608
 3023SOL    HW120702   0.659   0.866   3.796 -0.6067  0.4736 -1.2249
 3023SOL    HW220703   0.640   1.011   3.755  0.3007  0.8424 -0.0110
 3024SOL     OW20704   0.903   3.867   5.135  0.3353 -0.5765  0.4611
 3024SOL    HW120705   0.978   3.924   5.156  0.0348 -0.8351  2.2766
 3024SOL    HW220706   0.890   3.888   5.043  1.8006 -1.1791  0.1095
 3025SOL     OW20707   0.251   1.477   8.846  0.0544  0.6603  0.7344
 3025SOL    HW120708   0.293   1.562   8.854 -0.1118  0.6602  1.6288
 3025SOL    HW220709   0.156   1.493   8.851 -0.0957  0.4845 -1.5367
 3026SOL     OW20710   2.525   1.782   3.694  0.3353  0.3606 -0.1365
 3026SOL    HW120711   2.485   1.868   3.691  1.1660  0.7611  0.1172
 3026SOL    HW220712   2.445   1.730   3.692 -0.1929  1.2495 -2.0259
 3027SOL     OW20713   3.384   4.628   3.328  0.0141 -0.2487  0.1963
 3027SOL    HW120714   3.331   4.645   3.405 -1.6556 -1.1211 -0.7739
 3027SOL    HW220715   3.439   4.706   3.322 -0.1369  0.0845  3.3366
 3028SOL     OW20716   4.123   2.145   6.458  0.0734  0.5542  0.3998
 3028SOL    HW120717   4.173   2.181   6.531  0.7772 -0.3289  0.3601
 3028SOL    HW220718   4.176   2.179   6.385  0.3159 -1.7381 -0.4889
 3029SOL     OW20719   4.463   2.744  17.467  0.2000 -0.1726 -0.3002
 3029SOL    HW120720   4.459   2.821  17.409  2.2294  1.6355  1.9706
 3029SOL    HW220721   4.383   2.756  17.518 -0.0118 -2.2830 -0.1387
 3030SOL     OW20722   4.042   2.811   8.244  0.5157 -0.2139 -0.3360
 3030SOL    HW120723   4.081   2.882   8.193  1.6903  0.3384  1.3306
 3030SOL    HW220724   4.113   2.786   8.304  0.9546 -1.0004 -1.1769
 3031SOL     OW20725   1.812   3.357   3.657 -0.2341 -0.6978 -0.0644
 3031SOL    HW120726   1.830   3.449   3.635  1.2921 -1.5678 -2.5511
 3031SOL    HW220727   1.746   3.328   3.595  0.3551  0.0990 -1.0737
 3032SOL     OW20728   3.786   2.285   1.780  0.2180 -0.5317  0.0932
 3032SOL    HW120729   3.710   2.292   1.837  0.5564 -0.6477  0.5577
 3032SOL    HW220730   3.814   2.375   1.764 -0.2182 -0.0359  2.1437
 3033SOL     OW20731   0.291   3.043  15.915 -0.3922 -0.2297  0.1304
 3033SOL    HW120732   0.373   3.078  15.880 -0.7215  0.5629  0.1518
 3033SOL    HW220733   0.248   3.122  15.947  0.2295  0.1308  0.0873
 3034SOL     OW20734   3.746   2.684   8.547 -0.4983 -0.4662  0.3432
 3034SOL    HW120735   3.818   2.736   8.585 -2.2513  1.3859  1.1100
 3034SOL    HW220736   3.793   2.632   8.482 -0.3510 -0.4535  0.4386
 3035SOL     OW20737   4.599   0.262  16.501 -0.2016  0.5347  0.1809
 3035SOL    HW120738   4.655   0.231  16.572 -1.8009 -0.6702  0.9092
 3035SOL    HW220739   4.558   0.341  16.536 -1.4742 -0.2044  0.3394
 3036SOL     OW20740   0.509   2.120   8.475 -0.2930  0.0597 -0.1778
 3036SOL    HW120741   0.554   2.204   8.464 -0.6480  0.4675  1.4509
 3036SOL    HW220742   0.578   2.063   8.510 -0.7659 -1.3043 -1.5148
 3037SOL     OW20743   2.357   2.459   8.298  0.1510  0.1529  0.0364
 3037SOL    HW120744   2.296   2.502   8.239 -1.5533 -3.1129 -0.5691
 3037SOL    HW220745   2.432   2.459   8.238 -0.6186 -0.7174 -0.9155
 3038SOL     OW20746   3.733   1.266   9.969  0.0354 -0.1616 -0.1868
 3038SOL    HW120747   3.664   1.247  10.033  1.5491 -0.9057  1.2163
 3038SOL    HW220748   3.680   1.291   9.893  0.2566 -0.6569 -0.5118
 3039SOL     OW20749   3.902   4.728   6.640  0.4535  0.4984 -0.0989
 3039SOL    HW120750   3.871   0.040   6.720  3.0561  2.6570 -0.2789
 3039SOL    HW220751   3.996   4.721   6.654 -0.0189 -0.9892  2.2334
 3040SOL     OW20752   4.577   2.576  15.671 -0.1481 -0.5083 -0.2410
 3040SOL    HW120753   4.550   2.604  15.583 -0.3194  0.5682  0.1567
 3040SOL    HW220754   4.494   2.574  15.718  0.6111  1.6763  1.1881
 3041SOL     OW20755   2.247   0.263   3.741 -0.2859  0.7302 -0.3591
 3041SOL    HW120756   2.163   0.308   3.734 -0.1137  1.2061  0.5996
 3041SOL    HW220757   2.208   0.184   3.704 -0.8194  1.2302 -0.8753
 3042SOL     OW20758   4.611   3.791   9.437  0.0073 -0.1908 -0.3060
 3042SOL    HW120759   4.556   3.864   9.408 -0.3352 -0.0244  0.7785
 3042SOL    HW220760   4.544   3.735   9.476  0.0592 -2.0695 -2.9014
 3043SOL     OW20761   4.174   4.665  16.287 -0.0037  0.2804 -0.2212
 3043SOL    HW120762   4.268   4.679  16.278  0.5857 -3.7554 -0.5471
 3043SOL    HW220763   4.155   4.666  16.193 -1.0357  2.9407  0.0300
 3044SOL     OW20764   2.448   3.138   1.021  0.2635  0.3010 -0.1356
 3044SOL    HW120765   2.415   3.060   1.066  0.4083 -0.1746 -0.8604
 3044SOL    HW220766   2.496   3.176   1.095  2.9037 -1.1035 -1.1422
 3045SOL     OW20767   3.396   1.071   6.191  0.2500  0.0409 -0.2160
 3045SOL    HW120768   3.325   1.090   6.253  0.4460  0.7782 -0.2123
 3045SOL    HW220769   3.401   0.976   6.182 -1.8629  0.0508 -1.3596
 3046SOL     OW20770   1.785   2.199   1.548  0.7105  0.0615  0.0370
 3046SOL    HW120771   1.740   2.147   1.481 -0.0589 -0.2195  0.7740
 3046SOL    HW220772   1.788   2.288   1.511 -0.6940 -0.3333 -1.0290
 3047SOL     OW20773   0.810   1.683   4.134  0.5716 -0.0740 -0.0408
 3047SOL    HW120774   0.782   1.711   4.221  0.7779 -1.0098  0.3311
 3047SOL    HW220775   0.890   1.639   4.160  0.5296 -1.9925 -3.1665
 3048SOL     OW20776   0.395   1.856   2.058 -0.5871 -0.4356 -0.1595
 3048SOL    HW120777   0.488   1.838   2.073  0.2945  2.4576 -2.3715
 3048SOL    HW220778   0.368   1.788   2.121  1.0508 -0.2566  0.7252
 3049SOL     OW20779   0.182   0.127   1.848  0.0593 -0.3497 -0.4924
 3049SOL    HW120780   0.242   0.100   1.779 -2.8281  0.6456 -3.3803
 3049SOL    HW220781   0.222   0.210   1.874 -0.6373  0.4487 -1.9723
 3050SOL     OW20782   1.726   0.314   7.895  0.3996  0.5218 -0.1627
 3050SOL    HW120783   1.732   0.220   7.910 -0.3040  0.4548 -0.3013
 3050SOL    HW220784   1.760   0.311   7.806 -2.3678  0.3157 -1.2194
 3051SOL     OW20785   1.951   2.607   6.234  0.0064  0.0453  0.4201
 3051SOL    HW120786   2.018   2.628   6.169  0.6711 -1.9600  0.4288
 3051SOL    HW220787   1.921   2.696   6.250  2.4538  0.5653  2.0489
 3052SOL     OW20788   1.212   1.221  12.995 -0.3484  0.3862 -0.1346
 3052SOL    HW120789   1.298   1.261  13.009 -1.2630  2.5384 -0.7822
 3052SOL    HW220790   1.155   1.271  13.054  1.3839  0.7622  1.2277
 3053SOL     OW20791   3.085   3.047   7.745  0.7948  0.1232 -0.3606
 3053SOL    HW120792   3.033   3.032   7.824  1.1976  0.9511  0.0684
 3053SOL    HW220793   3.058   2.970   7.695  2.0303 -1.6600  1.7168
 3054SOL     OW20794   1.647   3.619  16.147 -0.0955  0.0874 -0.0730
 3054SOL    HW120795   1.664   3.547  16.207  2.0825  1.1625  0.6167
 3054SOL    HW220796   1.699   3.582  16.076 -1.6698 -0.0074 -1.1739
 3055SOL     OW20797   2.216   3.679   7.435 -0.2915 -0.0546 -0.2206
 3055SOL    HW120798   2.258   3.609   7.485 -2.6133 -0.3438  1.2845
 3055SOL    HW220799   2.126   3.663   7.463 -0.4844  1.3200 -0.0443
 3056SOL     OW20800   1.519   2.572   2.204 -0.4041 -0.2179  0.1490
 3056SOL    HW120801   1.568   2.646   2.169 -0.6096 -0.3708 -0.4653
 3056SOL    HW220802   1.552   2.574   2.293  0.7024  1.0151 -0.3017
 3057SOL     OW20803   3.865   0.880   4.160  0.3278  0.6193 -0.0434
 3057SOL    HW120804   3.789   0.899   4.105 -1.9014 -2.4342  1.9734
 3057SOL    HW220805   3.821   0.867   4.244  0.0245  1.7502 -0.0318
 3058SOL     OW20806   3.055   0.703   2.444  0.2672 -0.5224 -0.0663
 3058SOL    HW120807   3.047   0.696   2.349 -1.6773 -0.6754  0.1082
 3058SOL    HW220808   3.092   0.619   2.471  1.7157 -0.3542 -1.5370
 3059SOL     OW20809   3.918   3.956  13.717 -0.6041 -0.3854  0.5803
 3059SOL    HW120810   3.923   3.962  13.812 -0.5140 -1.0981  0.6190
 3059SOL    HW220811   4.004   3.982  13.683 -1.1481 -1.4263 -1.6102
 3060SOL     OW20812   2.981   3.331  17.605 -0.7639 -0.2873 -0.4538
 3060SOL    HW120813   2.894   3.372  17.609  0.2251  1.8585 -1.0156
 3060SOL    HW220814   3.021   3.417  17.591 -0.1476  0.0403  3.3506
 3061SOL     OW20815   3.345   2.311   2.220  0.2620 -0.3599  0.8427
 3061SOL    HW120816   3.311   2.336   2.134 -0.2175  0.2381  1.2071
 3061SOL    HW220817   3.368   2.394   2.260 -0.0510  0.5272 -0.7903
 3062SOL     OW20818   0.829   1.740  15.268 -0.2564  0.3489  0.5487
 3062SOL    HW120819   0.908   1.788  15.291  1.0455 -0.9640 -1.2347
 3062SOL    HW220820   0.831   1.655  15.311  3.3485  0.4213  0.4888
 3063SOL     OW20821   2.208   0.594   3.458  0.1386  0.1082  0.0343
 3063SOL    HW120822   2.172   0.505   3.465 -2.0443  1.0516  0.9514
 3063SOL    HW220823   2.156   0.619   3.381  1.4555  1.4744 -0.4164
 3064SOL     OW20824   0.199   3.850  15.989  0.0026 -0.0619  0.2935
 3064SOL    HW120825   0.167   3.850  15.899  0.8905  0.0163 -0.0176
 3064SOL    HW220826   0.116   3.838  16.036  1.5858  1.1998  3.4433
 3065SOL     OW20827   0.808   1.443   7.357  0.0419  0.1249  0.4998
 3065SOL    HW120828   0.739   1.482   7.412  1.0757  0.5059  1.5292
 3065SOL    HW220829   0.880   1.488   7.402  0.5370  0.5805 -0.7416
 3066SOL     OW20830   1.299   4.668  11.497 -0.0117  0.1323  0.1579
 3066SOL    HW120831   1.387   4.698  11.472  0.2325 -0.0648  0.7713
 3066SOL    HW220832   1.310   4.643  11.589  2.9647  0.1643 -0.1950
 3067SOL     OW20833   1.745   2.785   6.029 -0.1369  0.7969  0.4999
 3067SOL    HW120834   1.796   2.832   6.093 -0.1353  1.0717  0.2960
 3067SOL    HW220835   1.666   2.774   6.083  0.1272  1.3561  0.9911
 3068SOL     OW20836   0.614   1.621  11.360  0.0953 -0.1217  0.0296
 3068SOL    HW120837   0.598   1.552  11.424  0.1395  0.1416  0.3264
 3068SOL    HW220838   0.534   1.673  11.365  1.1672  1.3394  1.9124
 3069SOL     OW20839   3.679   2.235   7.635  0.4911  0.2212 -0.0882
 3069SOL    HW120840   3.695   2.260   7.725  0.3609  1.1845 -0.3353
 3069SOL    HW220841   3.596   2.187   7.640  0.5769 -0.0816 -1.4451
 3070SOL     OW20842   0.211   3.234   3.683 -0.0756 -0.1190  0.1654
 3070SOL    HW120843   0.277   3.174   3.717 -1.5719 -1.6776  0.3193
 3070SOL    HW220844   0.252   3.316   3.711 -0.8449  0.5252 -0.5775
 3071SOL     OW20845   2.007   3.064   9.814 -0.0732  0.0477 -0.1980
 3071SOL    HW120846   1.915   3.060   9.840  0.1774  1.8539  0.9500
 3071SOL    HW220847   2.045   3.112   9.888 -1.5160  1.2084 -0.2161
 3072SOL     OW20848   2.881   2.671   8.143 -0.1977  0.3239  0.6987
 3072SOL    HW120849   2.902   2.735   8.075  0.5557  1.1742  1.7301
 3072SOL    HW220850   2.961   2.623   8.167 -0.4727  0.5645  2.1185
 3073SOL     OW20851   2.609   3.721   5.075 -0.6069  0.3862  0.7152
 3073SOL    HW120852   2.665   3.774   5.019 -0.0097 -1.2157 -0.2000
 3073SOL    HW220853   2.652   3.723   5.160  0.0538 -0.5222  0.3990
 3074SOL     OW20854   4.470   1.176   5.011 -0.2222  0.0080  0.2051
 3074SOL    HW120855   4.406   1.237   5.049  0.8986  1.3672 -0.1109
 3074SOL    HW220856   4.536   1.191   5.079  0.2776 -1.8527  0.1300
 3075SOL     OW20857   0.110   3.582   1.477  0.2410  0.4282  0.1019
 3075SOL    HW120858   0.175   3.603   1.545  0.5097 -1.4530  0.4330
 3075SOL    HW220859   0.035   3.618   1.523 -0.9638 -0.9727 -0.7750
 3076SOL     OW20860   3.035   3.819   8.355  0.2836 -0.0399 -0.5032
 3076SOL    HW120861   3.092   3.895   8.347 -1.8026  1.6536  0.6663
 3076SOL    HW220862   3.068   3.785   8.438 -0.2181 -0.2499 -0.3900
 3077SOL     OW20863   3.058   2.469   8.232 -0.4642  0.2717  0.2757
 3077SOL    HW120864   3.119   2.461   8.305 -0.2616  4.0503  0.5332
 3077SOL    HW220865   2.998   2.399   8.259  0.8723 -1.7712 -2.0605
 3078SOL     OW20866   2.751   1.577   9.498 -0.1289  0.1749  0.4911
 3078SOL    HW120867   2.710   1.606   9.580 -0.2070  1.9163 -0.1737
 3078SOL    HW220868   2.754   1.667   9.465 -2.2896  0.7669  1.9231
 3079SOL     OW20869   0.337   2.500   4.905 -0.6525  0.7367  0.2661
 3079SOL    HW120870   0.320   2.548   4.986  0.2986 -1.1983  1.5826
 3079SOL    HW220871   0.333   2.413   4.944  0.8159  0.6120  0.1432
 3080SOL     OW20872   4.310   2.842  15.372 -0.4349  0.0617 -0.2179
 3080SOL    HW120873   4.242   2.831  15.439 -0.2426  0.8279  0.0957
 3080SOL    HW220874   4.257   2.887  15.306  0.5397  0.5983 -0.6228
 3081SOL     OW20875   1.620   3.294   3.480  0.4055  0.2358 -0.3609
 3081SOL    HW120876   1.647   3.216   3.430  1.0496 -0.7157  1.4763
 3081SOL    HW220877   1.574   3.342   3.411 -1.4835 -1.0821 -0.0336
 3082SOL     OW20878   4.421   1.239  12.023  0.4134  0.1292 -0.2795
 3082SOL    HW120879   4.439   1.325  11.984 -0.9467  1.2042  1.5044
 3082SOL    HW220880   4.474   1.189  11.961  1.2987  0.4293  0.2290
 3083SOL     OW20881   4.448   2.027   8.880 -0.0896  0.3773 -0.0490
 3083SOL    HW120882   4.511   2.076   8.933  1.1263  0.9291 -1.9955
 3083SOL    HW220883   4.462   2.054   8.789  1.1782 -2.6374 -0.7576
 3084SOL     OW20884   0.038   3.119   7.231 -0.5730 -0.1527 -0.0737
 3084SOL    HW120885   0.091   3.158   7.300  0.4225  1.2221 -1.6268
 3084SOL    HW220886   4.686   3.098   7.273 -0.1150  1.5083  1.6566
 3085SOL     OW20887   0.269   3.737  11.486 -0.4682 -0.2600  0.1768
 3085SOL    HW120888   0.278   3.768  11.396 -2.5146 -1.9085 -0.5944
 3085SOL    HW220889   0.281   3.820  11.532 -0.2293 -0.9521  1.3657
 3086SOL     OW20890   3.617   2.023   3.300  0.4343  0.2251 -0.2984
 3086SOL    HW120891   3.605   2.108   3.258 -0.9982 -0.6631 -1.6936
 3086SOL    HW220892   3.594   1.965   3.227 -0.6956 -2.6810  2.3674
 3087SOL     OW20893   2.397   1.286   2.006  0.5216 -0.5356 -0.4006
 3087SOL    HW120894   2.323   1.226   2.000  0.5583 -0.6013 -0.2019
 3087SOL    HW220895   2.443   1.244   2.079  0.1729 -1.7861 -0.9080
 3088SOL     OW20896   1.761   4.557  12.140  0.6231  0.0149 -0.3569
 3088SOL    HW120897   1.748   4.590  12.229  2.6287 -2.4571  0.8745
 3088SOL    HW220898   1.725   4.631  12.092  3.2229  2.5381  1.6411
 3089SOL     OW20899   3.242   0.677   6.724  0.7343 -0.0340 -0.0272
 3089SOL    HW120900   3.247   0.743   6.654 -1.7509  1.0446  0.8101
 3089SOL    HW220901   3.283   0.605   6.676 -0.3768 -0.7158  0.0489
 3090SOL     OW20902   0.840   1.709   7.001  0.6111  0.0024 -0.0168
 3090SOL    HW120903   0.811   1.800   6.990  0.6692 -0.3417 -2.9342
 3090SOL    HW220904   0.917   1.719   7.057  1.1151  0.4167 -0.7985
 3091SOL     OW20905   1.439   2.460   8.394  0.0572  0.1092  0.1718
 3091SOL    HW120906   1.343   2.460   8.397  0.0864 -1.3857  0.9436
 3091SOL    HW220907   1.454   2.485   8.485 -1.0128 -0.5674  0.5379
 3092SOL     OW20908   2.168   4.667   5.547 -0.4486  0.7222  0.2831
 3092SOL    HW120909   2.232   4.692   5.614 -0.5883  0.3552  0.5522
 3092SOL    HW220910   2.082   4.705   5.564 -0.9859 -0.8760  1.0779
 3093SOL     OW20911   0.322   1.312  10.919  0.2757  0.4764  0.4395
 3093SOL    HW120912   0.297   1.229  10.960  1.2110 -0.8580 -1.7122
 3093SOL    HW220913   0.290   1.372  10.987  0.1922 -0.1516  0.9615
 3094SOL     OW20914   3.239   2.432   4.000  0.1457 -0.3839 -0.1421
 3094SOL    HW120915   3.237   2.416   3.905  1.0634 -1.6065  0.0469
 3094SOL    HW220916   3.321   2.481   4.000  0.0717 -0.2704  2.2370
 3095SOL     OW20917   2.726   1.802   6.659  0.1057 -0.0561 -1.0041
 3095SOL    HW120918   2.786   1.865   6.619 -0.5124 -0.3185 -2.3564
 3095SOL    HW220919   2.799   1.744   6.680 -0.3194 -1.0713 -2.3571
 3096SOL     OW20920   2.089   1.839   6.288  0.1112  0.3234  0.0041
 3096SOL    HW120921   2.002   1.801   6.305  0.3448  0.6222  1.8940
 3096SOL    HW220922   2.125   1.839   6.377  2.7522  0.7228 -1.0657
 3097SOL     OW20923   1.460   3.401   7.979  0.5404  0.4215  0.3870
 3097SOL    HW120924   1.507   3.416   7.896 -0.3575 -0.3656 -0.2611
 3097SOL    HW220925   1.469   3.305   7.975  0.5495  0.5057 -1.5638
 3098SOL     OW20926   2.839   0.947   2.326 -0.4792 -0.2091  0.1779
 3098SOL    HW120927   2.835   1.032   2.281  0.4637  0.9401  2.2859
 3098SOL    HW220928   2.908   0.902   2.277 -1.2579  0.6163 -1.7089
 3099SOL     OW20929   0.843   4.255   2.216  0.2471  0.2981 -0.2643
 3099SOL    HW120930   0.937   4.253   2.202  0.4173  2.5535  0.4209
 3099SOL    HW220931   0.823   4.338   2.172 -0.8749  1.4941  2.4997
 3100SOL     OW20932   0.014   1.485   6.130  0.3363  0.1619  0.1273
 3100SOL    HW120933   0.032   1.452   6.218  0.9523 -1.8816 -0.7571
 3100SOL    HW220934   4.714   1.572   6.155 -0.9709  0.2206 -1.7190
 3101SOL     OW20935   2.511   0.174   0.352  0.4478  0.2863  0.1216
 3101SOL    HW120936   2.580   0.219   0.304  0.0650  1.0357  0.2771
 3101SOL    HW220937   2.544   0.185   0.441  0.8637  0.4419 -0.0509
 3102SOL     OW20938   1.449   0.308   3.565  0.4031  0.2824  0.0367
 3102SOL    HW120939   1.482   0.387   3.608  0.9304 -0.4568  0.9914
 3102SOL    HW220940   1.412   0.341   3.483  0.2205 -0.2849 -0.1112
 3103SOL     OW20941   3.385   3.495   7.202  0.7172 -0.0787  0.2046
 3103SOL    HW120942   3.383   3.522   7.110  1.7127 -0.2812  0.1235
 3103SOL    HW220943   3.344   3.409   7.199 -0.0623  0.2723  0.8143
 3104SOL     OW20944   2.013   2.076   4.010  0.1585 -0.4779 -0.5352
 3104SOL    HW120945   1.956   2.146   3.977  1.5984  1.4783  1.1084
 3104SOL    HW220946   1.953   2.003   4.021  1.1660 -1.3754 -0.9528
 3105SOL     OW20947   2.351   1.602   1.351  0.1154  0.5201 -0.0268
 3105SOL    HW120948   2.293   1.663   1.306  0.7099  1.9861  1.1991
 3105SOL    HW220949   2.299   1.560   1.419 -1.7087  1.3277 -0.9288
 3106SOL     OW20950   1.515   3.029   8.988  0.1360 -0.0670 -0.1459
 3106SOL    HW120951   1.481   3.118   8.978 -1.7785 -0.8627 -0.7167
 3106SOL    HW220952   1.604   3.040   8.957  1.5178  0.8587  4.1494
 3107SOL     OW20953   0.524   1.222   6.519 -0.7853  0.2426  0.0749
 3107SOL    HW120954   0.608   1.262   6.541 -1.2916  2.0474 -1.2658
 3107SOL    HW220955   0.507   1.161   6.591 -0.3629 -2.6449 -2.2492
 3108SOL     OW20956   4.316   2.212   4.858  0.3186  0.0366  0.4663
 3108SOL    HW120957   4.337   2.305   4.867  1.4409 -0.1934  0.1491
 3108SOL    HW220958   4.395   2.175   4.819  1.1084 -0.5151  2.5919
 3109SOL     OW20959   4.044   4.450   9.130 -0.6970  0.0613 -0.1673
 3109SOL    HW120960   4.034   4.517   9.063  1.0365  1.6871  1.1934
 3109SOL    HW220961   4.105   4.503   9.182 -0.6848 -0.2868  0.1729
 3110SOL     OW20962   0.644   3.361   7.667  0.4724 -0.3283  0.2133
 3110SOL    HW120963   0.707   3.432   7.662 -0.1924  0.1704 -1.0905
 3110SOL    HW220964   0.565   3.411   7.688 -0.2040 -0.4293 -2.0358
 3111SOL     OW20965   0.520   1.679  10.075  0.1399 -0.2634  0.0095
 3111SOL    HW120966   0.559   1.696  10.161 -2.2498 -1.1265  1.2502
 3111SOL    HW220967   0.522   1.584  10.066  1.0289 -0.3298  0.8609
 3112SOL     OW20968   0.959   1.009   7.530  0.2267  0.0415 -0.3255
 3112SOL    HW120969   0.925   0.922   7.552  0.7267 -0.5453 -1.8551
 3112SOL    HW220970   0.941   1.067   7.604 -0.9289 -1.3231  0.4688
 3113SOL     OW20971   3.760   4.576  17.052 -0.3448 -0.2184 -0.1515
 3113SOL    HW120972   3.687   4.619  17.007 -1.0311  0.0764  1.2483
 3113SOL    HW220973   3.747   4.595  17.145  1.7195  0.5492 -0.0101
 3114SOL     OW20974   2.963   3.964  17.099 -0.7646 -0.4863  0.4838
 3114SOL    HW120975   2.931   4.030  17.161  1.8758 -0.6661  2.0718
 3114SOL    HW220976   3.009   4.017  17.034  0.5094 -0.7405  1.1614
 3115SOL     OW20977   2.530   2.136   5.112  0.1318  0.0786  0.3928
 3115SOL    HW120978   2.529   2.058   5.168  0.1510  0.3688  0.7964
 3115SOL    HW220979   2.460   2.102   5.056  0.8732 -0.0890 -0.4248
 3116SOL     OW20980   0.956   2.156   8.174 -0.1247  0.9020 -0.9222
 3116SOL    HW120981   1.012   2.233   8.172 -0.3458  1.0789 -0.0896
 3116SOL    HW220982   0.917   2.168   8.260 -1.5068  0.5324 -1.4950
 3117SOL     OW20983   0.533   0.022   6.573 -0.0666  1.1388  0.0632
 3117SOL    HW120984   0.576   0.099   6.609 -1.6647  2.2071 -0.3207
 3117SOL    HW220985   0.549   0.022   6.478 -0.1718 -0.3131  0.0404
 3118SOL     OW20986   0.821   2.398   8.964 -0.0697  0.0408 -0.4455
 3118SOL    HW120987   0.853   2.371   9.050 -0.3921  1.7722  0.2204
 3118SOL    HW220988   0.737   2.438   8.985 -0.6909 -0.4685 -1.9174
 3119SOL     OW20989   1.150   3.102   3.724  0.1569 -0.4649 -1.4635
 3119SOL    HW120990   1.209   3.043   3.771  0.9464  1.8368  0.3830
 3119SOL    HW220991   1.159   3.184   3.772 -0.5284 -1.6728  0.7214
 3120SOL     OW20992   3.822   2.431   7.060  0.3354  0.1961  0.1486
 3120SOL    HW120993   3.820   2.476   7.144  2.0046  1.3416 -0.4225
 3120SOL    HW220994   3.869   2.352   7.087  1.2839  0.2360 -1.3848
 3121SOL     OW20995   2.462   2.343   4.008  0.5160 -0.2727  0.3736
 3121SOL    HW120996   2.505   2.289   3.942  2.9306  1.7415  0.2762
 3121SOL    HW220997   2.383   2.375   3.965  0.4704 -1.2743 -0.2855
 3122SOL     OW20998   1.012   1.787   1.277 -0.0052 -0.3368  0.2678
 3122SOL    HW120999   0.917   1.771   1.275 -0.6924  3.6198  1.7269
 3122SOL    HW221000   1.018   1.856   1.211  0.8422  0.2715  0.9888
 3123SOL     OW21001   2.285   3.596   8.887  0.5500  0.5400  0.5279
 3123SOL    HW121002   2.260   3.688   8.876  1.8252  0.6017 -1.8742
 3123SOL    HW221003   2.350   3.601   8.957 -0.0411  2.1344  0.9660
 3124SOL     OW21004   0.002   1.189   3.707  0.3323 -0.0297  0.5290
 3124SOL    HW121005   0.083   1.219   3.749 -0.2556  0.7251  1.1237
 3124SOL    HW221006   0.041   1.162   3.624 -0.1246 -1.0413  0.6465
 3125SOL     OW21007   2.803   0.645   2.696  0.4706 -0.3639 -0.2516
 3125SOL    HW121008   2.891   0.683   2.700  0.8717 -0.9889 -3.3466
 3125SOL    HW221009   2.753   0.727   2.699  0.4203 -0.4012 -0.0606
 3126SOL     OW21010   0.222   1.940   5.337 -0.3340  0.6140 -0.0229
 3126SOL    HW121011   0.218   2.011   5.400  3.7035 -1.2147  2.3262
 3126SOL    HW221012   0.156   1.969   5.275  0.6536  2.4861 -0.1815
 3127SOL     OW21013   2.529   2.323   1.642  0.5172 -0.6554  0.1327
 3127SOL    HW121014   2.515   2.293   1.552  0.7552 -1.9540  0.5337
 3127SOL    HW221015   2.546   2.239   1.684  0.4981  0.2213  1.9283
 3128SOL     OW21016   1.575   1.876   3.216 -0.3255 -0.0207  0.4951
 3128SOL    HW121017   1.522   1.879   3.295  1.0848 -1.8382  1.5099
 3128SOL    HW221018   1.644   1.813   3.237 -1.0539 -0.9004  0.2546
 3129SOL     OW21019   0.757   0.496   9.783  0.1680 -0.1990  0.4276
 3129SOL    HW121020   0.688   0.430   9.788 -0.0243 -0.1963 -2.1676
 3129SOL    HW221021   0.812   0.485   9.861  1.9693 -1.5834 -1.0271
 3130SOL     OW21022   0.802   2.094  12.631  0.0226 -0.1269 -0.8440
 3130SOL    HW121023   0.847   2.158  12.687  1.0375 -0.1400 -1.6362
 3130SOL    HW221024   0.826   2.015  12.680  3.1787 -0.1871 -2.4628
 3131SOL     OW21025   4.351   3.202   7.279  0.1918  0.5404 -0.3353
 3131SOL    HW121026   4.270   3.168   7.315  0.6593 -1.2632 -0.9918
 3131SOL    HW221027   4.415   3.151   7.329  0.4094  0.1623 -1.0117
 3132SOL     OW21028   3.762   4.454   3.259  0.4467  0.0497 -0.5391
 3132SOL    HW121029   3.794   4.365   3.271  0.8054  0.5642  2.3266
 3132SOL    HW221030   3.670   4.451   3.235  0.7062 -1.1593 -1.3502
 3133SOL     OW21031   4.162   1.278   9.375 -0.7466  0.3654  0.0083
 3133SOL    HW121032   4.155   1.358   9.427  1.3201  1.0966 -0.8623
 3133SOL    HW221033   4.156   1.206   9.439  1.1248  0.6070  0.4594
 3134SOL     OW21034   3.629   1.993   9.292  0.4971 -0.4153  0.0792
 3134SOL    HW121035   3.540   1.984   9.260  0.9957 -1.1341 -1.0843
 3134SOL    HW221036   3.603   1.991   9.384  0.5561 -1.3182  0.0799
 3135SOL     OW21037   4.198   1.136   9.937  0.0484  0.2226 -0.7292
 3135SOL    HW121038   4.215   1.045   9.913 -0.8674 -0.5395  1.5583
 3135SOL    HW221039   4.103   1.136   9.929  0.0825  0.3312 -1.1328
 3136SOL     OW21040   3.900   1.112  14.833 -0.4560  0.1821 -0.6036
 3136SOL    HW121041   3.911   1.054  14.908 -0.6307 -0.9952 -1.4845
 3136SOL    HW221042   3.982   1.095  14.786  0.7443  0.9043  1.2210
 3137SOL     OW21043   1.665   2.601   4.588 -0.1251 -0.6139  0.3887
 3137SOL    HW121044   1.707   2.631   4.507  0.5186  0.2780  1.0418
 3137SOL    HW221045   1.704   2.515   4.600  0.0542 -0.6327 -0.3491
 3138SOL     OW21046   2.489   0.431   2.707  0.7200 -0.1111  0.4224
 3138SOL    HW121047   2.566   0.470   2.665  0.0276  1.2585  0.4350
 3138SOL    HW221048   2.489   0.475   2.792 -3.5062  1.9472 -0.6410
 3139SOL     OW21049   0.666   0.532   6.534  0.7848  0.2021  0.4741
 3139SOL    HW121050   0.755   0.545   6.566  0.7814 -0.2079  0.6581
 3139SOL    HW221051   0.681   0.500   6.444  1.3160  1.1485  0.2285
 3140SOL     OW21052   0.178   2.790  14.174  0.1019 -0.3373 -0.1055
 3140SOL    HW121053   0.241   2.743  14.228 -0.0452 -1.1335 -0.6095
 3140SOL    HW221054   0.164   2.874  14.216  0.0036 -0.3272 -0.1571
 3141SOL     OW21055   0.617   2.624   3.533 -0.0735  0.5040  0.3596
 3141SOL    HW121056   0.704   2.660   3.555  0.2511  1.5598 -2.6585
 3141SOL    HW221057   0.581   2.604   3.619 -2.9832 -0.3459 -1.0618
 3142SOL     OW21058   2.100   3.667  12.011  0.4249 -0.5489 -0.4484
 3142SOL    HW121059   2.133   3.738  11.957  0.5041 -0.5985 -0.4654
 3142SOL    HW221060   2.013   3.697  12.039  0.6088 -0.1516 -0.3038
 3143SOL     OW21061   3.177   2.033  10.277  0.7081 -0.5916 -0.0556
 3143SOL    HW121062   3.091   2.028  10.317  0.6512 -0.5021 -0.1667
 3143SOL    HW221063   3.187   1.943  10.244 -1.2658 -0.0233 -2.2156
 3144SOL     OW21064   0.864   3.451   2.229  0.0203 -0.0653 -0.2808
 3144SOL    HW121065   0.886   3.464   2.321 -1.1106 -1.1722  0.1447
 3144SOL    HW221066   0.797   3.384   2.235  0.3181 -0.3795 -0.4413
 3145SOL     OW21067   3.375   2.226  11.278  0.4686  0.2901  0.0067
 3145SOL    HW121068   3.309   2.180  11.226 -0.4614 -0.0130  1.4359
 3145SOL    HW221069   3.447   2.164  11.270  0.3082  0.1360 -0.2509
 3146SOL     OW21070   2.830   2.580   3.561 -0.1834 -0.0081 -0.2479
 3146SOL    HW121071   2.898   2.561   3.496  1.3020  0.6680  1.1322
 3146SOL    HW221072   2.867   2.652   3.612  1.6829 -0.7539 -0.5633
 3147SOL     OW21073   3.364   1.275   7.896 -0.1293 -0.2566 -0.3652
 3147SOL    HW121074   3.448   1.258   7.939  0.3518 -0.1552 -1.2636
 3147SOL    HW221075   3.397   1.330   7.826 -1.3318 -0.7211 -1.2947
 3148SOL     OW21076   3.113   3.050  11.698 -0.4405 -0.3234 -0.1147
 3148SOL    HW121077   3.058   3.102  11.757  0.9057 -0.0548  0.9034
 3148SOL    HW221078   3.073   3.075  11.615 -0.1259 -0.6822 -0.3749
 3149SOL     OW21079   3.822   4.543  13.621 -0.3193 -0.1149 -0.6036
 3149SOL    HW121080   3.763   4.544  13.697  0.0897 -2.1701 -0.2707
 3149SOL    HW221081   3.771   4.605  13.569 -3.4995 -1.5931  0.7370
 3150SOL     OW21082   2.296   3.451   7.562 -0.1649 -1.1529  0.1896
 3150SOL    HW121083   2.232   3.381   7.565 -0.6334 -0.7395 -0.1689
 3150SOL    HW221084   2.335   3.445   7.650  0.2690 -0.3634  0.0525
 3151SOL     OW21085   1.117   3.801   3.658  0.3322 -0.8000 -0.2086
 3151SOL    HW121086   1.158   3.788   3.572  3.9704  2.4932  1.0213
 3151SOL    HW221087   1.193   3.786   3.714  0.5131 -0.0219 -0.2476
 3152SOL     OW21088   2.196   1.297   3.040  0.0326  0.7202 -0.4444
 3152SOL    HW121089   2.140   1.268   2.967 -0.1395  0.7601 -0.3293
 3152SOL    HW221090   2.281   1.267   3.008  0.9032  1.0576  1.6040
 3153SOL     OW21091   2.367   4.460   7.956  0.3080  0.0875 -0.1316
 3153SOL    HW121092   2.325   4.524   8.014 -0.2041 -1.6211  1.4034
 3153SOL    HW221093   2.376   4.505   7.873 -0.7140  0.1410 -0.2137
 3154SOL     OW21094   1.197   1.664  13.754  0.4681  0.0884 -0.2742
 3154SOL    HW121095   1.288   1.690  13.747  1.0058 -1.5498  0.6104
 3154SOL    HW221096   1.179   1.574  13.725 -2.2723  0.4409  0.3352
 3155SOL     OW21097   1.183   2.178  10.286  0.0082  0.1687  0.0352
 3155SOL    HW121098   1.269   2.168  10.327 -0.0207  0.5303  0.1885
 3155SOL    HW221099   1.139   2.258  10.316 -1.1444  0.4557 -2.3993
 3156SOL     OW21100   4.480   0.449   7.877 -0.0353 -0.0289  0.0316
 3156SOL    HW121101   4.529   0.384   7.826  1.9489 -1.9268  4.4377
 3156SOL    HW221102   4.551   0.514   7.881  0.8259 -0.7538 -2.9984
 3157SOL     OW21103   3.570   2.630  13.520 -0.1185  0.0925 -0.8187
 3157SOL    HW121104   3.637   2.603  13.582 -1.0545 -1.8526 -0.6524
 3157SOL    HW221105   3.554   2.717  13.558 -0.8656  0.2162 -1.4075
 3158SOL     OW21106   4.356   1.261  14.324  0.3452 -0.4594  0.1188
 3158SOL    HW121107   4.418   1.332  14.311 -0.0661 -0.7340 -3.1308
 3158SOL    HW221108   4.280   1.300  14.283 -0.2125 -1.6925 -0.0337
 3159SOL     OW21109   3.657   4.213   3.578 -0.3783  0.9101  0.3282
 3159SOL    HW121110   3.678   4.268   3.502  2.9590  0.3381  0.8744
 3159SOL    HW221111   3.561   4.218   3.573 -0.3416  1.0768 -0.1926
 3160SOL     OW21112   4.422   3.747   1.569  0.1350  0.5730  0.3871
 3160SOL    HW121113   4.349   3.766   1.627 -0.3638  2.2603 -0.7972
 3160SOL    HW221114   4.410   3.817   1.505  0.7987  2.2335  2.0937
 3161SOL     OW21115   1.900   4.594   9.499 -0.0536  0.5971  0.0770
 3161SOL    HW121116   1.975   4.537   9.516 -1.3297 -1.3182 -0.6577
 3161SOL    HW221117   1.900   4.653   9.574 -2.4346 -0.1496  0.6705
 3162SOL     OW21118   2.190   1.235   1.322  0.2265 -0.2788  0.5705
 3162SOL    HW121119   2.113   1.291   1.317  2.2335  2.4207 -0.8184
 3162SOL    HW221120   2.243   1.270   1.250 -2.0350  0.6244 -0.6544
 3163SOL     OW21121   4.722   1.545   7.034  0.2150 -0.0407  0.0244
 3163SOL    HW121122   0.019   1.502   7.114  1.4016 -0.6655 -0.7238
 3163SOL    HW221123   4.635   1.509   7.018  0.3443  0.2859 -1.4372
 3164SOL     OW21124   2.849   0.634  16.577 -0.2696 -0.3332 -0.5027
 3164SOL    HW121125   2.923   0.685  16.544  0.1322 -0.7927 -0.3203
 3164SOL    HW221126   2.794   0.645  16.499  1.3899 -0.0822 -1.6470
 3165SOL     OW21127   1.655   3.132   2.360 -0.0198  0.4997  0.6300
 3165SOL    HW121128   1.741   3.126   2.317 -0.0700 -2.6584  0.9780
 3165SOL    HW221129   1.619   3.218   2.338 -0.3616 -0.1435 -1.3397
 3166SOL     OW21130   2.507   3.535   1.304  0.6762  0.2955 -0.3897
 3166SOL    HW121131   2.502   3.600   1.375  0.5927  0.2159 -0.3221
 3166SOL    HW221132   2.441   3.571   1.245  0.3514  0.9400  0.3543
 3167SOL     OW21133   2.407   4.239  12.597  0.4010  0.0391  0.4034
 3167SOL    HW121134   2.429   4.325  12.630 -0.2106  0.4138 -0.1659
 3167SOL    HW221135   2.354   4.199  12.666  0.8925 -0.2319  0.6242
 3168SOL     OW21136   0.108   1.111  13.802 -0.6059 -0.0701  0.2613
 3168SOL    HW121137   0.168   1.071  13.864  1.8427  2.5064 -0.4281
 3168SOL    HW221138   0.031   1.117  13.859  0.5681 -0.6471  1.8890
 3169SOL     OW21139   1.348   1.942  17.095  0.2856  0.5859 -0.2149
 3169SOL    HW121140   1.306   2.024  17.123 -2.3433  0.1392 -2.8673
 3169SOL    HW221141   1.283   1.919  17.028  0.4843  0.1810 -0.2691
 3170SOL     OW21142   1.386   1.916   6.523 -0.1199 -0.1246 -0.4579
 3170SOL    HW121143   1.294   1.905   6.499  0.3541 -1.7315 -1.5262
 3170SOL    HW221144   1.389   1.888   6.614  0.5588  1.3542 -0.0230
 3171SOL     OW21145   0.323   0.967   6.496  0.0015 -0.2250 -0.2948
 3171SOL    HW121146   0.344   0.996   6.407 -0.4920 -0.8087 -0.6054
 3171SOL    HW221147   0.260   0.896   6.484 -0.9118  0.9284 -2.1945
 3172SOL     OW21148   3.572   0.780  13.202 -0.0889 -0.0623  0.3240
 3172SOL    HW121149   3.666   0.769  13.191 -0.1314 -0.7973  0.6535
 3172SOL    HW221150   3.551   0.714  13.268  2.9867 -0.9017  0.4530
 3173SOL     OW21151   3.645   1.974   0.568  0.7896  0.0164  0.4250
 3173SOL    HW121152   3.621   2.063   0.592 -0.1869 -0.4677  1.2127
 3173SOL    HW221153   3.687   1.943   0.649  2.3510  0.4824 -0.2117
 3174SOL     OW21154   4.321   2.385   4.525  0.1048 -0.7206  0.4847
 3174SOL    HW121155   4.379   2.357   4.596  0.3452 -1.2933  0.0595
 3174SOL    HW221156   4.235   2.353   4.549 -0.0506 -1.7154 -1.4103
 3175SOL     OW21157   0.412   0.978   5.408 -0.1652  0.2985 -0.0777
 3175SOL    HW121158   0.330   0.957   5.365  0.9825  1.4216 -2.7770
 3175SOL    HW221159   0.481   0.970   5.343  0.8308 -0.5114  1.0698
 3176SOL     OW21160   2.336   0.518   5.344 -0.6371  0.1836  0.5669
 3176SOL    HW121161   2.306   0.481   5.261  1.9367 -0.0828 -0.2733
 3176SOL    HW221162   2.431   0.525   5.330 -0.3981 -0.0839  2.1185
 3177SOL     OW21163   0.693   0.536   8.671  0.5039 -0.2020 -0.1102
 3177SOL    HW121164   0.646   0.462   8.633 -0.6194 -0.6909  2.2321
 3177SOL    HW221165   0.742   0.552   8.591 -0.3175  0.3854 -0.5034
 3178SOL     OW21166   0.898   4.612  17.337  0.6791  0.1845  0.0145
 3178SOL    HW121167   0.961   4.650  17.276  0.2610  0.5175 -0.2026
 3178SOL    HW221168   0.914   4.673  17.409  0.8115  0.5002 -0.2801
 3179SOL     OW21169   0.375   0.040   7.263  0.5582 -0.4292  0.0945
 3179SOL    HW121170   0.442   0.016   7.326  2.2642  1.9984 -0.7682
 3179SOL    HW221171   0.420   0.042   7.178  1.2049 -0.4963  0.4393
 3180SOL     OW21172   0.543   3.470   8.248  0.1383  0.5081  0.1544
 3180SOL    HW121173   0.468   3.515   8.286 -0.4097  1.0392 -1.5554
 3180SOL    HW221174   0.615   3.505   8.300 -0.5987  1.4551  0.5302
 3181SOL     OW21175   3.412   0.805   3.047 -0.0453  0.3635  0.1132
 3181SOL    HW121176   3.420   0.864   3.122  1.0350  0.7892 -0.3428
 3181SOL    HW221177   3.501   0.811   3.012  0.1264 -0.3813  0.4224
 3182SOL     OW21178   4.385   1.361   5.935  0.6427  0.2736 -0.5194
 3182SOL    HW121179   4.395   1.388   6.026 -0.1996 -2.0809  0.2769
 3182SOL    HW221180   4.469   1.314   5.934 -0.1226 -1.1877  2.7676
 3183SOL     OW21181   3.969   0.384  12.176  0.0577  0.6396  0.5374
 3183SOL    HW121182   3.898   0.401  12.113  0.3372  0.4624  0.1799
 3183SOL    HW221183   3.931   0.323  12.239  0.6073  2.4811  2.6242
 3184SOL     OW21184   1.900   3.140   2.250 -0.1328  0.2718 -0.8324
 3184SOL    HW121185   1.978   3.099   2.211 -0.1486 -0.2888 -0.2768
 3184SOL    HW221186   1.932   3.229   2.263 -0.3599  0.5087 -1.8371
 3185SOL     OW21187   2.381   4.127   9.629 -0.1649 -0.3033 -0.1960
 3185SOL    HW121188   2.356   4.210   9.670 -0.4949 -0.1288 -0.7552
 3185SOL    HW221189   2.471   4.122   9.662 -0.5628 -0.2476  0.9008
 3186SOL     OW21190   4.624   0.691   4.284  0.0048  0.1951 -0.0672
 3186SOL    HW121191   4.559   0.637   4.330  0.3625 -0.0807  0.1098
 3186SOL    HW221192   4.613   0.768   4.340  2.4778  0.3826  0.1508
 3187SOL     OW21193   1.943   0.038   7.288 -0.6066  0.6867 -0.1046
 3187SOL    HW121194   1.907   0.112   7.337  0.6077  1.3854 -0.2789
 3187SOL    HW221195   1.867   0.000   7.244  1.2892 -0.0105 -2.8235
 3188SOL     OW21196   3.759   3.295   2.986  0.2552 -0.4657 -0.0417
 3188SOL    HW121197   3.757   3.276   3.080 -2.2049 -0.2231 -0.0479
 3188SOL    HW221198   3.843   3.338   2.968  0.6690 -0.1544  2.6266
 3189SOL     OW21199   2.623   1.529   3.687  0.6873  0.0500 -0.4131
 3189SOL    HW121200   2.593   1.618   3.667 -1.6634 -0.7987 -0.7457
 3189SOL    HW221201   2.537   1.502   3.720  0.9068  2.1426  1.8972
 3190SOL     OW21202   0.408   2.090   4.472  0.4437  0.4303  0.5771
 3190SOL    HW121203   0.403   2.160   4.538 -1.1795  0.5174  0.3662
 3190SOL    HW221204   0.438   2.146   4.400 -1.5188  0.3260 -0.3424
 3191SOL     OW21205   1.528   4.354   9.811  0.8533  0.2343  0.2878
 3191SOL    HW121206   1.562   4.368   9.900  1.4102 -0.4186  0.1773
 3191SOL    HW221207   1.467   4.284   9.835 -0.6283  0.9593 -1.3880
 3192SOL     OW21208   3.011   2.228   3.327 -0.3083 -0.2873  0.4437
 3192SOL    HW121209   2.937   2.184   3.368 -0.6246 -0.3980 -0.2429
 3192SOL    HW221210   3.036   2.164   3.260  1.7425  1.5529 -0.5719
 3193SOL     OW21211   2.068   2.539   3.351 -0.0195  0.3190  0.2031
 3193SOL    HW121212   2.011   2.609   3.382 -2.6731 -1.1815 -1.3567
 3193SOL    HW221213   2.144   2.582   3.312 -0.2220  1.7061  1.3354
 3194SOL     OW21214   2.658   3.314   4.958 -0.0208  0.4065 -0.1054
 3194SOL    HW121215   2.652   3.315   5.054 -1.1733  0.8581 -0.1814
 3194SOL    HW221216   2.569   3.336   4.932 -0.1165 -1.1067 -1.0802
 3195SOL     OW21217   3.931   3.701   7.953  0.3778 -0.0007 -0.2220
 3195SOL    HW121218   3.835   3.709   7.949  0.4635  1.6916  1.3257
 3195SOL    HW221219   3.966   3.730   8.037 -1.0475  2.1709 -0.3602
 3196SOL     OW21220   1.156   3.911   8.757 -0.2269 -0.1815 -0.0626
 3196SOL    HW121221   1.239   3.952   8.732 -0.3587  0.0987 -0.0472
 3196SOL    HW221222   1.099   3.988   8.752  1.2534  0.9426  0.2344
 3197SOL     OW21223   1.751   4.023   1.776 -0.1126  0.1545 -0.3804
 3197SOL    HW121224   1.711   3.946   1.818  0.4861  1.0570  1.7994
 3197SOL    HW221225   1.689   4.093   1.795  2.1228  1.7594  0.8461
 3198SOL     OW21226   3.613   4.566   4.632  0.0003  0.0031 -0.5088
 3198SOL    HW121227   3.593   4.533   4.719  2.9020  0.1303  0.2230
 3198SOL    HW221228   3.642   4.655   4.655 -3.2054  0.2032  2.6589
 3199SOL     OW21229   0.582   3.669   3.418 -0.0525 -0.1611 -0.3233
 3199SOL    HW121230   0.667   3.628   3.400 -0.1061  1.3102 -4.0559
 3199SOL    HW221231   0.540   3.592   3.455 -1.3368  0.0037 -1.4309
 3200SOL     OW21232   2.336   3.630   1.143  0.0785  0.4057 -0.2468
 3200SOL    HW121233   2.341   3.600   1.052  1.3274  0.9235 -0.3411
 3200SOL    HW221234   2.325   3.724   1.129  0.3155  0.8133  2.2699
 3201SOL     OW21235   1.737   2.002  15.528 -0.4819 -0.4430  0.1109
 3201SOL    HW121236   1.651   2.008  15.486 -0.3660  4.4662  0.5449
 3201SOL    HW221237   1.760   1.909  15.528 -3.2365 -1.1356 -0.8947
 3202SOL     OW21238   0.471   2.245   4.253 -0.3010  0.4510 -0.4393
 3202SOL    HW121239   0.531   2.320   4.256  2.2195 -1.4645 -2.5405
 3202SOL    HW221240   0.406   2.276   4.191  0.0821  1.4541 -0.3362
 3203SOL     OW21241   0.172   1.351   1.751  0.3453 -0.1132  0.0535
 3203SOL    HW121242   0.237   1.296   1.707  0.0437  1.2225 -2.0655
 3203SOL    HW221243   0.233   1.416   1.784  0.3902 -0.4088  0.5628
 3204SOL     OW21244   3.555   4.088   4.289  0.6574 -0.5868  0.1861
 3204SOL    HW121245   3.485   4.132   4.339  0.8299  0.0081 -0.0994
 3204SOL    HW221246   3.626   4.146   4.317 -0.3337  0.8355 -0.2019
 3205SOL     OW21247   0.484   3.958   6.332  0.2493  0.4203 -0.1124
 3205SOL    HW121248   0.408   4.008   6.361 -0.4635  1.0545 -3.0458
 3205SOL    HW221249   0.464   3.941   6.240 -1.0427  1.0978  0.0477
 3206SOL     OW21250   4.473   3.886   4.168 -0.0846 -0.2090 -0.2352
 3206SOL    HW121251   4.411   3.871   4.239 -0.6115  0.0595 -0.6389
 3206SOL    HW221252   4.424   3.962   4.138 -0.7794 -0.2303  0.8621
 3207SOL     OW21253   3.761   3.246  15.119  0.4532 -0.2214  0.0079
 3207SOL    HW121254   3.699   3.204  15.178 -0.8293  0.9691 -0.4956
 3207SOL    HW221255   3.841   3.220  15.165 -0.6642  1.0989  2.7094
 3208SOL     OW21256   2.166   2.368   7.539 -0.1910 -0.3569  0.1288
 3208SOL    HW121257   2.146   2.456   7.572 -0.0232 -0.5071  0.6182
 3208SOL    HW221258   2.133   2.309   7.606  2.8245 -2.0424  0.0983
 3209SOL     OW21259   0.937   4.035  13.322  0.5813  0.5812  0.1833
 3209SOL    HW121260   0.922   4.129  13.307 -1.1746  0.3191  0.2688
 3209SOL    HW221261   0.850   4.001  13.304  1.3665 -1.2624 -0.0834
 3210SOL     OW21262   1.340   2.643   2.585  0.6672 -0.1138  0.5261
 3210SOL    HW121263   1.259   2.661   2.634  1.2071  0.9961  1.0143
 3210SOL    HW221264   1.368   2.552   2.596 -0.7660 -0.4377  1.5108
 3211SOL     OW21265   2.600   4.445   3.355 -0.2204 -0.0407  0.1481
 3211SOL    HW121266   2.681   4.414   3.394 -0.0036 -0.2395 -0.4561
 3211SOL    HW221267   2.586   4.528   3.400 -1.1174  0.1656 -0.5031
 3212SOL     OW21268   4.118   2.731   2.256 -0.3220 -0.3390 -0.0053
 3212SOL    HW121269   4.080   2.655   2.300 -4.0575  0.9960 -0.9133
 3212SOL    HW221270   4.210   2.705   2.258 -0.3587 -0.4495  0.3257
 3213SOL     OW21271   1.037   2.114   0.695  0.7272 -0.0758  0.0163
 3213SOL    HW121272   1.057   2.191   0.642  0.5509  0.4953  0.7807
 3213SOL    HW221273   1.064   2.154   0.777 -3.0501 -2.9039  2.6110
 3214SOL     OW21274   3.618   0.517   6.617  0.2959 -0.7707 -0.1056
 3214SOL    HW121275   3.701   0.562   6.597  0.4175  0.3084  2.7735
 3214SOL    HW221276   3.631   0.461   6.693 -1.6972  0.4332  1.1157
 3215SOL     OW21277   3.403   0.145   5.953 -0.0393 -0.1252  0.3770
 3215SOL    HW121278   3.411   0.052   5.929 -2.6907 -0.0568 -0.8679
 3215SOL    HW221279   3.328   0.176   5.902 -0.2009 -1.3446 -0.1373
 3216SOL     OW21280   2.900   2.788   9.025 -0.0015 -0.2693  0.0457
 3216SOL    HW121281   2.880   2.792   8.932  2.1892 -1.1692 -0.4489
 3216SOL    HW221282   2.859   2.866   9.062  1.2528  0.1156  0.6257
 3217SOL     OW21283   2.814   3.737  10.743 -0.5038 -0.1982  0.3404
 3217SOL    HW121284   2.741   3.679  10.765 -0.3934 -0.4128  0.1395
 3217SOL    HW221285   2.828   3.731  10.649  0.9648  4.2028  0.2595
 3218SOL     OW21286   4.069   4.642   2.298 -0.6288 -0.1568  0.4766
 3218SOL    HW121287   3.999   4.656   2.362 -1.3970 -1.8390  0.0021
 3218SOL    HW221288   4.134   4.704   2.332 -0.8108  1.1168 -1.5233
 3219SOL     OW21289   4.525   4.696  15.911  0.1027  0.5244  0.5107
 3219SOL    HW121290   4.559   4.685  16.000  0.6410 -1.7163  0.0370
 3219SOL    HW221291   4.557   0.053  15.894 -2.0576  1.3816  0.9994
 3220SOL     OW21292   1.144   1.378  13.733 -0.5628  0.8620 -0.1416
 3220SOL    HW121293   1.129   1.329  13.652 -1.0244  2.1992 -0.8564
 3220SOL    HW221294   1.062   1.364  13.781  0.2778  1.7932  1.5614
 3221SOL     OW21295   2.563   1.303   4.227 -0.5347 -0.0592 -0.3971
 3221SOL    HW121296   2.635   1.259   4.272 -2.1883  0.3353  2.5841
 3221SOL    HW221297   2.571   1.395   4.251 -1.4320  0.1189 -0.7695
 3222SOL     OW21298   1.401   0.329   8.681  0.1373  0.0503 -0.2584
 3222SOL    HW121299   1.390   0.424   8.671  0.1748 -0.0638 -1.3943
 3222SOL    HW221300   1.372   0.320   8.772  1.8116  1.4145  0.4037
 3223SOL     OW21301   4.014   2.300  14.973 -0.7117 -0.1343 -0.3048
 3223SOL    HW121302   4.051   2.216  15.001 -2.2999 -0.2455  1.4213
 3223SOL    HW221303   3.983   2.281  14.884  0.3024 -1.2096 -0.4311
 3224SOL     OW21304   3.993   1.231   8.897  0.3492  0.4846 -0.6137
 3224SOL    HW121305   3.925   1.223   8.964  2.4721 -1.2643  1.3455
 3224SOL    HW221306   3.935   1.263   8.828  1.1002  3.6153  0.2159
 3225SOL     OW21307   4.653   3.498  13.685  0.3435  0.1933 -0.6359
 3225SOL    HW121308   0.002   3.533  13.724 -0.6366  1.2962  0.3874
 3225SOL    HW221309   4.665   3.408  13.713 -1.0635  0.1508 -0.1879
 3226SOL     OW21310   3.779   1.407   0.968  0.4790  0.5592  0.0457
 3226SOL    HW121311   3.801   1.483   0.913  0.5472  0.3770 -0.1796
 3226SOL    HW221312   3.832   1.344   0.919  2.3056  0.3357  2.3371
 3227SOL     OW21313   2.749   1.694   4.693 -0.3901 -0.5027 -0.2179
 3227SOL    HW121314   2.655   1.685   4.710 -0.3977  0.7666  0.4000
 3227SOL    HW221315   2.758   1.659   4.605  2.5037 -1.4901  0.4852
 3228SOL     OW21316   0.241   2.146   5.538 -0.2238  0.4097 -1.0121
 3228SOL    HW121317   0.261   2.120   5.627 -1.1878  1.8110 -0.3836
 3228SOL    HW221318   0.332   2.167   5.515  0.3364 -0.7717  0.1676
 3229SOL     OW21319   3.909   1.637   6.793  0.4534 -0.7694  0.4347
 3229SOL    HW121320   3.920   1.729   6.769  0.9388 -1.2077 -1.0638
 3229SOL    HW221321   3.901   1.599   6.706 -1.7436  1.1881 -0.2204
 3230SOL     OW21322   0.196   2.922   2.347 -0.0533 -0.1372 -0.0027
 3230SOL    HW121323   0.222   2.881   2.265 -0.3980 -1.3559  0.5025
 3230SOL    HW221324   0.124   2.983   2.328  0.0227 -0.4177 -1.1886
 3231SOL     OW21325   1.064   2.374   9.858 -0.2906  0.4375  0.2037
 3231SOL    HW121326   1.084   2.359   9.950  0.4941 -0.9066 -0.1836
 3231SOL    HW221327   1.132   2.326   9.811  0.1745  1.6941 -0.4163
 3232SOL     OW21328   0.607   4.485  14.269 -0.3032  0.4424 -0.7483
 3232SOL    HW121329   0.561   4.505  14.187  0.6276 -2.1155 -1.8801
 3232SOL    HW221330   0.548   4.524  14.334 -1.9627 -2.7543 -0.3328
 3233SOL     OW21331   3.589   1.673   2.337  0.1191 -0.6626 -0.2223
 3233SOL    HW121332   3.603   1.724   2.258 -2.2823 -1.9583 -1.4741
 3233SOL    HW221333   3.652   1.603   2.318 -2.1729 -2.5729 -0.7786
 3234SOL     OW21334   1.253   0.591   2.953  0.4219 -0.6446 -0.0232
 3234SOL    HW121335   1.177   0.648   2.937 -0.8781 -1.7612  2.1758
 3234SOL    HW221336   1.227   0.500   2.947  2.2594 -1.0139 -2.2098
 3235SOL     OW21337   3.454   2.374   5.058  0.0761 -0.0911 -0.1988
 3235SOL    HW121338   3.440   2.282   5.077 -0.0167  0.2326  1.3097
 3235SOL    HW221339   3.484   2.381   4.968 -0.6546  1.0012 -0.3566
 3236SOL     OW21340   0.786   1.889   6.242  0.1595  0.8665  0.9860
 3236SOL    HW121341   0.694   1.870   6.225  0.4855 -1.4930  1.8240
 3236SOL    HW221342   0.823   1.801   6.233 -0.5779  0.8189 -1.4207
 3237SOL     OW21343   1.816   3.091   6.017  0.2163  0.3665 -0.2820
 3237SOL    HW121344   1.904   3.107   6.052  0.4003 -1.3915  0.0650
 3237SOL    HW221345   1.756   3.156   6.052  0.2240 -1.1143  2.4683
 3238SOL     OW21346   4.023   0.180   7.453  0.9255 -0.1123 -0.0479
 3238SOL    HW121347   4.052   0.219   7.370  0.2059 -1.4699 -0.9309
 3238SOL    HW221348   3.979   0.103   7.418 -0.7995  0.3479  1.1009
 3239SOL     OW21349   0.144   0.500   7.162 -0.2472 -0.6553  0.5509
 3239SOL    HW121350   0.198   0.539   7.093 -2.1268  0.0960 -0.4997
 3239SOL    HW221351   0.107   0.582   7.197  0.7237 -0.4736  1.1330
 3240SOL     OW21352   0.172   2.342   0.180 -0.3272  0.2012  0.4385
 3240SOL    HW121353   0.180   2.349   0.085  2.2382 -0.2155  0.6146
 3240SOL    HW221354   0.219   2.415   0.219 -0.1193 -1.1145  2.6829
 3241SOL     OW21355   4.699   2.426   1.669  0.0343  0.1510 -0.0017
 3241SOL    HW121356   4.702   2.400   1.577  0.3071 -0.3979  0.1578
 3241SOL    HW221357   4.702   2.521   1.666  1.7906 -0.0833 -4.4672
 3242SOL     OW21358   2.147   2.240   7.794 -0.3213 -0.1903  0.3440
 3242SOL    HW121359   2.207   2.309   7.823  2.1089 -2.3445  0.4990
 3242SOL    HW221360   2.158   2.186   7.872  0.7154  0.0464  0.3727
 3243SOL     OW21361   3.157   3.683   5.237 -0.0363  0.8068 -0.1337
 3243SOL    HW121362   3.083   3.737   5.263 -0.8750  0.0098 -0.8486
 3243SOL    HW221363   3.202   3.744   5.178  2.1419 -0.8325 -0.1731
 3244SOL     OW21364   1.520   3.423  14.288 -0.3930 -0.0934  0.9628
 3244SOL    HW121365   1.523   3.517  14.270  0.8621 -0.0238  1.5420
 3244SOL    HW221366   1.590   3.394  14.230  0.3613 -0.6925  2.1940
 3245SOL     OW21367   3.364   0.468   3.178 -0.1584 -0.0602  0.4914
 3245SOL    HW121368   3.399   0.537   3.122 -1.0283  0.4643  0.5957
 3245SOL    HW221369   3.342   0.397   3.117  0.9587  0.1327 -0.1458
 3246SOL     OW21370   0.281   4.060   9.948  0.7304  0.1680 -0.5903
 3246SOL    HW121371   0.254   4.070   9.857 -1.8844 -0.1044  0.1497
 3246SOL    HW221372   0.211   4.107   9.994  0.3925 -0.1442 -0.7816
 3247SOL     OW21373   1.786   2.291   3.012 -0.5561  0.3031 -0.5713
 3247SOL    HW121374   1.795   2.383   2.987  0.3560  0.4777  0.4142
 3247SOL    HW221375   1.871   2.287   3.056 -1.5352 -0.5803  1.2319
 3248SOL     OW21376   0.620   2.956   6.102 -0.9022 -0.1121  0.3261
 3248SOL    HW121377   0.614   3.034   6.158  2.1752  0.1195  0.2954
 3248SOL    HW221378   0.531   2.949   6.066 -0.0463 -1.4012 -1.5226
 3249SOL     OW21379   1.277   1.634   7.969 -0.6693  0.4825  0.0404
 3249SOL    HW121380   1.250   1.706   7.912  0.8009  1.1899  0.2515
 3249SOL    HW221381   1.363   1.613   7.934 -0.9813 -2.1845  0.8560
 3250SOL     OW21382   0.909   2.890   9.023  0.4018 -0.0232  0.0988
 3250SOL    HW121383   0.855   2.929   8.954 -0.4321 -0.3777  0.5534
 3250SOL    HW221384   0.957   2.822   8.974  1.2148  0.5724  0.0575
 3251SOL     OW21385   1.481   3.639   6.060 -0.4565 -0.5040  0.2434
 3251SOL    HW121386   1.557   3.618   6.115  0.8791 -0.6021 -1.6132
 3251SOL    HW221387   1.466   3.548   6.034 -1.1393 -0.5056  0.6504
 3252SOL     OW21388   4.251   3.560   7.174 -0.1404  0.3053 -0.0684
 3252SOL    HW121389   4.341   3.527   7.173 -0.3695 -0.3984  2.4351
 3252SOL    HW221390   4.256   3.639   7.227  0.2166 -0.9166  1.7293
 3253SOL     OW21391   0.676   3.124   2.658  0.1476  0.3270  0.1201
 3253SOL    HW121392   0.694   3.070   2.581  0.9615  0.5745  0.1324
 3253SOL    HW221393   0.645   3.201   2.611  0.7687  0.6897  0.2922
 3254SOL     OW21394   2.268   2.485   1.219 -0.3303 -0.7398  0.2189
 3254SOL    HW121395   2.251   2.394   1.196  0.1819 -0.6118 -0.6743
 3254SOL    HW221396   2.363   2.488   1.227 -0.5002  1.9653  1.3401
 3255SOL     OW21397   0.419   3.702   3.179  0.2114  0.3258 -0.3247
 3255SOL    HW121398   0.330   3.680   3.205  0.2727  0.2443 -0.1788
 3255SOL    HW221399   0.471   3.707   3.260 -0.5107 -2.2955  0.3191
 3256SOL     OW21400   0.745   3.467   5.292 -0.0858  0.3477 -0.0367
 3256SOL    HW121401   0.795   3.485   5.212 -0.1610  2.0307  0.2878
 3256SOL    HW221402   0.690   3.545   5.302 -0.6705  0.4366 -4.0918
 3257SOL     OW21403   1.954   3.617   5.480  0.4330 -0.3445  0.0344
 3257SOL    HW121404   1.928   3.563   5.555 -0.5379  3.4768  2.4086
 3257SOL    HW221405   1.867   3.625   5.441  0.7649 -2.2620 -1.1323
 3258SOL     OW21406   0.319   0.150   6.082 -0.0811 -0.2673  0.7225
 3258SOL    HW121407   0.269   0.227   6.111 -0.9393 -0.4687 -0.2201
 3258SOL    HW221408   0.385   0.193   6.027  0.8169 -0.9483  1.2689
 3259SOL     OW21409   4.132   2.173  10.471  0.2540  0.8311 -0.6296
 3259SOL    HW121410   4.182   2.096  10.446 -1.4790 -0.3738 -0.3619
 3259SOL    HW221411   4.201   2.226  10.511 -1.1965  1.6837  0.7433
 3260SOL     OW21412   3.163   0.974   7.213  0.3445 -0.2435  0.0054
 3260SOL    HW121413   3.182   0.906   7.147  1.1535 -0.1244  0.1121
 3260SOL    HW221414   3.210   0.948   7.292  1.3333 -0.9450 -0.8203
 3261SOL     OW21415   4.410   3.050   7.686  0.4140 -0.5714 -0.1627
 3261SOL    HW121416   4.433   3.096   7.767 -0.3457  0.9827 -0.8136
 3261SOL    HW221417   4.317   3.074   7.685  0.2259 -1.2625  0.7181
 3262SOL     OW21418   2.896   1.537   6.158 -0.3866 -0.6225 -0.0036
 3262SOL    HW121419   2.905   1.609   6.096  0.2144  0.0694  0.8855
 3262SOL    HW221420   2.925   1.587   6.234  0.0962  0.9162 -1.1977
 3263SOL     OW21421   1.229   1.167  12.716  0.1692  0.0708  0.2902
 3263SOL    HW121422   1.200   1.159  12.806  2.6788 -1.9484  0.9133
 3263SOL    HW221423   1.301   1.229  12.733 -0.5138  1.7136 -2.7071
 3264SOL     OW21424   3.039   1.663  16.716  0.9439  0.1785 -0.6478
 3264SOL    HW121425   2.985   1.593  16.753 -0.1645  1.6911  0.5837
 3264SOL    HW221426   3.044   1.715  16.796 -1.8288 -0.9795  0.2912
 3265SOL     OW21427   2.778   0.615  11.503 -0.1801  0.6289 -0.1075
 3265SOL    HW121428   2.779   0.525  11.535  0.3671  0.7187  0.1269
 3265SOL    HW221429   2.816   0.596  11.417 -0.3272 -0.5419  0.0779
 3266SOL     OW21430   1.417   3.717   0.305  0.1394 -0.3688  0.2497
 3266SOL    HW121431   1.325   3.707   0.280  0.5680  0.1897 -1.5634
 3266SOL    HW221432   1.452   3.771   0.235 -0.2763 -0.9486 -0.4025
 3267SOL     OW21433   3.938   3.306   3.727  0.1372 -0.5280 -0.0428
 3267SOL    HW121434   4.000   3.377   3.745  0.5224 -0.6899 -0.7248
 3267SOL    HW221435   3.857   3.350   3.751 -0.3926 -1.6575  0.2396
 3268SOL     OW21436   0.732   3.220   6.469  0.0526  0.1418 -0.1129
 3268SOL    HW121437   0.716   3.311   6.496  0.0696  0.6249 -1.7591
 3268SOL    HW221438   0.644   3.209   6.432  1.0167 -1.5450 -1.8547
 3269SOL     OW21439   3.528   1.079   8.713  0.0989 -0.0649 -0.2513
 3269SOL    HW121440   3.608   1.038   8.747 -0.3416  0.3924  1.2850
 3269SOL    HW221441   3.471   1.078   8.789  3.3582 -1.0396  2.1992
 3270SOL     OW21442   2.284   0.310   4.636  0.4186  0.4913 -0.3084
 3270SOL    HW121443   2.316   0.256   4.564  4.3125  0.9599  1.0210
 3270SOL    HW221444   2.202   0.269   4.660 -1.1217  3.3467 -0.6832
 3271SOL     OW21445   4.122   2.995   6.384 -0.6336  0.0215 -1.0782
 3271SOL    HW121446   4.115   3.091   6.378 -1.1957  0.0970  0.7698
 3271SOL    HW221447   4.215   2.979   6.365 -0.6487 -0.4141 -0.7814
 3272SOL     OW21448   1.993   1.894  15.011 -0.3812  0.0383  0.3806
 3272SOL    HW121449   2.061   1.961  15.014 -1.4913  1.1153  1.1114
 3272SOL    HW221450   1.916   1.949  15.013 -0.6196 -0.3035  0.7106
 3273SOL     OW21451   0.716   0.320   2.353  0.2302 -0.4633 -0.4713
 3273SOL    HW121452   0.811   0.333   2.362  0.2069 -0.7752  0.1992
 3273SOL    HW221453   0.718   0.233   2.312  0.4155  0.2415 -1.9608
 3274SOL     OW21454   0.147   0.889   2.700 -0.2195  0.4183  0.3176
 3274SOL    HW121455   0.139   0.982   2.719  0.1188  0.8742 -1.7241
 3274SOL    HW221456   0.189   0.870   2.784  1.1423 -0.4057 -0.5407
 3275SOL     OW21457   2.156   4.385   6.401 -0.5073 -0.2419 -0.0684
 3275SOL    HW121458   2.171   4.342   6.486  0.1469  1.3568  0.6357
 3275SOL    HW221459   2.143   4.318   6.335 -0.9468 -1.8358  1.6309
 3276SOL     OW21460   0.337   1.095   1.983 -0.3110 -0.3360 -0.0195
 3276SOL    HW121461   0.388   1.027   1.939 -0.4097  1.3715 -2.8194
 3276SOL    HW221462   0.411   1.156   1.988 -1.6260  1.0133  2.6585
 3277SOL     OW21463   3.127   1.659   9.016  0.5328  0.1750  0.0550
 3277SOL    HW121464   3.210   1.705   9.013  1.6195 -2.0488 -3.3374
 3277SOL    HW221465   3.137   1.591   8.950  0.9060 -1.6466  1.9647
 3278SOL     OW21466   2.373   1.855   8.287  0.1337 -0.0293  0.3225
 3278SOL    HW121467   2.372   1.876   8.194  1.6913 -0.3132  0.2381
 3278SOL    HW221468   2.349   1.937   8.329  0.8863  0.9785 -1.2479
 3279SOL     OW21469   1.274   0.351   1.549  0.1936  0.2302  0.5216
 3279SOL    HW121470   1.328   0.291   1.601  2.2633  2.5092  1.0372
 3279SOL    HW221471   1.285   0.433   1.597 -1.7002  1.4471 -1.1309
 3280SOL     OW21472   0.138   3.469   9.573  0.6705 -0.2224  0.2888
 3280SOL    HW121473   0.092   3.536   9.522 -0.1985 -2.2002 -1.5192
 3280SOL    HW221474   0.162   3.526   9.647 -0.8062 -1.3136  1.6300
 3281SOL     OW21475   0.140   4.358   5.612 -0.0960  0.0743 -0.6003
 3281SOL    HW121476   0.233   4.383   5.613 -0.0736 -0.0348 -0.0876
 3281SOL    HW221477   0.139   4.278   5.664  1.4044  0.8994  0.7115
 3282SOL     OW21478   0.277   2.483   8.255 -0.4765  0.1372 -0.5997
 3282SOL    HW121479   0.336   2.558   8.250  0.6394 -0.6377  0.7342
 3282SOL    HW221480   0.333   2.405   8.248 -0.8060 -0.1498 -0.0786
 3283SOL     OW21481   1.224   2.826  16.174  0.1145 -0.0805 -0.4902
 3283SOL    HW121482   1.261   2.741  16.197 -0.8131 -0.4845 -0.5132
 3283SOL    HW221483   1.279   2.880  16.231 -1.9688  0.6393  0.8651
 3284SOL     OW21484   0.853   0.617   8.917  0.0703  0.1915  0.3834
 3284SOL    HW121485   0.799   0.587   8.844 -1.7546  3.8906  0.2104
 3284SOL    HW221486   0.915   0.545   8.927 -1.3114 -0.8294  1.4128
 3285SOL     OW21487   0.310   2.016   5.767 -0.6700 -0.0697 -0.4678
 3285SOL    HW121488   0.388   2.072   5.778  0.8645 -1.8847 -2.0735
 3285SOL    HW221489   0.269   2.021   5.853 -0.0934 -0.0724 -0.1931
 3286SOL     OW21490   0.861   3.193   7.781  0.0054 -0.4073 -0.3344
 3286SOL    HW121491   0.775   3.222   7.752 -0.1087  1.7996  2.1850
 3286SOL    HW221492   0.845   3.147   7.864  0.1457 -0.1425 -0.1604
 3287SOL     OW21493   2.118   4.252   4.779  0.1553  0.3029  0.1371
 3287SOL    HW121494   2.149   4.188   4.843 -1.2632  1.4250  1.9369
 3287SOL    HW221495   2.178   4.241   4.705 -0.9893  1.2882 -0.9303
 3288SOL     OW21496   3.874   1.721   4.292  0.3513 -0.0092  0.3671
 3288SOL    HW121497   3.949   1.677   4.332  0.3075  0.2181  0.7081
 3288SOL    HW221498   3.828   1.772   4.360 -0.4781 -1.5950  0.9928
 3289SOL     OW21499   2.291   0.597   1.729  0.1396  0.0760  0.2433
 3289SOL    HW121500   2.275   0.686   1.698 -2.1032 -0.5057 -0.3189
 3289SOL    HW221501   2.209   0.555   1.703  0.1141  0.6969 -0.6824
 3290SOL     OW21502   1.268   4.535   9.715 -0.4142 -0.2521 -0.1938
 3290SOL    HW121503   1.285   4.483   9.637  0.3100 -1.0856  0.5226
 3290SOL    HW221504   1.358   4.547   9.747 -1.1260  0.8782  1.4084
 3291SOL     OW21505   2.484   1.949   9.077 -0.1905 -0.0050  0.0515
 3291SOL    HW121506   2.482   2.007   9.001  1.4306 -1.4199 -1.0474
 3291SOL    HW221507   2.562   1.986   9.119 -1.2224  0.1102  1.8622
 3292SOL     OW21508   0.333   1.015  12.912 -0.0838  0.4627 -0.1279
 3292SOL    HW121509   0.318   1.060  12.829 -0.4458 -0.4851 -0.5833
 3292SOL    HW221510   0.337   1.090  12.972 -0.2533 -0.3260  0.8680
 3293SOL     OW21511   2.578   1.432  16.105 -0.5404  0.0614 -0.0670
 3293SOL    HW121512   2.593   1.507  16.048  1.1433 -0.6688 -0.5699
 3293SOL    HW221513   2.483   1.432  16.099 -0.7064  0.2641  2.3302
 3294SOL     OW21514   3.657   2.536   7.515 -0.5871 -0.5116 -0.9068
 3294SOL    HW121515   3.610   2.478   7.574  0.1027 -1.6356 -1.4562
 3294SOL    HW221516   3.590   2.557   7.449  2.4690  2.4487 -3.1177
 3295SOL     OW21517   0.916   2.139   7.860  0.0158 -0.1056 -0.3037
 3295SOL    HW121518   0.883   2.053   7.833  0.3898  0.0048 -1.1388
 3295SOL    HW221519   0.987   2.115   7.920  1.4095  0.2820 -1.7975
 3296SOL     OW21520   2.691   4.679   2.090 -0.5606 -0.4817  0.2437
 3296SOL    HW121521   2.666   0.041   2.087  1.3070 -0.0300 -1.0774
 3296SOL    HW221522   2.764   4.677   2.029 -0.7135 -0.3910  0.0577
 3297SOL     OW21523   4.242   3.362   9.209  0.2015  0.1806 -0.2189
 3297SOL    HW121524   4.282   3.363   9.122  0.1751 -1.5396 -0.2529
 3297SOL    HW221525   4.283   3.286   9.251 -0.1304  0.0342 -0.1613
 3298SOL     OW21526   1.613   2.573   5.113  0.2222  0.6212  0.6119
 3298SOL    HW121527   1.696   2.569   5.066  0.8776  2.7523  1.5748
 3298SOL    HW221528   1.580   2.662   5.099 -2.5102 -0.4204  0.3831
 3299SOL     OW21529   3.682   4.094   8.138  0.4218  0.1623  0.5426
 3299SOL    HW121530   3.757   4.039   8.116 -0.4856 -0.8124 -0.1114
 3299SOL    HW221531   3.635   4.024   8.185  1.0217  0.2345  1.2419
 3300SOL     OW21532   0.244   0.830   2.464 -0.1933 -0.5491 -0.2251
 3300SOL    HW121533   0.237   0.907   2.409 -3.7100  0.7097  2.0024
 3300SOL    HW221534   0.219   0.882   2.541  1.2485 -0.2020  0.0072
 3301SOL     OW21535   1.347   0.237   5.362  0.0162  0.0238  0.1049
 3301SOL    HW121536   1.437   0.208   5.374 -0.0990 -0.1512  0.5373
 3301SOL    HW221537   1.311   0.229   5.450 -0.9662 -0.4471 -0.3334
 3302SOL     OW21538   3.030   4.004   7.702  0.0504  0.0957  0.1182
 3302SOL    HW121539   3.033   4.083   7.649 -0.4813 -0.1762 -0.3201
 3302SOL    HW221540   2.950   4.005   7.755 -1.3783  0.3154 -2.0676
 3303SOL     OW21541   0.098   0.880   8.105  0.1843  0.6543  0.5508
 3303SOL    HW121542   0.037   0.820   8.149  1.0994 -0.7091 -0.0657
 3303SOL    HW221543   0.165   0.817   8.081  0.5842  1.4575 -0.4145
 3304SOL     OW21544   0.014   3.147   5.067  0.1535 -0.0684 -0.0530
 3304SOL    HW121545   0.006   3.112   4.978 -1.3698 -1.3872  0.5940
 3304SOL    HW221546   4.656   3.127   5.095 -0.4121 -0.1592 -1.9264
 3305SOL     OW21547   4.012   1.293  10.674  0.0250  0.6973 -0.3725
 3305SOL    HW121548   4.079   1.225  10.673  0.1671  0.8225  2.5449
 3305SOL    HW221549   4.050   1.359  10.616  3.6885  0.9483  2.3380
 3306SOL     OW21550   2.203   0.416   8.072  0.2314 -0.5661  0.4412
 3306SOL    HW121551   2.158   0.403   8.156 -0.4043  1.1123  0.3727
 3306SOL    HW221552   2.162   0.493   8.034  2.2102  0.1247 -0.3156
 3307SOL     OW21553   0.129   3.777   0.508  0.1552 -0.1610 -0.0002
 3307SOL    HW121554   0.046   3.783   0.461 -0.0142 -0.7072  0.2360
 3307SOL    HW221555   0.136   3.684   0.527  0.9113 -0.4751 -1.7656
 3308SOL     OW21556   3.399   2.735   9.095 -0.3004 -0.1485 -0.5545
 3308SOL    HW121557   3.330   2.796   9.066  0.5430  0.4761 -1.2329
 3308SOL    HW221558   3.352   2.682   9.160 -0.9728  0.6258 -0.4062
 3309SOL     OW21559   0.973   0.703   5.107 -0.1506  1.0509  0.1953
 3309SOL    HW121560   0.986   0.616   5.069  1.0636 -0.2662  3.5917
 3309SOL    HW221561   1.064   0.733   5.102 -0.0666  1.1270  2.2418
 3310SOL     OW21562   2.388   0.771  12.616 -0.1570 -0.5756  0.6854
 3310SOL    HW121563   2.452   0.721  12.564  0.1815 -0.4574  0.9887
 3310SOL    HW221564   2.375   0.710  12.689 -0.7367  0.5901  1.5490
 3311SOL     OW21565   3.942   2.767   9.428  0.2184 -0.5595  0.0375
 3311SOL    HW121566   3.983   2.812   9.502  1.6991  0.9453 -1.6858
 3311SOL    HW221567   3.863   2.820   9.420  0.1478 -0.8082 -0.9057
 3312SOL     OW21568   0.201   4.342  15.761  0.2935 -0.4913  1.0661
 3312SOL    HW121569   0.266   4.286  15.804  2.7409  1.0059 -0.6924
 3312SOL    HW221570   0.132   4.337  15.828 -1.3506 -0.1578 -0.6167
 3313SOL     OW21571   2.750   3.514   5.647 -0.0516 -0.5535  0.1035
 3313SOL    HW121572   2.756   3.597   5.599 -3.0269  0.1592  0.9335
 3313SOL    HW221573   2.799   3.538   5.725  1.7297  0.3619 -1.2861
 3314SOL     OW21574   3.574   3.691   5.070  0.1694 -0.1224  0.0819
 3314SOL    HW121575   3.589   3.768   5.125  1.3093 -0.8524  0.7822
 3314SOL    HW221576   3.537   3.632   5.136 -0.0263  0.2661  0.3187
 3315SOL     OW21577   1.531   4.610  16.670  0.1244 -0.1673 -0.4443
 3315SOL    HW121578   1.435   4.613  16.662  0.3722  2.9117 -2.3106
 3315SOL    HW221579   1.552   4.551  16.597 -0.2881  0.4409 -1.0650
 3316SOL     OW21580   1.968   3.536   7.476  0.1612  0.0490 -0.0787
 3316SOL    HW121581   1.876   3.512   7.461  0.7888 -1.8033 -0.9425
 3316SOL    HW221582   2.007   3.514   7.392 -0.2402 -0.3202 -0.1692
 3317SOL     OW21583   0.044   2.892   8.583  0.2937 -0.0344 -0.1140
 3317SOL    HW121584   0.039   2.880   8.678  1.0146 -1.2564 -0.2291
 3317SOL    HW221585   4.686   2.921   8.563 -0.0587 -0.2480  1.1419
 3318SOL     OW21586   4.301   4.020   8.344 -0.4360  0.0097 -0.5691
 3318SOL    HW121587   4.283   4.066   8.262 -0.1865  0.5373 -0.3268
 3318SOL    HW221588   4.348   4.091   8.388  0.7800 -1.0057 -0.2373
 3319SOL     OW21589   4.727   3.830   4.339 -0.4448  0.4497  0.0945
 3319SOL    HW121590   0.015   3.913   4.383 -0.5659 -1.2247  3.3390
 3319SOL    HW221591   4.671   3.853   4.265  0.2962  2.2837  0.1239
 3320SOL     OW21592   3.267   0.091   7.284 -0.1323 -0.4295 -0.4426
 3320SOL    HW121593   3.226   0.031   7.222 -2.2881 -0.1548  0.7260
 3320SOL    HW221594   3.220   0.174   7.278  2.9934  1.4464  0.5548
 3321SOL     OW21595   4.204   4.281   8.463  0.9854  0.1816  0.6635
 3321SOL    HW121596   4.143   4.256   8.532 -1.7308 -1.2537 -2.2913
 3321SOL    HW221597   4.158   4.241   8.390 -0.2040 -0.5416  1.8251
 3322SOL     OW21598   4.334   4.437  16.142 -0.4022 -0.4795  0.1163
 3322SOL    HW121599   4.378   4.386  16.074 -1.0813 -0.0491 -0.6371
 3322SOL    HW221600   4.374   4.401  16.222  2.2954 -0.0549 -1.0395
 3323SOL     OW21601   3.533   3.692  12.570 -0.6096  0.3936  0.0414
 3323SOL    HW121602   3.581   3.702  12.488 -0.8091  1.2364  0.0299
 3323SOL    HW221603   3.492   3.777  12.587 -1.1200  0.4963 -1.6819
 3324SOL     OW21604   0.944   0.623   3.648  0.3261 -0.4749 -0.2558
 3324SOL    HW121605   1.029   0.598   3.611  0.8141  0.7592  0.0091
 3324SOL    HW221606   0.893   0.548   3.618 -0.1123  0.0865 -0.9223
 3325SOL     OW21607   0.019   2.759   5.564  0.5026  0.4709  0.1773
 3325SOL    HW121608   0.006   2.804   5.648 -0.6667 -0.1652  0.3341
 3325SOL    HW221609   4.679   2.696   5.569 -0.2635  1.2546 -0.9762
 3326SOL     OW21610   2.908   1.661   7.638 -0.0450 -0.0867 -0.4458
 3326SOL    HW121611   2.928   1.668   7.731  0.4444 -0.0818 -0.5533
 3326SOL    HW221612   2.813   1.672   7.650 -0.0265  0.9789 -1.2589
 3327SOL     OW21613   2.159   0.866   1.832  0.0358  0.5515  0.4622
 3327SOL    HW121614   2.121   0.779   1.831  1.0478  0.1018  1.2215
 3327SOL    HW221615   2.087   0.917   1.794 -0.6114 -1.1755 -0.5925
 3328SOL     OW21616   1.560   1.632   6.646 -0.0152  0.1069  0.2907
 3328SOL    HW121617   1.562   1.537   6.659  0.6599  0.1946  0.8375
 3328SOL    HW221618   1.478   1.662   6.685  0.0139  1.9957 -1.1178
 3329SOL     OW21619   3.673   3.173   8.237 -0.6405  0.1330 -0.3856
 3329SOL    HW121620   3.660   3.104   8.302  1.5832 -0.7457 -0.8866
 3329SOL    HW221621   3.655   3.125   8.157  0.2296 -3.6753  1.6639
 3330SOL     OW21622   0.617   4.313  10.467  0.2196 -0.0132  0.4309
 3330SOL    HW121623   0.651   4.312  10.378 -0.4354 -2.0314  0.1863
 3330SOL    HW221624   0.697   4.309  10.520  0.1632 -1.3403  0.4285
 3331SOL     OW21625   2.652   4.391  13.657 -0.3814 -0.1468  0.1346
 3331SOL    HW121626   2.604   4.308  13.651  0.9051 -0.7378 -1.8727
 3331SOL    HW221627   2.743   4.365  13.647  0.0510  0.9339  1.1738
 3332SOL     OW21628   2.527   1.430   9.436 -0.1703 -0.3553 -0.5685
 3332SOL    HW121629   2.611   1.463   9.404 -0.6067  1.9173  0.6614
 3332SOL    HW221630   2.506   1.501   9.497  0.7036  0.5222 -1.2881
 3333SOL     OW21631   3.812   0.142  17.287  0.0789 -0.1232  0.1960
 3333SOL    HW121632   3.760   0.062  17.292  4.4950 -2.7928  3.6301
 3333SOL    HW221633   3.848   0.147  17.198 -0.6519  0.6483 -0.0472
 3334SOL     OW21634   3.022   4.506   2.429  0.1873 -0.1416  0.2228
 3334SOL    HW121635   3.062   4.452   2.361 -1.3422 -2.2798  1.0543
 3334SOL    HW221636   2.942   4.540   2.390  0.5284 -1.2472 -1.3863
 3335SOL     OW21637   1.185   0.507   4.664 -0.1947  1.0219 -0.0545
 3335SOL    HW121638   1.122   0.562   4.710 -1.5932 -1.1499  0.6249
 3335SOL    HW221639   1.249   0.569   4.629  1.0329 -0.1959  0.0067
 3336SOL     OW21640   2.018   0.711   9.389  0.4087 -0.0912  0.2263
 3336SOL    HW121641   1.925   0.719   9.411  1.0853  1.9445  2.2807
 3336SOL    HW221642   2.060   0.766   9.455  1.6021  0.1592 -0.7342
 3337SOL     OW21643   1.811   3.812   7.607  0.4083  0.0502  0.9379
 3337SOL    HW121644   1.752   3.887   7.600  0.1963 -0.1826  0.2254
 3337SOL    HW221645   1.889   3.850   7.648  1.0521  1.3480 -1.4839
 3338SOL     OW21646   4.709   2.385  17.621 -0.1318 -0.1681 -0.5056
 3338SOL    HW121647   4.668   2.429  17.696  0.0844 -1.5058  0.3941
 3338SOL    HW221648   4.681   2.296  17.640 -0.1546  0.4042  2.1741
 3339SOL     OW21649   3.115   1.856  11.949 -0.1684  0.1607  0.3782
 3339SOL    HW121650   3.050   1.814  12.006  0.6875 -0.8138  0.6183
 3339SOL    HW221651   3.172   1.900  12.012 -0.1431  1.7375 -0.7275
 3340SOL     OW21652   3.150   3.618   6.151 -0.3144 -0.0362  0.5965
 3340SOL    HW121653   3.215   3.553   6.178 -2.5687 -2.6044 -0.0950
 3340SOL    HW221654   3.120   3.664   6.229  1.8502  1.7213  0.3834
 3341SOL     OW21655   0.409   2.216   2.131 -0.5151 -0.2594  0.3404
 3341SOL    HW121656   0.469   2.166   2.077  0.1845 -1.1860  1.9569
 3341SOL    HW221657   0.460   2.211   2.212  0.8820  0.5737 -0.4885
 3342SOL     OW21658   2.278   4.665   2.808 -0.2637  0.0423 -0.3218
 3342SOL    HW121659   2.319   0.016   2.784 -1.1731  1.1566  2.0191
 3342SOL    HW221660   2.313   4.654   2.896 -3.5407 -0.4958  0.9066
 3343SOL     OW21661   1.222   3.284   3.436  0.0797 -0.1905  0.3139
 3343SOL    HW121662   1.189   3.359   3.386  0.0545 -0.7577 -0.5168
 3343SOL    HW221663   1.268   3.324   3.509 -3.6595  0.6733  2.1664
 3344SOL     OW21664   3.212   2.499   7.976 -0.0849  0.0324 -0.0362
 3344SOL    HW121665   3.275   2.489   8.048  0.8426  1.9740 -0.5719
 3344SOL    HW221666   3.136   2.500   8.033 -0.8571  0.0441 -1.0592
 3345SOL     OW21667   1.629   2.464   6.411 -0.0968  0.3558 -0.0738
 3345SOL    HW121668   1.584   2.548   6.401  2.1339  1.1379 -3.4257
 3345SOL    HW221669   1.668   2.446   6.326  0.8389 -0.0269  0.4350
 3346SOL     OW21670   1.449   1.330   8.510  0.0955 -0.1508 -0.2230
 3346SOL    HW121671   1.356   1.328   8.488 -0.0268 -2.8439  0.6441
 3346SOL    HW221672   1.466   1.245   8.549  3.0368  1.5800  2.3103
 3347SOL     OW21673   1.828   0.676   9.165 -0.5651 -0.1958  0.3509
 3347SOL    HW121674   1.910   0.664   9.212 -0.6678  1.5664  0.9821
 3347SOL    HW221675   1.767   0.669   9.239  0.4531  1.2365  1.3170
 3348SOL     OW21676   0.786   2.617   8.796 -0.1398  0.1509 -0.6417
 3348SOL    HW121677   0.873   2.655   8.811 -0.6498  0.9083  0.3840
 3348SOL    HW221678   0.796   2.532   8.838 -1.4220 -0.5351 -1.7031
 3349SOL     OW21679   1.730   4.628   7.521 -0.0021  0.1085 -0.4663
 3349SOL    HW121680   1.772   4.555   7.474 -3.3477 -0.7311 -2.1131
 3349SOL    HW221681   1.688   4.581   7.592  1.8819  0.6963  1.0501
 3350SOL     OW21682   3.822   0.856   7.679  0.7617  0.0748  0.1334
 3350SOL    HW121683   3.775   0.862   7.762 -2.3100 -0.0961 -1.6130
 3350SOL    HW221684   3.747   0.851   7.621  0.4342  1.4600  0.4418
 3351SOL     OW21685   4.245   0.888   7.790 -0.4149  0.4855 -0.5040
 3351SOL    HW121686   4.186   0.915   7.719 -1.8559 -0.9837  0.1252
 3351SOL    HW221687   4.318   0.948   7.777 -1.1733  1.2734 -1.1164
 3352SOL     OW21688   3.479   3.171   5.853  0.5436  0.9242  0.3541
 3352SOL    HW121689   3.424   3.194   5.928 -0.6463  1.3553 -0.6505
 3352SOL    HW221690   3.534   3.106   5.895 -0.0006 -0.3599 -0.9130
 3353SOL     OW21691   0.116   3.490   5.874  0.2505 -0.4387  0.1957
 3353SOL    HW121692   0.161   3.432   5.936  0.0543  0.7309  1.4332
 3353SOL    HW221693   0.189   3.542   5.840 -0.8391 -1.2934 -3.4709
 3354SOL     OW21694   2.322   0.390   7.046  0.0016  0.2888 -0.2883
 3354SOL    HW121695   2.351   0.303   7.074  0.3935 -0.4375 -2.9813
 3354SOL    HW221696   2.289   0.422   7.130 -1.7231 -1.4935 -0.2966
 3355SOL     OW21697   3.105   0.035  13.455 -0.2887  0.0684 -0.1487
 3355SOL    HW121698   3.012   0.040  13.433  0.3174 -0.9047 -2.9666
 3355SOL    HW221699   3.116   0.125  13.486 -0.7822  0.6210 -1.5561
 3356SOL     OW21700   0.381   1.379   7.417 -0.0466 -0.2165 -0.0913
 3356SOL    HW121701   0.402   1.428   7.496 -0.2228  0.1134 -0.2470
 3356SOL    HW221702   0.412   1.296   7.454  0.5495  0.4758  0.9438
 3357SOL     OW21703   4.532   4.364   5.953  0.4558  0.1051 -0.7902
 3357SOL    HW121704   4.621   4.399   5.943  1.1229 -0.6858  2.2949
 3357SOL    HW221705   4.482   4.409   5.885 -0.5695 -1.0658 -0.8036
 3358SOL     OW21706   0.514   1.937   8.909  0.4675  0.1753 -0.3801
 3358SOL    HW121707   0.599   1.898   8.888  0.9589 -0.0110  1.9577
 3358SOL    HW221708   0.533   2.021   8.951  2.2372 -1.0562  1.2975
 3359SOL     OW21709   1.425   0.096   7.058 -0.9366  0.6112  0.0548
 3359SOL    HW121710   1.483   0.130   7.126  2.2672 -0.9479 -1.8774
 3359SOL    HW221711   1.353   0.159   7.062 -1.6336 -0.1690 -0.0613
 3360SOL     OW21712   0.605   1.134   0.748 -0.3400 -0.2396 -0.7753
 3360SOL    HW121713   0.619   1.057   0.803  0.8501  0.4816 -0.0707
 3360SOL    HW221714   0.587   1.202   0.813 -0.7228 -0.6508 -0.4475
 3361SOL     OW21715   3.845   1.313   8.142 -0.0249  0.2074  0.6370
 3361SOL    HW121716   3.931   1.326   8.182 -0.4260 -1.7128  2.1468
 3361SOL    HW221717   3.847   1.389   8.084  0.4146  0.2777  0.7443
 3362SOL     OW21718   2.418   2.055   7.814  0.9138  0.1208  0.4133
 3362SOL    HW121719   2.507   2.021   7.816  0.3530 -1.3683  0.5214
 3362SOL    HW221720   2.431   2.119   7.744 -0.0653  1.8141  1.7793
 3363SOL     OW21721   4.648   0.294   2.350 -0.1397 -0.2597 -0.5284
 3363SOL    HW121722   4.574   0.355   2.360  0.8149  0.7530  0.3933
 3363SOL    HW221723   4.725   0.346   2.373  0.7747 -2.0718  0.4693
 3364SOL     OW21724   0.275   0.866   2.946 -0.1150 -0.5098 -0.1532
 3364SOL    HW121725   0.306   0.789   2.995 -0.7309  0.0141  1.0583
 3364SOL    HW221726   0.345   0.928   2.967 -1.1966  0.5615  0.2749
 3365SOL     OW21727   0.094   4.211   4.935 -0.1140 -0.0677  0.2726
 3365SOL    HW121728   0.098   4.295   4.980 -1.0073 -0.1297  0.4573
 3365SOL    HW221729   0.187   4.189   4.943  0.2944  1.5110 -0.2567
 3366SOL     OW21730   4.494   3.280   5.943 -0.1458  0.0412  0.4060
 3366SOL    HW121731   4.469   3.292   6.035  2.0534  2.4521  0.6590
 3366SOL    HW221732   4.560   3.212   5.960  0.0271 -0.6310 -2.8479
 3367SOL     OW21733   2.517   1.462  10.094  0.0907  0.3116 -0.6492
 3367SOL    HW121734   2.477   1.377  10.076 -0.2102  0.4741 -0.7534
 3367SOL    HW221735   2.435   1.512  10.103  1.4914  2.6312 -0.5989
 3368SOL     OW21736   4.309   0.157   6.974 -0.0414  0.1077 -0.1112
 3368SOL    HW121737   4.341   0.169   6.885 -3.2243  0.2991 -1.2412
 3368SOL    HW221738   4.392   0.158   7.022  0.2229 -2.7529 -0.5420
 3369SOL     OW21739   1.905   1.751  10.430  0.3596 -0.0047  0.9666
 3369SOL    HW121740   1.851   1.821  10.469 -4.3430 -2.4300 -1.1631
 3369SOL    HW221741   1.864   1.675  10.470  0.3525 -0.1130  0.7534
 3370SOL     OW21742   0.712   1.321  13.871  0.5008  1.1991  0.0638
 3370SOL    HW121743   0.648   1.389  13.892  0.7477  1.6341 -0.6072
 3370SOL    HW221744   0.683   1.297  13.783  0.6054 -0.9513  0.6127
 3371SOL     OW21745   4.247   1.496   9.527 -0.6586 -0.0353 -0.0509
 3371SOL    HW121746   4.190   1.571   9.508  0.1416 -0.2533 -3.2811
 3371SOL    HW221747   4.336   1.532   9.528 -0.9151  0.5005  3.5196
 3372SOL     OW21748   3.960   3.277  14.128  0.3003 -0.0816  0.3318
 3372SOL    HW121749   3.904   3.227  14.069 -1.2379 -0.0795  1.8074
 3372SOL    HW221750   3.923   3.365  14.116  0.0313 -0.2881 -0.3623
 3373SOL     OW21751   1.946   2.164   6.086 -0.5650  0.3963  0.4200
 3373SOL    HW121752   2.022   2.105   6.087 -0.8125  0.0853  0.8802
 3373SOL    HW221753   1.873   2.102   6.078 -0.7834  0.9715 -2.1581
 3374SOL     OW21754   3.128   0.363   4.519  0.5201 -0.7107  0.2957
 3374SOL    HW121755   3.178   0.306   4.461  2.2190  0.4034  0.6580
 3374SOL    HW221756   3.191   0.386   4.588  2.0134 -1.7642 -0.7283
 3375SOL     OW21757   3.303   4.657   8.404 -0.4763  0.0017  0.2985
 3375SOL    HW121758   3.208   4.665   8.399 -0.4129  0.0030 -0.9949
 3375SOL    HW221759   3.326   4.637   8.313 -1.7341 -2.0522  0.4291
 3376SOL     OW21760   4.273   0.997   2.776 -0.2368 -0.1521 -0.2281
 3376SOL    HW121761   4.269   0.927   2.841  1.0405 -1.4053 -1.5395
 3376SOL    HW221762   4.202   0.981   2.713  1.7466  0.3499 -2.5684
 3377SOL     OW21763   3.584   4.357   6.846 -0.0295  0.4255 -0.5875
 3377SOL    HW121764   3.502   4.331   6.889  0.2475  0.3708 -0.0936
 3377SOL    HW221765   3.635   4.276   6.850 -0.6015  0.2181  2.2794
 3378SOL     OW21766   2.514   3.240   5.194 -0.2036  0.3820  0.6811
 3378SOL    HW121767   2.427   3.212   5.165 -0.7237  0.8949  1.7435
 3378SOL    HW221768   2.490   3.301   5.263  0.0752  0.2700  0.8755
 3379SOL     OW21769   1.359   1.299   8.134  0.8168 -0.2306  0.0911
 3379SOL    HW121770   1.399   1.254   8.208  0.2182 -0.2995  0.3716
 3379SOL    HW221771   1.265   1.301   8.148  0.9596  3.2355  0.7680
 3380SOL     OW21772   1.224   2.578   3.337  0.2676 -0.0160 -0.3072
 3380SOL    HW121773   1.284   2.618   3.399  0.9142 -1.7827  0.2183
 3380SOL    HW221774   1.178   2.657   3.309 -0.4899 -0.5745 -0.6390
 3381SOL     OW21775   1.930   2.787   3.334  0.2032 -0.3751 -0.2845
 3381SOL    HW121776   1.927   2.780   3.239 -0.6260  1.0420 -0.3655
 3381SOL    HW221777   1.983   2.866   3.346 -0.3072 -0.0396 -0.2199
 3382SOL     OW21778   0.879   2.227  13.594 -0.0017 -0.5192  0.1723
 3382SOL    HW121779   0.812   2.260  13.535 -0.9702  0.7956  2.0028
 3382SOL    HW221780   0.823   2.182  13.657 -1.5103  1.6036  0.3513
 3383SOL     OW21781   0.968   1.354   3.467 -0.5608 -0.1510 -0.1087
 3383SOL    HW121782   0.929   1.441   3.477 -0.1167 -0.0360  0.6165
 3383SOL    HW221783   1.041   1.359   3.406  1.3020  0.4143  2.1951
 3384SOL     OW21784   1.581   0.985   5.944 -0.1448 -0.0311 -0.3969
 3384SOL    HW121785   1.521   1.016   6.012 -1.3943 -1.5375 -0.8073
 3384SOL    HW221786   1.667   0.985   5.987 -0.6322 -1.3146  0.5582
 3385SOL     OW21787   4.699   2.824   7.096  0.2179 -0.5685  0.1038
 3385SOL    HW121788   4.613   2.830   7.137 -0.3381  1.2222 -1.3300
 3385SOL    HW221789   4.716   2.916   7.077  1.3788 -1.0549 -1.2253
 3386SOL     OW21790   1.224   0.383  14.882 -0.0427 -0.4790 -0.6690
 3386SOL    HW121791   1.170   0.453  14.843  0.6687  0.6839  0.4387
 3386SOL    HW221792   1.290   0.373  14.814 -0.0607  1.4960 -1.0028
 3387SOL     OW21793   3.728   2.564   1.116 -0.6642  0.4941  0.3126
 3387SOL    HW121794   3.715   2.582   1.209 -1.0433 -1.0733  0.5686
 3387SOL    HW221795   3.643   2.530   1.088 -0.4082 -0.9348  1.2751
 3388SOL     OW21796   0.126   3.690   7.408  0.5584  0.0807 -0.3921
 3388SOL    HW121797   0.173   3.701   7.491 -0.9663 -2.0746  0.7446
 3388SOL    HW221798   0.068   3.620   7.436 -0.6102  2.3820  2.9234
 3389SOL     OW21799   0.135   0.531   1.915 -0.2799  0.4138 -0.0684
 3389SOL    HW121800   0.210   0.473   1.931 -0.1158  0.9307  1.0757
 3389SOL    HW221801   0.161   0.560   1.827 -2.2330  0.4248 -0.6267
 3390SOL     OW21802   3.648   3.416   7.023 -0.4440  0.9621 -0.1579
 3390SOL    HW121803   3.714   3.348   7.040 -0.4813  1.0550  0.3459
 3390SOL    HW221804   3.600   3.412   7.106  0.2399  1.6071  0.2656
 3391SOL     OW21805   4.630   1.635  11.067  0.4870  0.3824  0.0284
 3391SOL    HW121806   4.627   1.638  10.971 -1.9427  1.3447  0.1568
 3391SOL    HW221807   4.560   1.696  11.089  0.4202  0.8300 -1.4001
 3392SOL     OW21808   0.146   0.013  11.925  0.1137 -0.1180  0.1771
 3392SOL    HW121809   0.238   0.032  11.943 -0.6763  4.3459 -0.4301
 3392SOL    HW221810   0.119   4.685  11.995 -0.0893  1.3358  1.3532
 3393SOL     OW21811   4.029   3.132   8.825 -0.4651  0.1650 -0.1902
 3393SOL    HW121812   4.007   3.161   8.913 -1.2128  0.7699 -0.5844
 3393SOL    HW221813   3.948   3.160   8.783 -1.0172  1.0152  1.4272
 3394SOL     OW21814   1.664   1.560   7.366 -0.6341  0.0706  0.2650
 3394SOL    HW121815   1.738   1.615   7.339 -0.9156 -0.4308 -1.5345
 3394SOL    HW221816   1.706   1.474   7.360 -1.7422 -0.4021 -0.5449
 3395SOL     OW21817   2.136   1.816  16.130 -0.0824 -0.0320  0.5413
 3395SOL    HW121818   2.159   1.751  16.196  0.2217  1.7458  2.1743
 3395SOL    HW221819   2.049   1.777  16.123 -0.2504  0.4828 -0.2853
 3396SOL     OW21820   2.624   4.599   4.469 -0.0052 -0.5171  0.7667
 3396SOL    HW121821   2.684   4.578   4.398 -1.4074  0.4369 -0.7094
 3396SOL    HW221822   2.658   4.685   4.494 -1.8822  0.5674 -0.3732
 3397SOL     OW21823   1.194   1.446  14.465 -0.4283 -0.4207 -0.1018
 3397SOL    HW121824   1.284   1.458  14.498 -0.6294  0.6281  0.0807
 3397SOL    HW221825   1.199   1.509  14.393  0.0142 -0.9651 -0.5450
 3398SOL     OW21826   0.705   3.653   1.975 -0.2225 -0.3282 -0.0249
 3398SOL    HW121827   0.623   3.613   2.003 -0.7809  0.4763 -0.5205
 3398SOL    HW221828   0.761   3.633   2.050  0.3423  1.6935  0.0783
 3399SOL     OW21829   1.630   0.640  12.906 -0.2477  0.0516  0.2034
 3399SOL    HW121830   1.710   0.650  12.958 -0.4065 -1.4104  0.7291
 3399SOL    HW221831   1.619   0.545  12.915 -0.7846  0.1868  1.0586
 3400SOL     OW21832   0.013   0.305  12.959 -0.3473  0.1518 -0.4078
 3400SOL    HW121833   0.090   0.250  12.942  1.8145  3.2161 -0.4298
 3400SOL    HW221834   0.049   0.393  12.969 -1.5361  0.3772  2.0410
 3401SOL     OW21835   0.863   2.945   2.195 -0.1439 -0.2542  0.0388
 3401SOL    HW121836   0.935   2.884   2.210  0.9322  0.8790 -0.5708
 3401SOL    HW221837   0.905   3.031   2.189 -1.3079  0.2359 -1.0261
 3402SOL     OW21838   2.779   3.852  14.144  0.1422  0.0530  0.2280
 3402SOL    HW121839   2.749   3.763  14.125 -1.6861  0.2615  2.1102
 3402SOL    HW221840   2.703   3.907  14.124 -0.4138 -1.4204 -1.7094
 3403SOL     OW21841   3.756   1.370   5.274  0.5823  1.2038 -0.5301
 3403SOL    HW121842   3.694   1.297   5.261 -1.0670  2.6318 -0.6673
 3403SOL    HW221843   3.701   1.434   5.318  0.0538 -0.4623  1.2713
 3404SOL     OW21844   4.685   2.876   8.858 -0.4154  0.1398 -0.0816
 3404SOL    HW121845   4.623   2.807   8.833 -0.3382 -1.1734  3.3964
 3404SOL    HW221846   4.671   2.863   8.952  1.3821  1.5138  0.3901
 3405SOL     OW21847   1.452   2.110   1.797 -0.1104 -0.3242 -0.0541
 3405SOL    HW121848   1.420   2.152   1.718 -0.4407  1.6381  1.1312
 3405SOL    HW221849   1.416   2.165   1.866 -2.0228 -2.4778  0.6323
 3406SOL     OW21850   1.312   0.436  16.123 -0.0407 -0.0531 -0.2284
 3406SOL    HW121851   1.380   0.491  16.161 -1.6093  1.8485 -0.1807
 3406SOL    HW221852   1.235   0.491  16.143  0.8437  0.4928  1.6040
 3407SOL     OW21853   3.024   2.408   6.154  0.1355 -0.1233 -0.6453
 3407SOL    HW121854   3.105   2.458   6.144 -0.6019  1.5875  1.9414
 3407SOL    HW221855   3.060   2.335   6.206 -0.2946  0.1712  0.0688
 3408SOL     OW21856   1.211   1.234   3.733 -0.0678 -0.1537 -0.0378
 3408SOL    HW121857   1.243   1.254   3.821 -2.1653  0.1625  0.6625
 3408SOL    HW221858   1.115   1.239   3.738 -0.1189 -0.3316 -0.8481
 3409SOL     OW21859   1.798   2.613   5.627 -0.2508 -0.1309 -0.3117
 3409SOL    HW121860   1.866   2.583   5.567  0.6041 -1.2799  1.2388
 3409SOL    HW221861   1.775   2.701   5.599 -3.3175 -1.5882 -2.4687
 3410SOL     OW21862   3.411   2.435   8.145 -0.3296  0.4404 -0.1653
 3410SOL    HW121863   3.441   2.521   8.175  0.3073  0.1852 -0.0639
 3410SOL    HW221864   3.489   2.381   8.156  1.1447  2.8443  1.2756
 3411SOL     OW21865   2.713   2.572  15.864 -0.2206 -0.0795 -0.3591
 3411SOL    HW121866   2.679   2.599  15.950  2.6065  0.6226  0.5189
 3411SOL    HW221867   2.719   2.476  15.865  1.9369  0.0633  0.0064
 3412SOL     OW21868   3.858   1.341  15.269 -0.4222  0.2891  0.0364
 3412SOL    HW121869   3.820   1.308  15.188 -0.2620 -1.0953  0.5245
 3412SOL    HW221870   3.942   1.297  15.254  0.4526  1.2988  1.8362
 3413SOL     OW21871   3.169   1.055   5.898 -0.2546  0.0081  0.1273
 3413SOL    HW121872   3.125   1.031   5.815 -0.6102 -2.7474  1.1075
 3413SOL    HW221873   3.093   1.093   5.942  0.1921  3.2270 -1.8734
 3414SOL     OW21874   2.301   1.373   4.453  0.0543 -0.0334  0.3694
 3414SOL    HW121875   2.328   1.340   4.367  3.1585 -1.2401  1.7904
 3414SOL    HW221876   2.290   1.467   4.439  3.3868  0.0339 -1.8097
 3415SOL     OW21877   4.417   2.270   9.356 -0.6668 -0.1027  0.3034
 3415SOL    HW121878   4.476   2.265   9.432  0.5142 -2.3313 -0.7458
 3415SOL    HW221879   4.430   2.186   9.311  0.4943  0.0913  0.2646
 3416SOL     OW21880   1.691   0.084   2.505 -0.2877  0.3503 -0.5054
 3416SOL    HW121881   1.722   0.020   2.569  2.0540  0.2822 -1.7329
 3416SOL    HW221882   1.671   0.024   2.433 -0.0020  0.7048 -0.8752
 3417SOL     OW21883   3.871   1.006   7.956 -0.1884 -0.2116  0.9684
 3417SOL    HW121884   3.797   0.946   7.946 -0.6576  0.3330  1.1642
 3417SOL    HW221885   3.852   1.074   7.891 -1.6229 -1.5634 -0.0398
 3418SOL     OW21886   4.525   1.833   6.787  0.3171 -0.1830 -0.2965
 3418SOL    HW121887   4.477   1.916   6.794 -0.6996 -0.8568  0.6491
 3418SOL    HW221888   4.466   1.764   6.817 -0.4612 -0.2953 -2.0858
 3419SOL     OW21889   3.779   1.143   6.351  0.4942 -0.2927  0.0018
 3419SOL    HW121890   3.743   1.111   6.434 -1.8050  2.3621  0.0193
 3419SOL    HW221891   3.706   1.201   6.329  1.6288  0.1838 -2.4943
 3420SOL     OW21892   0.491   4.605  12.621 -0.2331 -0.1739 -0.6317
 3420SOL    HW121893   0.398   4.601  12.597 -1.0402 -1.3725  2.7016
 3420SOL    HW221894   0.508   4.511  12.619  0.0905 -0.1098 -0.9345
 3421SOL     OW21895   0.421   0.963  13.851  0.3495  0.3631  0.6541
 3421SOL    HW121896   0.456   1.026  13.914  1.4009  1.2774 -0.8547
 3421SOL    HW221897   0.412   0.887  13.909  0.7955  1.5714  2.3090
 3422SOL     OW21898   1.142   0.928   0.901  0.5484  0.1660  0.6936
 3422SOL    HW121899   1.185   1.012   0.885 -0.6047  0.3210 -1.5417
 3422SOL    HW221900   1.075   0.930   0.833  2.4774  0.2942 -1.2008
 3423SOL     OW21901   1.018   4.723   9.991  0.4555 -0.4102 -0.4738
 3423SOL    HW121902   1.023   4.629   9.975  4.2818 -0.3220  0.2031
 3423SOL    HW221903   1.034   0.016   9.901  2.3750 -1.8599 -0.5211
 3424SOL     OW21904   2.035   3.788   9.020 -0.1600 -0.7027 -0.7076
 3424SOL    HW121905   2.094   3.799   8.946 -0.8447 -1.5315 -1.3814
 3424SOL    HW221906   2.093   3.786   9.096 -0.2659 -2.4830 -0.6639
 3425SOL     OW21907   0.377   3.045   7.844 -0.1556 -0.3716  0.5200
 3425SOL    HW121908   0.388   3.006   7.931 -0.8314  1.7238  1.5368
 3425SOL    HW221909   0.348   3.130   7.876  1.5917  1.6233 -3.0985
 3426SOL     OW21910   3.766   4.163   6.767  0.7032 -0.2341 -0.0481
 3426SOL    HW121911   3.777   4.090   6.707 -0.3214  0.8163 -1.5234
 3426SOL    HW221912   3.815   4.141   6.846  0.8152  0.3017  0.0359
 3427SOL     OW21913   3.152   0.689   7.830  0.2389 -0.1594 -0.1858
 3427SOL    HW121914   3.180   0.777   7.808 -0.9690 -0.4771 -3.0488
 3427SOL    HW221915   3.059   0.706   7.848  0.8383  1.0896  1.5883
 3428SOL     OW21916   4.401   0.021   3.813 -0.0634  0.2967  0.1368
 3428SOL    HW121917   4.387   4.662   3.782  2.6437 -0.2001  0.3507
 3428SOL    HW221918   4.486   0.044   3.776 -0.3932 -0.5427 -1.1498
 3429SOL     OW21919   0.937   3.684   9.934  0.2639 -0.2310 -0.1206
 3429SOL    HW121920   1.002   3.642   9.991 -0.3803 -0.5888  0.3558
 3429SOL    HW221921   0.963   3.665   9.844  1.8561  0.7325  0.1319
 3430SOL     OW21922   1.781   1.011   7.802  0.1805  0.1907  0.2096
 3430SOL    HW121923   1.714   1.031   7.736 -1.8084 -0.4109  2.0217
 3430SOL    HW221924   1.814   1.099   7.824  0.9185  0.4631 -1.9824
 3431SOL     OW21925   2.411   2.955   4.205  0.1446  0.2686  0.5234
 3431SOL    HW121926   2.431   2.868   4.241 -0.7461 -0.9210 -1.8391
 3431SOL    HW221927   2.434   3.009   4.281  0.4776 -0.8428  1.2176
 3432SOL     OW21928   0.181   4.557   9.790  0.0292 -0.0440 -0.6913
 3432SOL    HW121929   0.252   4.608   9.828 -2.0844  2.1150  0.3345
 3432SOL    HW221930   0.126   4.634   9.775 -1.7674 -1.3342 -0.7281
 3433SOL     OW21931   0.133   2.339   3.416 -0.0588 -0.1014 -0.1404
 3433SOL    HW121932   0.198   2.323   3.347 -0.3841  0.3154 -0.5448
 3433SOL    HW221933   0.114   2.433   3.416 -0.2404 -0.1372 -0.3008
 3434SOL     OW21934   3.517   1.833   8.592  0.4499  0.0952 -0.0869
 3434SOL    HW121935   3.517   1.756   8.649 -1.0479 -1.8890 -2.7746
 3434SOL    HW221936   3.452   1.886   8.638 -0.6939 -0.6194 -0.9012
 3435SOL     OW21937   3.914   3.797   6.655 -0.0473 -0.6201 -0.1052
 3435SOL    HW121938   3.998   3.813   6.613 -1.1690 -1.6384 -2.7867
 3435SOL    HW221939   3.863   3.872   6.624  0.2751  0.0313  0.9739
 3436SOL     OW21940   3.665   3.456  12.256 -0.1068 -0.0789  0.8294
 3436SOL    HW121941   3.700   3.426  12.172 -2.1213 -0.7563  0.2175
 3436SOL    HW221942   3.673   3.374  12.305 -0.6861  0.0886  1.2043
 3437SOL     OW21943   1.107   1.350   2.978 -0.0830  0.4344 -0.2959
 3437SOL    HW121944   1.129   1.365   2.887 -1.2987  0.7140 -0.5458
 3437SOL    HW221945   1.059   1.432   2.988  0.1308  0.2927  1.9041
 3438SOL     OW21946   3.399   0.905   5.021  0.0401  0.5407 -0.5150
 3438SOL    HW121947   3.329   0.958   4.984 -2.2987 -2.7644 -0.8636
 3438SOL    HW221948   3.467   0.894   4.954 -1.3195 -0.4911 -1.7574
 3439SOL     OW21949   1.799   0.146  15.289  0.1623  0.3095 -0.1906
 3439SOL    HW121950   1.842   0.066  15.319 -1.7343 -1.0298 -0.9973
 3439SOL    HW221951   1.737   0.156  15.361 -2.2813 -0.8850 -2.1017
 3440SOL     OW21952   3.075   3.658   5.901 -0.0792  0.8792 -0.9421
 3440SOL    HW121953   3.035   3.574   5.879 -0.6840  0.8041  0.4864
 3440SOL    HW221954   3.121   3.632   5.980  0.6981  1.5867 -1.1588
 3441SOL     OW21955   3.773   0.265   8.567  0.1383  0.0061  0.5925
 3441SOL    HW121956   3.840   0.237   8.505  0.9153  0.1137  1.3961
 3441SOL    HW221957   3.736   0.181   8.594 -2.0962  0.9591  0.5225
 3442SOL     OW21958   3.794   1.719   4.009  0.4384 -0.1719 -0.5396
 3442SOL    HW121959   3.821   1.743   4.098  2.1893  1.4729 -1.5252
 3442SOL    HW221960   3.844   1.645   3.975  2.9096 -0.7789  4.4124
 3443SOL     OW21961   2.344   2.381  11.989 -0.5847  0.4792  0.2871
 3443SOL    HW121962   2.415   2.317  11.996 -0.3440  1.0552  2.9573
 3443SOL    HW221963   2.310   2.356  12.075 -0.7799  1.9251  0.6395
 3444SOL     OW21964   0.106   1.334  17.376 -0.1097 -0.3134 -0.8954
 3444SOL    HW121965   0.165   1.349  17.302  1.7126 -0.9043  0.4468
 3444SOL    HW221966   0.033   1.392  17.356  0.6091  0.4630 -1.2921
 3445SOL     OW21967   0.724   1.534   2.859 -0.0265 -0.3167  0.0143
 3445SOL    HW121968   0.689   1.455   2.899  2.2577 -0.6700  1.3400
 3445SOL    HW221969   0.662   1.600   2.892  0.9936  1.3259 -1.3439
 3446SOL     OW21970   1.609   0.167   4.809  0.4532  0.4585 -0.2151
 3446SOL    HW121971   1.553   0.166   4.886  0.5780  1.3051 -0.1081
 3446SOL    HW221972   1.661   0.088   4.823 -0.8486 -0.2312  0.7146
 3447SOL     OW21973   1.254   2.920   8.092 -0.7931 -0.5109 -0.4041
 3447SOL    HW121974   1.164   2.906   8.120 -1.1337  0.0120 -1.2119
 3447SOL    HW221975   1.229   2.960   8.008  0.1556  0.1677 -0.3599
 3448SOL     OW21976   4.567   3.269   8.858 -0.3479 -0.2231  0.4529
 3448SOL    HW121977   4.570   3.283   8.953 -0.8752 -0.9195  0.5681
 3448SOL    HW221978   4.498   3.204   8.852  0.8367 -1.5006  0.7312
 3449SOL     OW21979   3.977   0.570  17.679 -0.1197  0.6458  0.2693
 3449SOL    HW121980   3.883   0.553  17.678 -0.1450  0.9282 -1.4824
 3449SOL    HW221981   3.975   0.659  17.645 -1.5501  0.9072  1.0225
 3450SOL     OW21982   3.262   1.118  11.295  0.1669  0.2648  0.2290
 3450SOL    HW121983   3.247   1.185  11.229 -0.2535 -0.2517 -0.1941
 3450SOL    HW221984   3.351   1.088  11.276 -0.0376  0.0078 -0.3341
 3451SOL     OW21985   2.811   2.937   6.545 -1.1831  0.3553  0.0693
 3451SOL    HW121986   2.900   2.913   6.518 -1.7391  0.6287 -1.9817
 3451SOL    HW221987   2.825   3.017   6.595  1.6533  0.9869 -1.7410
 3452SOL     OW21988   3.508   3.531   3.099 -0.4204 -0.0711  0.0658
 3452SOL    HW121989   3.601   3.538   3.076 -0.3834 -1.3428 -0.1841
 3452SOL    HW221990   3.511   3.457   3.159 -0.8802  0.0496  0.2347
 3453SOL     OW21991   0.121   1.780  13.425  0.1369  0.0571 -0.1823
 3453SOL    HW121992   0.113   1.694  13.467  0.6296  1.0214  1.8593
 3453SOL    HW221993   0.141   1.837  13.499 -0.6812 -0.6333  0.5650
 3454SOL     OW21994   1.189   4.471   8.206  0.1004 -0.2710  0.4373
 3454SOL    HW121995   1.200   4.377   8.221 -1.4710 -0.3249  1.2966
 3454SOL    HW221996   1.252   4.487   8.136  0.4588  1.7583  1.2380
 3455SOL     OW21997   3.923   0.809  14.146  0.1297  0.0315  0.5882
 3455SOL    HW121998   3.985   0.817  14.219  0.6046 -2.0837  0.4212
 3455SOL    HW221999   3.907   0.716  14.162  1.6138 -0.4482 -0.6205
 3456SOL     OW22000   3.227   2.682   7.800  0.1123  0.4399 -0.6396
 3456SOL    HW122001   3.232   2.611   7.864 -2.3587  0.0581 -0.8837
 3456SOL    HW222002   3.309   2.683   7.750  1.2146  0.6666  1.1994
 3457SOL     OW22003   0.392   4.025   8.922  0.3408  0.2578 -0.5813
 3457SOL    HW122004   0.447   4.028   9.000  0.9099 -0.5024 -0.9462
 3457SOL    HW222005   0.305   4.039   8.957  0.5220  0.1297 -0.0875
 3458SOL     OW22006   3.722   1.795   1.296 -0.1038 -0.3724  0.6602
 3458SOL    HW122007   3.635   1.832   1.310 -0.8331 -1.4160 -1.0340
 3458SOL    HW222008   3.699   1.726   1.233  0.8007  0.1110 -0.2113
 3459SOL     OW22009   0.408   2.768  12.678 -0.2280  0.0353  0.4460
 3459SOL    HW122010   0.475   2.713  12.719 -0.9939 -1.2377 -0.0266
 3459SOL    HW222011   0.450   2.853  12.662 -1.9774  0.8460  0.1270
 3460SOL     OW22012   1.929   1.256   3.238  0.9123 -0.5889 -0.2468
 3460SOL    HW122013   1.949   1.277   3.329 -1.2983 -0.2143  0.1550
 3460SOL    HW222014   1.868   1.320   3.200 -0.0873 -1.4783 -0.1218
 3461SOL     OW22015   4.189   4.346   6.637  0.0569  0.7061  0.2457
 3461SOL    HW122016   4.217   4.367   6.549 -1.9116  0.6906 -0.3840
 3461SOL    HW222017   4.096   4.361   6.622  0.5402  1.1322 -2.1785
 3462SOL     OW22018   3.527   2.919  15.555  0.2280  0.1643  0.4740
 3462SOL    HW122019   3.610   2.966  15.565 -0.3520  0.9787  1.4305
 3462SOL    HW222020   3.564   2.835  15.582  0.8805 -0.4790 -2.4448
 3463SOL     OW22021   0.156   4.261  16.296 -0.2041 -0.2002 -0.4339
 3463SOL    HW122022   0.201   4.184  16.262  0.4631 -0.5291  1.2142
 3463SOL    HW222023   0.065   4.232  16.292 -0.9548  1.7690  1.9111
 3464SOL     OW22024   4.050   2.358   4.622 -0.3588  0.0668 -0.1065
 3464SOL    HW122025   4.032   2.366   4.716 -2.2398 -1.8932 -0.3084
 3464SOL    HW222026   3.979   2.401   4.574  0.6567  3.4629  1.4598
 3465SOL     OW22027   4.417   4.610  15.466  0.3949  0.0346 -0.6444
 3465SOL    HW122028   4.373   4.694  15.475  0.0499 -0.4752  2.4626
 3465SOL    HW222029   4.339   4.560  15.489  1.8576 -0.4900  3.1497
 3466SOL     OW22030   1.326   0.881   3.197  0.1900  0.0358 -0.1942
 3466SOL    HW122031   1.331   0.923   3.111 -0.3059  0.1815 -0.1506
 3466SOL    HW222032   1.372   0.945   3.251  1.7287  0.7534 -2.3359
 3467SOL     OW22033   3.893   4.043   7.006  0.1560 -0.1659  0.8900
 3467SOL    HW122034   3.978   4.001   6.995 -0.2956 -0.7854 -0.3931
 3467SOL    HW222035   3.837   3.974   7.042  0.2420 -1.1980 -0.9332
 3468SOL     OW22036   3.400   0.838   9.956 -0.3152  0.2488 -0.1762
 3468SOL    HW122037   3.432   0.836   9.865 -0.8095  1.5366 -0.3770
 3468SOL    HW222038   3.307   0.817   9.955 -0.0041 -1.0554 -1.7049
 3469SOL     OW22039   2.797   1.678   8.095 -0.1549  0.0954  0.0349
 3469SOL    HW122040   2.884   1.713   8.115 -0.0765  1.5887 -3.0290
 3469SOL    HW222041   2.739   1.745   8.133 -0.0290 -1.2863  2.6880
 3470SOL     OW22042   2.538   4.133  13.654 -0.1182  0.0102  0.4437
 3470SOL    HW122043   2.528   4.128  13.559  1.4569  0.2806  0.2690
 3470SOL    HW222044   2.472   4.073  13.689  1.0630 -0.6860  1.4983
 3471SOL     OW22045   1.172   0.637   9.750  0.3690 -0.1801  0.4654
 3471SOL    HW122046   1.242   0.572   9.748  0.1155 -0.4620  0.8408
 3471SOL    HW222047   1.095   0.580   9.750 -0.9185  1.5351  0.7583
 3472SOL     OW22048   2.076   1.996   7.588 -0.0534 -0.2280 -0.5461
 3472SOL    HW122049   2.006   1.986   7.524 -0.3931 -0.8416 -0.0799
 3472SOL    HW222050   2.035   2.059   7.647 -0.8808  0.0639 -1.4428
 3473SOL     OW22051   0.005   2.898   6.240 -0.2755 -0.3171  0.2521
 3473SOL    HW122052   4.727   2.866   6.150  0.9532 -2.4930  0.9079
 3473SOL    HW222053   4.704   2.818   6.282  0.6958 -0.9011 -0.1001
 3474SOL     OW22054   0.357   2.104   4.010 -0.0027 -0.1954  0.0429
 3474SOL    HW122055   0.340   2.193   3.978  2.2522 -0.1638 -1.0967
 3474SOL    HW222056   0.327   2.112   4.101 -1.0246 -2.1782 -0.1327
 3475SOL     OW22057   1.773   1.564   2.629 -0.1319 -0.0455 -0.1343
 3475SOL    HW122058   1.707   1.615   2.677 -0.2354 -1.0294  0.7864
 3475SOL    HW222059   1.723   1.555   2.548  1.0063 -1.2307 -0.7044
 3476SOL     OW22060   0.731   2.703   2.135 -0.1709 -0.8699  0.4544
 3476SOL    HW122061   0.815   2.687   2.092 -0.5763 -1.9087  0.0388
 3476SOL    HW222062   0.749   2.777   2.192  1.7783 -1.2162  0.2828
 3477SOL     OW22063   1.234   3.626   4.207 -0.0430  0.0176 -0.6084
 3477SOL    HW122064   1.300   3.585   4.263 -1.4068 -1.0660  0.2075
 3477SOL    HW222065   1.270   3.600   4.123 -0.8353 -2.4844 -0.1765
 3478SOL     OW22066   2.168   0.653   5.866  0.6213 -0.4708  0.5143
 3478SOL    HW122067   2.201   0.702   5.791 -1.1624  0.3184  0.2475
 3478SOL    HW222068   2.247   0.625   5.912 -0.8554 -4.1796  0.8066
 3479SOL     OW22069   1.070   0.831   8.021 -0.4632 -0.8424 -1.0274
 3479SOL    HW122070   1.145   0.878   8.058 -0.7563  0.3486 -1.9381
 3479SOL    HW222071   1.110   0.749   7.990 -0.1170 -0.4927 -1.5185
 3480SOL     OW22072   3.581   1.229   3.735  0.2197 -0.8674 -0.1833
 3480SOL    HW122073   3.670   1.198   3.721  0.6218 -0.4660  1.4822
 3480SOL    HW222074   3.552   1.196   3.650 -2.2651 -0.1247  0.3773
 3481SOL     OW22075   1.371   1.905   1.533  0.0788 -0.1362  0.1090
 3481SOL    HW122076   1.440   1.892   1.598 -0.8024 -1.0664  0.8507
 3481SOL    HW222077   1.339   1.995   1.541  1.4827  0.5835 -2.1344
 3482SOL     OW22078   4.260   1.240   6.997 -0.4820 -0.5545  0.2727
 3482SOL    HW122079   4.195   1.181   7.037 -0.2128  0.5449  2.3209
 3482SOL    HW222080   4.199   1.290   6.943 -1.4335 -1.3971  0.5513
 3483SOL     OW22081   1.925   3.254   3.871  0.1150  0.1945 -0.5413
 3483SOL    HW122082   1.888   3.298   3.794 -1.2039 -0.5736 -0.3528
 3483SOL    HW222083   1.843   3.223   3.910 -0.4791  2.8995  0.3255
 3484SOL     OW22084   3.125   3.442   2.657  0.3055  0.0779 -0.1836
 3484SOL    HW122085   3.089   3.471   2.741  1.3797  1.3787 -0.1734
 3484SOL    HW222086   3.180   3.366   2.678 -0.7936 -1.0358 -1.3449
 3485SOL     OW22087   1.036   2.274   4.667 -0.3198 -0.0205 -0.6094
 3485SOL    HW122088   1.058   2.278   4.574  0.2077  1.5582 -0.4060
 3485SOL    HW222089   0.942   2.257   4.665 -0.5895  1.3640  0.4196
 3486SOL     OW22090   0.643   4.538  17.359 -0.4442  0.0663  0.0941
 3486SOL    HW122091   0.655   4.513  17.450 -1.3947 -0.9569 -0.0741
 3486SOL    HW222092   0.730   4.579  17.356 -0.3613 -0.2453 -1.9632
 3487SOL     OW22093   3.491   0.828   9.120 -0.3410 -0.2528 -0.4150
 3487SOL    HW122094   3.568   0.881   9.097  0.0020 -0.6030 -0.0769
 3487SOL    HW222095   3.441   0.881   9.181 -0.1855  0.1522 -0.6397
 3488SOL     OW22096   4.082   1.052  16.266 -0.1219  0.2589  0.1236
 3488SOL    HW122097   4.145   1.032  16.197 -0.0776  2.7456 -0.5519
 3488SOL    HW222098   4.045   0.964  16.273 -1.7245  0.7503 -2.2095
 3489SOL     OW22099   0.002   1.550   8.206 -0.1700 -0.3350  0.2879
 3489SOL    HW122100   4.639   1.549   8.192  0.0804 -2.6416 -1.2627
 3489SOL    HW222101   0.041   1.489   8.143  1.8655  0.4410  0.7937
 3490SOL     OW22102   3.025   0.173  14.267  0.0004 -0.2098  0.2791
 3490SOL    HW122103   2.946   0.217  14.234  1.0121  1.8213  0.5835
 3490SOL    HW222104   2.982   0.149  14.349  1.0193 -1.6789  0.3759
 3491SOL     OW22105   0.360   4.392  10.505  0.0520 -1.1338  0.5261
 3491SOL    HW122106   0.453   4.374  10.491  0.0242 -0.1243 -0.9269
 3491SOL    HW222107   0.319   4.352  10.428 -1.2886  1.9343 -0.3542
 3492SOL     OW22108   4.730   2.425   4.188 -0.3221  0.2240  0.4172
 3492SOL    HW122109   0.012   2.465   4.274  1.5292  0.4679  0.0162
 3492SOL    HW222110   4.642   2.393   4.210  0.8637 -0.2258  4.4593
 3493SOL     OW22111   3.232   1.668  14.488 -0.3624 -0.5143  0.7539
 3493SOL    HW122112   3.319   1.700  14.512 -0.2090 -1.0934  0.9665
 3493SOL    HW222113   3.205   1.603  14.552  1.1242 -2.5718 -0.7140
 3494SOL     OW22114   0.817   1.006   3.607 -0.3304 -0.0613 -0.1008
 3494SOL    HW122115   0.788   1.088   3.567 -2.3901 -1.3802 -1.3235
 3494SOL    HW222116   0.785   0.953   3.534  2.0109 -2.1563  0.3730
 3495SOL     OW22117   0.661   0.607   6.960 -0.7150 -0.0071  0.1053
 3495SOL    HW122118   0.744   0.574   6.929 -0.2315 -0.5435  1.9384
 3495SOL    HW222119   0.601   0.593   6.887 -0.0365  1.8126 -0.8218
 3496SOL     OW22120   0.384   3.308   1.456  0.1340 -0.5877  0.2195
 3496SOL    HW122121   0.434   3.227   1.449  0.3246 -0.2449 -2.2473
 3496SOL    HW222122   0.299   3.282   1.492  0.8987  0.2557  2.6061
 3497SOL     OW22123   2.748   0.059   6.388  0.0058  0.3664 -0.5716
 3497SOL    HW122124   2.739   0.014   6.304 -0.8546 -0.5492  0.0024
 3497SOL    HW222125   2.783   0.143   6.361 -0.5929  0.3335 -1.4672
 3498SOL     OW22126   0.124   1.771   3.536 -0.0609  0.3200  0.3945
 3498SOL    HW122127   0.050   1.830   3.554 -0.6726 -0.4979  0.5352
 3498SOL    HW222128   0.081   1.689   3.559 -0.8120  0.2000 -1.3793
 3499SOL     OW22129   1.335   2.188   3.784 -0.2439  0.0784  0.0722
 3499SOL    HW122130   1.255   2.151   3.747  0.4287 -1.4528  0.1126
 3499SOL    HW222131   1.394   2.115   3.761  2.2810  1.8752  0.8805
 3500SOL     OW22132   3.972   1.408   4.891 -0.5640  0.6020  0.6189
 3500SOL    HW122133   3.909   1.461   4.941 -2.4564  0.3707 -1.5284
 3500SOL    HW222134   3.992   1.338   4.954  2.1394 -0.0890 -1.0500
 3501SOL     OW22135   0.039   2.010   7.602 -0.2870  0.4120 -0.5851
 3501SOL    HW122136   0.035   2.079   7.536 -2.1304  0.3880 -0.4895
 3501SOL    HW222137   0.081   2.049   7.679 -3.8961 -0.6950  1.9550
 3502SOL     OW22138   0.962   0.374   7.501 -0.5922 -0.1515  0.3335
 3502SOL    HW122139   0.898   0.313   7.465  0.9460 -0.8756 -1.1900
 3502SOL    HW222140   1.006   0.324   7.570  1.3534  1.1994  0.0617
 3503SOL     OW22141   2.636   3.480   6.814  0.0742 -0.2692 -0.3061
 3503SOL    HW122142   2.731   3.485   6.804 -0.0159 -0.3280 -1.1691
 3503SOL    HW222143   2.617   3.395   6.775 -0.3565 -1.3582  2.2968
 3504SOL     OW22144   1.726   3.156   6.730 -0.6455 -0.3272 -0.1196
 3504SOL    HW122145   1.734   3.230   6.670 -1.8084 -0.3881 -0.3528
 3504SOL    HW222146   1.765   3.086   6.678 -0.1890 -0.5286  0.4999
 3505SOL     OW22147   1.111   3.898   0.961 -0.5320  0.5059 -0.0551
 3505SOL    HW122148   1.159   3.968   1.005  0.1864 -0.0581  0.0654
 3505SOL    HW222149   1.038   3.900   1.023 -2.2017  4.3856 -2.1652
 3506SOL     OW22150   1.933   4.200   8.234  0.2887  0.0747 -0.0849
 3506SOL    HW122151   1.881   4.280   8.236 -1.5199 -1.0582 -2.2244
 3506SOL    HW222152   2.022   4.233   8.249 -0.5491  1.6878  1.3827
 3507SOL     OW22153   1.840   4.674   6.566  0.0383 -0.2351 -0.3384
 3507SOL    HW122154   1.793   4.626   6.498  0.2885  0.0013 -0.6793
 3507SOL    HW222155   1.916   4.695   6.512 -0.6948  1.6120 -0.6236
 3508SOL     OW22156   0.642   3.434   5.843 -0.6030 -0.1540  0.2615
 3508SOL    HW122157   0.692   3.420   5.763  0.8191  0.7546  0.9899
 3508SOL    HW222158   0.709   3.471   5.901 -0.9752 -0.1318  0.6834
 3509SOL     OW22159   0.455   1.811  16.605 -0.0263  0.1241  0.2984
 3509SOL    HW122160   0.447   1.740  16.541  0.4255  0.2054  0.1544
 3509SOL    HW222161   0.440   1.885  16.547  1.2743  0.7978  0.8155
 3510SOL     OW22162   4.685   1.136  11.869 -0.2259 -0.5271  0.0779
 3510SOL    HW122163   0.012   1.185  11.812 -2.3385  0.7533 -0.9648
 3510SOL    HW222164   4.711   1.168  11.956 -1.2132  0.9568 -0.1857
 3511SOL     OW22165   1.036   4.021   2.146  0.1780 -0.2310  0.5410
 3511SOL    HW122166   0.979   4.020   2.223  0.1842  1.1208  0.5617
 3511SOL    HW222167   1.122   4.028   2.188  0.4866 -1.1213  0.0567
 3512SOL     OW22168   1.038   0.304   4.119 -0.0401  0.2877 -0.2706
 3512SOL    HW122169   0.963   0.306   4.179 -0.8703 -0.0958 -1.3017
 3512SOL    HW222170   1.110   0.352   4.159 -1.3620  2.4745 -0.5336
 3513SOL     OW22171   0.336   0.618  10.755 -0.0408 -0.6200 -0.2464
 3513SOL    HW122172   0.349   0.691  10.694 -2.2883 -0.5337 -0.6356
 3513SOL    HW222173   0.246   0.592  10.735  0.1175 -0.5627 -1.0517
 3514SOL     OW22174   2.301   1.987   4.954  0.1320 -0.1205 -0.7938
 3514SOL    HW122175   2.334   2.001   4.865 -1.6487 -0.6960 -1.5479
 3514SOL    HW222176   2.257   2.069   4.974 -0.5223 -0.9239  1.0150
 3515SOL     OW22177   2.431   1.278   3.986 -0.3947 -0.6166  0.1305
 3515SOL    HW122178   2.487   1.309   4.058 -0.9794 -3.7599  1.9579
 3515SOL    HW222179   2.366   1.224   4.030  0.6152 -0.6280  1.6163
 3516SOL     OW22180   3.367   1.330  17.036  0.3694 -0.3974  0.3428
 3516SOL    HW122181   3.405   1.392  16.973 -1.0273  0.4542  0.3230
 3516SOL    HW222182   3.282   1.374  17.044 -0.7393 -3.0583  2.9668
 3517SOL     OW22183   1.176   1.330   5.471  0.2152  0.2154  0.2438
 3517SOL    HW122184   1.255   1.311   5.522  0.1962 -0.1495  0.1350
 3517SOL    HW222185   1.161   1.246   5.429  1.1576  0.4364 -0.5359
 3518SOL     OW22186   1.279   1.844   6.138 -0.4741 -0.5464 -0.0383
 3518SOL    HW122187   1.227   1.850   6.058 -1.3971 -0.0318  0.6001
 3518SOL    HW222188   1.227   1.777   6.183  0.1835 -0.4492  0.8905
 3519SOL     OW22189   3.279   4.254  14.845  0.2179  0.5669  0.3699
 3519SOL    HW122190   3.210   4.197  14.811  0.1535 -0.7558  2.6797
 3519SOL    HW222191   3.303   4.292  14.761 -1.8008  0.0711 -0.4191
 3520SOL     OW22192   0.965   1.274  13.933 -0.3126  0.2732 -0.5042
 3520SOL    HW122193   0.874   1.302  13.942 -0.8118 -2.1214  1.8516
 3520SOL    HW222194   0.960   1.218  13.856  2.3761 -0.5791 -0.0487
 3521SOL     OW22195   2.985   4.341   5.112 -0.0889  0.2629  0.1603
 3521SOL    HW122196   3.049   4.412   5.125 -1.1931  1.2149  0.3807
 3521SOL    HW222197   3.016   4.274   5.173  2.4679  0.2572 -1.1350
 3522SOL     OW22198   1.384   2.857  11.790  0.2777 -0.5311 -0.4378
 3522SOL    HW122199   1.461   2.882  11.841 -1.2569  3.1868  0.0493
 3522SOL    HW222200   1.386   2.761  11.792  0.3286 -0.4976  1.0889
 3523SOL     OW22201   2.717   0.677  17.424 -0.1283  0.9623  0.3935
 3523SOL    HW122202   2.639   0.711  17.381  0.3169 -0.3499 -1.4812
 3523SOL    HW222203   2.729   0.736  17.499 -2.3511 -1.3834  2.6066
 3524SOL     OW22204   3.586   4.274   7.918 -0.5490  0.0711 -0.4065
 3524SOL    HW122205   3.623   4.361   7.927 -1.2140  0.5077 -1.8310
 3524SOL    HW222206   3.627   4.234   7.995 -1.5288 -1.8694 -0.8736
 3525SOL     OW22207   1.875   2.135   1.235  0.2657 -0.1390  0.2900
 3525SOL    HW122208   1.803   2.091   1.189  1.7389  0.1101 -2.2170
 3525SOL    HW222209   1.905   2.077   1.304  1.2534  0.0839  0.0406
 3526SOL     OW22210   2.944   2.517   3.278  0.0857 -0.2466  0.0133
 3526SOL    HW122211   2.986   2.433   3.298 -0.2662 -0.0660  1.4935
 3526SOL    HW222212   2.951   2.506   3.183  2.0899  2.2913 -0.1372
 3527SOL     OW22213   1.366   2.488   7.950 -0.6578  0.0592  0.2953
 3527SOL    HW122214   1.304   2.558   7.932 -0.8460 -0.6265 -1.6850
 3527SOL    HW222215   1.307   2.413   7.942  0.1044 -0.7183  1.7446
 3528SOL     OW22216   1.245   3.426   2.879  0.1947 -0.2215  0.4903
 3528SOL    HW122217   1.188   3.502   2.892  1.4921  0.6687  0.9634
 3528SOL    HW222218   1.246   3.388   2.967 -1.2343  1.0542  1.0678
 3529SOL     OW22219   1.417   4.151   6.246 -0.4253 -0.4393 -0.0979
 3529SOL    HW122220   1.428   4.071   6.193 -2.4234 -1.0456  0.3734
 3529SOL    HW222221   1.473   4.211   6.197 -0.6750  1.1406  1.5748
 3530SOL     OW22222   3.776   2.158  13.617  0.2224 -0.1956 -0.2056
 3530SOL    HW122223   3.814   2.242  13.589  0.1407 -0.4815 -1.1641
 3530SOL    HW222224   3.798   2.156  13.710 -1.4169  0.3863  0.1903
 3531SOL     OW22225   3.148   4.231  12.156  0.4814 -0.8514 -0.4427
 3531SOL    HW122226   3.202   4.227  12.077  0.5690  0.1226 -0.4328
 3531SOL    HW222227   3.131   4.325  12.159 -2.0363 -1.2908 -0.3466
 3532SOL     OW22228   2.744   0.347  16.125 -0.4543  0.1562  0.2953
 3532SOL    HW122229   2.713   0.334  16.035  1.1550  1.0350 -0.3714
 3532SOL    HW222230   2.683   0.413  16.159 -0.9131  0.0675 -0.3440
 3533SOL     OW22231   4.191   4.543   8.510  0.0743 -0.2832  0.0873
 3533SOL    HW122232   4.197   4.452   8.483  0.2695 -0.1194 -0.4169
 3533SOL    HW222233   4.204   4.591   8.428 -0.4747  1.5517  1.0604
 3534SOL     OW22234   2.093   4.049   2.232  0.2659  0.0264 -0.4880
 3534SOL    HW122235   2.064   3.963   2.263  0.7081  0.8201  2.0567
 3534SOL    HW222236   2.132   4.084   2.311 -0.4501  0.8527 -0.4963
 3535SOL     OW22237   2.666   3.481   7.968  0.5981 -0.7817 -0.4124
 3535SOL    HW122238   2.745   3.476   8.022 -0.8447 -1.8403  1.5812
 3535SOL    HW222239   2.603   3.436   8.024  2.6580 -2.4201  0.6180
 3536SOL     OW22240   4.307   4.652   7.878 -0.0747 -0.4516 -0.0497
 3536SOL    HW122241   4.214   4.641   7.901 -0.6552 -1.8473 -3.0286
 3536SOL    HW222242   4.323   4.569   7.834  1.9519  0.5130 -1.1167
 3537SOL     OW22243   4.363   2.602  15.193  0.4119 -0.2564 -0.0157
 3537SOL    HW122244   4.322   2.609  15.280 -1.3204  0.4036 -0.8693
 3537SOL    HW222245   4.288   2.566  15.146 -0.2488  1.1769 -0.0880
 3538SOL     OW22246   2.851   4.525   1.111  0.0826 -0.0829 -0.0439
 3538SOL    HW122247   2.816   4.438   1.130 -0.6147 -0.2447 -2.1122
 3538SOL    HW222248   2.826   4.565   1.194  0.0059 -1.0528  0.4029
 3539SOL     OW22249   1.863   0.302   6.498  0.2234  0.1741 -0.4171
 3539SOL    HW122250   1.856   0.249   6.419 -0.6155  1.2996 -1.0977
 3539SOL    HW222251   1.955   0.297   6.524  0.3673  2.1740 -0.4951
 3540SOL     OW22252   0.583   2.565   3.266 -0.1178 -0.5562  0.2644
 3540SOL    HW122253   0.511   2.628   3.260 -1.3895 -1.9845  0.6012
 3540SOL    HW222254   0.591   2.572   3.361 -0.6509 -0.3760  0.2946
 3541SOL     OW22255   0.972   1.009  12.381 -0.3621 -0.1536  0.6865
 3541SOL    HW122256   1.022   0.944  12.430 -0.4645 -0.4989  0.3365
 3541SOL    HW222257   1.038   1.079  12.387 -0.4123  0.1137 -1.6764
 3542SOL     OW22258   0.852   2.059   8.975  0.3846  0.0242 -0.0292
 3542SOL    HW122259   0.778   2.101   8.933  1.3205  1.0097 -0.6931
 3542SOL    HW222260   0.904   2.013   8.910  1.3606 -1.2461  1.6258
 3543SOL     OW22261   2.352   3.263   3.085  0.5286  0.2672  0.2819
 3543SOL    HW122262   2.327   3.255   3.177 -0.5096 -0.2923 -0.0468
 3543SOL    HW222263   2.391   3.350   3.083 -0.1981  0.6132  1.2395
 3544SOL     OW22264   2.330   4.543  10.389 -0.0980  0.0247 -0.3721
 3544SOL    HW122265   2.409   4.537  10.443 -0.0263  0.2219 -0.4570
 3544SOL    HW222266   2.349   4.489  10.312 -2.5100 -1.7898  0.2836
 3545SOL     OW22267   0.439   2.227  13.603  0.4918  0.5961  0.5026
 3545SOL    HW122268   0.350   2.261  13.590  0.5680  0.3946 -0.5193
 3545SOL    HW222269   0.423   2.133  13.593 -0.3534  0.6733  1.1114
 3546SOL     OW22270   3.529   3.844  14.465  0.2208 -0.1346 -0.2242
 3546SOL    HW122271   3.495   3.853  14.554 -1.1467 -1.5289 -0.6081
 3546SOL    HW222272   3.460   3.796  14.420 -1.0121  0.0907  1.4062
 3547SOL     OW22273   2.926   0.055   6.052 -0.0815  0.5126 -0.4338
 3547SOL    HW122274   3.015   0.079   6.076 -0.1379  1.1587 -0.8437
 3547SOL    HW222275   2.933   0.045   5.957 -1.1518 -0.5270 -0.4052
 3548SOL     OW22276   2.385   0.518  10.421 -0.2648  0.0311 -0.3846
 3548SOL    HW122277   2.342   0.599  10.450  0.7071  0.9605 -1.5688
 3548SOL    HW222278   2.389   0.470  10.503 -0.6101  1.1751  0.3126
 3549SOL     OW22279   2.223   4.556  14.234 -0.0706  0.1727  0.2687
 3549SOL    HW122280   2.246   4.466  14.212 -0.4822 -0.0973  0.9683
 3549SOL    HW222281   2.127   4.551  14.233 -0.0493  0.1863 -1.2583
 3550SOL     OW22282   0.797   1.243   6.635 -0.1306 -0.0789  0.4915
 3550SOL    HW122283   0.820   1.248   6.728 -1.1815  1.8387  0.6506
 3550SOL    HW222284   0.818   1.155   6.604 -0.5008  0.2650 -0.7258
 3551SOL     OW22285   4.689   3.317   7.583  0.1671 -0.0564  0.2955
 3551SOL    HW122286   4.681   3.383   7.514 -0.7301  0.4619  0.9056
 3551SOL    HW222287   0.051   3.311   7.603  0.0559  2.0746  1.4849
 3552SOL     OW22288   1.372   1.576  12.243  0.1007 -0.3595 -0.4476
 3552SOL    HW122289   1.373   1.670  12.224  0.5734 -0.1421  0.6841
 3552SOL    HW222290   1.436   1.541  12.180 -0.7113 -0.0406 -1.4607
 3553SOL     OW22291   1.167   1.313   1.976  0.5738  0.4054  0.0583
 3553SOL    HW122292   1.253   1.345   1.949  0.9862 -1.8699 -1.3213
 3553SOL    HW222293   1.115   1.389   2.003 -1.6409 -1.0914 -0.0540
 3554SOL     OW22294   2.389   1.766   7.705  0.1071  0.2189 -0.0509
 3554SOL    HW122295   2.342   1.811   7.775  1.4869  1.2732  0.2014
 3554SOL    HW222296   2.320   1.716   7.661  0.4471 -0.9351  0.7160
 3555SOL     OW22297   2.661   4.668  13.694 -0.6151  0.6803 -0.3540
 3555SOL    HW122298   2.588   4.674  13.632 -0.3696  0.8161 -0.6292
 3555SOL    HW222299   2.685   4.576  13.678  0.4879  1.1414 -1.3177
 3556SOL     OW22300   0.903   4.046   4.672 -0.2327  0.2017 -0.2743
 3556SOL    HW122301   0.916   4.001   4.755  1.4730 -2.8219 -2.1598
 3556SOL    HW222302   0.917   3.971   4.614 -1.5517 -0.3407  0.1120
 3557SOL     OW22303   0.642   4.279   8.207  0.0346 -0.2734  0.3386
 3557SOL    HW122304   0.665   4.372   8.206 -0.6134 -0.1709 -4.5164
 3557SOL    HW222305   0.726   4.237   8.186  0.7646  0.6675  1.4038
 3558SOL     OW22306   4.706   2.950   2.818  0.6511 -0.4375 -0.2935
 3558SOL    HW122307   0.029   3.021   2.783  1.6393 -0.9279  0.2645
 3558SOL    HW222308   4.675   2.896   2.744  0.2068 -1.0113  0.3115
 3559SOL     OW22309   4.176   2.557   7.305 -0.1787  0.2943  0.2482
 3559SOL    HW122310   4.210   2.494   7.369  1.7108  1.1531  0.0853
 3559SOL    HW222311   4.241   2.539   7.238 -0.4595 -0.5410  0.1995
 3560SOL     OW22312   1.756   2.034   4.834 -0.1621  0.2084  0.0955
 3560SOL    HW122313   1.760   1.983   4.754  0.0092  1.0735 -0.4465
 3560SOL    HW222314   1.675   1.997   4.870 -0.1386 -1.6718 -1.8039
 3561SOL     OW22315   1.672   4.596   0.205 -0.5811  0.1406 -0.5543
 3561SOL    HW122316   1.700   4.584   0.296 -0.7591  0.9586 -0.3926
 3561SOL    HW222317   1.742   4.640   0.156 -0.0706 -0.3395 -0.2590
 3562SOL     OW22318   1.812   3.219  17.472  0.1464 -0.2912 -0.0178
 3562SOL    HW122319   1.804   3.130  17.437 -0.2462  0.0820 -0.8805
 3562SOL    HW222320   1.718   3.240  17.478 -0.0467 -0.7057 -1.6795
 3563SOL     OW22321   2.180   2.712   6.557  0.4489  0.1242  0.1010
 3563SOL    HW122322   2.158   2.662   6.479  1.3276 -1.3692  0.8200
 3563SOL    HW222323   2.233   2.786   6.527 -0.3044  0.2341 -0.9376
 3564SOL     OW22324   4.068   0.921  10.161 -0.1265 -0.2702 -0.9664
 3564SOL    HW122325   4.158   0.953  10.165 -0.5044  0.4546  1.6500
 3564SOL    HW222326   4.049   0.893  10.071  1.1000  0.6766 -1.5248
 3565SOL     OW22327   0.192   2.762   9.151 -0.0567 -0.6311  0.0048
 3565SOL    HW122328   0.146   2.760   9.068  0.0612  2.2610 -0.1212
 3565SOL    HW222329   0.266   2.710   9.121  0.1130  0.2347 -1.0468
 3566SOL     OW22330   1.602   0.800   1.280 -0.2380  0.6320  0.4758
 3566SOL    HW122331   1.606   0.891   1.309 -0.9069  0.6638  0.4677
 3566SOL    HW222332   1.545   0.769   1.350 -0.9971 -0.8637 -0.8086
 3567SOL     OW22333   2.892   0.637   3.707  0.0830  0.2029 -0.4595
 3567SOL    HW122334   2.827   0.701   3.680  0.5523  0.5239 -0.8191
 3567SOL    HW222335   2.966   0.696   3.698 -0.4700  0.6166 -2.2966
 3568SOL     OW22336   0.918   1.707   2.604 -0.3020  0.3327 -0.1480
 3568SOL    HW122337   0.861   1.634   2.582  0.1450 -0.3479  1.0054
 3568SOL    HW222338   1.002   1.663   2.619 -1.4252 -2.0152 -0.8681
 3569SOL     OW22339   3.465   0.349   4.188 -0.2874 -0.1629  0.3102
 3569SOL    HW122340   3.555   0.319   4.178 -0.3966  0.6720 -3.1730
 3569SOL    HW222341   3.468   0.363   4.283  2.1199  1.1456  0.0515
 3570SOL     OW22342   4.514   2.236   7.131 -0.0434 -0.0570 -0.6507
 3570SOL    HW122343   4.552   2.150   7.149 -1.1691 -0.4649 -0.1763
 3570SOL    HW222344   4.568   2.301   7.175 -2.5357  1.1619  0.6424
 3571SOL     OW22345   1.254   3.723  11.163  0.0564  0.2686 -0.4937
 3571SOL    HW122346   1.301   3.639  11.164 -0.6534 -0.1380 -1.1174
 3571SOL    HW222347   1.180   3.697  11.218  0.2527 -0.8699 -0.7587
 3572SOL     OW22348   4.475   0.229  10.396  0.3710  0.5558  0.3359
 3572SOL    HW122349   4.427   0.166  10.450 -0.8049  1.5434  0.4457
 3572SOL    HW222350   4.543   0.253  10.460  1.3986 -2.3366  0.3684
 3573SOL     OW22351   2.942   2.096   2.488 -0.6234  0.0993 -0.3917
 3573SOL    HW122352   2.892   2.162   2.441  0.0232 -0.4761 -1.9082
 3573SOL    HW222353   2.870   2.038   2.513 -0.2645 -0.5608 -0.8868
 3574SOL     OW22354   2.506   0.547   2.982  1.0393 -0.5061 -0.3135
 3574SOL    HW122355   2.562   0.570   3.056 -0.6843 -0.5255  1.0092
 3574SOL    HW222356   2.460   0.471   3.017  1.0617  1.1173  3.2654
 3575SOL     OW22357   3.346   3.184  15.131 -0.2944  0.3564  0.0553
 3575SOL    HW122358   3.283   3.112  15.136  0.7916 -0.3508  3.4947
 3575SOL    HW222359   3.292   3.249  15.087 -1.5580 -0.9593 -0.3260
 3576SOL     OW22360   4.320   2.249   9.655 -0.3622  0.4542 -0.7002
 3576SOL    HW122361   4.411   2.277   9.644 -0.7277  1.2280 -1.6875
 3576SOL    HW222362   4.310   2.288   9.742 -1.0726 -1.0051 -0.1325
 3577SOL     OW22363   3.120   0.535   5.168 -0.2145  0.3268 -0.2495
 3577SOL    HW122364   3.195   0.571   5.121  0.8655 -0.2373  1.0505
 3577SOL    HW222365   3.165   0.549   5.251  0.0011  0.5759 -0.4062
 3578SOL     OW22366   0.592   3.801   5.083 -0.8381  0.0277 -1.4893
 3578SOL    HW122367   0.576   3.872   5.146 -0.4673 -2.0098  0.9114
 3578SOL    HW222368   0.636   3.841   5.008  0.7601  0.4020 -0.3567
 3579SOL     OW22369   0.951   1.988  10.344 -0.4942  0.4164 -0.2669
 3579SOL    HW122370   0.967   2.038  10.424  1.2902 -0.8798  0.1793
 3579SOL    HW222371   0.856   1.976  10.354 -0.6688 -0.3812 -3.1296
 3580SOL     OW22372   1.576   2.653   8.005 -0.2315 -0.7018  0.8861
 3580SOL    HW122373   1.499   2.595   8.013 -0.5326 -0.3969  0.2600
 3580SOL    HW222374   1.558   2.703   8.084  1.3059  1.0835  0.0953
 3581SOL     OW22375   0.294   0.043  10.655  0.0968  0.0677  0.0725
 3581SOL    HW122376   0.336   4.711  10.597  1.8456  3.4273 -2.3146
 3581SOL    HW222377   0.313   0.128  10.614  2.7824 -1.0685 -0.9785
 3582SOL     OW22378   0.124   3.691   9.363  0.3289  0.5043 -0.0842
 3582SOL    HW122379   0.090   3.720   9.278  0.5104  1.3550  0.1353
 3582SOL    HW222380   0.040   3.704   9.406 -0.2141  0.6717 -1.1982
 3583SOL     OW22381   1.574   1.698  15.386 -0.1232 -1.1791 -0.2988
 3583SOL    HW122382   1.652   1.713  15.440 -2.2814  0.7168  2.2411
 3583SOL    HW222383   1.623   1.680  15.305  0.3267  2.2634 -0.7997
 3584SOL     OW22384   0.136   2.596  12.059  0.5192 -0.1967 -0.6306
 3584SOL    HW122385   0.051   2.575  12.097  1.2941  0.8794  1.7555
 3584SOL    HW222386   0.158   2.673  12.112  0.0759  0.0679 -0.8307
 3585SOL     OW22387   1.697   4.405   6.758  0.5140 -0.6781 -0.2085
 3585SOL    HW122388   1.639   4.389   6.684 -0.5706  1.1978  0.2469
 3585SOL    HW222389   1.749   4.479   6.730  0.1731  0.4499  2.0767
 3586SOL     OW22390   0.566   0.083   3.886  0.1299 -0.3084  0.0201
 3586SOL    HW122391   0.503   0.155   3.887  1.8534  1.1989 -0.2359
 3586SOL    HW222392   0.558   0.050   3.975  1.8291  1.2698  0.7532
 3587SOL     OW22393   1.593   2.407   9.255  0.1618  0.8288 -0.0853
 3587SOL    HW122394   1.612   2.336   9.194  2.1427  0.5196  0.8799
 3587SOL    HW222395   1.660   2.472   9.237  1.6848 -0.6136  0.3731
 3588SOL     OW22396   2.137   1.078   9.297 -0.1601 -0.4563  0.3111
 3588SOL    HW122397   2.078   1.061   9.371 -2.0027  0.0631 -1.0307
 3588SOL    HW222398   2.111   1.014   9.230  0.7891  1.0022 -1.4606
 3589SOL     OW22399   1.142   4.633   6.921 -0.1447  0.0717  0.3988
 3589SOL    HW122400   1.105   4.547   6.939  0.2734 -0.4008 -1.0228
 3589SOL    HW222401   1.235   4.611   6.928 -0.2673 -0.8791 -1.0698
 3590SOL     OW22402   1.100   3.094   1.568 -0.5834  0.0251  0.6999
 3590SOL    HW122403   1.010   3.064   1.571 -1.5957  3.1306  1.6335
 3590SOL    HW222404   1.146   3.012   1.586 -1.3261 -0.2278  1.4444
 3591SOL     OW22405   0.462   3.388   6.069 -0.5108 -0.2878  0.0601
 3591SOL    HW122406   0.426   3.413   5.984  0.0320  1.3313  0.3116
 3591SOL    HW222407   0.538   3.446   6.070 -1.6745  1.2479 -2.5806
 3592SOL     OW22408   4.425   4.373   9.603 -0.2116 -0.1474 -0.1963
 3592SOL    HW122409   4.356   4.311   9.628  1.5061 -1.4192  1.4058
 3592SOL    HW222410   4.378   4.405   9.527 -2.4228  3.1399  2.5576
 3593SOL     OW22411   4.263   1.136   3.105  0.3805  0.1724 -0.0569
 3593SOL    HW122412   4.305   1.098   3.182 -1.3856 -1.8393 -0.0856
 3593SOL    HW222413   4.188   1.078   3.091  0.8769 -0.5033  0.0862
 3594SOL     OW22414   1.378   0.257   6.628 -0.4945  0.6298 -0.2575
 3594SOL    HW122415   1.384   0.162   6.637  2.4462  0.9902  1.5567
 3594SOL    HW222416   1.461   0.269   6.584  0.7495  2.6130  2.5945
 3595SOL     OW22417   3.955   1.400  11.781  0.3982  0.2037  0.2108
 3595SOL    HW122418   3.913   1.416  11.696  1.4461 -1.2172 -0.5877
 3595SOL    HW222419   3.883   1.354  11.824  0.1123 -0.8826 -1.3914
 3596SOL     OW22420   3.613   3.007   4.256 -0.1181 -0.2513  0.6744
 3596SOL    HW122421   3.651   2.922   4.276  2.7264  0.7145 -0.6396
 3596SOL    HW222422   3.684   3.055   4.213 -3.2680  1.8106 -2.1978
 3597SOL     OW22423   4.459   3.437   5.149  0.0801  0.2246 -0.5203
 3597SOL    HW122424   4.402   3.441   5.226  2.4090 -3.0184  1.3553
 3597SOL    HW222425   4.397   3.456   5.079  0.6686 -1.0723 -1.3957
 3598SOL     OW22426   0.086   3.677   0.179 -0.0584  0.6212 -0.2668
 3598SOL    HW122427   0.042   3.707   0.259 -1.3392  1.4962 -1.2883
 3598SOL    HW222428   0.167   3.729   0.182  1.3123 -1.5605  0.6446
 3599SOL     OW22429   0.178   0.656   8.410  0.6136 -0.6149 -0.0548
 3599SOL    HW122430   0.261   0.627   8.448  0.2222 -0.9904  0.5196
 3599SOL    HW222431   0.198   0.749   8.401 -1.0632 -0.1930  0.5366
 3600SOL     OW22432   3.369   3.398   8.655  0.3068 -0.2330  0.4606
 3600SOL    HW122433   3.336   3.425   8.741 -0.7374 -1.8889  0.5679
 3600SOL    HW222434   3.439   3.461   8.636 -0.4842  0.6421  0.4133
 3601SOL     OW22435   1.982   1.396   7.009 -0.5576 -0.2268  0.3400
 3601SOL    HW122436   1.973   1.310   6.970 -3.1121 -0.1399  0.7388
 3601SOL    HW222437   2.024   1.453   6.944 -4.0545  2.7593  0.6989
 3602SOL     OW22438   4.657   3.817  13.336  1.3389 -0.3552 -0.4393
 3602SOL    HW122439   4.593   3.777  13.395 -0.6491 -2.5060 -4.0524
 3602SOL    HW222440   4.718   3.857  13.397 -0.0060  1.9072 -0.5734
 3603SOL     OW22441   1.333   3.480   3.947 -0.2647 -0.3357  0.6429
 3603SOL    HW122442   1.387   3.554   3.974  0.1399 -0.3992 -0.0043
 3603SOL    HW222443   1.400   3.421   3.911 -1.6553 -0.7643 -1.2135
 3604SOL     OW22444   3.756   1.573  12.024  0.3221 -0.2650 -0.2301
 3604SOL    HW122445   3.749   1.590  11.929  0.0461  0.2577 -0.1206
 3604SOL    HW222446   3.782   1.481  12.028  0.0852 -0.3539 -0.7165
 3605SOL     OW22447   3.311   0.622   2.209  0.1152 -0.8839  0.2797
 3605SOL    HW122448   3.355   0.563   2.271 -0.9641  0.6926  2.5201
 3605SOL    HW222449   3.386   0.671   2.174 -0.7395  0.6104  0.5766
 3606SOL     OW22450   3.133   3.815  14.519  0.2539  0.4332 -0.5367
 3606SOL    HW122451   3.203   3.752  14.503  0.3668 -0.0538  1.9633
 3606SOL    HW222452   3.065   3.781  14.460 -0.6024 -2.2517  2.0134
 3607SOL     OW22453   4.383   4.687   8.669  0.1418 -0.2215 -0.8888
 3607SOL    HW122454   4.298   4.654   8.640  0.6706 -3.4499  1.2030
 3607SOL    HW222455   4.445   4.622   8.634  0.5917  0.6900 -1.7820
 3608SOL     OW22456   1.530   0.495   4.680 -0.2084 -0.0678 -0.3621
 3608SOL    HW122457   1.577   0.554   4.739  0.3003 -0.2784 -0.5513
 3608SOL    HW222458   1.502   0.429   4.742 -2.3304  0.9552 -0.2360
 3609SOL     OW22459   4.686   3.075  12.803 -0.0236 -0.2129  0.3208
 3609SOL    HW122460   4.666   2.981  12.803  0.0709 -0.2342 -0.5852
 3609SOL    HW222461   0.029   3.091  12.862 -0.0560  0.6913  0.1181
 3610SOL     OW22462   1.860   1.709   6.371  0.3066  0.0069  0.6189
 3610SOL    HW122463   1.797   1.740   6.436  2.0056 -2.2324  3.3862
 3610SOL    HW222464   1.889   1.632   6.421  1.0383  1.0961  1.8585
 3611SOL     OW22465   1.744   0.058  16.750  0.2608  0.1327  0.2852
 3611SOL    HW122466   1.789   0.017  16.676 -0.1600  1.9049 -0.9254
 3611SOL    HW222467   1.659   0.013  16.744  0.3509 -0.0661  0.4953
 3612SOL     OW22468   2.004   4.076   4.589  0.0976  0.0377  0.1865
 3612SOL    HW122469   2.008   4.150   4.650  1.2015  0.3060 -0.2175
 3612SOL    HW222470   1.965   4.005   4.639 -0.1274 -1.1566 -1.7033
 3613SOL     OW22471   0.648   0.305  12.250 -0.5456 -0.1004  0.0302
 3613SOL    HW122472   0.616   0.246  12.318  0.8049  0.6364  1.2966
 3613SOL    HW222473   0.711   0.353  12.303 -1.2899 -0.6179  1.3769
 3614SOL     OW22474   0.159   4.419   3.157  0.3166 -0.0409  0.0956
 3614SOL    HW122475   0.191   4.432   3.246 -1.2943 -0.8785  0.7857
 3614SOL    HW222476   0.199   4.496   3.114  0.2751  0.8498  1.6471
 3615SOL     OW22477   2.792   3.020   1.047  0.2434 -0.4027  0.6088
 3615SOL    HW122478   2.809   2.949   0.984  0.5244  0.6596 -0.5205
 3615SOL    HW222479   2.719   2.979   1.094 -1.1438  0.7854 -0.5333
 3616SOL     OW22480   2.143   3.042   2.136 -0.8755  0.0462 -0.3639
 3616SOL    HW122481   2.164   3.033   2.229  1.6136  1.2066 -0.8136
 3616SOL    HW222482   2.225   3.063   2.091 -0.7218 -2.2597 -1.1855
 3617SOL     OW22483   0.681   3.161  16.919  0.8270  0.2666 -0.0569
 3617SOL    HW122484   0.622   3.223  16.877  1.0356  0.0528 -0.6586
 3617SOL    HW222485   0.749   3.149  16.852 -0.1533 -0.9629 -0.8223
 3618SOL     OW22486   1.093   2.550  15.251  0.1535  0.0903  0.4189
 3618SOL    HW122487   1.118   2.547  15.159 -0.1519  2.1946  0.2803
 3618SOL    HW222488   1.000   2.566  15.236  0.4046  1.6402  0.5143
 3619SOL     OW22489   2.380   2.041   8.062 -0.3733  0.0844 -0.4836
 3619SOL    HW122490   2.471   2.058   8.086  0.2275 -1.6373 -1.5201
 3619SOL    HW222491   2.396   2.032   7.968 -0.8323  1.6720 -0.7196
 3620SOL     OW22492   3.908   4.428   2.849  0.0831 -0.2598  0.2397
 3620SOL    HW122493   4.002   4.424   2.834  0.0442 -0.1123 -0.0458
 3620SOL    HW222494   3.893   4.342   2.809  0.6932 -0.4106  0.3368
 3621SOL     OW22495   2.655   4.545   3.083  0.3384  0.2412 -0.7824
 3621SOL    HW122496   2.609   4.533   3.166  1.3926 -0.1928 -0.2571
 3621SOL    HW222497   2.700   4.627   3.104  1.1327 -0.5914  0.7661
 3622SOL     OW22498   4.175   4.342   4.830 -0.1407  0.3044 -0.1326
 3622SOL    HW122499   4.202   4.253   4.851 -0.0737  0.7907  1.8621
 3622SOL    HW222500   4.257   4.385   4.804 -1.0664  1.4914 -1.0994
 3623SOL     OW22501   3.842   1.537  15.702 -0.6574  0.1606 -0.0002
 3623SOL    HW122502   3.908   1.604  15.686  0.7049 -1.4856 -1.3056
 3623SOL    HW222503   3.806   1.520  15.615  0.0559  0.4496 -0.3503
 3624SOL     OW22504   2.937   4.071   5.992 -0.7943  0.2815  0.0954
 3624SOL    HW122505   2.872   4.132   5.959 -0.9421 -0.4619 -0.9993
 3624SOL    HW222506   2.922   3.989   5.944  0.8659  1.2624 -2.1384
 3625SOL     OW22507   0.463   2.888  11.443 -0.0766 -0.8831  0.5374
 3625SOL    HW122508   0.448   2.848  11.529 -1.7338 -0.3913  0.4818
 3625SOL    HW222509   0.410   2.966  11.457 -0.0174 -0.6529 -0.4669
 3626SOL     OW22510   2.377   1.803  11.730 -0.0151  0.5923  0.1506
 3626SOL    HW122511   2.415   1.813  11.818  3.1694 -0.1661 -1.1193
 3626SOL    HW222512   2.323   1.726  11.744 -3.0338  2.3624 -1.7715
 3627SOL     OW22513   1.784   3.106   4.454 -0.4273 -0.0482 -0.1327
 3627SOL    HW122514   1.791   3.040   4.385  0.1118 -1.8117  1.6018
 3627SOL    HW222515   1.876   3.128   4.470 -0.1911 -0.1545 -1.3719
 3628SOL     OW22516   3.634   2.715   0.517 -0.0523 -0.4080  0.0094
 3628SOL    HW122517   3.714   2.679   0.556  0.5189  1.2400  0.3977
 3628SOL    HW222518   3.600   2.766   0.591 -1.1293 -1.6897  0.3948
 3629SOL     OW22519   3.971   4.080   9.949  0.3386  0.2316 -0.6273
 3629SOL    HW122520   3.971   4.176   9.948  2.0127  0.2066 -2.6706
 3629SOL    HW222521   4.002   4.062  10.038 -0.8913 -1.8184 -0.6307
 3630SOL     OW22522   0.475   3.560  11.524 -0.3387  0.6285 -0.0816
 3630SOL    HW122523   0.561   3.602  11.528 -0.5944  0.9345  1.9512
 3630SOL    HW222524   0.409   3.629  11.533 -1.9111 -0.7956 -0.7538
 3631SOL     OW22525   3.400   3.372   3.469 -0.2362  0.4448 -0.7308
 3631SOL    HW122526   3.329   3.410   3.522 -0.0178  0.7648 -0.6721
 3631SOL    HW222527   3.354   3.359   3.386 -1.3188  0.1078 -0.0819
 3632SOL     OW22528   0.240   3.190   3.392  0.0552  0.3444  0.4036
 3632SOL    HW122529   0.156   3.146   3.395 -0.4680  1.3042 -0.1945
 3632SOL    HW222530   0.258   3.208   3.485  0.9344  0.6769  0.1703
 3633SOL     OW22531   0.525   0.997   8.118  0.2136 -0.2195  0.1454
 3633SOL    HW122532   0.488   0.920   8.074 -2.1635  0.6761  0.5851
 3633SOL    HW222533   0.617   0.986   8.091  0.2922  0.3906  0.1684
 3634SOL     OW22534   1.619   0.249  15.835 -0.4164 -0.2268 -0.0920
 3634SOL    HW122535   1.592   0.237  15.926 -1.3417 -1.6593 -0.5649
 3634SOL    HW222536   1.708   0.214  15.842 -1.1162 -1.8941  0.5197
 3635SOL     OW22537   1.836   2.541   5.893 -0.0623  0.2872 -0.1412
 3635SOL    HW122538   1.818   2.614   5.953  0.5497 -0.5749  1.0930
 3635SOL    HW222539   1.815   2.585   5.811  0.6232  1.7487  0.4678
 3636SOL     OW22540   1.916   0.452  13.552 -0.2364  0.1429  0.3232
 3636SOL    HW122541   1.876   0.378  13.598 -0.7771  0.5275  0.4652
 3636SOL    HW222542   1.849   0.472  13.487 -0.7118 -0.3922  0.6512
 3637SOL     OW22543   0.449   4.333   5.569 -0.0685  0.3165  0.4414
 3637SOL    HW122544   0.466   4.310   5.660  0.8915 -0.0889  0.1717
 3637SOL    HW222545   0.475   4.252   5.526 -3.1116 -0.0233 -0.6963
 3638SOL     OW22546   0.833   4.323  12.979  0.6197 -0.2775 -0.3642
 3638SOL    HW122547   0.821   4.229  12.991 -1.2644  0.1565  1.1258
 3638SOL    HW222548   0.886   4.347  13.055  0.0988 -0.0426 -0.0787
 3639SOL     OW22549   2.601   3.704   7.357  0.1282  0.0536 -0.3607
 3639SOL    HW122550   2.641   3.693   7.271  0.5028  1.0036 -0.3045
 3639SOL    HW222551   2.623   3.618   7.393 -1.3830  0.3144  1.1528
 3640SOL     OW22552   3.526   1.249   5.289 -0.1772 -0.8790  0.4375
 3640SOL    HW122553   3.469   1.178   5.258 -1.1492  0.9371 -1.9249
 3640SOL    HW222554   3.463   1.290   5.348  0.9287 -0.8732  1.6032
 3641SOL     OW22555   2.774   1.152  12.077  0.5788 -0.0279 -1.1094
 3641SOL    HW122556   2.806   1.090  12.012 -0.1645 -0.1709 -1.3407
 3641SOL    HW222557   2.794   1.096  12.152  1.0680 -1.8083 -2.5708
 3642SOL     OW22558   4.275   4.551   4.070  0.6507 -0.0814 -0.1416
 3642SOL    HW122559   4.267   4.465   4.112  0.2060 -0.4525 -0.9943
 3642SOL    HW222560   4.324   4.526   3.991  0.0639 -0.1605 -0.4802
 3643SOL     OW22561   0.982   1.024   7.239  0.2727 -0.5648 -0.3036
 3643SOL    HW122562   0.987   1.020   7.335 -0.0525 -2.9841 -0.3912
 3643SOL    HW222563   1.065   0.984   7.214 -0.1926 -0.6173 -1.7344
 3644SOL     OW22564   2.955   1.597  11.315  0.0001 -0.0963 -0.8520
 3644SOL    HW122565   2.980   1.680  11.274  2.3622  0.1270  1.0506
 3644SOL    HW222566   2.868   1.620  11.348  0.7570  0.9985  0.3698
 3645SOL     OW22567   2.352   4.640   3.058  0.1205  0.0869  0.3763
 3645SOL    HW122568   2.413   4.713   3.049  1.3758 -1.2860 -2.2296
 3645SOL    HW222569   2.325   4.664   3.147  0.1039  0.7797  0.1796
 3646SOL     OW22570   0.062   1.025   4.070 -0.0672 -0.1357 -0.1272
 3646SOL    HW122571   4.728   0.977   4.018 -1.4251  0.7232  0.7951
 3646SOL    HW222572   0.131   0.959   4.086  2.3499  2.1752 -1.0899
 3647SOL     OW22573   4.549   0.986   3.652  0.3686  0.4097 -0.2891
 3647SOL    HW122574   4.564   1.052   3.720 -0.0636 -0.1306  0.3276
 3647SOL    HW222575   4.615   1.013   3.588  1.1778  1.3108  0.9287
 3648SOL     OW22576   3.843   2.504   7.323 -0.9676  0.3597 -0.0485
 3648SOL    HW122577   3.862   2.417   7.358 -1.7017  1.0203  1.9816
 3648SOL    HW222578   3.778   2.533   7.386 -1.2738  1.2338 -0.7624
 3649SOL     OW22579   1.005   0.321   4.515  0.0375 -0.5186  0.2486
 3649SOL    HW122580   1.060   0.359   4.583 -0.8002  1.6088 -0.2501
 3649SOL    HW222581   1.075   0.303   4.452 -1.0663  0.1060 -1.1836
 3650SOL     OW22582   4.281   2.574  10.296  0.0088 -0.5444  0.2720
 3650SOL    HW122583   4.353   2.531  10.251  0.3640  0.7035 -0.3758
 3650SOL    HW222584   4.256   2.499  10.349 -0.1328 -0.2681  0.5961
 3651SOL     OW22585   0.975   3.896   6.742  0.0737  0.0890 -0.3131
 3651SOL    HW122586   0.969   3.911   6.837  0.1963 -3.4410  0.2461
 3651SOL    HW222587   0.966   3.801   6.744  1.4035 -0.0174  0.2297
 3652SOL     OW22588   1.498   3.343   2.281  0.4980  0.0856 -0.3005
 3652SOL    HW122589   1.435   3.412   2.262  1.3097  1.1383  0.8892
 3652SOL    HW222590   1.442   3.284   2.331 -2.0373  2.3454 -0.4436
 3653SOL     OW22591   2.036   3.678  13.823  0.4543 -0.5116 -0.4659
 3653SOL    HW122592   2.012   3.706  13.735 -2.5140 -1.0230  0.1728
 3653SOL    HW222593   1.954   3.631  13.843  0.6910 -0.1778  1.2985
 3654SOL     OW22594   2.209   0.426   2.718 -0.6190  0.4499  0.0351
 3654SOL    HW122595   2.165   0.371   2.653  1.0924 -1.0395  0.1465
 3654SOL    HW222596   2.303   0.418   2.702 -0.2162 -2.1299  3.7861
 3655SOL     OW22597   1.225   1.642   9.589  0.7810 -0.4209  0.4636
 3655SOL    HW122598   1.248   1.677   9.674 -1.6536  2.9736 -0.2623
 3655SOL    HW222599   1.242   1.548   9.600  3.3450 -0.0881 -0.7340
 3656SOL     OW22600   2.195   3.234   0.922  0.5319  0.0791  0.0295
 3656SOL    HW122601   2.154   3.188   0.849 -2.1252 -1.0590  2.2905
 3656SOL    HW222602   2.265   3.180   0.958  0.2241  0.2781  0.9159
 3657SOL     OW22603   2.468   0.552   2.217 -0.3353 -0.0356  0.6688
 3657SOL    HW122604   2.481   0.525   2.126 -0.8254 -0.7564  0.8098
 3657SOL    HW222605   2.495   0.644   2.216 -1.4507  0.2916  0.6574
 3658SOL     OW22606   0.054   3.619   6.595  0.5205 -0.5796  0.0393
 3658SOL    HW122607   0.109   3.678   6.647  0.6131 -0.6977  0.0751
 3658SOL    HW222608   0.078   3.651   6.508  0.1773  0.2602  0.2498
 3659SOL     OW22609   4.332   4.536  16.953  0.1871  0.1527 -0.1379
 3659SOL    HW122610   4.334   4.449  16.993  1.6046 -0.1901 -0.9573
 3659SOL    HW222611   4.310   4.512  16.862  1.6070 -0.9858 -0.1865
 3660SOL     OW22612   3.818   1.823   3.060  0.1126  0.3430 -0.0185
 3660SOL    HW122613   3.725   1.828   3.082 -0.1455 -1.2884 -0.7520
 3660SOL    HW222614   3.822   1.802   2.967 -1.1976 -1.6644  0.3920
 3661SOL     OW22615   2.022   1.068   1.710  0.1334 -0.1921 -0.2318
 3661SOL    HW122616   1.949   1.058   1.649  0.0560  0.1768 -0.2039
 3661SOL    HW222617   2.095   1.103   1.660  0.3552 -0.1231  0.1355
 3662SOL     OW22618   1.402   2.438  10.167 -0.0318 -0.3654  0.1286
 3662SOL    HW122619   1.493   2.451  10.193 -0.1133  0.6372 -0.0979
 3662SOL    HW222620   1.405   2.362  10.108 -0.6869  0.0308 -0.4185
 3663SOL     OW22621   2.106   0.037   3.729 -0.5517  0.2866  0.4551
 3663SOL    HW122622   2.137   4.678   3.717 -0.0305  0.6200 -0.7235
 3663SOL    HW222623   2.013   0.028   3.709 -0.7336  0.4315  1.2669
 3664SOL     OW22624   1.386   1.125   2.905 -0.1699 -0.4769 -0.9744
 3664SOL    HW122625   1.378   1.031   2.894  4.0877 -0.9210 -0.3187
 3664SOL    HW222626   1.476   1.132   2.875 -0.6657  4.2398 -1.4511
 3665SOL     OW22627   3.227   1.271  13.896 -0.1642 -0.2658 -0.0173
 3665SOL    HW122628   3.322   1.261  13.906 -0.0940  2.6973  2.2827
 3665SOL    HW222629   3.214   1.210  13.824 -2.5741  0.6966 -0.3733
 3666SOL     OW22630   1.347   0.303   8.221  0.0084 -0.1571  0.2438
 3666SOL    HW122631   1.265   0.258   8.242  0.6030 -2.3320 -2.0655
 3666SOL    HW222632   1.410   0.251   8.270 -0.3792 -1.6122 -0.8028
 3667SOL     OW22633   1.073   0.903   2.934  0.0199  0.0540  0.1891
 3667SOL    HW122634   1.167   0.894   2.919 -0.2523 -0.3917 -1.2857
 3667SOL    HW222635   1.083   0.961   3.009 -3.0523 -0.8794  1.3192
 3668SOL     OW22636   2.586   3.584  10.773  0.2431  0.2416  0.2389
 3668SOL    HW122637   2.588   3.499  10.730  0.3545 -0.3920  1.5125
 3668SOL    HW222638   2.562   3.556  10.862  2.2975  0.8322  0.9749
 3669SOL     OW22639   1.706   1.301   7.424 -0.0894 -0.5188  0.0452
 3669SOL    HW122640   1.790   1.300   7.379 -1.5571  1.1217 -2.6877
 3669SOL    HW222641   1.738   1.332   7.509 -2.3927  0.8460  0.3928
 3670SOL     OW22642   4.285   0.519  13.837  0.0423 -0.3454 -0.3189
 3670SOL    HW122643   4.370   0.481  13.861  0.7813  0.2719 -1.9553
 3670SOL    HW222644   4.234   0.442  13.813  1.9933 -1.2183 -1.6064
 3671SOL     OW22645   3.723   0.619   2.711 -0.2767  0.3368  0.3872
 3671SOL    HW122646   3.672   0.586   2.637 -1.4025  2.3700  0.2558
 3671SOL    HW222647   3.714   0.714   2.706  0.9223  0.4385  0.3152
 3672SOL     OW22648   1.646   0.427  16.937  0.0082  0.4690  0.1723
 3672SOL    HW122649   1.641   0.456  17.028  1.5301  0.2706  0.3323
 3672SOL    HW222650   1.738   0.450  16.919  1.0070 -2.7086  1.1512
 3673SOL     OW22651   0.131   4.069   9.302  0.6755 -0.0792  0.7542
 3673SOL    HW122652   0.061   4.126   9.332  0.7423 -0.6014  1.8894
 3673SOL    HW222653   0.181   4.052   9.382  1.7876  1.1719  0.3170
 3674SOL     OW22654   2.700   0.033  17.522  0.0437 -0.0742  0.1389
 3674SOL    HW122655   2.689   0.052  17.616 -0.4952 -0.6579  0.1955
 3674SOL    HW222656   2.754   0.110  17.501 -0.4324  0.5645  1.2382
 3675SOL     OW22657   4.254   4.150   9.872 -0.4841 -0.5998  0.0465
 3675SOL    HW122658   4.260   4.246   9.873  0.6968 -0.6764  0.5108
 3675SOL    HW222659   4.290   4.122   9.956  0.3560  0.8321  0.1551
 3676SOL     OW22660   4.552   2.769   7.935  0.3863  0.1156  0.0644
 3676SOL    HW122661   4.506   2.725   8.006 -0.6058  0.8954 -0.0885
 3676SOL    HW222662   4.487   2.755   7.866 -0.1021 -1.6629  0.8885
 3677SOL     OW22663   1.193   3.023   1.865 -0.1852  0.0374  0.1227
 3677SOL    HW122664   1.136   3.100   1.864 -1.9042 -1.2620 -2.3831
 3677SOL    HW222665   1.221   3.017   1.956 -0.1835 -1.2313  0.0332
 3678SOL     OW22666   2.410   0.183   8.405  0.5102 -0.2643  0.6335
 3678SOL    HW122667   2.391   0.262   8.354 -0.3808  0.0478  1.4338
 3678SOL    HW222668   2.427   0.226   8.489  0.6720 -1.0888  1.0145
 3679SOL     OW22669   4.149   1.423  12.100 -0.3711 -0.0878 -0.2783
 3679SOL    HW122670   4.243   1.415  12.116 -0.3129  1.3348  0.0232
 3679SOL    HW222671   4.118   1.380  12.180 -0.2104 -1.7936 -1.1150
 3680SOL     OW22672   4.346   4.061   6.391  0.4772  0.7199  0.0735
 3680SOL    HW122673   4.266   4.046   6.341  1.0738 -1.9304 -0.0677
 3680SOL    HW222674   4.333   4.152   6.418 -1.4953  1.0017 -1.7873
 3681SOL     OW22675   0.548   3.821  12.196 -0.2580  0.8544 -0.3018
 3681SOL    HW122676   0.460   3.819  12.234 -0.1631 -1.2759 -0.1957
 3681SOL    HW222677   0.557   3.916  12.206  2.1722  0.3204  2.4338
 3682SOL     OW22678   2.371   1.461  13.729 -0.6328 -0.1683 -0.1071
 3682SOL    HW122679   2.434   1.407  13.682  0.6354 -0.5494  2.0583
 3682SOL    HW222680   2.418   1.544  13.738  0.3874 -0.5854 -1.4536
 3683SOL     OW22681   3.553   0.013   2.343  0.3137  0.4335 -0.2615
 3683SOL    HW122682   3.582   4.658   2.314 -0.7857  0.1601 -0.5748
 3683SOL    HW222683   3.547   0.010   2.439  0.2966  1.9152 -0.2166
 3684SOL     OW22684   0.806   2.355   5.958  0.3071 -0.2504  0.0766
 3684SOL    HW122685   0.872   2.424   5.956 -0.6236  0.6251  0.0692
 3684SOL    HW222686   0.773   2.361   5.869  2.4667 -1.1888 -0.8000
 3685SOL     OW22687   1.467   2.856  12.692 -0.3581 -0.3817 -0.2062
 3685SOL    HW122688   1.390   2.912  12.700 -0.4183 -0.4733 -0.1303
 3685SOL    HW222689   1.458   2.825  12.602  1.1050 -1.1246 -0.0965
 3686SOL     OW22690   1.008   3.417  13.527  0.3967 -0.0305 -0.0981
 3686SOL    HW122691   1.022   3.511  13.541 -1.4965  0.4287 -1.3383
 3686SOL    HW222692   0.946   3.418  13.454 -0.9658  2.8909  1.1074
 3687SOL     OW22693   1.420   1.952   5.910  0.3976 -0.7955  0.7058
 3687SOL    HW122694   1.402   1.917   5.998  1.9321  0.1233  1.3945
 3687SOL    HW222695   1.369   2.033   5.911  1.6542 -0.0132  0.3140
 3688SOL     OW22696   0.830   3.320   4.676 -0.1930 -1.0830 -0.4202
 3688SOL    HW122697   0.827   3.389   4.743 -2.6280 -1.2828 -0.3369
 3688SOL    HW222698   0.770   3.366   4.617 -0.9465  1.1603  2.1019
 3689SOL     OW22699   1.601   3.790   9.115  0.1552 -0.1969 -0.2085
 3689SOL    HW122700   1.552   3.719   9.157 -0.6904  0.5606  0.1085
 3689SOL    HW222701   1.692   3.762   9.123 -0.0180 -1.3424 -2.2995
 3690SOL     OW22702   2.993   4.302   7.026 -0.2849 -0.2468 -0.2312
 3690SOL    HW122703   2.936   4.259   6.963 -1.8424  0.9821  0.3241
 3690SOL    HW222704   2.940   4.294   7.105 -0.1567 -0.3531 -0.1557
 3691SOL     OW22705   3.375   4.623   5.822  0.5080 -0.0684 -0.4717
 3691SOL    HW122706   3.383   4.651   5.731 -0.2949  0.9487 -0.2268
 3691SOL    HW222707   3.294   4.573   5.815  0.0385  0.8928 -1.8190
 3692SOL     OW22708   3.651   2.050   4.909 -0.0765 -0.2631  0.4507
 3692SOL    HW122709   3.684   1.962   4.889  1.3709  0.1202  1.2265
 3692SOL    HW222710   3.580   2.026   4.969  0.0105 -1.3595  0.1257
 3693SOL     OW22711   4.570   3.184   8.231 -0.6129  0.0716  0.0798
 3693SOL    HW122712   4.619   3.104   8.211  0.8818  0.8901  0.5265
 3693SOL    HW222713   4.619   3.251   8.182 -1.2298 -1.2843 -2.4141
 3694SOL     OW22714   1.719   1.255   4.367 -0.0575  0.0537 -0.1695
 3694SOL    HW122715   1.761   1.338   4.347 -0.6941  0.2645 -0.5996
 3694SOL    HW222716   1.686   1.263   4.457  1.4987  2.3611  0.2050
 3695SOL     OW22717   3.255   4.289  13.591  0.2859  0.9042 -0.1385
 3695SOL    HW122718   3.217   4.375  13.611  1.2011  0.6886  2.4532
 3695SOL    HW222719   3.285   4.257  13.676  0.2436 -0.4110 -0.6241
 3696SOL     OW22720   2.993   1.644   7.119  0.5485  0.6116  0.0713
 3696SOL    HW122721   2.902   1.637   7.090  0.2799  0.6673  0.9072
 3696SOL    HW222722   2.985   1.637   7.214  1.0269 -0.7426  0.0074
 3697SOL     OW22723   1.717   2.972  10.383  0.5814  0.8116 -0.1584
 3697SOL    HW122724   1.767   3.053  10.385 -1.2120  1.9557 -1.2881
 3697SOL    HW222725   1.693   2.962  10.475  1.1414 -2.6703 -0.3856
 3698SOL     OW22726   3.622   0.924   3.996 -0.1833  0.6572 -0.4912
 3698SOL    HW122727   3.648   1.005   3.953 -1.8309  1.7906  0.6880
 3698SOL    HW222728   3.527   0.933   4.002 -0.2797  0.4471 -1.6507
 3699SOL     OW22729   4.133   2.477   0.312 -0.1035  0.3486  0.0972
 3699SOL    HW122730   4.088   2.436   0.386 -0.2129 -0.7383 -0.5761
 3699SOL    HW222731   4.077   2.554   0.304 -0.0755  0.4512  0.8265
 3700SOL     OW22732   1.572   1.262   1.011  0.4547 -0.1622  0.0483
 3700SOL    HW122733   1.524   1.293   0.934  0.0856 -1.2589 -0.1547
 3700SOL    HW222734   1.498   1.206   1.031  3.0766 -2.5280  3.0695
 3701SOL     OW22735   3.453   3.931   2.871  0.3937 -0.0755 -0.1801
 3701SOL    HW122736   3.491   4.011   2.834  0.3262  0.3832  0.7415
 3701SOL    HW222737   3.494   3.862   2.818  0.2187 -0.5187  0.2698
 3702SOL     OW22738   2.333   0.403  13.229  0.1441  0.3471  0.0102
 3702SOL    HW122739   2.419   0.386  13.191  0.0449 -1.0887  0.4368
 3702SOL    HW222740   2.282   0.393  13.148  0.7884  1.3952 -0.5221
 3703SOL     OW22741   3.276   4.206   3.420  1.2604 -0.1099 -0.2906
 3703SOL    HW122742   3.316   4.277   3.471  3.3568  1.1216 -3.6480
 3703SOL    HW222743   3.206   4.179   3.479 -0.8195  1.9906 -1.7582
 3704SOL     OW22744   2.275   3.577   1.942  0.2657 -0.0513 -0.5127
 3704SOL    HW122745   2.315   3.558   1.857 -0.8607  0.2099 -1.1053
 3704SOL    HW222746   2.312   3.514   2.003  2.3532  0.7270 -0.9896
 3705SOL     OW22747   2.613   3.259  14.602  0.2192  0.4107 -0.2947
 3705SOL    HW122748   2.588   3.335  14.655 -0.2437  0.1503 -0.1409
 3705SOL    HW222749   2.633   3.304  14.520  1.3470  0.2780 -0.0964
 3706SOL     OW22750   0.340   1.244   4.283  0.2867  0.4154  0.5988
 3706SOL    HW122751   0.372   1.300   4.353 -2.3275  1.9291  0.5836
 3706SOL    HW222752   0.248   1.261   4.303 -0.0903  2.0523 -2.5417
 3707SOL     OW22753   0.058   0.970   9.040  0.0658  0.0911 -0.0950
 3707SOL    HW122754   0.045   0.880   9.010 -4.0102  0.9908 -0.9420
 3707SOL    HW222755   0.152   0.981   9.023 -0.1937 -1.3382 -2.4473
 3708SOL     OW22756   3.196   3.353   5.285 -0.7955  0.4875  0.3108
 3708SOL    HW122757   3.251   3.281   5.253 -0.4306 -0.0563  2.1714
 3708SOL    HW222758   3.250   3.382   5.358 -0.6253 -0.1319  0.4319
 3709SOL     OW22759   2.847   3.305   6.927  0.3741 -0.4178  0.4866
 3709SOL    HW122760   2.878   3.395   6.928 -0.1053 -0.2422 -0.4638
 3709SOL    HW222761   2.801   3.301   7.011  1.2691 -0.0855  0.9946
 3710SOL     OW22762   0.043   0.028   3.295  0.1620  0.0949 -0.7154
 3710SOL    HW122763   0.111   0.086   3.261 -2.2354  2.6437 -1.1728
 3710SOL    HW222764   4.698   0.038   3.237 -0.4496  2.1552  0.4390
 3711SOL     OW22765   0.851   1.622   6.293  0.2229  0.2184  0.4948
 3711SOL    HW122766   0.864   1.559   6.364  0.1255 -1.4520 -0.9518
 3711SOL    HW222767   0.799   1.560   6.241  3.5495 -1.6212 -0.6570
 3712SOL     OW22768   3.963   4.129   9.477  0.1174  0.4401 -0.0100
 3712SOL    HW122769   3.944   4.093   9.563 -1.9768  1.5491 -0.0176
 3712SOL    HW222770   3.896   4.101   9.415 -0.4002 -0.2710  0.8921
 3713SOL     OW22771   0.085   3.911   9.585  0.7302  0.2191  0.7468
 3713SOL    HW122772   0.142   3.859   9.528 -1.8054 -0.8147 -0.8560
 3713SOL    HW222773   4.728   3.875   9.574  0.6953  0.9343 -1.4134
 3714SOL     OW22774   3.486   2.818   1.790 -0.0416 -0.5842 -0.1473
 3714SOL    HW122775   3.440   2.744   1.830  0.9241 -0.4824  1.1491
 3714SOL    HW222776   3.437   2.818   1.708 -0.9196 -1.0584  0.3783
 3715SOL     OW22777   1.435   2.561  14.816 -0.1009 -0.5476 -0.3882
 3715SOL    HW122778   1.359   2.503  14.821 -0.8376  0.6162  1.6929
 3715SOL    HW222779   1.406   2.618  14.887 -2.7922 -0.7052 -1.3517
 3716SOL     OW22780   2.803   1.214   2.257 -0.0024  0.7177  0.1081
 3716SOL    HW122781   2.830   1.230   2.166 -0.7260 -0.8244 -0.3888
 3716SOL    HW222782   2.875   1.257   2.302  1.7372 -2.0413 -0.0543
 3717SOL     OW22783   3.885   0.653   6.842  0.2642  0.3515  0.1301
 3717SOL    HW122784   3.961   0.620   6.890 -0.0383  2.6563  2.1969
 3717SOL    HW222785   3.880   0.739   6.885 -1.4398  0.5983 -0.5437
 3718SOL     OW22786   4.680   1.638  10.809 -0.4745 -0.1380  0.2797
 3718SOL    HW122787   4.728   1.681  10.739 -0.3205  0.1871  0.5854
 3718SOL    HW222788   4.685   1.546  10.784  1.3026 -0.6024  2.3485
 3719SOL     OW22789   2.007   3.097   7.963  0.0789 -0.0751  0.0384
 3719SOL    HW122790   1.969   3.145   8.036  2.2318 -0.2883  1.3147
 3719SOL    HW222791   1.957   3.132   7.890 -2.7422 -0.2385  1.9069
 3720SOL     OW22792   2.938   2.716   0.898  0.9301  0.1203 -0.0242
 3720SOL    HW122793   2.864   2.767   0.864 -2.5865 -4.1763  1.2510
 3720SOL    HW222794   2.897   2.630   0.894  0.5781  0.1713  2.6036
 3721SOL     OW22795   1.889   2.199  16.114 -0.4723 -0.4152  0.2817
 3721SOL    HW122796   1.850   2.123  16.157  1.1222 -0.7537  1.1616
 3721SOL    HW222797   1.923   2.250  16.188 -0.9438  0.3860 -0.0571
 3722SOL     OW22798   4.296   3.900   9.000 -0.0486 -0.2776  0.1104
 3722SOL    HW122799   4.297   3.996   9.005 -0.5165 -0.3468  1.3306
 3722SOL    HW222800   4.367   3.891   8.936  0.9890  1.0974  1.0601
 3723SOL     OW22801   4.459   1.347   9.374  0.1653 -0.1609 -0.0263
 3723SOL    HW122802   4.369   1.375   9.392 -0.8972 -3.5082 -0.0418
 3723SOL    HW222803   4.489   1.413   9.312  0.5425 -2.6502 -2.4607
 3724SOL     OW22804   1.326   3.611   3.166 -0.5475  0.2716 -0.0438
 3724SOL    HW122805   1.243   3.595   3.210 -1.2113  0.5616 -1.1998
 3724SOL    HW222806   1.297   3.610   3.075 -0.1302  0.4740 -0.1788
 3725SOL     OW22807   3.728   0.281   2.069  0.1971  0.0530 -0.6466
 3725SOL    HW122808   3.778   0.344   2.019 -1.0865 -0.2566 -2.3301
 3725SOL    HW222809   3.748   0.201   2.020  1.4192 -1.1395  1.8143
 3726SOL     OW22810   3.765   4.020  10.169  0.5727  0.4370 -0.1009
 3726SOL    HW122811   3.757   4.068  10.251 -0.3172 -1.5999  1.0269
 3726SOL    HW222812   3.722   4.078  10.106 -0.3674  1.9967  1.9999
 3727SOL     OW22813   3.087   0.815  13.488  0.0550 -0.6657 -0.2641
 3727SOL    HW122814   3.176   0.848  13.499 -1.1131  2.4241 -0.1053
 3727SOL    HW222815   3.063   0.875  13.418  2.4228 -0.3283 -0.7836
 3728SOL     OW22816   3.313   1.982   9.247  0.1657  0.0592  0.4067
 3728SOL    HW122817   3.244   2.025   9.197 -1.4993 -0.2064  2.5023
 3728SOL    HW222818   3.267   1.964   9.329  0.0293 -0.0559  0.3059
 3729SOL     OW22819   0.363   3.546   4.497 -0.1524 -0.5882 -0.2042
 3729SOL    HW122820   0.317   3.464   4.517 -1.7233  0.2263 -0.4528
 3729SOL    HW222821   0.309   3.618   4.529 -0.8688 -0.8824 -0.7513
 3730SOL     OW22822   0.409   3.650   5.890 -0.3570  0.1214 -0.6564
 3730SOL    HW122823   0.430   3.650   5.797  0.1109  0.6278 -0.5547
 3730SOL    HW222824   0.497   3.680   5.915  0.2724 -0.7846 -1.7338
 3731SOL     OW22825   4.336   2.321   9.949 -1.0945  0.2213 -0.3148
 3731SOL    HW122826   4.297   2.256  10.007 -0.7357 -0.0236 -0.3522
 3731SOL    HW222827   4.382   2.373  10.015  0.0117  1.7477 -2.3002
 3732SOL     OW22828   0.023   1.329  10.752 -0.0171 -0.1225 -0.1157
 3732SOL    HW122829   0.103   1.341  10.803 -1.7120  1.8189  2.0642
 3732SOL    HW222830   4.699   1.278  10.811 -0.4132 -0.3071 -0.6533
 3733SOL     OW22831   4.652   0.977   5.517 -0.1120 -0.6368 -1.1671
 3733SOL    HW122832   4.619   1.041   5.581 -0.1889  0.2730 -2.1187
 3733SOL    HW222833   4.727   1.026   5.485 -1.9435  2.0568 -1.3375
 3734SOL     OW22834   0.698   3.105   7.254  0.0407  0.4714 -0.0403
 3734SOL    HW122835   0.703   3.028   7.198 -1.4859 -0.4915  1.1434
 3734SOL    HW222836   0.616   3.149   7.232  0.2958  0.6378 -0.6530
 3735SOL     OW22837   3.207   1.261  11.067  0.4747 -0.0718 -0.5986
 3735SOL    HW122838   3.239   1.341  11.024  0.2538  0.9628  1.1521
 3735SOL    HW222839   3.125   1.297  11.100  1.6641  3.0619 -0.9816
 3736SOL     OW22840   3.360   2.587   5.283  0.4788  0.2964  0.4478
 3736SOL    HW122841   3.363   2.682   5.300 -0.2922  0.1361  1.4893
 3736SOL    HW222842   3.292   2.579   5.217  0.4641  1.8788  0.2589
 3737SOL     OW22843   0.646   1.170  11.716  0.6644  0.1705  0.4162
 3737SOL    HW122844   0.710   1.104  11.742  0.3308 -0.8951 -1.4560
 3737SOL    HW222845   0.701   1.211  11.649 -1.3316  0.9670 -0.7403
 3738SOL     OW22846   1.331   0.869   2.885 -0.0162 -0.5298  0.0576
 3738SOL    HW122847   1.301   0.854   2.795 -1.2951  1.0817  0.2117
 3738SOL    HW222848   1.333   0.781   2.923  0.6732 -1.0482 -1.1884
 3739SOL     OW22849   1.026   4.433   1.906 -0.0869  0.1364  0.5568
 3739SOL    HW122850   0.982   4.459   1.986 -1.2642  0.3154 -0.1490
 3739SOL    HW222851   1.066   4.349   1.928 -1.3676 -0.9674 -1.3215
 3740SOL     OW22852   4.470   0.520   2.384 -0.8272  0.4224 -0.2820
 3740SOL    HW122853   4.413   0.489   2.454  1.6737 -0.7498  1.2069
 3740SOL    HW222854   4.504   0.604   2.413 -0.7263  1.0314 -2.1134
 3741SOL     OW22855   0.497   0.263   4.911 -0.1107  0.1120  0.0461
 3741SOL    HW122856   0.434   0.262   4.983  0.6370 -0.4805  0.6857
 3741SOL    HW222857   0.445   0.228   4.838 -1.1625  0.0418  0.8226
 3742SOL     OW22858   2.339   3.334   4.157 -0.1728  0.3054 -0.6478
 3742SOL    HW122859   2.402   3.282   4.108  1.6936  1.1009  0.9412
 3742SOL    HW222860   2.253   3.302   4.128  0.3784 -0.7274 -1.1216
 3743SOL     OW22861   2.818   0.857  11.636 -0.0692  0.1505  0.3573
 3743SOL    HW122862   2.808   0.772  11.593  0.9319  0.4302 -0.4129
 3743SOL    HW222863   2.845   0.911  11.562 -1.0203  2.7622  1.9146
 3744SOL     OW22864   1.380   3.702  13.251  0.0913  0.2622  0.2092
 3744SOL    HW122865   1.440   3.736  13.185  0.7544 -0.7747  0.2901
 3744SOL    HW222866   1.348   3.622  13.211 -2.5804  0.2908  2.2570
 3745SOL     OW22867   3.143   3.232   6.754  0.5158  0.2978  0.2604
 3745SOL    HW122868   3.180   3.144   6.755 -3.0817 -1.2438 -0.5369
 3745SOL    HW222869   3.075   3.234   6.821  0.2488 -3.2865  0.0869
 3746SOL     OW22870   4.053   0.971  12.915  0.1770  0.0904  0.5276
 3746SOL    HW122871   4.125   1.032  12.934 -0.4291  0.2989  2.1869
 3746SOL    HW222872   4.023   1.006  12.831  0.1242 -2.8575 -0.6709
 3747SOL     OW22873   0.391   2.688  10.964  0.6142 -0.5063 -0.5430
 3747SOL    HW122874   0.337   2.689  11.043 -0.2167 -0.7861 -1.1170
 3747SOL    HW222875   0.476   2.681  11.009  0.1754  0.8740  0.5077
 3748SOL     OW22876   0.005   0.597   5.475  0.1181 -0.2697 -0.0122
 3748SOL    HW122877   0.006   0.640   5.560  1.3299  1.4769 -0.9207
 3748SOL    HW222878   4.646   0.567   5.472 -0.1370  0.4417  0.6080
 3749SOL     OW22879   2.475   1.930   7.194 -0.2845 -0.7225  0.0634
 3749SOL    HW122880   2.410   1.871   7.233 -0.0529 -1.2638 -0.3675
 3749SOL    HW222881   2.423   2.009   7.210 -0.5259 -0.5679 -1.4437
 3750SOL     OW22882   4.305   0.207   2.097  0.8226  0.3334 -0.2061
 3750SOL    HW122883   4.268   0.144   2.034 -0.9030  0.0845  1.0664
 3750SOL    HW222884   4.373   0.151   2.134 -1.6369 -2.1810  0.5323
 3751SOL     OW22885   1.295   2.203   5.922 -0.6853  0.1930  0.0977
 3751SOL    HW122886   1.272   2.292   5.895  0.9101  0.1698 -1.3419
 3751SOL    HW222887   1.307   2.205   6.017  1.6150  2.0559 -0.2313
 3752SOL     OW22888   3.656   0.527   7.694 -0.4213 -0.1850  0.1675
 3752SOL    HW122889   3.586   0.589   7.718  0.6956  0.0664  2.7424
 3752SOL    HW222890   3.619   0.494   7.611  1.2732  0.3491 -0.7991
 3753SOL     OW22891   2.206   2.017   9.176 -0.3771 -0.0446 -0.3167
 3753SOL    HW122892   2.291   2.016   9.132 -1.3145 -0.0627 -2.1164
 3753SOL    HW222893   2.185   2.109   9.193 -0.9656 -0.2766  0.2275
 3754SOL     OW22894   3.888   3.745  16.327 -0.4077 -0.0711  0.6963
 3754SOL    HW122895   3.822   3.690  16.369 -1.6011  1.3356  0.6649
 3754SOL    HW222896   3.923   3.793  16.403 -2.5767 -0.8097  2.1651
 3755SOL     OW22897   4.193   0.207   9.230  0.6110  0.1340  0.0394
 3755SOL    HW122898   4.158   0.189   9.317  2.0321 -1.8375  0.1867
 3755SOL    HW222899   4.166   0.298   9.216 -0.7474 -0.1459  0.8390
 3756SOL     OW22900   2.392   0.655  12.895  0.2700  0.0033  0.3233
 3756SOL    HW122901   2.447   0.725  12.930 -0.0840  0.5199 -0.1566
 3756SOL    HW222902   2.463   0.592  12.887  0.4552  0.1603  0.7334
 3757SOL     OW22903   2.363   2.129   6.177 -0.4698 -0.2498 -0.1096
 3757SOL    HW122904   2.276   2.100   6.150 -0.3598  0.4405 -1.1904
 3757SOL    HW222905   2.385   2.181   6.100  1.3314  0.3338  0.7689
 3758SOL     OW22906   1.545   3.949   7.971  0.2043 -0.0515  0.0028
 3758SOL    HW122907   1.572   3.859   7.951  0.0479  0.2758 -1.6731
 3758SOL    HW222908   1.624   3.983   8.012  1.9708 -3.5352 -0.5156
 3759SOL     OW22909   4.128   1.141   2.299 -0.4384  0.5243  0.1249
 3759SOL    HW122910   4.219   1.167   2.288  0.3550 -2.2172  0.3447
 3759SOL    HW222911   4.135   1.068   2.360  1.7370  0.6957  0.0751
 3760SOL     OW22912   0.870   4.710   7.485  0.1709 -0.1698 -0.5144
 3760SOL    HW122913   0.791   4.697   7.537  0.3240  1.9699  0.2334
 3760SOL    HW222914   0.837   4.687   7.398 -0.4177 -1.4476  0.0398
 3761SOL     OW22915   2.438   2.553   4.447  0.1555  0.0282  0.4754
 3761SOL    HW122916   2.508   2.532   4.508  3.1609 -1.2208 -3.4342
 3761SOL    HW222917   2.466   2.513   4.365  0.6262  1.0399  0.1428
 3762SOL     OW22918   3.129   4.514   3.268  0.0499  0.4711 -0.5764
 3762SOL    HW122919   3.083   4.430   3.280  0.1405  0.4196 -0.5879
 3762SOL    HW222920   3.220   4.490   3.249  0.4772  1.0352  0.8007
 3763SOL     OW22921   2.560   4.525   7.153  0.1740 -0.2332  0.1367
 3763SOL    HW122922   2.563   4.522   7.249 -0.4340 -0.2296  0.1564
 3763SOL    HW222923   2.642   4.565   7.126  0.3401 -0.1666  0.7392
 3764SOL     OW22924   3.144   3.630   8.606 -0.1677  0.1455  0.0211
 3764SOL    HW122925   3.105   3.571   8.670  0.5522 -1.0543 -0.6465
 3764SOL    HW222926   3.157   3.563   8.538  0.9717 -0.1138  0.5048
 3765SOL     OW22927   1.304   3.885   4.142  0.2221 -0.7826 -0.2505
 3765SOL    HW122928   1.328   3.796   4.168 -0.0302 -1.0408 -0.8870
 3765SOL    HW222929   1.282   3.923   4.227 -0.6584  0.3824 -1.0036
 3766SOL     OW22930   1.603   3.086   5.580 -0.1040 -0.0913  0.0500
 3766SOL    HW122931   1.548   3.017   5.543  0.1227  0.1217 -0.6819
 3766SOL    HW222932   1.615   3.049   5.668 -3.1062  1.4908  1.1353
 3767SOL     OW22933   4.540   2.688   8.353  0.2291 -0.0740  0.1208
 3767SOL    HW122934   4.625   2.643   8.351 -0.0402 -0.5800  0.2310
 3767SOL    HW222935   4.561   2.778   8.380  0.0812 -0.1425  0.4612
 3768SOL     OW22936   2.155   3.608  11.032 -0.1545 -0.1099 -0.1164
 3768SOL    HW122937   2.219   3.677  11.051  1.8739 -1.6780 -1.2041
 3768SOL    HW222938   2.139   3.626  10.939 -0.6826  0.2846  0.0520
 3769SOL     OW22939   1.170   1.440   6.385  0.0347  0.8316 -0.1516
 3769SOL    HW122940   1.251   1.391   6.376 -1.9813 -3.0020  2.3713
 3769SOL    HW222941   1.204   1.506   6.446 -1.5875  1.1743  0.3723
 3770SOL     OW22942   0.511   0.219   3.170 -0.0088  0.2047 -0.3401
 3770SOL    HW122943   0.586   0.215   3.229 -0.8177  1.2264  0.7349
 3770SOL    HW222944   0.525   0.299   3.119 -1.6016 -0.5549 -1.9664
 3771SOL     OW22945   4.708   4.181   6.957 -0.0282  0.0624 -0.2185
 3771SOL    HW122946   0.040   4.252   6.954 -0.8862  0.7655 -1.6616
 3771SOL    HW222947   4.636   4.197   6.896 -1.1584 -2.6985  0.3893
 3772SOL     OW22948   2.751   1.919   8.522 -0.8680 -0.5774  0.2475
 3772SOL    HW122949   2.741   1.888   8.432 -0.7970  0.7067 -0.2095
 3772SOL    HW222950   2.663   1.944   8.548 -1.0879 -2.1608  1.0469
 3773SOL     OW22951   1.992   3.133   0.743 -0.5429  0.2487 -0.2120
 3773SOL    HW122952   1.909   3.149   0.788 -1.2482 -2.0733 -0.6495
 3773SOL    HW222953   1.958   3.103   0.659 -1.0591 -1.1509  0.4803
 3774SOL     OW22954   3.005   2.146   1.618 -0.3737 -0.3617 -0.2400
 3774SOL    HW122955   2.994   2.082   1.548 -0.0668 -1.2799  0.5555
 3774SOL    HW222956   2.918   2.171   1.650 -1.1522 -1.1707 -1.7046
 3775SOL     OW22957   3.744   4.245   8.597 -0.4172  0.7827 -0.5458
 3775SOL    HW122958   3.744   4.329   8.551  0.8835  0.6628 -0.7642
 3775SOL    HW222959   3.666   4.246   8.653  1.1022 -0.5324  1.5769
 3776SOL     OW22960   2.374   2.027   2.131  0.3921  0.2340 -0.2069
 3776SOL    HW122961   2.314   1.960   2.100  0.7187  0.8693 -2.1980
 3776SOL    HW222962   2.421   1.969   2.191 -0.2314 -1.3648 -1.2739
 3777SOL     OW22963   1.709   0.584   3.244 -0.4351 -0.2697  0.0884
 3777SOL    HW122964   1.623   0.579   3.202 -2.0455  1.0033  3.2767
 3777SOL    HW222965   1.730   0.676   3.225  0.3660 -0.3483  0.5858
 3778SOL     OW22966   3.356   0.485   7.704  0.1818  0.2003 -0.1320
 3778SOL    HW122967   3.276   0.515   7.750 -0.7573 -0.8287 -1.1135
 3778SOL    HW222968   3.360   0.547   7.631 -0.5097 -0.0970 -0.4255
 3779SOL     OW22969   4.116   0.865  17.549 -0.1767  0.2104  0.8511
 3779SOL    HW122970   4.028   0.842  17.522  0.1706 -0.0855 -0.0349
 3779SOL    HW222971   4.111   0.873  17.644  2.8500  2.3016  0.8531
 3780SOL     OW22972   1.739   3.154   7.161 -0.0088  0.5351  0.8304
 3780SOL    HW122973   1.685   3.084   7.126  0.6716 -0.2695  1.3898
 3780SOL    HW222974   1.801   3.099   7.209  1.7571  1.0461 -0.8506
 3781SOL     OW22975   2.670   3.650   3.447  0.7608  0.1718 -0.4406
 3781SOL    HW122976   2.697   3.589   3.378  0.6353  0.1317 -0.4538
 3781SOL    HW222977   2.737   3.626   3.511  0.8672 -1.1507 -1.0603
 3782SOL     OW22978   4.118   2.793  15.857  0.9270  0.6860 -0.0201
 3782SOL    HW122979   4.110   2.882  15.822 -0.2880  0.7699  0.4561
 3782SOL    HW222980   4.064   2.736  15.802  2.5839  0.1143 -1.0554
 3783SOL     OW22981   0.981   1.332  15.124  0.8640 -0.2222 -0.4069
 3783SOL    HW122982   1.030   1.250  15.128 -1.0379 -1.3418 -0.3179
 3783SOL    HW222983   1.045   1.392  15.161  0.5468 -0.4579  0.5227
 3784SOL     OW22984   2.645   0.890   4.938  0.4199 -0.5288  0.3015
 3784SOL    HW122985   2.603   0.915   4.855 -0.1661 -2.2156  0.0970
 3784SOL    HW222986   2.738   0.887   4.917  0.6283  1.0659  1.0256
 3785SOL     OW22987   1.397   1.309   6.315 -0.1360 -0.2286 -0.1805
 3785SOL    HW122988   1.474   1.295   6.370 -0.7036 -1.3296  0.3356
 3785SOL    HW222989   1.405   1.240   6.249 -1.3982 -2.3864  1.9045
 3786SOL     OW22990   0.918   1.139   9.399  0.1701  0.3813 -0.1503
 3786SOL    HW122991   0.999   1.141   9.348  1.4195 -0.2589  1.8220
 3786SOL    HW222992   0.881   1.053   9.377  1.9631  0.0022 -1.6722
 3787SOL     OW22993   3.500   3.392  10.022  0.4994 -0.2779 -0.3223
 3787SOL    HW122994   3.419   3.344  10.037 -0.1394  0.9915  0.2116
 3787SOL    HW222995   3.480   3.448   9.947 -0.5521  0.6161  0.6323
 3788SOL     OW22996   2.141   3.882   2.494 -0.2656 -0.3600  0.3396
 3788SOL    HW122997   2.072   3.818   2.512 -1.7072  1.7965  2.5893
 3788SOL    HW222998   2.203   3.824   2.450 -0.1827  0.3007 -0.4150
 3789SOL     OW22999   3.548   3.383  10.985 -0.5915 -0.1895  0.3918
 3789SOL    HW123000   3.623   3.365  10.928 -0.4511 -1.3467  0.9471
 3789SOL    HW223001   3.557   3.479  10.985  0.4694 -0.2891  1.0799
 3790SOL     OW23002   3.209   1.981   9.560 -0.0468 -0.6040  0.5388
 3790SOL    HW123003   3.141   1.958   9.497 -0.2660  1.4575  0.0423
 3790SOL    HW223004   3.163   2.036   9.623 -1.3091 -1.6294  0.5190
 3791SOL     OW23005   2.453   3.594   2.629 -0.2740 -0.2211 -0.0262
 3791SOL    HW123006   2.521   3.581   2.563  0.6592 -0.0263  0.9045
 3791SOL    HW223007   2.459   3.516   2.684 -0.8014 -0.8119 -0.8146
 3792SOL     OW23008   0.198   0.880   6.070  0.2419  0.4662 -0.2673
 3792SOL    HW123009   0.108   0.847   6.073 -0.8596  3.4954  0.3896
 3792SOL    HW223010   0.236   0.823   6.004  2.3754  1.8393 -0.2103
 3793SOL     OW23011   0.680   2.747  11.827 -0.0304  0.1794  0.3750
 3793SOL    HW123012   0.659   2.684  11.897 -0.9830  0.1473  0.0629
 3793SOL    HW223013   0.763   2.784  11.857  1.4523 -3.5644  0.8589
 3794SOL     OW23014   0.288   0.111   4.767  0.5281 -0.6175  0.1818
 3794SOL    HW123015   0.314   0.126   4.676 -0.5865 -0.0716 -0.0429
 3794SOL    HW223016   0.219   0.177   4.769  0.1421 -1.0213  0.2068
 3795SOL     OW23017   1.904   4.401   4.808 -0.6151  0.3644  0.0638
 3795SOL    HW123018   1.973   4.343   4.840 -1.8840 -0.4770  1.2807
 3795SOL    HW223019   1.945   4.431   4.726  0.2367 -0.9595  0.0080
 3796SOL     OW23020   2.968   3.307   5.020  0.0196  0.1172  0.1833
 3796SOL    HW123021   2.915   3.232   4.994  0.1254 -0.2484  1.0334
 3796SOL    HW223022   2.996   3.341   4.935  0.3531  0.5529  0.4638
 3797SOL     OW23023   1.115   1.680  15.462 -0.2288  0.6526  0.1340
 3797SOL    HW123024   1.063   1.603  15.440  1.1327 -1.0870  3.0457
 3797SOL    HW223025   1.153   1.705  15.378  0.9876 -3.0189 -0.3975
 3798SOL     OW23026   1.882   2.034   4.415  0.0313 -0.4771  0.4018
 3798SOL    HW123027   1.810   1.990   4.460 -0.5466 -1.0192 -1.0629
 3798SOL    HW223028   1.947   2.007   4.480  1.9474  1.6670 -0.6339
 3799SOL     OW23029   3.686   1.586   8.523 -0.1131  0.4058  0.5855
 3799SOL    HW123030   3.602   1.542   8.533  0.7266 -1.8093 -1.8445
 3799SOL    HW223031   3.654   1.656   8.467 -1.9393  2.5969  4.4046
 3800SOL     OW23032   2.967   1.618  10.948  0.3049 -0.0524 -0.0865
 3800SOL    HW123033   2.981   1.655  10.861 -1.2871 -1.1231 -0.8026
 3800SOL    HW223034   3.051   1.579  10.971 -0.4958 -0.3212  2.4637
 3801SOL     OW23035   2.884   1.556   3.670  0.7668  0.2193  0.0191
 3801SOL    HW123036   2.793   1.531   3.653  0.7501  0.3248 -0.0463
 3801SOL    HW223037   2.937   1.513   3.603  1.1405 -1.9919  1.7207
 3802SOL     OW23038   0.713   0.170   8.102 -0.1852  0.7107 -1.0992
 3802SOL    HW123039   0.763   0.219   8.167 -1.3346 -0.3884  0.6237
 3802SOL    HW223040   0.644   0.136   8.159 -1.5468 -0.0554 -3.2169
 3803SOL     OW23041   0.125   0.368  14.737  0.3553  0.1047 -0.3510
 3803SOL    HW123042   0.203   0.314  14.721  1.0791  0.0270  3.3885
 3803SOL    HW223043   0.162   0.449  14.773  0.8190 -0.1191 -0.3239
 3804SOL     OW23044   3.544   3.802  17.411  0.5424  0.1383 -0.3869
 3804SOL    HW123045   3.460   3.849  17.405 -0.2567 -1.3739 -1.0091
 3804SOL    HW223046   3.592   3.850  17.479 -1.8713  0.0397  1.3758
 3805SOL     OW23047   4.245   3.874   1.825 -1.1428  0.2680 -0.6825
 3805SOL    HW123048   4.239   3.913   1.912 -1.1066 -3.4662  0.9835
 3805SOL    HW223049   4.254   3.783   1.852  0.2172  0.2213 -1.3042
 3806SOL     OW23050   2.675   0.170   6.770  0.1592  0.7504 -0.4304
 3806SOL    HW123051   2.713   0.218   6.843 -0.1602 -1.2355  1.0429
 3806SOL    HW223052   2.753   0.141   6.722 -0.1048  1.3892 -1.2414
 3807SOL     OW23053   1.579   0.263   7.575 -0.4879  0.0798  0.6301
 3807SOL    HW123054   1.497   0.272   7.625 -0.2362 -1.1553  1.2742
 3807SOL    HW223055   1.637   0.231   7.644 -1.4939 -1.8213  0.6154
 3808SOL     OW23056   1.736   0.776  13.515  0.3469  0.3550 -0.2925
 3808SOL    HW123057   1.688   0.853  13.483 -0.7570  0.7451  2.2991
 3808SOL    HW223058   1.822   0.815  13.534  1.1107 -0.9147 -1.1533
 3809SOL     OW23059   3.913   3.776   5.458  0.1599 -0.1162  0.6809
 3809SOL    HW123060   3.961   3.847   5.501  2.9803 -0.5470 -1.7995
 3809SOL    HW223061   3.819   3.794   5.458  0.3904  1.0596 -0.4725
 3810SOL     OW23062   4.709   1.835   2.593 -0.3370  0.1383 -0.2167
 3810SOL    HW123063   4.646   1.823   2.522  0.3726  2.6570 -1.2804
 3810SOL    HW223064   0.020   1.917   2.566 -1.1923  0.1491 -1.5483
 3811SOL     OW23065   2.690   2.278   8.464 -0.0183  0.2929  0.1795
 3811SOL    HW123066   2.661   2.295   8.554  0.2126 -0.5608  0.4126
 3811SOL    HW223067   2.699   2.368   8.431  2.5770  0.2171  0.6291
 3812SOL     OW23068   1.320   1.794   8.498 -0.1696 -0.3246 -0.2584
 3812SOL    HW123069   1.281   1.713   8.531  0.6010 -0.2942  0.7202
 3812SOL    HW223070   1.361   1.826   8.579  0.3242 -1.0958 -0.2036
 3813SOL     OW23071   3.994   0.325   5.367  0.4616  0.0424  0.2365
 3813SOL    HW123072   3.958   0.239   5.345  0.2139  0.4769 -1.0670
 3813SOL    HW223073   4.000   0.310   5.461 -0.8863 -2.6850 -0.1086
 3814SOL     OW23074   3.818   3.968  10.859  0.5305 -0.6085  0.2058
 3814SOL    HW123075   3.854   3.887  10.894  1.1474 -0.7952 -0.8759
 3814SOL    HW223076   3.801   3.947  10.767  2.5932 -0.5096 -0.1857
 3815SOL     OW23077   1.867   3.782   6.608 -0.0588 -0.4902 -0.0657
 3815SOL    HW123078   1.850   3.800   6.700  2.5603 -0.6484  0.4356
 3815SOL    HW223079   1.954   3.743   6.611 -0.0091 -0.4535 -0.9609
 3816SOL     OW23080   0.393   0.692  13.945 -0.7450  0.5760 -0.1948
 3816SOL    HW123081   0.304   0.727  13.944 -0.6521  0.8580  1.5773
 3816SOL    HW223082   0.382   0.619  14.007  0.5701 -1.5814 -2.4988
 3817SOL     OW23083   3.282   1.454   6.201 -0.1701 -0.3813  0.5505
 3817SOL    HW123084   3.188   1.462   6.215  0.5545  2.6180  3.5538
 3817SOL    HW223085   3.278   1.413   6.114  0.2592 -0.0377  0.3645
 3818SOL     OW23086   0.609   2.681   9.383 -0.2384 -0.4670  0.7454
 3818SOL    HW123087   0.594   2.606   9.441 -0.3880 -0.4654  0.7086
 3818SOL    HW223088   0.701   2.666   9.360  0.7286  2.1216  2.8898
 3819SOL     OW23089   3.189   0.689  16.487  0.4002 -0.0941  0.0305
 3819SOL    HW123090   3.269   0.738  16.502  0.3123  0.0432  0.0446
 3819SOL    HW223091   3.137   0.751  16.436  2.0163 -1.3326 -3.1627
 3820SOL     OW23092   1.905   1.166   6.871 -0.1948 -0.7513 -0.3582
 3820SOL    HW123093   1.880   1.097   6.810  0.5888 -0.2441 -1.2435
 3820SOL    HW223094   1.831   1.188   6.928  0.1279  2.0138 -1.0377
 3821SOL     OW23095   1.705   4.212   5.102 -0.1972  0.0194 -0.0112
 3821SOL    HW123096   1.728   4.291   5.053  0.5774 -1.4118 -1.9561
 3821SOL    HW223097   1.712   4.245   5.192  0.9086  0.3900 -0.2258
 3822SOL     OW23098   2.321   1.758   6.026 -0.1777 -0.3205  0.3561
 3822SOL    HW123099   2.290   1.746   6.116 -2.4788  1.5064 -0.1963
 3822SOL    HW223100   2.297   1.674   5.986 -3.9465  1.3244 -0.7857
 3823SOL     OW23101   3.100   1.125  15.486 -0.3111 -0.1217  0.5953
 3823SOL    HW123102   3.044   1.200  15.502 -1.7277 -0.8315 -0.9649
 3823SOL    HW223103   3.058   1.089  15.407  1.0645  0.7317 -0.5323
 3824SOL     OW23104   4.567   2.675   4.720 -0.7126 -0.2503 -0.3056
 3824SOL    HW123105   4.589   2.710   4.634  0.0613  1.1409  0.4594
 3824SOL    HW223106   4.612   2.738   4.777 -0.6931 -1.3593  0.9209
 3825SOL     OW23107   2.320   1.292  14.316  0.4255  0.4058  0.1278
 3825SOL    HW123108   2.288   1.307  14.227  0.0355 -0.1323  0.1787
 3825SOL    HW223109   2.248   1.337  14.360  0.8476 -0.0058  1.2483
 3826SOL     OW23110   1.795   0.825   6.239  0.7976  0.7780  0.0913
 3826SOL    HW123111   1.881   0.808   6.279 -0.7875  0.9789  3.6032
 3826SOL    HW223112   1.764   0.896   6.295 -0.5814 -0.8113  1.3571
 3827SOL     OW23113   3.876   0.747  13.166  0.3585 -0.2098  0.0220
 3827SOL    HW123114   3.943   0.737  13.233 -0.3330  2.1662  1.0830
 3827SOL    HW223115   3.925   0.727  13.087  0.6360 -2.0403  0.6469
 3828SOL     OW23116   3.898   4.327   7.014  0.1488  0.1148  0.5461
 3828SOL    HW123117   3.898   4.232   7.026 -0.0733  0.1706  1.0230
 3828SOL    HW223118   3.821   4.353   7.065  0.2556  0.4129  0.5506
 3829SOL     OW23119   4.432   2.081   6.855 -0.1469  0.1700 -0.5890
 3829SOL    HW123120   4.432   2.176   6.850  3.2352  0.1435 -0.5941
 3829SOL    HW223121   4.402   2.063   6.945 -1.6456  1.5465 -0.8095
 3830SOL     OW23122   3.444   0.390  10.717 -0.2641  0.1162  0.4199
 3830SOL    HW123123   3.521   0.346  10.681 -1.4305 -3.6852  2.5454
 3830SOL    HW223124   3.382   0.379  10.644 -0.2421 -0.7156  0.5282
 3831SOL     OW23125   4.521   3.276   6.925  0.6908 -0.3595  0.1101
 3831SOL    HW123126   4.585   3.206   6.939 -0.9716 -1.8917  0.0921
 3831SOL    HW223127   4.557   3.346   6.871 -2.8005  0.9547 -0.5467
 3832SOL     OW23128   3.581   2.960   6.041  1.3653 -0.3401 -0.2156
 3832SOL    HW123129   3.574   2.871   6.076  1.4241 -0.5761 -0.8083
 3832SOL    HW223130   3.631   3.009   6.107  0.3505  2.4977 -1.5238
 3833SOL     OW23131   2.232   3.094   8.842  0.4409 -0.1310 -0.2247
 3833SOL    HW123132   2.210   3.066   8.931  0.6780 -0.1146 -0.1608
 3833SOL    HW223133   2.327   3.103   8.839  0.8858 -4.2416  1.8495
 3834SOL     OW23134   4.197   3.444   4.481 -0.2526 -0.1139 -0.4564
 3834SOL    HW123135   4.130   3.439   4.413  1.3088 -0.2661 -2.0097
 3834SOL    HW223136   4.221   3.351   4.478  0.6813  0.1215 -0.2203
 3835SOL     OW23137   0.616   0.074   6.302  0.2433 -0.2495 -0.5272
 3835SOL    HW123138   0.681   0.141   6.322 -2.3006  1.7268  1.0343
 3835SOL    HW223139   0.664   0.042   6.226  1.7903 -0.5020  0.5609
 3836SOL     OW23140   4.539   4.642   9.469  0.3259 -0.1219 -0.1208
 3836SOL    HW123141   4.469   4.670   9.410  0.3878  3.3577  1.4335
 3836SOL    HW223142   4.619   4.667   9.423  0.4603  0.0554  0.2127
 3837SOL     OW23143   4.205   2.811   7.406  0.0074 -0.3510  0.2977
 3837SOL    HW123144   4.177   2.810   7.497  0.2397 -0.0797  0.3727
 3837SOL    HW223145   4.215   2.720   7.379  1.5481  0.4786 -1.9567
 3838SOL     OW23146   0.883   3.170   3.296  0.2266 -0.3526  0.2830
 3838SOL    HW123147   0.949   3.125   3.349  1.2756 -1.5700 -2.0558
 3838SOL    HW223148   0.806   3.114   3.303  0.4798 -0.8004 -0.4831
 3839SOL     OW23149   3.890   3.142   7.604  0.0799 -0.6936  0.6185
 3839SOL    HW123150   3.805   3.101   7.588 -0.2220  0.1244  0.1105
 3839SOL    HW223151   3.910   3.171   7.515 -0.4562  1.8004  1.3036
 3840SOL     OW23152   0.750   1.426  12.397 -0.8718 -0.0290 -0.2224
 3840SOL    HW123153   0.697   1.414  12.475 -0.6249  2.2078  0.2975
 3840SOL    HW223154   0.737   1.343  12.351 -0.3420 -1.1384  1.6334
 3841SOL     OW23155   1.539   1.086   3.237  0.5168 -0.1899  0.5383
 3841SOL    HW123156   1.570   1.124   3.319  1.3555  0.4645 -0.0836
 3841SOL    HW223157   1.594   1.140   3.180 -0.1255 -1.6735 -1.4794
 3842SOL     OW23158   2.134   2.222   4.649  0.3145 -0.0071  0.2630
 3842SOL    HW123159   2.101   2.156   4.589 -0.5152  0.2309  0.4564
 3842SOL    HW223160   2.222   2.223   4.613  0.4829  1.3212  0.6855
 3843SOL     OW23161   1.184   1.788   3.455 -0.6747  0.5426 -0.2876
 3843SOL    HW123162   1.228   1.868   3.427  0.3039  0.0538 -0.1438
 3843SOL    HW223163   1.198   1.733   3.378  1.9001 -1.9104  1.9764
 3844SOL     OW23164   2.244   1.767   4.729 -0.4666 -0.4508  0.1608
 3844SOL    HW123165   2.237   1.684   4.776 -0.2189 -0.2538  0.5469
 3844SOL    HW223166   2.183   1.823   4.776 -0.6292  0.0635 -0.6735
 3845SOL     OW23167   3.727   0.944   2.294  0.2275 -0.1027 -0.0588
 3845SOL    HW123168   3.772   0.864   2.324 -0.6538 -0.7127 -0.3546
 3845SOL    HW223169   3.639   0.929   2.329  0.8013 -0.4272  1.2538
 3846SOL     OW23170   1.753   1.091  14.978 -0.0217  0.7487  0.1120
 3846SOL    HW123171   1.798   1.096  15.062 -0.1317  0.9796  0.1566
 3846SOL    HW223172   1.671   1.049  15.004  1.3678 -1.5144  0.8618
 3847SOL     OW23173   1.851   2.625  10.560  0.2464 -0.0909  0.9694
 3847SOL    HW123174   1.899   2.642  10.641  1.8252  1.0430 -0.2232
 3847SOL    HW223175   1.792   2.553  10.583 -1.1110  0.3297 -1.2522
 3848SOL     OW23176   2.374   2.810  11.115 -0.0697  0.0115 -0.8017
 3848SOL    HW123177   2.413   2.860  11.187  1.7739 -1.5120 -0.7389
 3848SOL    HW223178   2.295   2.862  11.101  0.1879  0.8457  0.8377
 3849SOL     OW23179   1.568   3.950   9.888 -0.8256  0.1675 -0.1529
 3849SOL    HW123180   1.529   3.907   9.964 -0.3080 -0.6448 -0.3473
 3849SOL    HW223181   1.593   4.030   9.933 -2.6382 -0.5505  2.1401
 3850SOL     OW23182   1.869   3.377   0.032  0.1828  0.2129 -0.1648
 3850SOL    HW123183   1.826   3.403  17.675 -0.0330  3.0733  0.8519
 3850SOL    HW223184   1.950   3.428   0.033 -0.6042  1.4883 -2.1044
 3851SOL     OW23185   2.099   1.745   4.002  0.4568  0.4416 -0.6687
 3851SOL    HW123186   2.041   1.763   4.077  0.0684 -1.3888 -0.5066
 3851SOL    HW223187   2.191   1.758   4.023  0.1791  0.8014  0.3417
 3852SOL     OW23188   2.993   3.057   4.247  0.0199  0.5457  0.0813
 3852SOL    HW123189   3.065   3.024   4.300 -0.1699  0.7152  0.4431
 3852SOL    HW223190   3.017   3.148   4.234 -0.1761  0.7686  1.2700
 3853SOL     OW23191   3.639   0.501   5.018  0.4987 -0.4392  0.6000
 3853SOL    HW123192   3.558   0.540   5.050  0.6554  0.9390 -0.7276
 3853SOL    HW223193   3.711   0.536   5.070  1.2195  0.9028 -1.3116
 3854SOL     OW23194   0.202   1.330   3.803  0.5510  0.1499  0.1469
 3854SOL    HW123195   0.257   1.269   3.754 -0.1775 -0.9221  0.6829
 3854SOL    HW223196   0.258   1.408   3.794  0.9740  0.2856  4.1021
 3855SOL     OW23197   0.081   2.208   9.224 -1.1082  0.3221  0.0074
 3855SOL    HW123198   0.128   2.276   9.272  0.5135 -0.7346 -0.0700
 3855SOL    HW223199   0.151   2.143   9.215 -0.2368  1.1753  0.6007
 3856SOL     OW23200   0.418   2.725   1.785  0.0939  0.2976  0.7798
 3856SOL    HW123201   0.473   2.795   1.821  2.4855 -1.1604 -0.0760
 3856SOL    HW223202   0.339   2.715   1.838  0.3786 -0.3236  1.0844
 3857SOL     OW23203   2.954   1.144  17.379  0.1235  0.3291  0.1508
 3857SOL    HW123204   2.996   1.060  17.399  1.3802  0.9293  0.0096
 3857SOL    HW223205   3.000   1.179  17.303  0.6550  0.4722  0.5443
 3858SOL     OW23206   0.801   1.614   4.737 -0.6004 -0.0733 -0.0613
 3858SOL    HW123207   0.817   1.555   4.811 -0.9264 -0.8485 -0.6065
 3858SOL    HW223208   0.709   1.640   4.740 -0.6386 -0.3008  0.8229
 3859SOL     OW23209   0.254   2.713   3.634  0.3144  0.7800 -0.1133
 3859SOL    HW123210   0.290   2.776   3.572  0.3087  0.3279 -0.5827
 3859SOL    HW223211   0.310   2.736   3.707 -1.3226  1.9824  0.7528
 3860SOL     OW23212   4.516   0.872   2.785 -0.2342  0.3273 -0.1681
 3860SOL    HW123213   4.477   0.864   2.871 -2.1602  1.7598 -0.9288
 3860SOL    HW223214   4.574   0.946   2.801  2.0621 -1.3871 -0.4100
 3861SOL     OW23215   2.956   1.328   2.071 -0.2906  0.5332 -0.5892
 3861SOL    HW123216   3.035   1.353   2.024 -0.3280  2.7813  0.5154
 3861SOL    HW223217   2.889   1.367   2.015 -1.3012 -0.7268 -0.2679
 3862SOL     OW23218   1.057   1.470  15.960 -0.2727  0.6628  0.2135
 3862SOL    HW123219   1.151   1.490  15.958 -0.5199  1.8171  0.0690
 3862SOL    HW223220   1.040   1.444  15.870  0.4820 -1.3279  0.6284
 3863SOL     OW23221   4.244   3.965   2.720  0.1437 -0.1682 -0.9665
 3863SOL    HW123222   4.270   3.880   2.684  2.0721  0.6859 -1.5388
 3863SOL    HW223223   4.333   3.998   2.729  0.3867 -0.8546 -0.7858
 3864SOL     OW23224   4.649   4.275   3.773 -0.4966  0.5403  0.5471
 3864SOL    HW123225   4.683   4.359   3.806 -0.7675  0.5513  0.7967
 3864SOL    HW223226   4.724   4.249   3.719 -1.0682 -3.3771  1.6448
 3865SOL     OW23227   0.578   2.800   4.141 -0.9462 -0.2844 -0.4369
 3865SOL    HW123228   0.563   2.877   4.086  0.8398  0.5684  0.2696
 3865SOL    HW223229   0.622   2.840   4.216  1.9592 -2.1514 -1.1649
 3866SOL     OW23230   3.930   1.825   1.467 -0.0150  0.3163 -0.2606
 3866SOL    HW123231   3.860   1.831   1.401 -0.5642  0.8387  0.3549
 3866SOL    HW223232   3.997   1.887   1.438  0.2585 -1.5188 -3.4901
 3867SOL     OW23233   0.519   4.130   9.732  0.1651 -0.4290  0.1365
 3867SOL    HW123234   0.547   4.076   9.658 -0.4994  0.3082 -0.6505
 3867SOL    HW223235   0.525   4.058   9.795 -0.4647  0.5536  1.3066
 3868SOL     OW23236   4.661   0.022  16.752 -0.8904  0.3292 -0.0844
 3868SOL    HW123237   0.001   4.715  16.803 -0.3019 -0.7681 -1.7004
 3868SOL    HW223238   4.661   0.114  16.777  0.6553  0.2383  0.2686
 3869SOL     OW23239   1.897   3.176  10.436  0.1406 -0.1876 -0.1890
 3869SOL    HW123240   1.964   3.108  10.431  0.4644  0.0939  0.4140
 3869SOL    HW223241   1.939   3.243  10.490  1.2304 -0.3776 -0.8070
 3870SOL     OW23242   2.209   2.211   1.824  0.1030 -0.2437 -0.7021
 3870SOL    HW123243   2.128   2.221   1.875  0.5211  2.6272 -0.6390
 3870SOL    HW223244   2.186   2.241   1.736 -2.3460 -2.4678 -0.8384
 3871SOL     OW23245   3.447   1.345   8.429  0.3680  0.1805  0.3973
 3871SOL    HW123246   3.527   1.294   8.442  0.2233  0.7456  3.5624
 3871SOL    HW223247   3.388   1.277   8.396 -0.8971  2.0427 -1.1351
 3872SOL     OW23248   0.504   4.719  14.102 -0.3886 -0.1900 -0.3255
 3872SOL    HW123249   0.497   4.711  14.007 -1.0908  0.3207 -0.3134
 3872SOL    HW223250   0.420   4.684  14.133  0.4822 -0.5166  1.6693
 3873SOL     OW23251   4.378   4.387   2.481  0.4204  0.4831 -0.8038
 3873SOL    HW123252   4.363   4.436   2.562 -1.5601 -1.4160 -0.0092
 3873SOL    HW223253   4.401   4.453   2.416 -2.0034  2.4849  0.3616
 3874SOL     OW23254   4.473   4.443   0.858  0.4077  0.0208  0.1635
 3874SOL    HW123255   4.420   4.375   0.899  0.8279  0.1989  1.0086
 3874SOL    HW223256   4.462   4.416   0.767 -0.4849  1.4594 -0.1505
 3875SOL     OW23257   2.299   3.661   2.415 -0.2367  0.3262 -0.1592
 3875SOL    HW123258   2.346   3.652   2.498 -0.7479 -2.5639 -0.1743
 3875SOL    HW223259   2.263   3.572   2.407  0.9451 -0.0261 -1.6531
 3876SOL     OW23260   1.436   0.694   1.471  0.2829  0.1978 -0.0293
 3876SOL    HW123261   1.373   0.765   1.479 -1.0691 -0.8993 -0.9072
 3876SOL    HW223262   1.444   0.673   1.565  1.9073 -0.1899 -0.2548
 3877SOL     OW23263   4.028   2.582   1.305 -0.4160  0.9426  0.5551
 3877SOL    HW123264   3.995   2.539   1.226  0.0213  0.8973  0.3931
 3877SOL    HW223265   4.004   2.517   1.371 -0.5637  1.0197  0.5764
 3878SOL     OW23266   0.045   2.216   7.417 -0.5877 -0.1691 -0.2897
 3878SOL    HW123267   0.021   2.301   7.379  2.5613  0.1405 -1.6234
 3878SOL    HW223268   0.000   2.161   7.353 -0.1728 -0.6443 -0.1714
 3879SOL     OW23269   3.212   0.794   1.612 -0.3240 -0.5485 -0.0206
 3879SOL    HW123270   3.152   0.815   1.683  2.8358 -0.0242  2.5181
 3879SOL    HW223271   3.287   0.756   1.658  0.0509  0.5397  0.2654
 3880SOL     OW23272   3.700   3.878   4.230  0.8206  0.1124  0.8974
 3880SOL    HW123273   3.633   3.944   4.249 -1.3362 -2.9666  3.9011
 3880SOL    HW223274   3.673   3.798   4.275  0.0375 -0.6854 -1.0150
 3881SOL     OW23275   4.532   1.050   9.760 -0.4846  0.0562 -0.1073
 3881SOL    HW123276   4.534   1.030   9.853 -0.1935  4.5507  0.8728
 3881SOL    HW223277   4.504   1.142   9.757 -1.0907 -0.2042 -2.4670
 3882SOL     OW23278   0.539   3.553  12.299  0.3498  0.5724 -0.1280
 3882SOL    HW123279   0.553   3.635  12.251  1.0958 -0.1826 -1.2058
 3882SOL    HW223280   0.626   3.512  12.299 -0.5902 -1.4093  0.5062
 3883SOL     OW23281   2.235   3.270   0.170  0.3304 -0.0624  0.0012
 3883SOL    HW123282   2.267   3.180   0.179 -0.9157 -0.6811 -1.8850
 3883SOL    HW223283   2.322   3.307   0.153 -0.0408  1.2958  1.0232
 3884SOL     OW23284   0.476   3.455   2.764  0.1315  0.1606 -0.2291
 3884SOL    HW123285   0.388   3.451   2.726 -0.5548  0.3105  1.3634
 3884SOL    HW223286   0.450   3.438   2.854  0.0612 -2.4705 -0.7467
 3885SOL     OW23287   1.836   4.044   3.862  0.1751 -0.0326  0.4212
 3885SOL    HW123288   1.883   4.064   3.943 -0.4324 -0.8033  0.9635
 3885SOL    HW223289   1.747   4.063   3.890  0.4996  1.1136  0.6690
 3886SOL     OW23290   3.409   0.751   1.780 -0.6164 -0.9680 -0.3721
 3886SOL    HW123291   3.457   0.668   1.783  0.6471 -0.1491  1.7305
 3886SOL    HW223292   3.476   0.818   1.766  0.0592 -1.3783  0.9911
 3887SOL     OW23293   3.693   1.631   1.533  0.2082  0.1164  0.1120
 3887SOL    HW123294   3.648   1.565   1.481  1.0288  1.3943 -2.2481
 3887SOL    HW223295   3.725   1.688   1.463 -0.1464  0.0960 -0.0629
 3888SOL     OW23296   3.260   1.524   5.041  0.1579 -0.2783  0.0653
 3888SOL    HW123297   3.251   1.458   5.109  0.0681 -0.6212 -0.2794
 3888SOL    HW223298   3.228   1.602   5.086 -0.1899 -0.0606 -0.5552
 3889SOL     OW23299   1.114   0.501   5.388  0.2969 -0.3326  0.7148
 3889SOL    HW123300   1.038   0.555   5.411  0.0112 -0.7820  0.8259
 3889SOL    HW223301   1.071   0.451   5.319  1.7263 -1.0269  0.3359
 3890SOL     OW23302   3.985   4.596   1.741  0.4022  0.1950  0.2298
 3890SOL    HW123303   3.917   4.531   1.758  0.6805 -0.4115 -0.9300
 3890SOL    HW223304   3.937   4.675   1.765  0.6917  0.4841 -0.1435
 3891SOL     OW23305   3.473   1.065   1.871  0.0412 -0.0966 -0.1162
 3891SOL    HW123306   3.537   1.135   1.872 -0.9888  0.8419 -0.1828
 3891SOL    HW223307   3.521   1.006   1.812  0.5868  3.6086 -3.4271
 3892SOL     OW23308   0.220   0.914   4.706  0.6711  0.3392  1.0709
 3892SOL    HW123309   0.228   0.868   4.790 -1.0048 -0.0591  0.9990
 3892SOL    HW223310   0.170   0.989   4.737  0.8883  2.6319 -4.2321
 3893SOL     OW23311   1.542   2.727  10.740 -0.2582 -0.9140  0.1104
 3893SOL    HW123312   1.455   2.747  10.705  0.2227  0.7193 -0.1779
 3893SOL    HW223313   1.540   2.632  10.743 -0.1309 -0.9095  0.4401
 3894SOL     OW23314   2.226   0.958   5.563 -0.0597 -0.0984  0.7355
 3894SOL    HW123315   2.170   1.006   5.502 -1.3281 -1.7026  0.6551
 3894SOL    HW223316   2.176   0.972   5.644 -1.0019  0.9145 -0.0236
 3895SOL     OW23317   2.175   3.974   6.747 -0.0330 -0.5694 -0.5574
 3895SOL    HW123318   2.121   4.023   6.809 -0.8683 -1.3872 -0.6418
 3895SOL    HW223319   2.171   3.889   6.790  1.6256 -0.2639  0.2271
 3896SOL     OW23320   1.029   3.026   6.184  0.1748  0.1471 -0.0404
 3896SOL    HW123321   0.981   2.961   6.132 -0.1717 -0.9200  1.6258
 3896SOL    HW223322   1.006   2.974   6.261 -0.9571  3.2342  1.7234
 3897SOL     OW23323   4.537   3.558   0.181 -0.2661 -0.1460  0.0899
 3897SOL    HW123324   4.523   3.497   0.253 -0.6519  1.0563  1.0191
 3897SOL    HW223325   4.613   3.604   0.216  0.9523 -2.3759  0.4235
 3898SOL     OW23326   0.970   3.078  14.615  0.6777 -0.0642  0.3073
 3898SOL    HW123327   1.004   3.132  14.543  1.1383  0.3431  0.8248
 3898SOL    HW223328   0.893   3.132  14.633  0.0605 -0.9415  0.2809
 3899SOL     OW23329   3.503   1.347  15.605  0.1166 -0.4100 -0.1980
 3899SOL    HW123330   3.479   1.281  15.541  0.6335 -1.7341  0.9817
 3899SOL    HW223331   3.573   1.300  15.650  0.5661 -0.3278 -0.8120
 3900SOL     OW23332   2.669   1.485   1.076  0.3636 -0.5701  0.0665
 3900SOL    HW123333   2.586   1.500   1.121  1.8925  4.6135  1.1758
 3900SOL    HW223334   2.650   1.433   0.998 -1.5369 -0.2031  0.2894
 3901SOL     OW23335   3.950   3.026   3.686 -0.3038  0.1184 -0.4699
 3901SOL    HW123336   4.025   3.058   3.635 -0.4016  0.1822 -0.5757
 3901SOL    HW223337   3.907   3.111   3.701 -2.0755 -1.1619  1.6009
 3902SOL     OW23338   0.636   2.366   6.201  0.3225  0.1473  0.0098
 3902SOL    HW123339   0.711   2.370   6.142 -0.2066 -2.7804 -0.8519
 3902SOL    HW223340   0.610   2.458   6.201  0.3456  0.1742  3.2064
 3903SOL     OW23341   2.172   4.633   0.281 -0.4150 -0.8448 -0.3049
 3903SOL    HW123342   2.238   4.641   0.212  0.8651  1.9130  1.2220
 3903SOL    HW223343   2.219   4.587   0.349 -1.1250 -1.0666  0.0344
 3904SOL     OW23344   2.467   0.452   3.588  0.0890 -0.3480 -0.3548
 3904SOL    HW123345   2.404   0.396   3.633  0.8255 -2.8202 -2.4158
 3904SOL    HW223346   2.423   0.529   3.554  1.6116  0.8266  0.2926
 3905SOL     OW23347   1.165   2.410  16.594 -0.1039 -0.0735 -0.1797
 3905SOL    HW123348   1.240   2.443  16.546 -0.6770  1.0538 -0.3015
 3905SOL    HW223349   1.105   2.483  16.575 -0.2966 -0.0442  0.5214
 3906SOL     OW23350   3.730   4.241   1.619 -0.1048 -0.0099 -0.0028
 3906SOL    HW123351   3.657   4.197   1.574  0.3119 -1.5956  0.8588
 3906SOL    HW223352   3.780   4.266   1.541 -1.0311  0.0690 -0.5708
 3907SOL     OW23353   0.446   1.732   5.344 -0.3107  0.1549 -0.4157
 3907SOL    HW123354   0.406   1.700   5.425  0.7378 -2.3057 -0.8675
 3907SOL    HW223355   0.398   1.815   5.338  0.9167  0.6866 -2.6955
 3908SOL     OW23356   0.881   2.705  10.780 -0.9543  0.3381  0.0198
 3908SOL    HW123357   0.824   2.666  10.713 -0.1677 -2.3241  0.9116
 3908SOL    HW223358   0.957   2.649  10.768  0.0895  1.5375  1.0032
 3909SOL     OW23359   3.505   3.522   5.286 -0.0099 -0.0585 -0.2601
 3909SOL    HW123360   3.466   3.594   5.337 -3.4854 -2.0139 -0.1713
 3909SOL    HW223361   3.532   3.474   5.364 -0.7194  2.3403  1.4909
 3910SOL     OW23362   1.270   2.785  15.243  0.1615 -0.0955  0.5162
 3910SOL    HW123363   1.194   2.747  15.285  0.7525 -0.6813  1.0472
 3910SOL    HW223364   1.236   2.831  15.166 -1.5022 -0.0747  1.2667
 3911SOL     OW23365   0.625   4.151  17.303  0.2299  0.3942 -0.0289
 3911SOL    HW123366   0.629   4.121  17.394  2.2743 -2.2032 -0.9854
 3911SOL    HW223367   0.549   4.209  17.308  0.8748  1.5117 -3.5577
 3912SOL     OW23368   1.412   3.584   9.658 -0.1272  0.1248 -0.1544
 3912SOL    HW123369   1.392   3.522   9.728  0.4028 -1.8446 -1.7457
 3912SOL    HW223370   1.338   3.643   9.650  0.4115  0.8590  0.2831
 3913SOL     OW23371   1.830   2.877   7.903 -0.1803  0.3195  0.0822
 3913SOL    HW123372   1.893   2.806   7.919 -2.3912 -1.4256  1.0308
 3913SOL    HW223373   1.888   2.943   7.940 -0.6324  1.9388 -2.1121
 3914SOL     OW23374   4.138   4.213   0.574  0.2226  0.6310 -0.5393
 3914SOL    HW123375   4.155   4.293   0.623  1.8367 -0.3207  0.4489
 3914SOL    HW223376   4.228   4.191   0.552  0.7825  2.6198 -0.1686
 3915SOL     OW23377   0.421   1.483   7.159  0.2887 -0.2547 -0.4910
 3915SOL    HW123378   0.424   1.449   7.248 -1.9184 -2.0642 -1.1241
 3915SOL    HW223379   0.507   1.484   7.116  0.2329  1.6451 -0.5430
 3916SOL     OW23380   3.336   3.165  10.122 -0.2374 -0.3372  0.2809
 3916SOL    HW123381   3.388   3.095  10.163 -0.1656 -0.0621  0.6615
 3916SOL    HW223382   3.354   3.147  10.030  1.4272 -2.2122  0.9739
 3917SOL     OW23383   2.478   4.729   3.763  0.2949 -0.1127 -0.1028
 3917SOL    HW123384   2.499   4.688   3.847  1.0014  0.4963  0.0182
 3917SOL    HW223385   2.394   0.036   3.785  1.3690  0.8284  2.3458
 3918SOL     OW23386   0.684   3.134   7.516  0.5369  0.2136  0.3431
 3918SOL    HW123387   0.661   3.212   7.565 -2.9818 -0.6613  0.0876
 3918SOL    HW223388   0.712   3.163   7.429 -0.5578 -0.8304 -0.3691
 3919SOL     OW23389   4.114   0.841   3.445 -0.3021  0.8546 -0.6575
 3919SOL    HW123390   4.123   0.847   3.540  0.7832  0.3409 -0.7343
 3919SOL    HW223391   4.087   0.749   3.440 -0.5438  0.8322  0.8992
 3920SOL     OW23392   2.829   2.915   3.727 -0.3605 -0.4080 -0.7498
 3920SOL    HW123393   2.920   2.918   3.757 -1.4051 -0.5083  2.4393
 3920SOL    HW223394   2.791   2.850   3.786  0.1204 -1.6655 -1.8181
 3921SOL     OW23395   1.671   2.534   8.294  0.5851 -0.2456 -0.1038
 3921SOL    HW123396   1.598   2.507   8.350 -0.2843 -1.3289 -1.7484
 3921SOL    HW223397   1.621   2.587   8.231  0.2692  1.7573  1.8620
 3922SOL     OW23398   0.247   0.114  10.229  0.4919 -0.4962 -0.4265
 3922SOL    HW123399   0.296   0.090  10.308  0.4772 -2.5590 -1.0343
 3922SOL    HW223400   0.259   0.208  10.218  2.7907 -0.8101 -0.6443
 3923SOL     OW23401   0.555   1.720   6.221  0.2331  1.1619 -0.4611
 3923SOL    HW123402   0.489   1.704   6.288  1.8710  0.3173  0.9179
 3923SOL    HW223403   0.577   1.639   6.176 -0.1960  1.2329 -0.7972
 3924SOL     OW23404   1.893   3.897   3.603 -0.5648 -0.1218 -0.6205
 3924SOL    HW123405   1.985   3.885   3.628 -1.5758 -2.6736  1.9899
 3924SOL    HW223406   1.867   3.964   3.666 -1.9085  0.2203 -1.5316
 3925SOL     OW23407   4.558   4.626   1.864 -0.1688  0.1555 -0.1290
 3925SOL    HW123408   4.591   4.566   1.797 -1.1460  1.6586 -1.9345
 3925SOL    HW223409   4.539   4.695   1.801  1.0718 -0.5805 -1.3293
 3926SOL     OW23410   2.363   2.133   8.923  0.2279  0.4716 -0.1452
 3926SOL    HW123411   2.429   2.187   8.880 -1.1636  0.8730 -1.8210
 3926SOL    HW223412   2.302   2.110   8.852  1.2624 -1.2133 -0.4977
 3927SOL     OW23413   0.278   2.353   6.756 -0.2605  0.1052  0.6142
 3927SOL    HW123414   0.366   2.323   6.778 -0.0260  0.3535  0.0213
 3927SOL    HW223415   0.295   2.447   6.751  1.1955 -0.2567 -1.2415
 3928SOL     OW23416   0.568   4.197   6.437  0.0987 -0.5922 -0.2828
 3928SOL    HW123417   0.642   4.174   6.493  1.4495  1.4608 -1.2187
 3928SOL    HW223418   0.557   4.117   6.387 -1.2078  1.9051 -4.0304
 3929SOL     OW23419   4.630   2.528   7.076  0.0432 -0.2264  0.2736
 3929SOL    HW123420   4.647   2.623   7.074 -1.0970 -0.0212  0.2025
 3929SOL    HW223421   4.701   2.490   7.025 -0.4118  4.0459 -3.5746
 3930SOL     OW23422   2.672   1.842   7.378 -0.6798 -0.0089  0.4417
 3930SOL    HW123423   2.740   1.907   7.394  1.1269 -1.5529 -0.8005
 3930SOL    HW223424   2.610   1.886   7.321 -0.5363  1.3578  1.3521
 3931SOL     OW23425   4.349   3.879   5.482  0.5645  0.3335 -0.0674
 3931SOL    HW123426   4.370   3.797   5.439  1.7412  2.2449 -3.1251
 3931SOL    HW223427   4.357   3.941   5.410 -2.2534 -2.0151 -2.3536
 3932SOL     OW23428   2.649   1.233   6.469  1.0721  0.3720  0.3559
 3932SOL    HW123429   2.688   1.290   6.403 -0.1726  0.8785  0.0476
 3932SOL    HW223430   2.699   1.259   6.546  4.0149 -3.5423 -0.2278
 3933SOL     OW23431   2.586   4.564  16.785  0.3076  1.1059  0.0543
 3933SOL    HW123432   2.557   4.621  16.714 -2.1196  0.9474  0.9240
 3933SOL    HW223433   2.513   4.507  16.807 -0.1386  1.0872 -1.4659
 3934SOL     OW23434   3.366   4.138   6.186 -0.2390 -0.6101 -0.0443
 3934SOL    HW123435   3.341   4.058   6.140  0.9072  0.6813 -2.9263
 3934SOL    HW223436   3.316   4.209   6.146  0.7075 -2.0872 -3.8458
 3935SOL     OW23437   2.070   1.495   4.828 -0.5365  0.3602  0.1628
 3935SOL    HW123438   2.001   1.524   4.888 -1.2319 -0.8793 -0.0498
 3935SOL    HW223439   2.026   1.424   4.783 -0.6691 -0.2420  1.2427
 3936SOL     OW23440   4.493   4.178   7.933  0.2464 -0.4205 -0.3799
 3936SOL    HW123441   4.450   4.244   7.878 -0.4239 -0.2298  0.3639
 3936SOL    HW223442   4.464   4.093   7.897 -1.5641  1.5694 -3.6702
 3937SOL     OW23443   4.383   4.597   3.515 -0.4220  0.5741 -0.4753
 3937SOL    HW123444   4.448   4.667   3.506  0.2896 -0.2608 -1.6863
 3937SOL    HW223445   4.316   4.621   3.451 -1.3509  1.1899  0.7219
 3938SOL     OW23446   0.530   3.024   4.510 -0.0711  0.2453  0.1080
 3938SOL    HW123447   0.435   3.012   4.509 -0.1357  0.6888  0.6707
 3938SOL    HW223448   0.552   3.081   4.584 -1.6792 -2.6969  2.9054
 3939SOL     OW23449   2.742   2.971   4.267 -0.8682  0.2465  0.0849
 3939SOL    HW123450   2.829   3.011   4.269  0.2195 -2.0486 -0.3748
 3939SOL    HW223451   2.690   3.045   4.296  0.9525  2.0579 -1.2095
 3940SOL     OW23452   0.814   0.209   6.456  0.4482  0.2204 -0.2947
 3940SOL    HW123453   0.835   0.192   6.548  0.9644  2.1371 -0.0785
 3940SOL    HW223454   0.888   0.267   6.443  1.8609 -1.6110 -0.3664
 3941SOL     OW23455   2.496   3.975   6.130 -0.4700  0.2216 -0.1710
 3941SOL    HW123456   2.468   3.884   6.116 -0.1577  0.3449 -1.5306
 3941SOL    HW223457   2.552   3.957   6.206 -1.3755  2.2631  0.9964
 3942SOL     OW23458   1.927   2.877  14.074  0.2135  0.0008 -0.6035
 3942SOL    HW123459   1.915   2.790  14.113  0.2434  0.8578  1.3610
 3942SOL    HW223460   1.942   2.931  14.152 -0.1216 -0.7305 -0.0329
 3943SOL     OW23461   2.524   3.572  11.752  0.0831  0.2697 -0.6411
 3943SOL    HW123462   2.466   3.551  11.679  0.3582  1.2358 -1.1391
 3943SOL    HW223463   2.456   3.584  11.818 -0.0055  0.8129 -0.8309
 3944SOL     OW23464   0.982   3.125  13.121  0.3693  0.3052 -0.3736
 3944SOL    HW123465   0.916   3.058  13.140 -0.5076  1.3413  0.2693
 3944SOL    HW223466   1.064   3.080  13.101  0.4874 -0.2566  1.4108
 3945SOL     OW23467   3.601   3.057   1.430 -0.4626 -0.0710 -0.3748
 3945SOL    HW123468   3.584   3.145   1.397  4.1259  1.3334  0.9316
 3945SOL    HW223469   3.696   3.066   1.441 -0.1615 -2.9983 -0.6174
 3946SOL     OW23470   0.729   3.956   9.026  0.2713 -0.1931  0.3378
 3946SOL    HW123471   0.788   3.894   9.069  0.0855 -1.4640 -1.2395
 3946SOL    HW223472   0.648   3.943   9.075  0.4006 -1.7750  0.1202
 3947SOL     OW23473   1.420   2.596  11.833  0.1208  0.1150 -0.2199
 3947SOL    HW123474   1.496   2.558  11.876 -0.5001 -2.3421 -1.3195
 3947SOL    HW223475   1.350   2.542  11.870 -0.6419  0.8958 -0.4995
 3948SOL     OW23476   3.530   2.382   9.105 -0.6158  0.1315 -0.0085
 3948SOL    HW123477   3.581   2.456   9.138  0.4443 -1.4235  1.8144
 3948SOL    HW223478   3.598   2.315   9.099 -1.2961 -0.7699  2.2607
 3949SOL     OW23479   2.805   4.142  13.381  0.3494  0.0335 -0.0722
 3949SOL    HW123480   2.880   4.084  13.374 -0.0513 -0.7664  2.1300
 3949SOL    HW223481   2.815   4.161  13.475 -0.8553 -1.0132  0.2659
 3950SOL     OW23482   1.404   1.396   3.083 -0.5289 -0.3225  0.1046
 3950SOL    HW123483   1.369   1.314   3.048 -1.0148 -0.2958  0.5381
 3950SOL    HW223484   1.498   1.379   3.090 -0.4110  1.3029  2.3625
 3951SOL     OW23485   0.376   4.306   7.662 -0.5448  0.3140 -0.1410
 3951SOL    HW123486   0.428   4.265   7.731 -0.6242 -1.8039 -1.3458
 3951SOL    HW223487   0.360   4.226   7.613 -3.6802 -1.1680  3.2693
 3952SOL     OW23488   2.053   3.673   8.068 -0.1771 -0.6764 -0.0284
 3952SOL    HW123489   2.110   3.744   8.040  0.0835  0.4920  3.4584
 3952SOL    HW223490   2.012   3.657   7.983 -1.9423  1.0088  0.5028
 3953SOL     OW23491   3.424   3.733   7.700 -0.2930  0.1397  0.2526
 3953SOL    HW123492   3.398   3.820   7.731 -0.9336  0.0321  0.0167
 3953SOL    HW223493   3.338   3.690   7.698 -0.7548  1.0160  0.9828
 3954SOL     OW23494   1.886   2.241   2.197 -0.2017  0.1177 -0.0286
 3954SOL    HW123495   1.947   2.219   2.268 -0.1422  0.3903  0.0028
 3954SOL    HW223496   1.910   2.186   2.122  0.5085  0.0384  0.2538
 3955SOL     OW23497   2.904   4.594   7.327  0.4359 -0.1557 -0.4038
 3955SOL    HW123498   2.815   4.599   7.361  0.8240 -0.5555  0.6761
 3955SOL    HW223499   2.933   4.678   7.363  0.1437 -0.9299  1.5882
 3956SOL     OW23500   4.475   2.703  12.812 -0.2599  0.0307  0.1610
 3956SOL    HW123501   4.458   2.770  12.879 -1.6748  1.2909 -1.4794
 3956SOL    HW223502   4.469   2.742  12.725  0.7804  0.5971  0.3450
 3957SOL     OW23503   2.874   2.779  16.011  0.2812  0.1502 -0.0846
 3957SOL    HW123504   2.876   2.854  15.951  0.6386 -1.3505 -1.9386
 3957SOL    HW223505   2.885   2.710  15.946  2.3919 -1.0907  1.6088
 3958SOL     OW23506   0.771   1.109   5.733  0.3953 -0.7526  0.0091
 3958SOL    HW123507   0.743   1.027   5.774 -1.2005  0.5862  1.5984
 3958SOL    HW223508   0.853   1.074   5.698  1.6131  1.4104  0.7435
 3959SOL     OW23509   0.707   1.189   7.680 -0.4693 -0.5499  0.1435
 3959SOL    HW123510   0.787   1.141   7.702  0.7557  1.8078  0.7343
 3959SOL    HW223511   0.743   1.274   7.705  1.3337 -0.6711 -1.9920
 3960SOL     OW23512   2.249   2.684   8.553 -0.0985  0.0556 -0.4104
 3960SOL    HW123513   2.321   2.666   8.493  0.0937 -0.8538  0.0954
 3960SOL    HW223514   2.259   2.627   8.629  2.3474  0.6373 -0.2887
 3961SOL     OW23515   3.562   2.150   8.887  0.3095  0.4617 -0.3548
 3961SOL    HW123516   3.572   2.231   8.837 -3.3587  0.3327 -1.2988
 3961SOL    HW223517   3.626   2.160   8.958 -0.2369  2.0157 -0.0829
 3962SOL     OW23518   3.321   3.789   4.064 -0.2636  0.3231 -0.1120
 3962SOL    HW123519   3.242   3.780   4.118 -1.5383  0.9827 -1.8762
 3962SOL    HW223520   3.332   3.884   4.073 -2.3855  0.3465  2.5357
 3963SOL     OW23521   4.469   3.465  17.666  0.3396 -0.7827  0.0376
 3963SOL    HW123522   4.494   3.515   0.018 -2.5091  2.6679 -1.2857
 3963SOL    HW223523   4.417   3.528  17.615  0.0961 -0.1750  1.0380
 3964SOL     OW23524   2.923   4.354  17.136  0.1124 -0.2947  0.2153
 3964SOL    HW123525   2.846   4.412  17.133 -0.3122 -0.9475 -1.0900
 3964SOL    HW223526   2.990   4.400  17.086 -1.4212  1.1525 -0.5159
 3965SOL     OW23527   3.570   2.487   2.766 -0.2769 -0.0288  0.2078
 3965SOL    HW123528   3.494   2.513   2.817  0.6533  1.5187  0.7970
 3965SOL    HW223529   3.597   2.577   2.745 -1.7247  0.5958  1.0631
 3966SOL     OW23530   3.588   0.347   5.418 -0.4477 -0.3292  0.3142
 3966SOL    HW123531   3.656   0.356   5.351 -1.2161 -0.4296 -0.4831
 3966SOL    HW223532   3.534   0.426   5.407  2.4544  1.5554 -0.5482
 3967SOL     OW23533   2.325   2.794  13.241  0.1949 -0.1809  0.3087
 3967SOL    HW123534   2.231   2.785  13.224  0.1102 -1.2061  1.3212
 3967SOL    HW223535   2.368   2.721  13.196 -1.7638  0.5880 -2.8520
 3968SOL     OW23536   1.129   2.856   9.568  0.0055  0.1104 -0.4316
 3968SOL    HW123537   1.095   2.848   9.479  1.3296  2.5961 -1.1814
 3968SOL    HW223538   1.089   2.938   9.597 -2.1105 -1.6285  1.5956
 3969SOL     OW23539   0.617   1.602   8.964  0.0692  0.3302 -0.2095
 3969SOL    HW123540   0.642   1.633   8.877 -0.6233 -1.5260 -1.0757
 3969SOL    HW223541   0.563   1.528   8.935 -1.3018  1.0357  0.5463
 3970SOL     OW23542   0.218   4.256   4.671  0.0662 -0.5616  0.3877
 3970SOL    HW123543   0.261   4.187   4.621  1.2920 -0.7944  1.7698
 3970SOL    HW223544   0.267   4.249   4.753 -0.3690  2.5487  0.9181
 3971SOL     OW23545   1.754   1.422   1.784 -0.4091  0.1843 -0.8260
 3971SOL    HW123546   1.845   1.418   1.813 -0.6433  0.7483 -0.0033
 3971SOL    HW223547   1.758   1.349   1.722  0.9511 -0.9977  0.6850
 3972SOL     OW23548   0.878   2.851   6.037 -0.4456  0.0908  0.1622
 3972SOL    HW123549   0.796   2.895   6.062 -0.9570  0.0195 -1.3828
 3972SOL    HW223550   0.871   2.775   6.094  0.2037  0.4063  0.6550
 3973SOL     OW23551   4.159   0.331   8.964  0.2221 -0.5695  0.6596
 3973SOL    HW123552   4.229   0.365   8.909 -0.7486 -1.4118 -1.0884
 3973SOL    HW223553   4.098   0.297   8.899  1.2346 -0.8184 -0.1534
 3974SOL     OW23554   0.197   3.231  17.413  0.1648  0.1143  0.5037
 3974SOL    HW123555   0.181   3.138  17.402 -1.2935  0.3615  0.5146
 3974SOL    HW223556   0.129   3.254  17.477 -0.4551  0.5926 -0.3283
 3975SOL     OW23557   3.131   1.787   2.360  0.4274  0.1591 -0.1637
 3975SOL    HW123558   3.041   1.769   2.387  0.5826 -0.4381 -0.0553
 3975SOL    HW223559   3.148   1.701   2.321  0.9663 -0.1477  0.7414
 3976SOL     OW23560   1.652   3.663  12.215  0.1581  0.0273  0.1176
 3976SOL    HW123561   1.644   3.633  12.124 -2.3517  2.4789 -0.4550
 3976SOL    HW223562   1.561   3.668  12.244 -0.4235  0.6809 -1.8731
 3977SOL     OW23563   1.409   0.327   8.956  0.4365 -0.7162 -0.6555
 3977SOL    HW123564   1.355   0.255   8.989 -0.9310  1.4326  1.8335
 3977SOL    HW223565   1.492   0.314   9.002 -0.9172 -0.9184  1.7658
 3978SOL     OW23566   0.428   3.704   5.608  0.1448  0.2218 -0.3196
 3978SOL    HW123567   0.436   3.799   5.602  0.4009  0.2943  0.9882
 3978SOL    HW223568   0.469   3.673   5.528  1.0901  0.5651  0.0308
 3979SOL     OW23569   0.935   0.681   6.560 -0.3285 -0.9761  0.5038
 3979SOL    HW123570   0.990   0.603   6.558 -0.7895 -1.2590 -1.3069
 3979SOL    HW223571   0.994   0.737   6.610  1.5560 -0.1364 -2.6196
 3980SOL     OW23572   2.521   3.068   2.753  0.1226  0.1853  1.1315
 3980SOL    HW123573   2.466   3.025   2.687 -0.5536 -0.7786  2.3441
 3980SOL    HW223574   2.460   3.090   2.822 -0.7389 -3.0149  1.3817
 3981SOL     OW23575   3.640   4.488   4.024 -0.1525 -0.5638 -0.1824
 3981SOL    HW123576   3.635   4.455   3.934 -1.0730  2.4924 -1.2350
 3981SOL    HW223577   3.549   4.481   4.054  0.5338  0.2487  2.0850
 3982SOL     OW23578   3.483   1.626   8.749  0.5282  0.5179 -0.1451
 3982SOL    HW123579   3.523   1.561   8.806  2.1860  1.0063 -0.7348
 3982SOL    HW223580   3.410   1.655   8.804  1.2213  0.4420  0.8220
 3983SOL     OW23581   1.303   1.047   8.308 -0.2030  0.0901  0.0722
 3983SOL    HW123582   1.305   0.958   8.344 -1.8475 -0.6939 -1.7803
 3983SOL    HW223583   1.358   1.024   8.234  0.6694 -0.9290  1.0271
 3984SOL     OW23584   3.561   4.153   6.433 -0.4159 -0.3613 -0.3237
 3984SOL    HW123585   3.476   4.149   6.390 -0.2712  0.7898 -0.7009
 3984SOL    HW223586   3.574   4.231   6.486  1.0553  0.7314 -2.2918
 3985SOL     OW23587   3.226   1.568  10.702  0.2377  0.5812  0.1532
 3985SOL    HW123588   3.288   1.584  10.632 -0.7546 -0.8249 -1.0448
 3985SOL    HW223589   3.169   1.503  10.660 -2.2901  1.0785  2.7422
 3986SOL     OW23590   0.132   1.448   7.692  0.9812  0.3434 -0.2696
 3986SOL    HW123591   0.109   1.356   7.681 -0.3299  0.7235 -0.7387
 3986SOL    HW223592   0.067   1.489   7.749  0.2962  0.2738 -1.0131
 3987SOL     OW23593   2.475   4.299   4.070 -0.5663  0.1494 -0.0902
 3987SOL    HW123594   2.447   4.247   3.994 -1.2212  2.7936 -1.6567
 3987SOL    HW223595   2.555   4.259   4.105  0.4338  1.6648 -0.6713
 3988SOL     OW23596   2.042   0.239   4.703 -0.0705 -0.6446  0.6139
 3988SOL    HW123597   1.951   0.263   4.718 -0.7911 -1.5135 -2.4884
 3988SOL    HW223598   2.043   0.156   4.751  2.4747 -1.2720 -0.5142
 3989SOL     OW23599   1.724   1.612   9.572 -0.0654 -0.5269 -0.4136
 3989SOL    HW123600   1.751   1.686   9.626  2.0079 -1.8272  0.3574
 3989SOL    HW223601   1.803   1.613   9.518  0.9714  1.3845  1.1018
 3990SOL     OW23602   4.643   2.945   6.744 -0.5687  0.1995 -0.5053
 3990SOL    HW123603   4.670   2.983   6.828 -1.0755 -0.1910 -0.1640
 3990SOL    HW223604   4.549   2.940   6.761  0.2294 -2.2821  3.4189
 3991SOL     OW23605   1.622   3.517   9.975 -0.7880 -0.4949  0.3136
 3991SOL    HW123606   1.647   3.452  10.040 -1.2901 -0.9079  0.0986
 3991SOL    HW223607   1.597   3.460   9.902  0.1723 -0.6279  0.0893
 3992SOL     OW23608   0.807   1.683  15.737 -0.1581 -0.2372  0.3124
 3992SOL    HW123609   0.836   1.756  15.683 -0.3969  0.1367  0.6835
 3992SOL    HW223610   0.878   1.618  15.733 -1.5628 -1.7176 -0.4395
 3993SOL     OW23611   0.689   2.864  12.178  0.0837 -0.7098  0.6903
 3993SOL    HW123612   0.757   2.884  12.114 -1.9677 -0.5174 -1.4077
 3993SOL    HW223613   0.662   2.778  12.145 -1.2063 -0.3189  0.7552
 3994SOL     OW23614   1.690   4.557   3.512  0.2358  0.1540 -0.0559
 3994SOL    HW123615   1.675   4.496   3.585  1.7443  0.5778  0.6010
 3994SOL    HW223616   1.602   4.593   3.505  0.6199  1.0322 -0.2970
 3995SOL     OW23617   2.857   3.827   5.872  0.0460  0.0348  0.1225
 3995SOL    HW123618   2.930   3.766   5.886 -0.8028 -0.8646  0.5941
 3995SOL    HW223619   2.789   3.770   5.908 -0.7739  1.6826  1.1331
 3996SOL     OW23620   4.665   1.784   9.345  0.5331 -0.0949  0.5745
 3996SOL    HW123621   4.685   1.838   9.268 -2.6686 -1.3193 -1.1147
 3996SOL    HW223622   0.000   1.815   9.406 -0.3771  0.9927  1.0165
 3997SOL     OW23623   2.502   0.823   4.484  0.8000 -0.5255  0.5364
 3997SOL    HW123624   2.420   0.773   4.482  1.8438 -2.2435  0.5267
 3997SOL    HW223625   2.476   0.892   4.423 -1.6589 -1.3034  0.6767
 3998SOL     OW23626   1.381   3.532   2.116  0.3898  0.4241  0.5426
 3998SOL    HW123627   1.313   3.465   2.106 -0.4439  1.3560 -0.0784
 3998SOL    HW223628   1.329   3.609   2.094  0.8430 -0.1689 -2.5803
 3999SOL     OW23629   1.033   3.822   4.269 -0.2856 -0.0155  0.5290
 3999SOL    HW123630   1.074   3.889   4.324 -2.0902  2.3170 -0.9462
 3999SOL    HW223631   1.094   3.749   4.267 -0.4675 -0.1097 -1.2942
 4000SOL     OW23632   1.974   2.371  10.611  0.1169  0.5205  1.0657
 4000SOL    HW123633   1.881   2.390  10.599 -0.1472 -0.5909  1.3729
 4000SOL    HW223634   2.001   2.440  10.672 -0.3781  1.0184  0.7237
 4001SOL     OW23635   2.190   4.110   4.001  0.3191 -0.2905  0.0948
 4001SOL    HW123636   2.121   4.045   3.987  0.5505 -0.2028 -1.5608
 4001SOL    HW223637   2.134   4.187   4.009  0.5009 -0.1102 -0.3565
 4002SOL     OW23638   1.453   4.036   2.351  0.3891 -0.3279 -0.2584
 4002SOL    HW123639   1.475   4.018   2.259  0.7777  2.5343 -0.7150
 4002SOL    HW223640   1.505   3.969   2.396 -0.1718  0.7717  1.9882
 4003SOL     OW23641   4.445   4.558  10.760  0.4201  0.2662  0.3513
 4003SOL    HW123642   4.524   4.511  10.735 -0.9318 -1.3894 -0.8064
 4003SOL    HW223643   4.449   4.537  10.853 -1.4643  1.2962  0.6604
 4004SOL     OW23644   2.405   1.317   8.520  0.3011  0.2271  0.2607
 4004SOL    HW123645   2.450   1.316   8.436 -3.8762 -3.4638 -1.8889
 4004SOL    HW223646   2.350   1.395   8.517  0.5014  0.4690  2.4163
 4005SOL     OW23647   3.418   2.044   6.989  0.2614 -0.4270 -0.1788
 4005SOL    HW123648   3.481   2.069   7.058  0.7551  0.0749 -0.8098
 4005SOL    HW223649   3.403   1.951   7.003  0.0908 -0.3348  0.2635
 4006SOL     OW23650   1.209   3.117   9.294  0.2022 -0.5291  0.4724
 4006SOL    HW123651   1.127   3.154   9.259  0.5428 -1.1859 -0.9926
 4006SOL    HW223652   1.209   3.036   9.243  0.7094 -2.0158  2.8111
 4007SOL     OW23653   2.972   3.843   3.533  0.1872 -0.5310  0.2589
 4007SOL    HW123654   3.066   3.862   3.532 -0.7077  4.0828  0.7383
 4007SOL    HW223655   2.964   3.755   3.497  1.8251 -1.1568  1.4423
 4008SOL     OW23656   2.321   1.397   9.858 -0.7171 -0.4532  0.5215
 4008SOL    HW123657   2.323   1.462   9.928  0.1866  0.6884 -0.5518
 4008SOL    HW223658   2.333   1.315   9.907  2.3186 -0.7667 -0.7323
 4009SOL     OW23659   3.780   2.143  15.071  0.5005 -0.0908 -0.5575
 4009SOL    HW123660   3.837   2.197  15.016 -1.3078  3.5895  1.1480
 4009SOL    HW223661   3.743   2.088  15.002  0.7783  1.6737 -2.0950
 4010SOL     OW23662   1.977   2.473   4.622 -0.1504  0.1958 -0.1680
 4010SOL    HW123663   1.914   2.435   4.561 -0.4409  0.9998 -0.3779
 4010SOL    HW223664   2.037   2.402   4.642 -0.9802 -0.5439 -0.2911
 4011SOL     OW23665   1.672   4.455   7.746  0.1892 -0.1949 -0.3216
 4011SOL    HW123666   1.667   4.466   7.841  0.2373  0.3217 -0.3773
 4011SOL    HW223667   1.747   4.398   7.734 -0.0285 -0.8139  1.2756
 4012SOL     OW23668   0.700   4.154  12.644  0.0996 -0.0786  0.1906
 4012SOL    HW123669   0.698   4.121  12.734 -0.6665  1.5550  0.7707
 4012SOL    HW223670   0.715   4.071  12.600 -0.7336 -0.6506  0.9659
 4013SOL     OW23671   4.088   1.073   7.317 -0.3185 -0.0249 -0.4924
 4013SOL    HW123672   4.169   1.040   7.357 -0.7797  0.9197  1.1910
 4013SOL    HW223673   4.064   0.994   7.269  1.1546 -0.4236 -0.5964
 4014SOL     OW23674   3.450   2.105   1.474  0.0371  0.1151 -0.0304
 4014SOL    HW123675   3.500   2.187   1.479  1.6776 -0.9825  1.2818
 4014SOL    HW223676   3.415   2.109   1.385  1.8064  0.8852 -0.6941
 4015SOL     OW23677   3.070   2.394  12.681  0.7327  0.3910  0.2250
 4015SOL    HW123678   3.057   2.374  12.774 -1.5622 -0.0870 -0.2158
 4015SOL    HW223679   3.146   2.452  12.678  0.2302  1.1691  2.1500
 4016SOL     OW23680   0.113   2.809  12.699 -0.6633  0.4173 -0.0388
 4016SOL    HW123681   0.175   2.757  12.648 -0.7977  0.2045  0.0132
 4016SOL    HW223682   0.126   2.895  12.659  0.1975  0.6671  0.7841
 4017SOL     OW23683   2.130   1.318   7.498 -0.4261  0.5337  0.7201
 4017SOL    HW123684   2.217   1.355   7.483 -0.6398  1.1652  1.0467
 4017SOL    HW223685   2.072   1.352   7.429  0.4149 -0.8621 -0.6672
 4018SOL     OW23686   0.436   2.812  16.011 -0.1339 -0.0743 -0.4272
 4018SOL    HW123687   0.505   2.810  15.945 -0.0616 -1.7079 -0.3201
 4018SOL    HW223688   0.375   2.882  15.992 -0.6440 -0.1799  0.7950
 4019SOL     OW23689   1.613   0.674   6.355  1.1092  0.2422  0.6256
 4019SOL    HW123690   1.658   0.739   6.301  1.3749  0.7227  1.4285
 4019SOL    HW223691   1.648   0.600   6.306 -2.0434 -0.5621 -0.4619
 4020SOL     OW23692   1.628   1.312   6.450 -0.1161 -0.2426  0.2205
 4020SOL    HW123693   1.698   1.377   6.445 -0.1916 -0.1468  0.4500
 4020SOL    HW223694   1.612   1.291   6.542  2.2168 -1.0347  0.4462
 4021SOL     OW23695   1.555   4.052   8.284 -0.7762 -0.2209 -0.1652
 4021SOL    HW123696   1.513   4.116   8.227 -0.5260  0.1638  0.0834
 4021SOL    HW223697   1.488   4.053   8.352 -1.8522  2.0023 -1.2665
 4022SOL     OW23698   2.795   1.460  15.049  0.4674 -0.3624 -0.5282
 4022SOL    HW123699   2.834   1.383  15.089 -2.4543 -0.6403  1.7989
 4022SOL    HW223700   2.854   1.531  15.073  0.2391 -0.8525  1.4379
 4023SOL     OW23701   3.590   3.125  10.397 -0.5079 -0.7097  0.0482
 4023SOL    HW123702   3.517   3.076  10.358 -0.3917 -0.1677 -0.8510
 4023SOL    HW223703   3.636   3.173  10.328 -1.5384 -1.3176 -1.0657
 4024SOL     OW23704   3.950   3.979   8.077  0.3807 -0.1603 -0.2411
 4024SOL    HW123705   4.034   4.021   8.057  0.3507 -0.2046 -0.4620
 4024SOL    HW223706   3.924   3.950   7.990  0.7997 -0.8230 -0.1442
 4025SOL     OW23707   4.464   1.839   4.736  0.9649  0.3153 -0.0669
 4025SOL    HW123708   4.479   1.934   4.731 -0.7921  0.5865 -0.1621
 4025SOL    HW223709   4.372   1.823   4.717  0.8711 -0.0133  0.6552
 4026SOL     OW23710   1.236   3.076   2.715  0.7724  0.3095 -0.0341
 4026SOL    HW123711   1.327   3.082   2.685  1.0971  0.6370  1.0332
 4026SOL    HW223712   1.214   2.983   2.708  0.2782  0.3604  0.7927
 4027SOL     OW23713   3.330   2.039   3.872  0.0011  0.1482 -0.9210
 4027SOL    HW123714   3.316   2.095   3.795 -1.5208 -1.5279 -1.8802
 4027SOL    HW223715   3.246   1.994   3.885  0.2711 -0.2003 -0.3759
 4028SOL     OW23716   3.510   1.853   3.111 -0.2340  0.9276 -0.1525
 4028SOL    HW123717   3.444   1.882   3.174 -0.3539  0.4653 -0.0677
 4028SOL    HW223718   3.456   1.825   3.037 -1.3308 -0.3591  1.1438
 4029SOL     OW23719   3.491   1.407  13.244 -1.1536 -0.1215  0.2122
 4029SOL    HW123720   3.494   1.503  13.240  0.3106 -0.1018  1.6729
 4029SOL    HW223721   3.475   1.380  13.154 -0.4276  0.4507 -0.0917
 4030SOL     OW23722   2.693   3.257   6.451  0.2602  0.5989 -0.1026
 4030SOL    HW123723   2.768   3.313   6.469  0.6929 -0.0258  0.0468
 4030SOL    HW223724   2.641   3.283   6.527  1.0465  0.2041  0.5670
 4031SOL     OW23725   2.540   1.643  17.267 -0.0659 -0.3417  1.2852
 4031SOL    HW123726   2.548   1.555  17.303 -3.1581 -1.5934 -1.0921
 4031SOL    HW223727   2.519   1.628  17.175 -1.3574  1.9426  1.1817
 4032SOL     OW23728   2.605   1.494   8.249  0.2769  1.0984 -0.1870
 4032SOL    HW123729   2.689   1.470   8.212 -0.9296 -0.8515 -1.6225
 4032SOL    HW223730   2.567   1.524   8.166  0.1458  1.9299  0.1696
 4033SOL     OW23731   2.406   2.040   5.561 -0.4310 -0.2641 -0.0373
 4033SOL    HW123732   2.338   2.107   5.552 -0.4872 -0.1358  1.3524
 4033SOL    HW223733   2.399   2.019   5.654  0.6844 -0.3557  0.0243
 4034SOL     OW23734   2.233   2.080   3.830 -0.0968 -0.7341  0.6189
 4034SOL    HW123735   2.161   2.050   3.886  0.9107 -1.8678  1.3177
 4034SOL    HW223736   2.236   2.172   3.857  0.5177 -0.6227  0.1848
 4035SOL     OW23737   0.514   0.477  10.546 -0.1588 -0.8826  0.2362
 4035SOL    HW123738   0.458   0.554  10.558  1.5713  0.3938  0.0335
 4035SOL    HW223739   0.586   0.523  10.502  0.7610 -0.9025  1.7256
 4036SOL     OW23740   0.714   0.863   0.724 -0.0584 -0.1357 -0.4343
 4036SOL    HW123741   0.722   0.787   0.667 -0.7190 -0.7932  0.3540
 4036SOL    HW223742   0.627   0.846   0.759 -0.5959  0.1396 -1.6722
 4037SOL     OW23743   1.695   2.496  14.760  0.2740 -0.4440  0.1956
 4037SOL    HW123744   1.722   2.580  14.721 -1.6500 -0.1610 -0.5553
 4037SOL    HW223745   1.608   2.507  14.799  0.8767  0.8322  1.1979
 4038SOL     OW23746   3.778   3.858  15.270  0.0185 -0.2781  0.2689
 4038SOL    HW123747   3.697   3.841  15.318  0.2161  1.2834  1.1523
 4038SOL    HW223748   3.802   3.767  15.248  0.9393  0.4767 -1.9081
 4039SOL     OW23749   0.896   2.884   5.074  0.0987  0.3872  0.0570
 4039SOL    HW123750   0.868   2.913   4.987 -0.6477 -0.9986 -0.1672
 4039SOL    HW223751   0.809   2.849   5.095  0.5295  0.5675  2.2020
 4040SOL     OW23752   3.266   0.016   3.113  0.0949 -0.2576 -0.0662
 4040SOL    HW123753   3.179   0.028   3.151  1.1775 -0.2575  2.3782
 4040SOL    HW223754   3.306   4.688   3.177  0.0617 -0.8920 -0.6362
 4041SOL     OW23755   2.589   4.367   5.470  0.1795  0.0908 -0.0313
 4041SOL    HW123756   2.496   4.360   5.449 -0.7203  0.8808  3.6517
 4041SOL    HW223757   2.586   4.398   5.561  1.4719  1.2358 -0.3772
 4042SOL     OW23758   0.803   4.663   9.740  0.2199 -0.3090 -0.0778
 4042SOL    HW123759   0.763   4.585   9.779 -0.3535  0.6474  1.2335
 4042SOL    HW223760   0.780   4.660   9.647 -0.2515 -0.0057  0.0319
 4043SOL     OW23761   0.171   4.164   2.968  0.0984 -0.4647 -0.0963
 4043SOL    HW123762   0.175   4.238   3.028  0.9979  0.4955 -1.3636
 4043SOL    HW223763   0.255   4.123   2.988  0.0242  0.0355  1.2989
 4044SOL     OW23764   1.404   1.999   1.237 -0.4104 -0.1302 -0.1617
 4044SOL    HW123765   1.378   2.083   1.274  0.9588  0.4299 -0.4491
 4044SOL    HW223766   1.382   1.951   1.317  0.1646  0.7618  0.5220
 4045SOL     OW23767   3.309   0.309   8.150 -0.3645  0.4008  0.6130
 4045SOL    HW123768   3.219   0.286   8.172 -1.0878 -0.1508 -2.8795
 4045SOL    HW223769   3.279   0.380   8.094 -0.0032 -0.1279 -0.2553
 4046SOL     OW23770   3.989   0.537   0.250  0.0417  0.3241  0.3357
 4046SOL    HW123771   3.997   0.539   0.155  2.3218  1.3828  0.5638
 4046SOL    HW223772   3.977   0.444   0.273 -0.3779  0.1210 -0.7392
 4047SOL     OW23773   3.502   3.379   7.869 -0.2100 -0.0487  0.2396
 4047SOL    HW123774   3.425   3.337   7.831 -0.6645  1.3445 -0.4077
 4047SOL    HW223775   3.550   3.393   7.788 -0.0740  0.0070  0.3293
 4048SOL     OW23776   1.742   3.466   4.178  0.7074 -0.9344 -0.0900
 4048SOL    HW123777   1.701   3.393   4.131  0.4291  0.1340 -1.5224
 4048SOL    HW223778   1.824   3.461   4.128  1.3923 -0.3206  0.9695
 4049SOL     OW23779   2.905   3.890   4.977 -0.4754 -0.0206 -0.7012
 4049SOL    HW123780   2.842   3.867   4.909 -0.8183 -0.7181 -0.1502
 4049SOL    HW223781   2.894   3.985   4.974 -0.2249  0.1444  3.0615
 4050SOL     OW23782   3.260   2.277   4.610  0.1465 -0.3462  0.0224
 4050SOL    HW123783   3.275   2.247   4.699 -2.2285 -1.4449  0.0467
 4050SOL    HW223784   3.186   2.224   4.581 -0.5121  2.2455 -2.9769
 4051SOL     OW23785   3.039   3.435  11.478  0.1628  0.0672  0.0010
 4051SOL    HW123786   3.087   3.438  11.395 -0.3621  2.4854 -0.2251
 4051SOL    HW223787   2.959   3.391  11.450 -0.7995 -0.1420  3.1064
 4052SOL     OW23788   2.460   1.945   1.386  0.4533 -0.3168 -0.0969
 4052SOL    HW123789   2.393   1.936   1.454  0.0578  0.9669 -0.3014
 4052SOL    HW223790   2.500   1.860   1.399  3.1046  1.2209  1.8690
 4053SOL     OW23791   0.757   0.996  11.385 -0.0923 -0.2785  0.3727
 4053SOL    HW123792   0.711   0.956  11.460 -0.0867 -0.0702  0.4864
 4053SOL    HW223793   0.723   1.085  11.388  1.3257  0.1863  2.0698
 4054SOL     OW23794   1.724   1.903  17.364  0.0356  0.9101  0.2999
 4054SOL    HW123795   1.765   1.912  17.278 -1.4937  5.4269  0.0879
 4054SOL    HW223796   1.648   1.849  17.344  1.0283 -0.4070  0.0120
 4055SOL     OW23797   3.528   1.565   9.626  0.1230  0.1935  0.8436
 4055SOL    HW123798   3.615   1.602   9.610  0.5816 -1.6897 -1.0673
 4055SOL    HW223799   3.478   1.601   9.553  0.5481 -1.0289 -0.0671
 4056SOL     OW23800   1.690   3.524   8.949 -0.1082 -0.7019 -0.3066
 4056SOL    HW123801   1.628   3.596   8.941 -1.1154 -1.7098 -1.6468
 4056SOL    HW223802   1.762   3.557   9.004 -0.5627  0.6329 -0.5139
 4057SOL     OW23803   3.649   1.790   6.182 -0.2386  0.2291 -0.6292
 4057SOL    HW123804   3.583   1.761   6.245 -2.9324  2.3375 -2.5096
 4057SOL    HW223805   3.623   1.876   6.151  1.2705  0.3900 -1.4193
 4058SOL     OW23806   1.841   0.729   3.762  0.4074 -0.0429  0.5552
 4058SOL    HW123807   1.842   0.794   3.831 -0.4172  2.0490 -1.4072
 4058SOL    HW223808   1.824   0.776   3.680 -3.1468  2.4048  2.7503
 4059SOL     OW23809   2.095   1.553   6.823 -0.4048 -0.2014 -0.3805
 4059SOL    HW123810   2.091   1.649   6.824 -1.5584 -0.2851  2.3464
 4059SOL    HW223811   2.150   1.531   6.747  1.4403 -3.2928  1.8658
 4060SOL     OW23812   4.178   2.387   2.752  0.5737 -0.3084 -0.1025
 4060SOL    HW123813   4.184   2.297   2.719  1.2214 -0.2626 -0.1020
 4060SOL    HW223814   4.087   2.407   2.729 -0.0424  0.5598  3.0965
 4061SOL     OW23815   3.100   4.137   5.330 -0.2056 -0.2434  0.2924
 4061SOL    HW123816   3.075   4.196   5.401 -2.7101 -0.9988  0.0357
 4061SOL    HW223817   3.193   4.158   5.326  0.0340 -1.6696 -1.6114
 4062SOL     OW23818   3.966   0.255   8.345 -0.4967 -0.4609  0.1133
 4062SOL    HW123819   3.914   0.218   8.274  0.8770 -2.8989  0.3779
 4062SOL    HW223820   4.051   0.256   8.302 -1.0629 -1.6234 -1.0326
 4063SOL     OW23821   0.128   2.886  16.477  0.2954 -0.1718  0.2043
 4063SOL    HW123822   0.203   2.834  16.504  0.4540 -0.2400 -0.3744
 4063SOL    HW223823   0.155   2.892  16.386 -1.7820  1.3243 -0.3173
 4064SOL     OW23824   2.990   1.244  14.060  0.1731 -0.6162  0.1920
 4064SOL    HW123825   2.941   1.326  14.055 -0.5853 -1.1745 -1.7891
 4064SOL    HW223826   3.073   1.277  14.024 -0.2751 -0.2983 -0.5560
 4065SOL     OW23827   0.794   4.017   3.630 -0.1075 -0.3094  0.4252
 4065SOL    HW123828   0.754   3.973   3.705 -3.0713 -0.2838 -1.1600
 4065SOL    HW223829   0.886   4.010   3.655 -0.2402 -0.4958  0.8671
 4066SOL     OW23830   0.353   0.522   5.219 -0.2647  0.2121  0.0484
 4066SOL    HW123831   0.434   0.571   5.234 -0.5570  0.9045 -0.6235
 4066SOL    HW223832   0.311   0.531   5.304  0.1526 -1.7645  0.4608
 4067SOL     OW23833   2.127   0.991   4.399  0.2361 -0.2965 -0.2906
 4067SOL    HW123834   2.113   0.931   4.473  1.4165 -3.6131 -2.7581
 4067SOL    HW223835   2.088   1.073   4.430  0.7018  0.5774 -2.0272
 4068SOL     OW23836   1.515   3.664  13.963 -0.2095 -1.0236 -0.4660
 4068SOL    HW123837   1.520   3.672  14.059  0.8454 -1.1094 -0.5170
 4068SOL    HW223838   1.578   3.593  13.949  1.8523  0.3565  1.7596
 4069SOL     OW23839   1.577   1.883   5.713 -0.2131  0.1493 -0.9003
 4069SOL    HW123840   1.523   1.920   5.782  0.5395  0.5935 -0.5512
 4069SOL    HW223841   1.666   1.897   5.746 -1.0042  0.3057  1.1627
 4070SOL     OW23842   1.181   3.598  10.021 -0.1118  0.1017  0.2567
 4070SOL    HW123843   1.171   3.514  10.067  0.6953  0.6478  1.4248
 4070SOL    HW223844   1.252   3.578   9.960  0.3026  0.3696  0.6493
 4071SOL     OW23845   1.402   4.537   4.722  0.4796 -0.1322 -0.7870
 4071SOL    HW123846   1.425   4.620   4.764 -2.0352  0.3775 -0.4650
 4071SOL    HW223847   1.340   4.573   4.659 -0.0334 -1.0494 -0.8103
 4072SOL     OW23848   0.831   0.208   8.642  0.1188 -0.3762  0.4499
 4072SOL    HW123849   0.741   0.240   8.642 -0.4415 -1.8945 -0.1141
 4072SOL    HW223850   0.806   0.115   8.635  2.0696 -1.0011  1.7707
 4073SOL     OW23851   1.366   1.294   3.520 -0.3822  0.0264  0.0130
 4073SOL    HW123852   1.306   1.262   3.453 -2.6637  1.6001  1.2939
 4073SOL    HW223853   1.308   1.275   3.594  0.3951  1.4714  0.9851
 4074SOL     OW23854   0.321   1.172   3.611 -0.1352  0.0365 -0.0112
 4074SOL    HW123855   0.385   1.103   3.593  1.2392  1.3638 -0.1954
 4074SOL    HW223856   0.306   1.208   3.524 -0.9807 -0.5643 -0.1228
 4075SOL     OW23857   2.443   0.337   3.142 -0.3132  0.2276 -0.1945
 4075SOL    HW123858   2.537   0.331   3.124 -0.3461  1.3291 -0.7577
 4075SOL    HW223859   2.440   0.293   3.226  0.0923 -0.1625 -0.3834
 4076SOL     OW23860   0.797   1.814   3.895  0.0742 -0.0328 -0.4232
 4076SOL    HW123861   0.816   1.762   3.973  0.1591 -0.2208 -0.5722
 4076SOL    HW223862   0.873   1.792   3.841  0.2759 -3.3774  1.2208
 4077SOL     OW23863   2.157   1.227   6.753 -0.4385  0.0383 -0.3116
 4077SOL    HW123864   2.071   1.191   6.776 -0.8154  0.3033 -1.3217
 4077SOL    HW223865   2.152   1.317   6.786 -2.5927  0.0930 -0.7458
 4078SOL     OW23866   2.837   2.347   4.852  0.6917  0.0363  0.3577
 4078SOL    HW123867   2.813   2.333   4.943 -1.8175 -0.6673 -0.3829
 4078SOL    HW223868   2.767   2.291   4.816 -0.0226  0.6731  0.7426
 4079SOL     OW23869   2.168   3.608   6.560 -0.1970  0.3618  0.1013
 4079SOL    HW123870   2.167   3.665   6.637 -0.6109 -1.6991  1.6158
 4079SOL    HW223871   2.159   3.525   6.606  0.4457 -0.0790 -0.5652
 4080SOL     OW23872   3.799   2.592   6.212 -0.0161  0.0037  0.4271
 4080SOL    HW123873   3.868   2.651   6.240  0.5550  0.0594 -1.0723
 4080SOL    HW223874   3.851   2.534   6.156  0.6427 -0.3066  1.3632
 4081SOL     OW23875   3.412   1.509  13.834  0.3072 -0.2509 -0.2904
 4081SOL    HW123876   3.433   1.423  13.799  1.2731  0.5679 -1.7146
 4081SOL    HW223877   3.357   1.548  13.766  0.5450  0.7315  0.0819
 4082SOL     OW23878   4.129   0.714  11.399  0.1155  0.5323 -0.2436
 4082SOL    HW123879   4.079   0.680  11.324 -0.9719  0.0367  0.7183
 4082SOL    HW223880   4.205   0.656  11.399 -0.6375 -0.4580 -1.7645
 4083SOL     OW23881   0.561   2.449  14.404 -0.4089  0.5507  0.4755
 4083SOL    HW123882   0.608   2.390  14.346 -1.3987 -1.1504  1.4068
 4083SOL    HW223883   0.549   2.398  14.484  0.8621 -0.7161 -0.1552
 4084SOL     OW23884   2.063   2.920   9.493  0.1185 -0.1920  0.6494
 4084SOL    HW123885   2.069   3.012   9.515 -0.7216 -0.1864  0.8758
 4084SOL    HW223886   2.052   2.877   9.578  0.4245  1.4852  1.5327
 4085SOL     OW23887   3.841   2.755  16.580  1.0237  0.0045  0.2378
 4085SOL    HW123888   3.786   2.731  16.655  1.9184 -2.4933  0.0986
 4085SOL    HW223889   3.883   2.670  16.566 -0.0601 -0.7039  1.2612
 4086SOL     OW23890   0.422   0.728  16.798  0.4108 -0.7554  0.3326
 4086SOL    HW123891   0.463   0.659  16.850  2.1778  0.9020  1.0845
 4086SOL    HW223892   0.344   0.764  16.840 -0.4753 -3.2956  0.8667
 4087SOL     OW23893   4.506   0.975   8.960  0.4486 -0.0144  0.1138
 4087SOL    HW123894   4.598   0.990   8.980  0.5779  0.9137 -1.1827
 4087SOL    HW223895   4.467   1.058   8.930 -0.0883  0.4681  2.1479
 4088SOL     OW23896   1.000   0.424   8.703  0.4745  0.9221 -0.1242
 4088SOL    HW123897   1.017   0.405   8.795  2.9678 -1.0845 -1.0081
 4088SOL    HW223898   0.955   0.344   8.675  1.1286  0.4685  0.1445
 4089SOL     OW23899   1.206   0.257   5.676 -0.5494  0.0768 -0.3269
 4089SOL    HW123900   1.263   0.210   5.738 -2.2901 -0.9665  0.4685
 4089SOL    HW223901   1.263   0.333   5.661 -2.3334  1.2231 -1.2578
 4090SOL     OW23902   1.424   0.514   9.684 -0.1083  0.1360  0.1070
 4090SOL    HW123903   1.516   0.512   9.709 -0.2452 -0.7893  0.5323
 4090SOL    HW223904   1.423   0.427   9.644 -1.4331 -0.1064  0.6511
 4091SOL     OW23905   1.517   1.577   7.892  0.6207  0.3898  0.0563
 4091SOL    HW123906   1.573   1.641   7.850  1.4478 -0.0403  0.5054
 4091SOL    HW223907   1.581   1.506   7.898  1.5756  1.2176 -0.4458
 4092SOL     OW23908   0.053   4.092   2.717 -0.4883  0.2606  0.2296
 4092SOL    HW123909   0.103   4.116   2.639  2.0918 -1.8690  1.2002
 4092SOL    HW223910   0.104   4.131   2.788  0.8727 -0.2837 -0.4277
 4093SOL     OW23911   3.452   3.867   8.124 -0.3003  0.5103  0.3569
 4093SOL    HW123912   3.369   3.839   8.161  0.8382 -0.0844  2.4535
 4093SOL    HW223913   3.502   3.877   8.205  0.7379  1.4776 -0.4047
 4094SOL     OW23914   4.521   0.539   6.656 -0.0951 -0.5578  0.4167
 4094SOL    HW123915   4.438   0.492   6.653 -1.7112  2.3368 -1.0654
 4094SOL    HW223916   4.524   0.596   6.733  3.4240 -0.1175 -0.0464
 4095SOL     OW23917   3.462   3.032   7.054  0.5370  0.7866  0.5960
 4095SOL    HW123918   3.447   3.077   6.971 -0.8455 -1.2395 -0.2581
 4095SOL    HW223919   3.558   3.039   7.059  0.5436  0.2762  1.0811
 4096SOL     OW23920   1.768   0.449   4.467  0.7906 -0.7167 -0.0605
 4096SOL    HW123921   1.736   0.448   4.376  2.1113 -0.7037 -0.5321
 4096SOL    HW223922   1.858   0.470   4.443 -0.6600  1.6290 -3.4852
 4097SOL     OW23923   2.946   1.859   2.959  0.1141 -0.1691  0.2768
 4097SOL    HW123924   2.993   1.792   3.008 -1.3547 -1.5539 -0.2108
 4097SOL    HW223925   3.001   1.859   2.881 -1.6322  2.1093 -0.9693
 4098SOL     OW23926   3.503   3.832   2.091 -0.1311 -0.2718  0.8857
 4098SOL    HW123927   3.427   3.881   2.123 -1.3214 -1.1261 -0.6548
 4098SOL    HW223928   3.571   3.878   2.141 -1.0069  0.2114  1.6354
 4099SOL     OW23929   4.407   2.819   8.680  0.4093  0.1311 -0.0133
 4099SOL    HW123930   4.352   2.797   8.756  1.0188  1.3755  0.7947
 4099SOL    HW223931   4.474   2.751   8.682  2.3450  2.1231  2.0975
 4100SOL     OW23932   0.969   2.442   5.521  0.0332  0.1418  0.3899
 4100SOL    HW123933   1.062   2.430   5.541 -0.3243 -1.9653  0.6891
 4100SOL    HW223934   0.984   2.527   5.478  0.4049  0.1281  0.4916
 4101SOL     OW23935   3.013   0.041  14.649  0.4429  0.4687 -0.1314
 4101SOL    HW123936   2.959   0.000  14.581 -0.9139 -0.9518  1.8210
 4101SOL    HW223937   2.955   0.110  14.682  0.5080  0.7447 -0.5851
 4102SOL     OW23938   2.554   4.546  11.137  0.0905  0.1580 -0.2155
 4102SOL    HW123939   2.614   4.483  11.177 -0.6288 -0.7389 -0.5358
 4102SOL    HW223940   2.556   4.621  11.195 -0.1850 -0.2358  0.3007
 4103SOL     OW23941   2.951   4.715   8.989 -0.5592 -0.3118 -0.7627
 4103SOL    HW123942   2.938   0.049   8.920 -0.6051 -0.6310 -1.0568
 4103SOL    HW223943   3.010   0.027   9.051 -0.2474 -1.8087 -0.0168
 4104SOL     OW23944   3.459   2.473   9.542 -0.2670  0.1375  0.5677
 4104SOL    HW123945   3.443   2.386   9.505  1.3538  0.4054 -0.7303
 4104SOL    HW223946   3.406   2.473   9.622  0.0135 -0.3559  0.7504
 4105SOL     OW23947   3.537   0.697   2.094 -0.1283  0.4955  0.5301
 4105SOL    HW123948   3.581   0.747   2.026 -0.5148 -0.3818 -0.3567
 4105SOL    HW223949   3.603   0.629   2.105 -0.1617  0.2419 -0.9116
 4106SOL     OW23950   2.515   0.354  14.174 -0.5767  0.2946  0.2258
 4106SOL    HW123951   2.457   0.285  14.140  0.3969  0.0314 -0.8926
 4106SOL    HW223952   2.510   0.414  14.101  1.8742  0.9350  0.6037
 4107SOL     OW23953   0.160   3.986   9.063 -0.6013  0.5062 -0.1687
 4107SOL    HW123954   0.134   4.002   9.153 -0.5417  2.9816 -0.6053
 4107SOL    HW223955   0.078   3.988   9.012 -1.5055  1.0973  1.3280
 4108SOL     OW23956   0.535   1.642   2.441  0.0755  0.6098 -0.1641
 4108SOL    HW123957   0.612   1.635   2.497  0.6344 -0.2637 -1.0441
 4108SOL    HW223958   0.493   1.556   2.446  1.3926 -0.1406 -1.8719
 4109SOL     OW23959   3.295   1.807   6.518  0.4960  0.1117 -0.3653
 4109SOL    HW123960   3.200   1.812   6.518  0.5107  0.3463 -0.2235
 4109SOL    HW223961   3.320   1.887   6.472  0.9343  0.0737 -0.1918
 4110SOL     OW23962   0.186   0.383  11.412  0.1180 -0.2670  0.2423
 4110SOL    HW123963   0.214   0.421  11.495 -2.0041 -0.6175  1.1055
 4110SOL    HW223964   0.262   0.341  11.371 -0.6718 -0.7774 -0.6876
 4111SOL     OW23965   3.803   2.796  13.461 -0.1628  0.2712 -0.5079
 4111SOL    HW123966   3.777   2.826  13.374 -0.3076  0.8366 -0.2657
 4111SOL    HW223967   3.791   2.701  13.457 -3.0496  0.6961 -1.7738
 4112SOL     OW23968   3.976   4.444   5.095  0.8725 -0.3385 -0.3106
 4112SOL    HW123969   4.033   4.518   5.118 -0.3384  0.1336  1.1483
 4112SOL    HW223970   4.027   4.380   5.145 -0.0867  1.4502  2.9811
 4113SOL     OW23971   1.847   2.446   4.217 -0.0237 -0.1772 -0.4902
 4113SOL    HW123972   1.810   2.382   4.278  1.1751 -0.2062  0.2034
 4113SOL    HW223973   1.917   2.498   4.257  1.0130 -1.4498 -0.6625
 4114SOL     OW23974   0.361   0.419  16.679  0.0826  0.3697 -0.4651
 4114SOL    HW123975   0.297   0.446  16.745 -0.5295 -1.8229 -0.1673
 4114SOL    HW223976   0.366   0.492  16.617  1.5224  0.7266  0.0854
 4115SOL     OW23977   2.987   0.486   7.038  0.8887  0.0953  0.7390
 4115SOL    HW123978   2.968   0.547   6.967  0.6173 -0.8822 -0.0310
 4115SOL    HW223979   2.948   0.536   7.110 -1.4135 -0.0105 -0.4295
 4116SOL     OW23980   2.367   0.525   6.006  0.1678 -0.6834  0.0686
 4116SOL    HW123981   2.307   0.477   6.062  0.2111 -0.9857 -0.1448
 4116SOL    HW223982   2.454   0.489   6.021  1.3667  2.4601  0.7468
 4117SOL     OW23983   1.681   2.269   2.753  0.3152 -0.5666 -0.0604
 4117SOL    HW123984   1.758   2.286   2.699  0.8656 -1.0912  0.5750
 4117SOL    HW223985   1.718   2.286   2.839  0.0943 -1.7837  0.2731
 4118SOL     OW23986   1.990   3.753   1.552 -0.3722 -0.4546 -0.0583
 4118SOL    HW123987   2.052   3.711   1.493  0.8856  0.8252  0.3585
 4118SOL    HW223988   2.046   3.809   1.605 -1.0818  1.0862 -0.8936
 4119SOL     OW23989   2.468   3.506   3.057  0.2159  0.3477  0.1766
 4119SOL    HW123990   2.557   3.490   3.023  0.3329 -0.8058  1.0236
 4119SOL    HW223991   2.456   3.592   3.018  1.5218  0.6201  0.3825
 4120SOL     OW23992   4.525   1.697   0.160  0.2862 -0.5489  0.0456
 4120SOL    HW123993   4.481   1.615   0.182 -1.5316  0.1778 -0.8295
 4120SOL    HW223994   4.555   1.679   0.071 -2.1002 -1.2694 -0.6006
 4121SOL     OW23995   1.777   3.707  15.332  0.4733  0.2289  0.6580
 4121SOL    HW123996   1.746   3.775  15.273 -0.4365 -0.3538  0.4647
 4121SOL    HW223997   1.795   3.652  15.256  1.0110 -1.1688  1.7940
 4122SOL     OW23998   3.044   3.822  17.465 -0.0724  0.6643  0.3549
 4122SOL    HW123999   3.002   3.756  17.519  1.6464 -1.0073 -0.3266
 4122SOL    HW224000   3.016   3.900  17.513 -1.2609  0.2443  0.3459
 4123SOL     OW24001   3.409   0.307   6.689  0.9822 -0.3508 -0.1852
 4123SOL    HW124002   3.426   0.213   6.686  0.1424 -0.4486 -1.7945
 4123SOL    HW224003   3.500   0.337   6.690  0.5241  1.0013  0.2270
 4124SOL     OW24004   2.660   0.024   6.134 -1.0337  0.2705  0.2390
 4124SOL    HW124005   2.751   0.042   6.111 -1.0119  0.9275  0.8179
 4124SOL    HW224006   2.634   0.112   6.163 -0.8148  0.6205 -0.6311
 4125SOL     OW24007   2.005   0.665  14.250 -0.5802 -0.6379 -0.1489
 4125SOL    HW124008   1.970   0.746  14.287  0.1873 -0.1882 -0.4059
 4125SOL    HW224009   1.981   0.675  14.158 -1.4280  0.8932  0.2497
 4126SOL     OW24010   3.827   1.057   8.229 -0.2699 -0.2787 -0.8312
 4126SOL    HW124011   3.916   1.073   8.261 -0.3707 -1.1518 -0.1143
 4126SOL    HW224012   3.847   1.049   8.136  1.3051 -1.1464 -0.4153
 4127SOL     OW24013   4.531   2.559   3.912 -0.6361 -0.3274 -0.0099
 4127SOL    HW124014   4.564   2.515   3.833 -1.4220 -0.2654 -0.3702
 4127SOL    HW224015   4.495   2.484   3.958  0.6264 -1.7146 -1.2882
 4128SOL     OW24016   3.809   4.721  12.660 -0.6344  0.5694  0.6096
 4128SOL    HW124017   3.758   4.710  12.579 -2.1656  0.3856  1.5842
 4128SOL    HW224018   3.897   0.003  12.626 -0.3416  0.5390  1.3631
 4129SOL     OW24019   4.055   2.209   9.189 -0.4052  0.3504 -0.3057
 4129SOL    HW124020   3.972   2.210   9.236  0.3148  3.0022  0.9667
 4129SOL    HW224021   4.101   2.143   9.240 -1.6952  1.2350  2.0183
 4130SOL     OW24022   3.043   4.545  14.184 -0.1080 -0.4487  0.0442
 4130SOL    HW124023   2.962   4.534  14.234  0.6771 -2.3928  0.9152
 4130SOL    HW224024   2.999   4.606  14.125 -0.5903  1.6401  2.5651
 4131SOL     OW24025   1.404   0.417   7.975  0.5818 -0.3515  0.1706
 4131SOL    HW124026   1.394   0.385   8.064  0.2463  1.7302  0.8933
 4131SOL    HW224027   1.490   0.382   7.953 -1.0692 -2.8821 -2.1936
 4132SOL     OW24028   0.630   0.843   8.376 -0.0180  0.3026  0.4544
 4132SOL    HW124029   0.639   0.893   8.457  0.9731 -0.7723  1.0176
 4132SOL    HW224030   0.577   0.906   8.327  0.1783 -2.1100 -2.8567
 4133SOL     OW24031   1.336   1.359  14.981 -0.5348 -0.2799  0.1247
 4133SOL    HW124032   1.298   1.271  14.979  0.4189 -0.7052  0.8442
 4133SOL    HW224033   1.303   1.391  15.065  1.8266 -0.7796  1.2225
 4134SOL     OW24034   1.801   0.827  11.011  0.1467  0.4000  0.0619
 4134SOL    HW124035   1.880   0.800  11.058 -0.0133  0.8746  0.6030
 4134SOL    HW224036   1.848   0.899  10.969  0.3481  0.3332  0.1699
 4135SOL     OW24037   2.271   1.168   2.733 -0.0974 -0.1096 -0.2481
 4135SOL    HW124038   2.177   1.176   2.752 -0.1544 -3.1919  0.7490
 4135SOL    HW224039   2.265   1.167   2.637  3.2505  0.2203 -0.4601
 4136SOL     OW24040   1.572   0.036   6.617 -0.5941 -0.4937  0.0544
 4136SOL    HW124041   1.657   0.009   6.582 -1.0404  0.1868 -1.5734
 4136SOL    HW224042   1.600   0.105   6.677  0.5725 -0.7275 -0.2312
 4137SOL     OW24043   4.274   0.777   4.615  0.1105  1.1373  0.1725
 4137SOL    HW124044   4.231   0.739   4.539 -1.0145  1.7931  0.4831
 4137SOL    HW224045   4.198   0.791   4.672  1.0763  0.7398  1.5483
 4138SOL     OW24046   3.194   0.736  12.234 -0.3020 -0.2195 -0.5061
 4138SOL    HW124047   3.200   0.766  12.143 -1.1586  2.7284  0.4160
 4138SOL    HW224048   3.273   0.768  12.275  0.1455  0.1630 -1.6707
 4139SOL     OW24049   0.268   2.520   5.398 -0.1375 -0.2875 -0.7522
 4139SOL    HW124050   0.337   2.572   5.356  1.6704 -0.8241  1.5354
 4139SOL    HW224051   0.201   2.521   5.329  2.9836  1.2221 -3.7992
 4140SOL     OW24052   3.342   0.675   7.226 -0.1168  0.0017 -0.2588
 4140SOL    HW124053   3.358   0.590   7.185  1.5852  0.6014 -0.8369
 4140SOL    HW224054   3.266   0.706   7.176 -0.5776 -1.9948 -0.7913
 4141SOL     OW24055   0.587   4.653   8.907  0.0663 -0.5104  0.0111
 4141SOL    HW124056   0.560   4.627   8.996  0.3053  0.7943  0.4575
 4141SOL    HW224057   0.534   0.001   8.902  1.7662  0.6441  0.3293
 4142SOL     OW24058   1.013   1.012   4.282 -0.6070 -0.4494 -0.4299
 4142SOL    HW124059   0.938   1.003   4.340 -1.3001 -0.3120 -1.2950
 4142SOL    HW224060   0.968   0.992   4.200  0.3079  0.4081 -1.1462
 4143SOL     OW24061   0.400   1.551   9.248 -0.0034 -0.2189 -0.1744
 4143SOL    HW124062   0.459   1.544   9.173  1.5115  2.3001  0.8057
 4143SOL    HW224063   0.457   1.500   9.306  1.7285  1.6657 -0.2301
 4144SOL     OW24064   4.047   2.904   6.640  0.4349  0.0470  0.1836
 4144SOL    HW124065   3.958   2.873   6.621 -0.1720  2.0323 -0.2183
 4144SOL    HW224066   4.087   2.923   6.555 -1.4341  0.9406 -0.5001
 4145SOL     OW24067   4.570   3.324  11.821 -0.3337  0.5666 -0.5264
 4145SOL    HW124068   4.581   3.267  11.897  0.5184 -0.2012 -1.2259
 4145SOL    HW224069   4.584   3.261  11.750  3.0003  1.0150 -0.2939
 4146SOL     OW24070   2.103   2.348  13.060 -0.1594  0.1797  0.3998
 4146SOL    HW124071   2.060   2.388  12.985  2.1752 -1.5867 -1.8909
 4146SOL    HW224072   2.071   2.258  13.059  1.9226 -0.5561 -0.6037
 4147SOL     OW24073   3.815   3.430   7.660  0.1169 -0.4169 -0.1002
 4147SOL    HW124074   3.727   3.461   7.639  0.2559  0.4979  0.6675
 4147SOL    HW224075   3.828   3.355   7.602  1.3699  0.2225 -0.6590
 4148SOL     OW24076   1.015   4.358   9.653 -0.1190 -0.1401  0.1467
 4148SOL    HW124077   1.054   4.379   9.569 -2.1891 -0.2857 -0.8504
 4148SOL    HW224078   0.924   4.386   9.639 -0.7653 -2.9067 -1.0211
 4149SOL     OW24079   0.163   0.608   4.304  0.1059 -0.7326  0.3814
 4149SOL    HW124080   0.202   0.685   4.263  0.4450  0.4072  2.8170
 4149SOL    HW224081   0.075   0.645   4.315 -0.1388 -1.4320  0.7358
 4150SOL     OW24082   2.370   2.495  10.379  0.1754 -0.3646 -0.5803
 4150SOL    HW124083   2.428   2.421  10.361  0.5647  0.0140 -0.8790
 4150SOL    HW224084   2.303   2.455  10.434 -1.1259  2.4231 -0.1619
 4151SOL     OW24085   2.178   1.764   6.543  0.1135  0.0274  0.6254
 4151SOL    HW124086   2.206   1.770   6.635  2.7799  1.2489 -0.2719
 4151SOL    HW224087   2.243   1.699   6.515 -1.2276 -0.4221 -1.4424
 4152SOL     OW24088   4.042   2.215   4.866  0.1546 -0.2601  0.0168
 4152SOL    HW124089   4.125   2.182   4.831 -0.3331  1.4014 -2.7536
 4152SOL    HW224090   4.075   2.252   4.948  0.7203 -1.4023  0.3134
 4153SOL     OW24091   2.556   1.458  13.041  0.4553 -0.2827  0.0232
 4153SOL    HW124092   2.649   1.462  13.016  0.4825 -2.3881 -0.2440
 4153SOL    HW224093   2.558   1.462  13.137 -0.9045  1.6176 -0.0368
 4154SOL     OW24094   0.082   4.289   1.603  0.4136 -0.4156 -0.1718
 4154SOL    HW124095   0.125   4.216   1.560  1.0808  0.7712 -1.5167
 4154SOL    HW224096   0.153   4.351   1.621 -2.2993  2.6094  0.2508
 4155SOL     OW24097   0.017   4.619  10.340  0.4611 -0.3855  0.1627
 4155SOL    HW124098   0.091   4.675  10.317 -1.0574  0.0586 -3.5355
 4155SOL    HW224099   4.723   4.651  10.426 -0.3640 -1.0028  0.1519
 4156SOL     OW24100   0.342   1.687   2.247  0.1525 -0.4742 -0.1595
 4156SOL    HW124101   0.426   1.683   2.292  0.4063  1.2136 -0.4980
 4156SOL    HW224102   0.275   1.660   2.310 -1.4021 -0.3444 -1.7226
 4157SOL     OW24103   0.138   3.908   6.558 -0.7025 -0.4160 -0.6346
 4157SOL    HW124104   0.157   3.991   6.515 -1.7798  0.2343  0.1175
 4157SOL    HW224105   0.143   3.850   6.483  2.1051  1.3152 -1.7668
 4158SOL     OW24106   3.025   0.647   8.769  0.2780  0.5368  0.0529
 4158SOL    HW124107   3.071   0.614   8.846  0.7425 -0.7395 -0.7712
 4158SOL    HW224108   2.965   0.713   8.804 -1.3435 -0.6951 -0.3781
 4159SOL     OW24109   0.094   0.392   8.444 -0.0875 -0.3347 -0.5737
 4159SOL    HW124110   0.108   0.481   8.477 -2.2045 -0.2389  0.0484
 4159SOL    HW224111   0.009   0.396   8.400 -0.1102  0.6932 -0.4424
 4160SOL     OW24112   1.915   1.486   2.835 -0.0976  0.0172 -0.0803
 4160SOL    HW124113   1.868   1.515   2.756  0.9895  0.9594 -0.3884
 4160SOL    HW224114   1.984   1.549   2.859  1.1170 -1.1677 -0.4793
 4161SOL     OW24115   0.561   1.252   6.866 -0.2144  0.2091 -0.0570
 4161SOL    HW124116   0.535   1.161   6.853  0.4654 -0.0115  0.1566
 4161SOL    HW224117   0.478   1.300   6.862 -1.2748 -1.6137  0.0951
 4162SOL     OW24118   0.072   1.928   2.069  0.5045 -0.1888  0.7743
 4162SOL    HW124119   0.092   2.021   2.060 -0.9525  0.0997  0.4888
 4162SOL    HW224120   0.152   1.881   2.046 -0.5974 -0.5056 -2.4018
 4163SOL     OW24121   0.566   3.796   8.208  0.2771  0.6183  0.9665
 4163SOL    HW124122   0.613   3.867   8.164 -1.6563 -0.6785 -3.1532
 4163SOL    HW224123   0.624   3.774   8.281 -1.6610 -0.8856  2.0608
 4164SOL     OW24124   4.258   0.572   3.222 -0.2488  0.5052  0.2514
 4164SOL    HW124125   4.316   0.607   3.290  0.4610  1.6619 -0.9552
 4164SOL    HW224126   4.289   0.483   3.206  0.2098  0.4438  1.4685
 4165SOL     OW24127   3.278   1.695   6.037  0.3377 -0.0035 -0.0861
 4165SOL    HW124128   3.242   1.609   6.060  0.3062  0.9479  3.4590
 4165SOL    HW224129   3.373   1.680   6.034  0.3813 -0.0053  1.3033
 4166SOL     OW24130   0.562   3.964   6.924  0.5699  0.7171 -0.4732
 4166SOL    HW124131   0.590   3.908   6.851 -0.5252 -1.2425  0.6100
 4166SOL    HW224132   0.496   4.009   6.872 -1.1235 -0.6359  0.5007
 4167SOL     OW24133   3.982   2.223   7.154 -0.0781 -0.4289  0.1549
 4167SOL    HW124134   4.026   2.138   7.151  0.0031 -0.3962  0.3929
 4167SOL    HW224135   3.927   2.215   7.232 -0.3009  0.2156  0.0694
 4168SOL     OW24136   1.447   4.359   6.074  0.2864  0.6941 -0.1716
 4168SOL    HW124137   1.363   4.353   6.119 -0.0233  1.4803 -0.6533
 4168SOL    HW224138   1.464   4.453   6.084 -1.8132  0.9094  1.4500
 4169SOL     OW24139   3.339   2.307   7.049 -0.2406  0.0523 -0.1582
 4169SOL    HW124140   3.286   2.341   6.976 -1.7405 -0.3011  0.7678
 4169SOL    HW224141   3.319   2.214   7.058  0.3814 -0.0863 -0.2359
 4170SOL     OW24142   0.087   2.783   9.394  0.1430  0.7098 -0.4758
 4170SOL    HW124143   0.134   2.759   9.315 -0.2337 -0.7002 -0.2641
 4170SOL    HW224144   0.156   2.842   9.424 -0.6443  0.9156  0.9285
 4171SOL     OW24145   3.234   1.594   2.691 -0.0800  0.1117  0.4799
 4171SOL    HW124146   3.257   1.580   2.599  1.2846  1.7994  0.5758
 4171SOL    HW224147   3.228   1.505   2.726  2.6237 -0.2770 -0.0351
 4172SOL     OW24148   0.667   3.178   5.059 -0.4941  0.2756  0.6157
 4172SOL    HW124149   0.719   3.238   5.005 -0.0978 -0.7384 -0.1200
 4172SOL    HW224150   0.705   3.193   5.146  1.0288  1.9622 -0.3378
 4173SOL     OW24151   0.288   3.974   8.672  0.2590  0.5415  0.2881
 4173SOL    HW124152   0.304   3.883   8.648 -0.7423  0.4079  0.1247
 4173SOL    HW224153   0.341   3.985   8.751  1.7379  0.2606 -0.6528
 4174SOL     OW24154   0.415   0.096   9.013  0.0110 -0.0018  0.5706
 4174SOL    HW124155   0.324   0.111   8.990  0.4013 -0.0954 -1.0959
 4174SOL    HW224156   0.425   0.171   9.071 -1.4093  1.2118 -0.7727
 4175SOL     OW24157   1.307   1.294  13.296 -0.4763 -0.1900 -0.3513
 4175SOL    HW124158   1.352   1.377  13.281 -1.5961  0.2418 -1.3844
 4175SOL    HW224159   1.373   1.234  13.262  0.3557  0.9259 -0.7066
 4176SOL     OW24160   2.871   1.569   5.153 -0.0974 -0.1998  0.0463
 4176SOL    HW124161   2.887   1.612   5.069 -1.8116  0.3128  0.0001
 4176SOL    HW224162   2.822   1.638   5.196  1.8924  0.9303  0.5219
 4177SOL     OW24163   2.991   0.414   6.676 -0.1187  0.5294 -0.1429
 4177SOL    HW124164   3.039   0.407   6.759 -1.9873  1.5605  1.0146
 4177SOL    HW224165   3.039   0.347   6.627 -2.3236  0.5127 -2.2994
 4178SOL     OW24166   4.178   1.818   8.329  0.1020  0.3421 -0.5589
 4178SOL    HW124167   4.272   1.838   8.327  0.6379 -2.0530  0.1333
 4178SOL    HW224168   4.160   1.792   8.238 -0.8143  1.9756 -0.8375
 4179SOL     OW24169   2.417   0.257   3.406 -0.2389  0.4603 -0.6807
 4179SOL    HW124170   2.447   0.173   3.439 -0.6534  0.0272 -1.4169
 4179SOL    HW224171   2.452   0.326   3.462  1.6543 -1.4612  0.4767
 4180SOL     OW24172   2.108   0.253   5.130 -0.0216 -0.0679  0.2461
 4180SOL    HW124173   2.160   0.288   5.058  2.0708 -0.1029  1.7447
 4180SOL    HW224174   2.134   0.163   5.151 -0.7716 -1.0181 -2.8804
 4181SOL     OW24175   1.567   3.038  15.162  0.9957 -0.0420  0.2870
 4181SOL    HW124176   1.639   3.018  15.222  1.8194 -0.6304 -0.8986
 4181SOL    HW224177   1.544   3.121  15.205 -3.0319 -0.7009 -0.6467
 4182SOL     OW24178   2.068   1.233   4.524  0.2557 -0.8824 -0.4256
 4182SOL    HW124179   2.111   1.308   4.481  1.0554 -0.1873  1.5535
 4182SOL    HW224180   2.000   1.275   4.577  1.6882 -0.4725  1.1152
 4183SOL     OW24181   2.720   0.302   3.068 -0.1490 -0.4895  0.0833
 4183SOL    HW124182   2.786   0.256   3.015  0.0289 -1.9669  1.5901
 4183SOL    HW224183   2.742   0.389   3.035 -0.4713 -1.4692 -2.7119
 4184SOL     OW24184   3.117   4.371   4.425 -0.1055 -0.3845  0.4127
 4184SOL    HW124185   3.033   4.378   4.471 -0.3616  1.8933 -0.3926
 4184SOL    HW224186   3.175   4.415   4.487  1.7873 -1.8236 -0.3284
 4185SOL     OW24187   0.618   0.729   4.464  0.1427 -0.5704 -0.2032
 4185SOL    HW124188   0.624   0.823   4.450  1.0680 -0.3618  1.5877
 4185SOL    HW224189   0.678   0.697   4.395  0.7674 -1.1561  0.6141
 4186SOL     OW24190   3.838   3.543  16.117  0.4293 -0.3996 -0.1991
 4186SOL    HW124191   3.909   3.546  16.053  0.7243  0.8594  0.1971
 4186SOL    HW224192   3.841   3.616  16.178  0.6945  0.0358 -0.7409
 4187SOL     OW24193   2.467   3.143   4.405 -0.6294  0.2001 -0.3030
 4187SOL    HW124194   2.529   3.215   4.390 -2.9822  1.9119 -1.9055
 4187SOL    HW224195   2.506   3.084   4.469 -1.6295  0.4346  0.5217
 4188SOL     OW24196   1.940   3.550   3.887 -0.2725  0.4542  0.5791
 4188SOL    HW124197   1.924   3.573   3.795 -1.4209  1.3063  0.9861
 4188SOL    HW224198   1.869   3.601   3.927  0.3098 -0.0992  2.2924
 4189SOL     OW24199   1.681   1.366   7.906 -0.1049 -0.1415  0.3906
 4189SOL    HW124200   1.739   1.384   7.831 -0.7321 -1.6203 -0.4640
 4189SOL    HW224201   1.737   1.363   7.984  2.0236  0.8115 -1.0799
 4190SOL     OW24202   3.788   4.422  16.766  0.2410  0.4861  0.3635
 4190SOL    HW124203   3.759   4.468  16.687 -3.1538  0.2368  1.4833
 4190SOL    HW224204   3.878   4.400  16.742 -0.2696 -0.5508 -0.6298
 4191SOL     OW24205   1.958   0.130   2.715 -0.1425 -0.0419  0.1230
 4191SOL    HW124206   2.037   0.127   2.661 -0.5561 -0.4853 -0.4491
 4191SOL    HW224207   1.914   0.047   2.694 -2.1374  0.2758  3.0199
 4192SOL     OW24208   2.646   0.216   1.030  0.3817 -0.3763 -0.2708
 4192SOL    HW124209   2.659   0.151   0.960 -0.6920  0.3652 -1.1494
 4192SOL    HW224210   2.731   0.226   1.073  0.9367  0.1844 -1.4972
 4193SOL     OW24211   2.920   1.685  11.817 -0.7497  0.3966 -0.3946
 4193SOL    HW124212   2.859   1.699  11.890  2.1089 -0.7590  2.2226
 4193SOL    HW224213   2.999   1.732  11.842 -0.1017 -0.9718  0.1362
 4194SOL     OW24214   1.914   2.543   9.506 -0.2568 -0.1812 -0.4697
 4194SOL    HW124215   1.823   2.571   9.515 -0.1510  0.4053 -1.2510
 4194SOL    HW224216   1.961   2.588   9.575 -3.1509  0.1566  1.2771
 4195SOL     OW24217   3.381   4.709  15.494 -0.1172 -0.4146 -0.2988
 4195SOL    HW124218   3.345   4.628  15.458  2.1692 -1.1475 -0.9025
 4195SOL    HW224219   3.442   0.002  15.425 -0.3741  0.7994 -0.1011
 4196SOL     OW24220   2.418   3.181  12.205  0.4060  0.3608 -0.2361
 4196SOL    HW124221   2.505   3.154  12.232  1.0281  3.0788  0.4468
 4196SOL    HW224222   2.433   3.217  12.118 -2.8303  3.7858  0.6488
 4197SOL     OW24223   3.911   0.412   2.405  0.5323 -0.0802 -0.1262
 4197SOL    HW124224   3.976   0.351   2.369 -1.5736 -0.6459 -3.0002
 4197SOL    HW224225   3.832   0.364   2.382  0.3637  0.5708 -0.9458
 4198SOL     OW24226   1.697   0.686   5.228 -0.2138 -0.1826 -0.2734
 4198SOL    HW124227   1.758   0.723   5.164  2.9005 -0.6417  2.3967
 4198SOL    HW224228   1.659   0.616   5.175  1.5019 -1.6109  0.3656
 4199SOL     OW24229   3.511   1.541   3.559  0.3963  0.0500 -0.2410
 4199SOL    HW124230   3.603   1.548   3.583  0.6128 -2.0613 -0.4430
 4199SOL    HW224231   3.461   1.540   3.640 -2.6935  0.5227 -2.1219
 4200SOL     OW24232   4.055   3.087   5.673  0.0282  0.6900  0.4759
 4200SOL    HW124233   4.106   3.138   5.735 -0.8604  1.2267  0.7719
 4200SOL    HW224234   4.014   3.150   5.613  1.1032  2.1379  1.2724
 4201SOL     OW24235   0.208   3.548   2.159 -0.0369  0.0447 -0.9360
 4201SOL    HW124236   0.186   3.593   2.077  1.4508  1.3731 -0.6089
 4201SOL    HW224237   0.122   3.516   2.187  0.5150  0.6320  1.4349
 4202SOL     OW24238   3.831   2.256   0.631 -0.0691 -0.2271 -0.1823
 4202SOL    HW124239   3.748   2.223   0.596 -0.6686 -0.0781  1.1288
 4202SOL    HW224240   3.820   2.285   0.721  1.3573 -2.3948  0.6934
 4203SOL     OW24241   2.642   1.204   9.474 -0.0235  0.2666  0.3678
 4203SOL    HW124242   2.600   1.210   9.560  1.0050  0.3798  0.8683
 4203SOL    HW224243   2.606   1.285   9.439 -0.1995 -0.1669 -0.4561
 4204SOL     OW24244   2.851   1.093   8.674 -0.0879 -0.3707  0.0004
 4204SOL    HW124245   2.930   1.147   8.666  0.7436 -1.8044 -1.5571
 4204SOL    HW224246   2.848   1.081   8.769 -1.8080 -1.1605 -0.1504
 4205SOL     OW24247   2.866   4.169   6.544  0.7810  0.3846 -0.4974
 4205SOL    HW124248   2.782   4.162   6.498  0.0129  0.8798  0.8281
 4205SOL    HW224249   2.920   4.194   6.469  1.1385 -1.8061 -0.9634
 4206SOL     OW24250   0.929   1.712   3.282 -0.3234 -0.2281 -0.1295
 4206SOL    HW124251   1.010   1.734   3.235  0.2530 -1.0315  0.4909
 4206SOL    HW224252   0.885   1.797   3.276  1.3916  0.4515 -3.2450
 4207SOL     OW24253   2.981   3.545  15.225 -0.0771 -0.5763  0.0397
 4207SOL    HW124254   3.027   3.491  15.289  0.0700 -1.1296 -0.5299
 4207SOL    HW224255   2.917   3.487  15.183  1.2082  0.4942 -3.4238
 4208SOL     OW24256   0.151   1.606   2.976  0.3122 -0.0695 -0.2674
 4208SOL    HW124257   0.150   1.517   3.010  1.1360 -0.6004 -1.6375
 4208SOL    HW224258   0.146   1.655   3.058  0.6428 -1.0217  0.3155
 4209SOL     OW24259   1.494   3.988  15.356 -0.2835  0.0930  0.5822
 4209SOL    HW124260   1.436   4.041  15.411 -2.0004 -1.2352  0.0489
 4209SOL    HW224261   1.541   4.052  15.303 -0.4284 -0.5208 -0.2969
 4210SOL     OW24262   3.910   2.226   2.950  0.3762  0.1698  0.3265
 4210SOL    HW124263   3.878   2.212   2.861  1.7039  1.3116 -0.3183
 4210SOL    HW224264   3.922   2.135   2.979  0.8868  0.7121  1.8151
 4211SOL     OW24265   1.599   0.844   9.101  0.3478  0.3474 -0.0573
 4211SOL    HW124266   1.597   0.929   9.145 -0.1643  1.0572 -1.4412
 4211SOL    HW224267   1.685   0.811   9.127  0.7021 -0.5305 -2.3913
 4212SOL     OW24268   4.379   1.245   3.393 -0.3405  0.6258 -0.2028
 4212SOL    HW124269   4.445   1.275   3.331 -1.8385  0.3625 -1.8939
 4212SOL    HW224270   4.391   1.150   3.392 -1.6250  0.4725 -0.5951
 4213SOL     OW24271   2.063   0.812   2.928  0.3484 -0.8518  0.6854
 4213SOL    HW124272   2.155   0.836   2.917 -0.1639  0.7328 -0.1281
 4213SOL    HW224273   2.038   0.885   2.983  0.7337 -0.0610 -0.1899
 4214SOL     OW24274   4.396   0.517   5.307  0.2107  0.2442 -0.0351
 4214SOL    HW124275   4.429   0.585   5.365 -1.1231  1.7626 -1.0560
 4214SOL    HW224276   4.450   0.529   5.229  0.3993  0.7722  0.1805
 4215SOL     OW24277   0.659   2.169   8.824  0.3537  0.1065  0.5051
 4215SOL    HW124278   0.668   2.214   8.740  0.5450 -0.8796  0.0025
 4215SOL    HW224279   0.578   2.207   8.857 -0.1110  0.1113 -0.6551
 4216SOL     OW24280   1.970   0.926   4.811 -0.1717 -0.0873 -0.0725
 4216SOL    HW124281   1.893   0.979   4.831  0.0829 -0.2630  1.3748
 4216SOL    HW224282   1.962   0.911   4.717  0.2791 -0.2354 -0.0843
 4217SOL     OW24283   4.604   4.214   8.235 -0.0177 -0.4275 -0.3079
 4217SOL    HW124284   4.650   4.130   8.237  0.5045 -0.1250  0.4857
 4217SOL    HW224285   4.666   4.278   8.201 -1.3150  1.2774  0.5235
 4218SOL     OW24286   1.526   2.958   6.969 -0.0626 -0.0333 -0.1835
 4218SOL    HW124287   1.449   3.004   7.003  0.2864 -0.6785  1.4781
 4218SOL    HW224288   1.555   3.018   6.900 -1.6988 -0.4115 -1.1914
 4219SOL     OW24289   2.863   2.527   5.615  0.5084  0.1380 -0.4125
 4219SOL    HW124290   2.853   2.439   5.652  2.3889  0.2074  0.2602
 4219SOL    HW224291   2.866   2.583   5.693 -1.7962  1.0617 -0.9810
 4220SOL     OW24292   3.657   2.792   1.534 -0.4562  0.4115  0.2862
 4220SOL    HW124293   3.673   2.884   1.515 -1.8170  1.3875  4.0349
 4220SOL    HW224294   3.689   2.782   1.624 -2.8174  1.5100  1.2446
 4221SOL     OW24295   0.340   1.663  13.252  0.2674  0.3870 -0.0284
 4221SOL    HW124296   0.287   1.742  13.265  0.2195  0.1992  0.9029
 4221SOL    HW224297   0.382   1.676  13.337 -1.6807 -1.1825  1.1814
 4222SOL     OW24298   3.842   3.546   6.134  0.0115  0.0015 -0.2479
 4222SOL    HW124299   3.826   3.632   6.172 -1.4486  0.0558 -0.9640
 4222SOL    HW224300   3.927   3.526   6.173 -1.0716 -2.6227  0.7985
 4223SOL     OW24301   2.223   0.885  12.922 -0.4072  0.1030 -0.1639
 4223SOL    HW124302   2.227   0.793  12.897  0.8434  0.1529 -0.1078
 4223SOL    HW224303   2.131   0.907  12.903 -0.0529  0.9079 -0.9484
 4224SOL     OW24304   1.251   1.639   5.160  0.1409  0.6403 -0.6154
 4224SOL    HW124305   1.204   1.619   5.240  1.3569 -4.4334 -1.1369
 4224SOL    HW224306   1.185   1.674   5.101  0.7164  1.5085 -0.7477
 4225SOL     OW24307   3.823   0.544   9.416 -0.3436 -0.5930 -0.7325
 4225SOL    HW124308   3.897   0.563   9.358  0.0208 -2.5481 -0.9116
 4225SOL    HW224309   3.746   0.556   9.359 -0.8232  0.7470  0.2021
 4226SOL     OW24310   2.310   2.038   2.550 -0.1764 -0.2477  0.5803
 4226SOL    HW124311   2.394   2.067   2.513 -1.8610  0.1661 -2.8744
 4226SOL    HW224312   2.327   1.944   2.557 -0.3638 -0.2658  0.7858
 4227SOL     OW24313   0.631   2.409  10.068  0.3995  0.4553  0.2678
 4227SOL    HW124314   0.671   2.488  10.033  0.1996 -0.1638 -1.3622
 4227SOL    HW224315   0.704   2.375  10.119 -0.2148 -1.0877  0.1053
 4228SOL     OW24316   0.994   2.608  16.493 -0.1198 -0.7276  0.1260
 4228SOL    HW124317   0.915   2.646  16.455  0.2751 -0.0473 -0.0208
 4228SOL    HW224318   0.989   2.649  16.580 -1.7595 -0.8426  0.0772
 4229SOL     OW24319   3.214   2.198   8.171 -0.4209  0.4856 -0.0819
 4229SOL    HW124320   3.137   2.225   8.121 -1.0984 -1.8587 -0.2701
 4229SOL    HW224321   3.271   2.275   8.174  1.6001 -1.0295 -0.3017
 4230SOL     OW24322   0.723   3.099  17.188  0.0774 -0.8675  0.1029
 4230SOL    HW124323   0.633   3.076  17.212  0.5514 -1.0706  1.6953
 4230SOL    HW224324   0.708   3.100  17.093 -2.2799 -0.5417  0.4743
 4231SOL     OW24325   3.266   0.038   8.851  0.5301  0.9154  0.2575
 4231SOL    HW124326   3.221   4.722   8.921  2.3066 -0.0340  0.7593
 4231SOL    HW224327   3.328   0.085   8.907 -1.1994  1.2219  1.9127
 4232SOL     OW24328   4.056   4.568   7.578  0.4128 -0.0055  0.1531
 4232SOL    HW124329   4.147   4.540   7.589  1.2183  2.3041 -0.5089
 4232SOL    HW224330   4.046   4.575   7.673  1.2175 -2.4685  0.4137
 4233SOL     OW24331   3.690   4.632   1.739  0.1301 -0.3085 -0.2393
 4233SOL    HW124332   3.673   4.628   1.644  0.5720 -0.4480 -0.3111
 4233SOL    HW224333   3.597   4.636   1.763  0.1161 -1.2506 -0.1274
 4234SOL     OW24334   0.213   2.689  17.640  0.2240  0.0305 -0.3423
 4234SOL    HW124335   0.265   2.766  17.618  0.7461 -0.2266 -0.0191
 4234SOL    HW224336   0.124   2.719  17.658 -0.2341 -2.2061  1.2260
 4235SOL     OW24337   4.713   0.616   3.275  0.0949 -1.0646 -0.3412
 4235SOL    HW124338   0.066   0.649   3.308 -0.4972  0.5748 -0.4752
 4235SOL    HW224339   0.005   0.562   3.199 -3.1851 -1.1761 -1.2616
 4236SOL     OW24340   3.443   2.377   6.352 -0.7590 -0.1210 -0.2218
 4236SOL    HW124341   3.499   2.335   6.417 -1.4856  3.1468  2.5040
 4236SOL    HW224342   3.479   2.342   6.270  2.2320  2.8365 -0.1639
 4237SOL     OW24343   2.903   2.469   3.013 -0.3646 -0.4428  0.6231
 4237SOL    HW124344   2.977   2.418   2.980 -0.5540 -0.1372 -0.2822
 4237SOL    HW224345   2.839   2.400   3.031  0.2723 -0.6919  1.9447
 4238SOL     OW24346   0.019   2.529   9.424 -0.4258  0.0165  0.3919
 4238SOL    HW124347   0.102   2.481   9.435 -1.2429 -1.5051 -0.0185
 4238SOL    HW224348   0.050   2.618   9.436  0.8229 -0.5115  1.1559
 4239SOL     OW24349   4.623   2.259   1.882 -0.0805  0.6510 -0.4807
 4239SOL    HW124350   4.660   2.318   1.816 -0.6762 -0.1831 -1.5645
 4239SOL    HW224351   4.666   2.182   1.846 -0.7714  0.5681 -1.1346
 4240SOL     OW24352   1.334   1.336  16.646  0.1236 -0.3560 -0.0320
 4240SOL    HW124353   1.295   1.355  16.731  0.2850 -0.8981  0.1606
 4240SOL    HW224354   1.258   1.323  16.590 -1.6990  1.1566  2.0811
 4241SOL     OW24355   1.386   0.094   7.961  0.0133 -0.0939  0.1710
 4241SOL    HW124356   1.389   0.147   7.882 -1.5536  2.1062  1.6099
 4241SOL    HW224357   1.476   0.069   7.979  0.1204 -0.5045 -0.9503
 4242SOL     OW24358   4.254   4.008   0.758 -0.1781 -0.6607  0.0686
 4242SOL    HW124359   4.161   3.985   0.755 -0.5871  0.9906  0.1010
 4242SOL    HW224360   4.257   4.062   0.679  0.5779 -1.6884 -0.6056
 4243SOL     OW24361   3.317   1.380   4.103  0.1566  0.0363  0.2585
 4243SOL    HW124362   3.244   1.337   4.148 -0.8165  0.9152 -0.4768
 4243SOL    HW224363   3.274   1.444   4.046 -0.7285  0.5790  1.5405
 4244SOL     OW24364   0.573   1.286   3.770 -0.0923 -0.2325  0.1104
 4244SOL    HW124365   0.508   1.355   3.777 -1.4206 -1.2727 -2.0398
 4244SOL    HW224366   0.564   1.243   3.855 -1.4709  0.7748  0.4672
 4245SOL     OW24367   0.993   4.342  17.036 -0.2672 -0.7986 -0.5310
 4245SOL    HW124368   1.001   4.431  17.000  0.4831 -1.0819 -1.0582
 4245SOL    HW224369   0.979   4.350  17.130 -1.6701 -1.1271 -0.7156
 4246SOL     OW24370   3.328   0.250  12.883  0.2412  0.4526  0.5283
 4246SOL    HW124371   3.375   0.294  12.953 -1.2630  1.7323  0.7329
 4246SOL    HW224372   3.236   0.265  12.907  0.1980  1.3484 -0.2244
 4247SOL     OW24373   1.010   3.599   9.681 -0.4110  0.1031  0.6856
 4247SOL    HW124374   1.085   3.649   9.648 -1.2289  0.1496 -1.1175
 4247SOL    HW224375   1.043   3.521   9.724 -0.1645 -0.1161  0.1006
 4248SOL     OW24376   3.606   4.731   2.612  0.0147 -0.0404  0.2665
 4248SOL    HW124377   3.570   0.086   2.633  0.3958 -0.0923  1.1335
 4248SOL    HW224378   3.576   4.687   2.691 -0.8681 -0.0339 -0.0693
 4249SOL     OW24379   4.253   2.270   0.718  0.1764  0.1549 -0.1310
 4249SOL    HW124380   4.206   2.285   0.800  1.7198  0.3780  0.6995
 4249SOL    HW224381   4.321   2.210   0.748  0.6948 -0.0213 -1.6513
 4250SOL     OW24382   2.774   1.999   5.526 -0.1421  0.0648  0.1108
 4250SOL    HW124383   2.824   2.057   5.584  0.7104  0.3419 -0.8998
 4250SOL    HW224384   2.730   1.938   5.584  2.0221 -2.6592 -1.0966
 4251SOL     OW24385   4.602   4.340   2.642  0.7768  0.1683 -0.3904
 4251SOL    HW124386   4.564   4.303   2.562  2.5949  0.6846 -1.4953
 4251SOL    HW224387   4.630   4.426   2.611  0.5667  0.6310  0.6892
 4252SOL     OW24388   3.143   1.573   3.981  0.3523 -0.0777  0.8691
 4252SOL    HW124389   3.142   1.631   3.906  1.6958 -1.7596 -0.4584
 4252SOL    HW224390   3.050   1.552   3.983  0.2614  0.2190 -0.8214
 4253SOL     OW24391   3.105   4.496   5.436 -0.6346 -0.0420 -0.2832
 4253SOL    HW124392   3.099   4.416   5.488  0.1760 -0.3302 -0.6237
 4253SOL    HW224393   3.028   4.549   5.456 -0.2665 -0.2412  1.5895
 4254SOL     OW24394   2.865   2.786   1.272 -0.1443 -0.0303  0.3973
 4254SOL    HW124395   2.874   2.800   1.366 -1.2692  0.7654  0.3861
 4254SOL    HW224396   2.788   2.840   1.255  0.6044  1.2946  1.2156
 4255SOL     OW24397   3.318   1.788   5.534 -0.0957 -0.3273 -0.2797
 4255SOL    HW124398   3.224   1.789   5.554 -0.0011 -2.6419  0.2581
 4255SOL    HW224399   3.343   1.833   5.615 -1.8214 -1.4190  0.8717
 4256SOL     OW24400   0.054   3.504   3.051 -0.3359  0.3624 -0.0301
 4256SOL    HW124401   0.105   3.554   3.115  0.5024  1.0203 -1.2020
 4256SOL    HW224402   4.701   3.499   3.096  1.1867  0.2769  2.8109
 4257SOL     OW24403   3.792   3.433   0.472 -0.3994 -0.2526 -0.3812
 4257SOL    HW124404   3.828   3.429   0.560 -0.7495 -0.6860 -0.2558
 4257SOL    HW224405   3.759   3.343   0.465 -1.8663  0.2514 -0.0334
 4258SOL     OW24406   0.473   2.213   6.051 -0.0659 -0.3069  0.0095
 4258SOL    HW124407   0.546   2.251   6.099  0.1201  0.5253 -0.9498
 4258SOL    HW224408   0.500   2.224   5.960 -0.8202  0.3470 -0.1386
 4259SOL     OW24409   1.284   4.653   3.066  0.4192  0.4274  0.8506
 4259SOL    HW124410   1.193   4.628   3.079  0.4904 -1.1365 -1.7080
 4259SOL    HW224411   1.327   4.606   3.137  0.7776 -0.3436  0.1171
 4260SOL     OW24412   2.180   4.612   4.811 -0.5620 -0.0867 -0.0474
 4260SOL    HW124413   2.260   4.664   4.807 -1.3015  1.0736  0.2604
 4260SOL    HW224414   2.172   4.595   4.717  0.3846  2.4697 -0.5686
 4261SOL     OW24415   4.246   1.231  13.687 -0.2402  0.0038  0.1841
 4261SOL    HW124416   4.158   1.204  13.660 -0.9753  1.3556  1.2484
 4261SOL    HW224417   4.256   1.301  13.622 -0.6135  0.9289  1.1291
 4262SOL     OW24418   3.499   1.841   0.027 -0.5260 -0.7110  0.3459
 4262SOL    HW124419   3.483   1.935   0.022 -1.4745 -0.8233  1.1905
 4262SOL    HW224420   3.537   1.838   0.115  0.3167  2.4931  0.0845
 4263SOL     OW24421   4.482   0.988   6.547  0.3185  0.0159  0.1921
 4263SOL    HW124422   4.546   0.949   6.606 -0.7253  0.0740  1.3754
 4263SOL    HW224423   4.418   1.018   6.612  0.5055 -1.1151  0.8986
 4264SOL     OW24424   3.950   4.215  13.467  0.0593 -0.4092 -0.1624
 4264SOL    HW124425   3.994   4.130  13.461 -0.9075 -0.9728  0.6535
 4264SOL    HW224426   3.986   4.246  13.550  1.6899 -0.3399 -0.8824
 4265SOL     OW24427   2.246   0.644   9.205 -0.5818 -0.2464  0.0528
 4265SOL    HW124428   2.212   0.568   9.252  0.4170 -0.9357 -0.3557
 4265SOL    HW224429   2.175   0.702   9.233 -1.1634 -0.8537 -0.1580
 4266SOL     OW24430   4.226   4.491   1.728 -0.1458 -0.7388  0.4055
 4266SOL    HW124431   4.247   4.505   1.636 -0.7879 -1.9842  0.0615
 4266SOL    HW224432   4.133   4.513   1.738 -0.7072 -2.4355 -0.8470
 4267SOL     OW24433   2.845   2.038   4.011 -0.2289  0.3695 -0.2134
 4267SOL    HW124434   2.880   2.127   4.003  0.6912  0.2259  1.9346
 4267SOL    HW224435   2.816   2.027   3.921 -2.2903  1.2274  0.3635
 4268SOL     OW24436   1.174   1.383   9.060  0.2031 -0.3642 -1.0461
 4268SOL    HW124437   1.176   1.307   9.118  3.5848  0.0875 -0.5170
 4268SOL    HW224438   1.111   1.436   9.109 -0.0404  0.1874 -1.9650
 4269SOL     OW24439   2.695   2.691   1.675  0.3725  0.2628 -0.1550
 4269SOL    HW124440   2.605   2.662   1.657 -0.1367  0.8223  1.4817
 4269SOL    HW224441   2.687   2.710   1.768  2.0757  2.3817 -0.4440
 4270SOL     OW24442   2.030   3.551  11.265  0.4619 -0.3167 -0.1025
 4270SOL    HW124443   2.088   3.565  11.190 -0.0706 -0.2224 -0.4899
 4270SOL    HW224444   2.090   3.540  11.339  1.9716 -1.6597 -1.5288
 4271SOL     OW24445   2.969   1.905   8.703 -0.4137  0.2574  0.3189
 4271SOL    HW124446   3.045   1.949   8.664 -0.7324  1.3737  0.9708
 4271SOL    HW224447   2.908   1.918   8.630  0.7296  0.5859 -0.5952
 4272SOL     OW24448   2.072   2.508   7.185  0.5454 -0.7605 -0.1497
 4272SOL    HW124449   2.151   2.531   7.234 -0.1766  2.9187 -0.6808
 4272SOL    HW224450   2.003   2.556   7.230  0.4325 -1.8439  0.8125
 4273SOL     OW24451   2.295   1.115   0.253  0.3689 -0.5110  0.2138
 4273SOL    HW124452   2.257   1.117   0.165  0.3133  0.8595  0.2700
 4273SOL    HW224453   2.358   1.187   0.244  2.5352 -2.5833 -1.2289
 4274SOL     OW24454   4.494   3.364   0.370 -0.2614  0.2627  0.1878
 4274SOL    HW124455   4.576   3.317   0.383 -1.1207 -1.5099 -0.8838
 4274SOL    HW224456   4.457   3.330   0.452  0.3119 -0.5208  0.1238
 4275SOL     OW24457   3.049   4.243   4.789 -0.2699  0.3436  0.1107
 4275SOL    HW124458   3.111   4.238   4.861 -0.5111 -1.2766  0.2037
 4275SOL    HW224459   2.969   4.232   4.840 -0.4307 -1.8574 -0.6195
 4276SOL     OW24460   4.187   2.706   7.947 -0.1452 -0.3502 -0.0010
 4276SOL    HW124461   4.251   2.726   8.015 -0.9712  0.2289  0.6133
 4276SOL    HW224462   4.133   2.785   7.945  0.7065  0.2320  0.1907
 4277SOL     OW24463   4.659   4.641  16.147 -0.5319  0.0787 -0.4774
 4277SOL    HW124464   4.604   4.707  16.188  1.4885  0.6696  1.2738
 4277SOL    HW224465   4.668   4.575  16.216 -0.9225 -0.9612 -1.4113
 4278SOL     OW24466   4.303   2.916  12.143 -0.1746 -0.2523 -0.5392
 4278SOL    HW124467   4.387   2.941  12.106  0.0897  1.8744  1.5105
 4278SOL    HW224468   4.245   2.902  12.068  1.8715 -2.6604 -1.6457
 4279SOL     OW24469   2.412   0.899   5.922 -0.2924 -0.4029 -0.2665
 4279SOL    HW124470   2.434   0.806   5.912  0.1654 -0.5226  1.7435
 4279SOL    HW224471   2.473   0.915   5.994 -1.8014  2.9042  0.2666
 4280SOL     OW24472   0.514   3.100   6.944 -0.2168  0.2066  0.3651
 4280SOL    HW124473   0.477   3.125   7.028 -1.6470 -0.0466 -0.1902
 4280SOL    HW224474   0.478   3.012   6.932  0.7350 -0.2388  0.7857
 4281SOL     OW24475   0.172   2.330  13.275 -0.0266 -0.1395 -0.5484
 4281SOL    HW124476   0.125   2.401  13.230  1.3406  2.9604  2.9066
 4281SOL    HW224477   0.155   2.255  13.219  0.3416  1.0147 -2.2032
 4282SOL     OW24478   0.784   3.251  13.386 -0.6402 -0.3798 -0.1891
 4282SOL    HW124479   0.703   3.294  13.412 -0.7053  1.6508 -3.7601
 4282SOL    HW224480   0.752   3.173  13.342 -1.1881  0.0783 -0.5855
 4283SOL     OW24481   0.303   4.704   2.781 -0.3500  0.2036 -0.3345
 4283SOL    HW124482   0.385   4.677   2.823 -1.0236 -1.7041 -0.2085
 4283SOL    HW224483   0.245   4.706   2.857 -1.5940 -2.1493 -1.1970
 4284SOL     OW24484   3.588   2.150   8.360 -0.0780  0.3945 -0.0885
 4284SOL    HW124485   3.551   2.068   8.328 -2.6716  1.3509  0.4397
 4284SOL    HW224486   3.661   2.125   8.417 -0.3526 -0.9192 -0.3264
 4285SOL     OW24487   0.983   3.703   8.786 -0.3038  0.3039  0.2165
 4285SOL    HW124488   0.933   3.751   8.852 -1.5262 -1.1405  0.3457
 4285SOL    HW224489   1.051   3.769   8.772  0.3410  0.1850  2.7322
 4286SOL     OW24490   2.786   0.871   3.651 -0.8068 -0.2619  0.4402
 4286SOL    HW124491   2.700   0.841   3.679 -1.9266  1.8397 -0.7641
 4286SOL    HW224492   2.782   0.961   3.681  0.2344 -0.2179  0.4472
 4287SOL     OW24493   1.932   4.611  14.229 -0.2002  0.1774 -0.0080
 4287SOL    HW124494   1.842   4.644  14.219  0.1930  1.7856  1.5813
 4287SOL    HW224495   1.929   4.603  14.325  2.1140 -1.5871 -0.0917
 4288SOL     OW24496   3.124   1.265  13.287 -0.0613  1.3212  0.4524
 4288SOL    HW124497   3.130   1.350  13.242  1.4932  0.7593 -0.4124
 4288SOL    HW224498   3.121   1.291  13.379  1.7955 -1.9981  1.4385
 4289SOL     OW24499   1.126   2.713   5.023  0.2805  0.1969  0.4000
 4289SOL    HW124500   1.070   2.744   5.094 -1.0818 -2.2952  0.4087
 4289SOL    HW224501   1.055   2.684   4.966 -0.1524  1.5115  0.2825
 4290SOL     OW24502   3.998   1.313   0.825 -0.0887  0.4304 -0.3202
 4290SOL    HW124503   4.013   1.378   0.756  0.9720  2.1598  1.5434
 4290SOL    HW224504   4.071   1.255   0.805 -1.2921 -2.5607  4.1162
 4291SOL     OW24505   4.307   0.686   8.391 -0.3117  0.2094 -0.5263
 4291SOL    HW124506   4.226   0.656   8.433  0.1130 -1.4375 -0.8819
 4291SOL    HW224507   4.294   0.677   8.297  2.5578 -0.3146 -0.8786
 4292SOL     OW24508   2.990   0.776   2.188 -0.7028  0.0804  0.3240
 4292SOL    HW124509   2.982   0.703   2.126 -0.5050  0.6887 -0.4137
 4292SOL    HW224510   3.033   0.840   2.131 -2.4584 -0.1434 -1.2512
 4293SOL     OW24511   1.103   1.614   6.198 -0.4623  0.1116  0.5038
 4293SOL    HW124512   1.009   1.626   6.208 -0.7852  0.0973 -2.6506
 4293SOL    HW224513   1.121   1.543   6.260  0.4750 -0.6483 -0.6507
 4294SOL     OW24514   4.547   1.822   3.484  0.4620  0.0503  0.3489
 4294SOL    HW124515   4.514   1.912   3.485  0.1203 -0.0634 -0.6925
 4294SOL    HW224516   4.491   1.793   3.412 -0.6130 -0.4481  1.3733
 4295SOL     OW24517   2.628   3.389   6.119  0.3590  0.6216 -0.5933
 4295SOL    HW124518   2.696   3.417   6.180  1.0472  1.9638 -1.9684
 4295SOL    HW224519   2.589   3.469   6.082 -1.9661  0.3716  1.3244
 4296SOL     OW24520   3.514   0.493  10.952  0.3279  0.5694 -0.0484
 4296SOL    HW124521   3.489   0.432  10.882 -0.6773 -0.7815  1.4741
 4296SOL    HW224522   3.598   0.451  10.974 -0.9854 -2.7792 -1.3209
 4297SOL     OW24523   2.796   3.820  15.575  0.0212  0.1109  0.0169
 4297SOL    HW124524   2.856   3.748  15.596  0.7734  0.5216 -0.7612
 4297SOL    HW224525   2.808   3.822  15.480  1.6800 -1.1342  0.2009
 4298SOL     OW24526   1.348   1.729   9.831 -0.2003 -0.1913  0.4701
 4298SOL    HW124527   1.410   1.666   9.868 -0.6275 -1.4084 -0.9213
 4298SOL    HW224528   1.402   1.806   9.816 -1.1061  0.1892 -0.8322
 4299SOL     OW24529   0.385   4.604  12.053 -0.0705 -0.4056 -0.3391
 4299SOL    HW124530   0.295   4.585  12.080  0.3595  0.4223  1.6166
 4299SOL    HW224531   0.428   4.621  12.136  0.8732  2.2555 -1.3622
 4300SOL     OW24532   4.050   1.058   6.100 -0.3620 -0.1822 -0.0665
 4300SOL    HW124533   4.137   1.029   6.075  0.2530  1.1506  0.5428
 4300SOL    HW224534   4.006   1.052   6.015 -0.1411  0.1361 -0.2000
 4301SOL     OW24535   4.151   3.968   4.800  0.4198  0.6165  0.5645
 4301SOL    HW124536   4.151   3.893   4.740 -0.2583  2.0295 -1.1902
 4301SOL    HW224537   4.238   4.006   4.802  0.9023 -0.4828  0.6548
 4302SOL     OW24538   2.104   3.897   1.750 -0.6321  0.1333 -0.5347
 4302SOL    HW124539   2.024   3.928   1.794  0.1318 -0.1247  1.0175
 4302SOL    HW224540   2.160   3.934   1.818  0.0896  0.7802 -1.4934
 4303SOL     OW24541   0.751   1.101   1.099  0.0184  0.9761  0.1421
 4303SOL    HW124542   0.829   1.047   1.106 -0.5711 -0.2274 -2.7436
 4303SOL    HW224543   0.759   1.141   1.186  0.5342 -1.6319  1.2876
 4304SOL     OW24544   4.091   3.580   8.495 -0.3739  0.2937 -0.3446
 4304SOL    HW124545   4.152   3.651   8.511  0.7415 -0.3277 -1.8300
 4304SOL    HW224546   4.083   3.520   8.570  0.3695  1.7576  0.8975
 4305SOL     OW24547   2.552   2.607   5.708 -0.1662 -0.1746 -0.0953
 4305SOL    HW124548   2.478   2.662   5.733 -1.7114 -0.6885 -3.4640
 4305SOL    HW224549   2.612   2.651   5.648  0.3921  0.2509  0.7800
 4306SOL     OW24550   1.163   4.234  13.699 -0.4781 -0.4209 -0.2953
 4306SOL    HW124551   1.155   4.313  13.752 -1.9086 -1.4701  1.0293
 4306SOL    HW224552   1.192   4.166  13.760  2.0861 -1.5681 -2.7932
 4307SOL     OW24553   3.783   3.807   7.136 -0.9942 -0.2081  0.6400
 4307SOL    HW124554   3.811   3.733   7.191 -0.6091 -0.8566 -0.4166
 4307SOL    HW224555   3.764   3.877   7.198  0.0683  0.6285  0.0087
 4308SOL     OW24556   0.881   0.616   2.510  0.1136  0.0448 -0.3317
 4308SOL    HW124557   0.788   0.622   2.490  0.2388  4.7278  0.6546
 4308SOL    HW224558   0.906   0.699   2.470 -2.6156  0.8756 -0.3024
 4309SOL     OW24559   2.418   0.580   4.140 -0.0709  0.1480 -0.3337
 4309SOL    HW124560   2.390   0.531   4.063  1.1970  0.5673 -1.0619
 4309SOL    HW224561   2.435   0.666   4.103  0.6696  0.3930  0.5578
 4310SOL     OW24562   2.751   0.728   4.055  0.2693  0.1259  0.1830
 4310SOL    HW124563   2.673   0.774   4.086 -0.5441 -1.0936 -0.0363
 4310SOL    HW224564   2.807   0.729   4.132  0.4412  1.8778  0.0222
 4311SOL     OW24565   1.945   4.556  16.819 -0.7818 -0.2270 -0.2977
 4311SOL    HW124566   1.898   4.554  16.736 -2.9657  1.0285  0.8995
 4311SOL    HW224567   1.933   4.646  16.851  1.9932  0.0804 -0.1480
 4312SOL     OW24568   0.767   0.008   1.574  0.6216 -0.6216  0.7226
 4312SOL    HW124569   0.833   4.696   1.629  0.9747  1.1263  1.6717
 4312SOL    HW224570   0.701   4.671   1.587 -0.1147 -0.0891 -0.2852
 4313SOL     OW24571   4.337   4.561   4.464  0.8083 -0.1418  0.4383
 4313SOL    HW124572   4.396   4.598   4.398 -0.3612 -0.4360 -0.7745
 4313SOL    HW224573   4.271   4.626   4.488  1.5284  1.6098 -2.3529
 4314SOL     OW24574   3.737   2.770   4.159  0.3732  0.3112 -0.6966
 4314SOL    HW124575   3.747   2.725   4.243  1.6842  0.4573 -0.7828
 4314SOL    HW224576   3.689   2.704   4.109  0.2729  0.1794 -0.4309
 4315SOL     OW24577   0.724   3.260  11.756  0.3824  0.3407  0.2033
 4315SOL    HW124578   0.727   3.337  11.813 -0.6266  1.5306 -1.3534
 4315SOL    HW224579   0.811   3.221  11.768  0.6776  0.9830  0.1027
 4316SOL     OW24580   3.542   2.894   2.097  0.0582 -0.1516  0.5338
 4316SOL    HW124581   3.606   2.965   2.108  2.3380 -2.1791  0.4699
 4316SOL    HW224582   3.537   2.901   2.002  0.5108 -2.0728  0.3744
 4317SOL     OW24583   3.747   0.087   4.667 -0.2147  0.2420 -0.0485
 4317SOL    HW124584   3.829   0.041   4.687 -0.0665  1.4812  2.2059
 4317SOL    HW224585   3.731   0.148   4.738  2.4068 -1.1052  1.7157
 4318SOL     OW24586   4.344   1.435   9.910 -0.1164 -0.2647 -0.0555
 4318SOL    HW124587   4.289   1.358   9.922  1.8870 -1.4395  1.6645
 4318SOL    HW224588   4.412   1.402   9.850  0.6285  0.7172  0.2428
 4319SOL     OW24589   2.515   4.676   3.478 -0.0844  0.2717  0.1539
 4319SOL    HW124590   2.422   4.666   3.460  0.3024 -0.9122 -1.1743
 4319SOL    HW224591   2.522   4.692   3.572  0.8385  0.9587 -0.0214
 4320SOL     OW24592   2.068   0.289   7.611 -0.1656 -0.2044 -0.3086
 4320SOL    HW124593   2.134   0.249   7.669 -2.5777  0.1859  2.6939
 4320SOL    HW224594   2.109   0.248   7.535  1.7501 -0.6222  0.9462
 4321SOL     OW24595   1.431   0.286   9.367 -0.2789 -0.3537 -0.0495
 4321SOL    HW124596   1.342   0.288   9.402 -1.0435 -2.1700 -1.8695
 4321SOL    HW224597   1.467   0.259   9.451  0.3426 -3.2897 -1.2698
 4322SOL     OW24598   1.059   3.374   9.817  0.3139  0.0574 -0.0491
 4322SOL    HW124599   1.002   3.297   9.811 -0.6962  0.6213  2.3267
 4322SOL    HW224600   1.073   3.373   9.912  1.1503  1.9479 -0.1513
 4323SOL     OW24601   0.021   2.971   1.844 -0.0963  0.6530 -0.5219
 4323SOL    HW124602   4.659   2.990   1.833 -0.0973  0.8424 -0.1677
 4323SOL    HW224603   0.061   3.003   1.763  3.1370 -1.3471  0.2608
 4324SOL     OW24604   1.895   1.694   5.214 -0.7424  0.2217 -0.1044
 4324SOL    HW124605   1.879   1.730   5.301 -1.0191 -1.9402  0.7391
 4324SOL    HW224606   1.947   1.764   5.174 -0.2591  0.1940  0.4773
 4325SOL     OW24607   2.116   1.384   3.874  0.2730 -0.7248 -0.3424
 4325SOL    HW124608   2.119   1.397   3.969  0.1341 -3.3672  0.0063
 4325SOL    HW224609   2.137   1.291   3.865 -3.0054 -1.5807  1.1527
 4326SOL     OW24610   4.570   3.434   3.877 -0.1940 -0.4302 -0.1806
 4326SOL    HW124611   4.573   3.339   3.890 -0.4230 -0.4703 -0.4386
 4326SOL    HW224612   4.615   3.450   3.795 -1.0934 -1.1399 -0.8152
 4327SOL     OW24613   0.693   1.814   2.760  0.6994 -0.4537 -0.1411
 4327SOL    HW124614   0.705   1.856   2.674  2.8880  2.0797  1.4251
 4327SOL    HW224615   0.780   1.774   2.765  0.7924 -0.5329 -2.1446
 4328SOL     OW24616   2.790   3.058  13.151  0.7456 -0.2725 -0.1349
 4328SOL    HW124617   2.793   2.973  13.106 -0.2303 -2.4796  4.0175
 4328SOL    HW224618   2.701   3.063  13.183  0.8948 -2.4835  0.6072
 4329SOL     OW24619   4.125   0.931  12.241 -0.1121  0.0087 -0.3198
 4329SOL    HW124620   4.187   1.001  12.260  0.8433 -0.7716 -0.5634
 4329SOL    HW224621   4.046   0.983  12.250  0.5758  0.4927  3.0222
 4330SOL     OW24622   1.483   2.973   3.625  1.0444 -0.0797 -0.0187
 4330SOL    HW124623   1.544   2.902   3.608 -1.3331 -2.0252 -0.4383
 4330SOL    HW224624   1.402   2.923   3.629  0.7208  0.3879 -0.7348
 4331SOL     OW24625   1.992   1.593   4.570  0.1477  0.0857  0.3563
 4331SOL    HW124626   1.987   1.632   4.657  1.9608 -0.3270  0.6436
 4331SOL    HW224627   2.086   1.582   4.556  0.0474  1.1938 -1.2165
 4332SOL     OW24628   4.347   0.362  14.116 -0.0422  0.4411 -0.5208
 4332SOL    HW124629   4.415   0.415  14.158  0.1226 -0.9280  0.9168
 4332SOL    HW224630   4.286   0.430  14.089  0.1200  0.6194 -0.4382
 4333SOL     OW24631   2.372   0.599   3.838 -0.7083  0.1661  0.3733
 4333SOL    HW124632   2.424   0.521   3.853 -2.1576 -0.9678 -0.5451
 4333SOL    HW224633   2.290   0.572   3.798 -1.5252  0.2309  2.0110
 4334SOL     OW24634   2.377   2.732   8.957  0.1310 -0.4930  0.0199
 4334SOL    HW124635   2.421   2.702   8.877 -1.8830 -0.6885 -1.0089
 4334SOL    HW224636   2.288   2.743   8.923  1.6743 -0.0260 -3.8606
 4335SOL     OW24637   0.627   3.889  12.849 -0.2281 -0.7982 -0.0207
 4335SOL    HW124638   0.572   3.830  12.902  0.2078 -1.0031  0.2056
 4335SOL    HW224639   0.629   3.838  12.768  0.2414 -2.9172  1.3022
 4336SOL     OW24640   0.944   3.766  13.596  0.3059 -0.1065 -0.9151
 4336SOL    HW124641   0.927   3.718  13.677  0.9369 -0.3005 -0.8930
 4336SOL    HW224642   0.894   3.847  13.606  1.6652  0.4549  1.4557
 4337SOL     OW24643   3.212   2.637   9.263 -0.4296 -0.4037 -0.1643
 4337SOL    HW124644   3.142   2.601   9.207 -1.4820  0.0808  0.8439
 4337SOL    HW224645   3.252   2.557   9.298  1.6427  1.9845  2.8559
 4338SOL     OW24646   1.957   1.767   1.538  0.1635  0.0980 -0.4570
 4338SOL    HW124647   1.913   1.683   1.551 -2.0316  1.3758  0.4259
 4338SOL    HW224648   1.977   1.795   1.627 -1.8816 -2.0550  0.6762
 4339SOL     OW24649   1.143   2.329   3.493  0.0989 -0.0196 -0.4163
 4339SOL    HW124650   1.050   2.309   3.479  0.1249 -0.9114  0.7141
 4339SOL    HW224651   1.143   2.423   3.475 -2.6756  0.0040 -0.2661
 4340SOL     OW24652   4.419   1.000   8.631  0.4726  0.3132  0.2759
 4340SOL    HW124653   4.332   0.991   8.671 -0.1785  0.6607 -1.0734
 4340SOL    HW224654   4.459   1.056   8.698  1.7619 -0.9803  0.5932
 4341SOL     OW24655   2.221   2.961   1.085  0.0280 -0.2304  0.0961
 4341SOL    HW124656   2.239   2.924   1.171  4.2010 -0.4524 -0.8940
 4341SOL    HW224657   2.126   2.971   1.096 -0.1730 -1.7708 -0.2752
 4342SOL     OW24658   0.421   0.314   2.356  0.0406  0.2723 -0.0814
 4342SOL    HW124659   0.503   0.363   2.358 -0.9531  2.0021 -1.8300
 4342SOL    HW224660   0.429   0.235   2.408 -1.1455 -0.7658 -1.4698
 4343SOL     OW24661   4.405   1.714   4.169 -0.1151  0.1237  0.0081
 4343SOL    HW124662   4.467   1.709   4.241  0.1198  0.9266 -0.1443
 4343SOL    HW224663   4.461   1.673   4.103 -0.0979  1.4727 -0.8126
 4344SOL     OW24664   3.169   3.680   4.519 -0.4296 -0.6238  0.1224
 4344SOL    HW124665   3.203   3.726   4.595  1.0204  0.3189 -1.1021
 4344SOL    HW224666   3.146   3.597   4.561 -0.6927 -0.7339 -0.2412
 4345SOL     OW24667   1.727   0.831   1.718  0.0165 -0.0957 -0.7304
 4345SOL    HW124668   1.652   0.825   1.777  0.7562  4.3590  0.6428
 4345SOL    HW224669   1.793   0.805   1.782 -1.5543 -0.0379  0.9042
 4346SOL     OW24670   1.660   4.203   9.187 -0.1489  0.4980 -0.1582
 4346SOL    HW124671   1.671   4.279   9.245 -1.2718  0.1089  0.5622
 4346SOL    HW224672   1.627   4.137   9.247 -1.8245  0.8303 -0.7106
 4347SOL     OW24673   1.566   2.819   5.004  0.4273 -0.6556 -0.4085
 4347SOL    HW124674   1.591   2.804   4.913  2.9336 -0.0459  0.1925
 4347SOL    HW224675   1.482   2.864   4.989 -0.1672 -1.2782  1.1229
 4348SOL     OW24676   2.241   2.249   5.007 -0.1320 -0.0830 -0.1789
 4348SOL    HW124677   2.147   2.231   4.998 -0.1792 -0.2984  0.7491
 4348SOL    HW224678   2.245   2.333   5.052  0.2481 -0.6199  0.7794
 4349SOL     OW24679   2.141   0.030  14.064  0.3840  0.2426 -0.1862
 4349SOL    HW124680   2.164   4.670  14.080  0.7019  0.4523  0.5312
 4349SOL    HW224681   2.077   0.044  14.134 -0.3707  1.2488 -1.0652
 4350SOL     OW24682   1.685   2.906   1.724  0.4671  0.2562  0.1477
 4350SOL    HW124683   1.604   2.953   1.705 -1.0675 -1.1143  3.4082
 4350SOL    HW224684   1.698   2.934   1.815  1.0436 -0.3580  0.2489
 4351SOL     OW24685   0.344   4.066   9.492  0.2453 -0.4813  0.7207
 4351SOL    HW124686   0.434   4.035   9.496  0.5245  0.3266  0.7432
 4351SOL    HW224687   0.321   4.078   9.584  0.8169  0.2203  0.7775
 4352SOL     OW24688   2.723   1.123   7.416 -0.7566 -0.6298  0.0075
 4352SOL    HW124689   2.707   1.041   7.369  0.1190 -0.3147 -0.8474
 4352SOL    HW224690   2.635   1.150   7.442  0.3548  1.4905  1.5853
 4353SOL     OW24691   3.840   3.993   1.737 -0.1621  0.1935  0.3648
 4353SOL    HW124692   3.919   3.993   1.682 -0.9668  1.3416 -0.8114
 4353SOL    HW224693   3.813   4.085   1.731  1.9178  0.8904  1.4130
 4354SOL     OW24694   2.091   1.826   8.241  0.0071  0.3947 -0.6353
 4354SOL    HW124695   2.158   1.857   8.302 -0.6942  0.8284 -0.0870
 4354SOL    HW224696   2.007   1.859   8.272  0.7448  1.1598  0.5388
 4355SOL     OW24697   4.526   2.357   4.363 -0.4332  0.1501 -0.2565
 4355SOL    HW124698   4.514   2.263   4.349  0.4812  0.4279 -2.8983
 4355SOL    HW224699   4.441   2.382   4.398 -1.2072  1.1413 -2.8008
 4356SOL     OW24700   2.887   3.097   1.669 -0.0264  0.0048  0.4295
 4356SOL    HW124701   2.951   3.137   1.610  1.0138  0.4380  1.8309
 4356SOL    HW224702   2.897   3.008   1.634  0.8747 -0.5829  2.1869
 4357SOL     OW24703   1.588   0.899   4.499  0.2820  0.0568 -0.5894
 4357SOL    HW124704   1.658   0.854   4.545  0.4387 -0.5249 -1.4016
 4357SOL    HW224705   1.632   0.912   4.415  1.6714  1.1286  0.3130
 4358SOL     OW24706   2.074   4.591   4.295 -0.1700  0.3503  0.4643
 4358SOL    HW124707   2.014   4.601   4.369 -0.2747  0.6192  0.3424
 4358SOL    HW224708   2.066   4.496   4.284 -0.6509  0.5964 -1.2497
 4359SOL     OW24709   4.385   4.698   2.884  0.4271 -0.4390 -0.4000
 4359SOL    HW124710   4.385   0.039   2.946 -1.4814 -2.1087  1.5658
 4359SOL    HW224711   4.424   4.632   2.941 -2.1398 -1.0574  0.6367
 4360SOL     OW24712   3.583   2.360   6.121 -0.3939  0.0524  0.3160
 4360SOL    HW124713   3.668   2.319   6.136 -1.0605 -1.6748 -0.5442
 4360SOL    HW224714   3.582   2.375   6.026  1.7015 -0.0965  0.2652
 4361SOL     OW24715   3.387   4.079   3.714  0.2379 -0.0412 -0.2854
 4361SOL    HW124716   3.363   3.988   3.730 -0.6030  0.4618  1.3890
 4361SOL    HW224717   3.462   4.103   3.768  1.3326 -0.3490 -1.6757
 4362SOL     OW24718   3.756   2.411   4.579 -0.0393 -0.3836 -0.4973
 4362SOL    HW124719   3.771   2.348   4.649 -0.3486  1.2476  1.0380
 4362SOL    HW224720   3.671   2.388   4.541 -1.6843  1.2397  2.1801
 4363SOL     OW24721   1.811   0.733   8.095  0.4662  0.9291 -0.2597
 4363SOL    HW124722   1.857   0.787   8.160  1.3057 -0.7679  0.5893
 4363SOL    HW224723   1.875   0.742   8.025  1.7835 -0.2286  0.7757
 4364SOL     OW24724   1.919   2.285   3.719 -0.4696 -0.0649 -0.6486
 4364SOL    HW124725   1.949   2.376   3.714  1.9397 -0.7289  1.3497
 4364SOL    HW224726   1.906   2.283   3.814 -1.1901  0.3991 -0.7416
 4365SOL     OW24727   1.672   2.238  10.386 -0.4124  0.2196  0.1336
 4365SOL    HW124728   1.685   2.281  10.471  0.8146  0.4658 -0.1709
 4365SOL    HW224729   1.585   2.200  10.390  0.1995 -0.7839  3.8345
 4366SOL     OW24730   2.279   1.826   1.582 -0.8480  0.2770  0.2079
 4366SOL    HW124731   2.276   1.849   1.675 -1.0780 -1.3168  0.6130
 4366SOL    HW224732   2.187   1.805   1.566 -0.4800 -0.4326 -0.9947
 4367SOL     OW24733   0.299   2.135   2.435 -0.2441 -0.1363  0.3475
 4367SOL    HW124734   0.338   2.220   2.458  1.0004 -0.2092 -1.5021
 4367SOL    HW224735   0.341   2.072   2.493  1.8842  0.1077 -0.9300
 4368SOL     OW24736   0.522   1.394  10.027 -0.3252 -0.2099  0.1261
 4368SOL    HW124737   0.614   1.368  10.028  0.0337  1.0469 -2.2049
 4368SOL    HW224738   0.501   1.317   9.974  0.2576 -0.7782  0.7082
 4369SOL     OW24739   0.943   4.300   3.422 -0.4636  0.0802  0.3602
 4369SOL    HW124740   0.888   4.375   3.443 -0.2538  0.1524  0.6507
 4369SOL    HW224741   0.906   4.280   3.336  0.4136 -1.6405  0.3930
 4370SOL     OW24742   0.425   2.998   8.105  0.3861  0.3572  0.0472
 4370SOL    HW124743   0.466   3.078   8.138  2.9546 -0.4833 -1.0675
 4370SOL    HW224744   0.364   2.984   8.178 -1.6229  0.0837 -1.7069
 4371SOL     OW24745   0.841   1.203   4.565 -0.0187 -0.4910  0.0024
 4371SOL    HW124746   0.771   1.166   4.512 -1.7751  1.7092  0.7903
 4371SOL    HW224747   0.829   1.296   4.544  0.6696 -1.0450 -2.8404
 4372SOL     OW24748   1.348   0.646  11.953 -0.6366  0.5350  0.1710
 4372SOL    HW124749   1.311   0.734  11.959  3.0323  1.9325  2.0351
 4372SOL    HW224750   1.412   0.657  11.882 -0.2458 -1.0812  0.2558
 4373SOL     OW24751   4.650   3.813  17.710  0.2645 -0.5764  0.1957
 4373SOL    HW124752   4.698   3.749   0.038  1.1163 -0.0296  0.0856
 4373SOL    HW224753   4.625   3.762  17.633  1.8492  0.1701 -0.8173
 4374SOL     OW24754   2.316   2.576   4.843  0.0386  0.2070  0.5067
 4374SOL    HW124755   2.400   2.620   4.830  0.4981 -0.6267  0.6631
 4374SOL    HW224756   2.332   2.484   4.864  2.4496  0.4276 -0.3776
 4375SOL     OW24757   3.964   1.350   8.534  0.4878 -0.0182 -0.0378
 4375SOL    HW124758   3.957   1.435   8.489 -0.4361 -1.0847 -1.9397
 4375SOL    HW224759   3.894   1.368   8.596  0.5865  0.3293 -0.0279
 4376SOL     OW24760   3.217   0.846  11.177  0.6911 -0.3350 -0.4957
 4376SOL    HW124761   3.292   0.798  11.211  0.7002  0.7179  0.9527
 4376SOL    HW224762   3.221   0.931  11.222  1.1151 -1.6746  1.9845
 4377SOL     OW24763   0.654   4.058   8.384  0.2973 -0.5942 -0.2785
 4377SOL    HW124764   0.651   4.125   8.316  2.9082 -1.3834 -1.1841
 4377SOL    HW224765   0.581   4.099   8.431  1.4472  1.0840  0.0539
 4378SOL     OW24766   2.442   3.962   5.485  0.0758  0.1286 -0.6033
 4378SOL    HW124767   2.507   4.007   5.539 -0.5433 -1.3612  1.4011
 4378SOL    HW224768   2.429   4.028   5.417 -1.8530  1.5305  1.1409
 4379SOL     OW24769   1.169   1.413   3.280 -0.1347  0.2104 -0.2020
 4379SOL    HW124770   1.189   1.374   3.195  1.7029  0.7323  0.0043
 4379SOL    HW224771   1.242   1.473   3.294  1.2287 -1.0370 -1.9774
 4380SOL     OW24772   1.317   4.480   2.525 -0.1530 -0.1739  0.0549
 4380SOL    HW124773   1.273   4.469   2.609 -0.9604 -0.9503 -0.4768
 4380SOL    HW224774   1.363   4.397   2.517 -2.5941 -1.2314 -2.5844
 4381SOL     OW24775   2.042   0.350  16.000 -0.2929  0.3485 -0.6830
 4381SOL    HW124776   1.974   0.416  15.999 -2.1821 -1.5906 -0.0284
 4381SOL    HW224777   2.012   0.299  15.925  0.4653 -1.9097  0.5499
 4382SOL     OW24778   2.277   1.833   7.344  0.2711  0.2772  0.3643
 4382SOL    HW124779   2.229   1.792   7.271  0.9251  0.2405 -0.0511
 4382SOL    HW224780   2.233   1.797   7.420 -0.6325 -0.5620 -0.5478
 4383SOL     OW24781   1.514   2.969   4.010 -0.3412  0.2749  0.3184
 4383SOL    HW124782   1.464   3.037   4.054  2.5939  3.2105 -0.8936
 4383SOL    HW224783   1.595   3.015   3.991 -0.1380 -1.2761 -2.6887
 4384SOL     OW24784   3.358   0.762   5.581 -0.0967 -0.1987  0.0162
 4384SOL    HW124785   3.376   0.769   5.674 -2.1333 -3.0983  0.6456
 4384SOL    HW224786   3.376   0.851   5.552 -0.4023  0.2820  1.3202
 4385SOL     OW24787   4.235   2.246  15.873 -0.2147  0.9604  0.2042
 4385SOL    HW124788   4.282   2.174  15.832 -0.3783  0.6063  0.6457
 4385SOL    HW224789   4.157   2.257  15.818 -0.1826  1.2787  0.2226
 4386SOL     OW24790   0.526   2.659   4.787 -0.3698 -0.2536  0.1358
 4386SOL    HW124791   0.517   2.664   4.692  0.7635 -0.8272  0.0079
 4386SOL    HW224792   0.466   2.588   4.810 -1.5131 -0.1614 -2.4778
 4387SOL     OW24793   4.646   0.489   1.733 -0.0620  0.0289  0.1802
 4387SOL    HW124794   4.695   0.469   1.813  1.0653  1.6389 -0.1080
 4387SOL    HW224795   4.561   0.505   1.773 -0.5781  1.3539 -1.4604
 4388SOL     OW24796   1.025   2.402  10.401 -0.2197 -0.7766  0.2231
 4388SOL    HW124797   0.970   2.378  10.326 -0.2300  0.0863 -0.0376
 4388SOL    HW224798   0.968   2.391  10.478 -1.5884  0.7854 -0.5658
 4389SOL     OW24799   2.025   0.979  12.002  0.0695  0.6159 -0.0779
 4389SOL    HW124800   2.007   0.899  12.052  0.6498  0.1038 -0.6987
 4389SOL    HW224801   2.095   1.012  12.057  0.4076 -1.6449  0.8421
 4390SOL     OW24802   1.056   3.156   2.255  0.3060 -0.1567  0.1057
 4390SOL    HW124803   1.107   3.234   2.231 -0.1660  0.1883  0.2128
 4390SOL    HW224804   0.988   3.201   2.306 -0.8050 -0.2890 -1.2660
 4391SOL     OW24805   1.977   2.235   9.703  0.3286  0.2164  0.0539
 4391SOL    HW124806   1.908   2.280   9.655 -1.1450  0.0258  2.0232
 4391SOL    HW224807   1.959   2.252   9.795 -1.7693 -2.0637  0.0751
 4392SOL     OW24808   1.344   1.308   9.285 -0.1151  0.2521  0.5917
 4392SOL    HW124809   1.342   1.317   9.380 -0.1000  2.4313  0.3909
 4392SOL    HW224810   1.387   1.388   9.254 -0.3325 -0.7567 -2.3039
 4393SOL     OW24811   2.228   0.835   8.705 -0.1531  0.2859  0.4712
 4393SOL    HW124812   2.237   0.778   8.781  1.8009 -0.7746 -0.5541
 4393SOL    HW224813   2.199   0.919   8.740  1.9100  1.1489  0.1210
 4394SOL     OW24814   1.580   0.497   7.059  0.0017 -0.5378  0.3764
 4394SOL    HW124815   1.642   0.428   7.081  0.6869 -0.0432  0.0181
 4394SOL    HW224816   1.518   0.494   7.131 -1.4549  3.0423 -0.7417
 4395SOL     OW24817   2.348   2.406   7.890  0.2819 -0.6772  0.0639
 4395SOL    HW124818   2.418   2.399   7.955 -0.5852  1.7341  1.2586
 4395SOL    HW224819   2.294   2.465   7.944  1.1409 -0.5756  0.8124
 4396SOL     OW24820   0.978   1.891   9.639  0.0845  0.6027 -0.1598
 4396SOL    HW124821   0.907   1.952   9.621 -0.2050  0.2934 -0.0564
 4396SOL    HW224822   1.002   1.947   9.713 -0.7152  0.7715 -0.0285
 4397SOL     OW24823   4.011   2.868   3.025 -0.0228  0.0364  0.2620
 4397SOL    HW124824   4.093   2.818   3.021  1.4259  2.3496  1.3403
 4397SOL    HW224825   4.046   2.947   2.985 -1.7679  1.4343  1.5513
 4398SOL     OW24826   1.827   3.908  14.366 -0.4627  0.4431  0.1318
 4398SOL    HW124827   1.832   3.977  14.300 -0.6364  1.4924  1.2171
 4398SOL    HW224828   1.760   3.948  14.421 -0.4117  0.3517  0.2594
 4399SOL     OW24829   3.963   3.352   9.376  0.1852  0.5647 -0.0166
 4399SOL    HW124830   3.938   3.260   9.377  0.4652  0.5090  1.5729
 4399SOL    HW224831   3.940   3.378   9.465 -0.1324  2.9152 -0.7893
 4400SOL     OW24832   3.115   0.994  13.281  0.1908 -0.0709  0.3538
 4400SOL    HW124833   3.210   0.981  13.272 -0.2101 -0.7653 -2.8221
 4400SOL    HW224834   3.115   1.088  13.262  0.1128 -0.3666 -1.0960
 4401SOL     OW24835   4.423   0.742  17.287  0.7600  0.1286  0.0327
 4401SOL    HW124836   4.502   0.726  17.338  2.3448  1.1934 -2.0733
 4401SOL    HW224837   4.367   0.685  17.340  1.0500 -0.9407 -0.8083
 4402SOL     OW24838   4.137   3.878   6.499  0.0883  1.3565  0.6855
 4402SOL    HW124839   4.223   3.888   6.539 -0.0812  3.9685  0.4142
 4402SOL    HW224840   4.131   3.952   6.439 -0.1540  1.1958  0.5138
 4403SOL     OW24841   1.710   2.802   3.553  0.7321  0.3073 -0.1504
 4403SOL    HW124842   1.795   2.803   3.510 -0.5942  0.1794 -2.7694
 4403SOL    HW224843   1.710   2.708   3.573  0.2872  0.4732  0.6497
 4404SOL     OW24844   3.791   0.348   2.747 -0.0745  0.5373 -0.0648
 4404SOL    HW124845   3.709   0.321   2.707  0.2680  0.0265 -0.4120
 4404SOL    HW224846   3.779   0.443   2.745 -1.4715  0.3466 -0.3582
 4405SOL     OW24847   3.763   2.134   6.870 -0.0699  0.5749 -0.6253
 4405SOL    HW124848   3.688   2.144   6.929 -1.6504  0.5325 -2.6272
 4405SOL    HW224849   3.786   2.226   6.854 -2.3420  0.7263 -3.0064
 4406SOL     OW24850   1.816   0.152   6.276  0.0810  0.3103 -0.0415
 4406SOL    HW124851   1.833   0.167   6.183 -0.3760  2.1484  0.1586
 4406SOL    HW224852   1.745   0.087   6.274  1.5556 -1.3467  1.6841
 4407SOL     OW24853   1.075   3.671   2.021 -0.6691 -0.0628 -0.1427
 4407SOL    HW124854   1.029   3.676   1.938  1.7173 -1.5057 -1.5512
 4407SOL    HW224855   1.004   3.696   2.081  0.1703 -0.1629  0.9033
 4408SOL     OW24856   1.761   1.094   4.835  0.2239 -0.2344 -0.1272
 4408SOL    HW124857   1.704   1.082   4.910 -0.0278 -1.6228 -0.5496
 4408SOL    HW224858   1.699   1.109   4.764  1.6857 -0.9466 -1.5571
 4409SOL     OW24859   0.289   0.488   5.757  0.3457  0.0115  0.2390
 4409SOL    HW124860   0.280   0.461   5.665 -0.5810  1.9425 -0.2318
 4409SOL    HW224861   0.319   0.406   5.796  0.4313 -0.2852 -0.4421
 4410SOL     OW24862   0.245   1.892   6.852  0.2432  0.3002  0.5643
 4410SOL    HW124863   0.285   1.897   6.765  1.2307 -1.9706  0.8889
 4410SOL    HW224864   0.153   1.879   6.830  0.8439 -2.3788 -0.2556
 4411SOL     OW24865   1.457   4.269   2.517 -0.6709  0.4266  0.4400
 4411SOL    HW124866   1.416   4.195   2.472 -0.8717  1.5000 -1.1867
 4411SOL    HW224867   1.493   4.223   2.592 -2.1814 -2.7414 -0.7887
 4412SOL     OW24868   4.226   1.159   9.144  0.4182  0.3573  0.1810
 4412SOL    HW124869   4.198   1.222   9.209  0.0372  1.3483 -0.9397
 4412SOL    HW224870   4.143   1.113   9.133  1.3580 -1.2147 -0.5177
 4413SOL     OW24871   1.097   1.797  10.241 -0.4917 -0.5621  0.4898
 4413SOL    HW124872   1.085   1.724  10.301  1.1531 -0.1575  1.3008
 4413SOL    HW224873   1.033   1.863  10.267 -1.7867 -1.5583 -0.1534
 4414SOL     OW24874   4.416   3.659   6.785 -0.0025  0.4063 -0.6519
 4414SOL    HW124875   4.420   3.711   6.705 -0.7785 -0.0848 -1.0121
 4414SOL    HW224876   4.395   3.732   6.843  0.2737 -0.0483  0.0130
 4415SOL     OW24877   0.308   4.446  14.732 -0.2884  0.3664  0.0439
 4415SOL    HW124878   0.286   4.365  14.686  0.0351 -0.2299  0.9402
 4415SOL    HW224879   0.347   4.411  14.812  0.8969  0.0522 -0.6639
 4416SOL     OW24880   3.343   3.289   1.499  0.4022 -0.3530  0.5162
 4416SOL    HW124881   3.358   3.302   1.593  0.9975 -3.1721  0.8286
 4416SOL    HW224882   3.348   3.383   1.481 -0.3966 -0.4370 -0.1455
 4417SOL     OW24883   1.340   1.736   7.168 -0.5569  0.2046 -0.2161
 4417SOL    HW124884   1.289   1.656   7.183  0.1556 -0.2137 -0.0262
 4417SOL    HW224885   1.410   1.716   7.106 -0.6402 -2.8434  0.6996
 4418SOL     OW24886   1.517   2.618   1.465  0.5287 -0.1418 -0.1448
 4418SOL    HW124887   1.603   2.634   1.503 -0.3959  1.4483  1.2873
 4418SOL    HW224888   1.507   2.693   1.405 -3.6633  2.9125  4.3670
 4419SOL     OW24889   1.684   2.747  12.805  0.3249  0.5068 -0.3286
 4419SOL    HW124890   1.677   2.676  12.740  0.7041 -1.0115  1.2867
 4419SOL    HW224891   1.615   2.801  12.768  1.7099  2.5183  0.0386
 4420SOL     OW24892   2.392   1.214  10.044  0.0883  0.1088 -0.3920
 4420SOL    HW124893   2.345   1.181  10.120  2.0628  0.7355  1.0793
 4420SOL    HW224894   2.433   1.134  10.011 -0.9273 -0.6212  0.1105
 4421SOL     OW24895   4.413   3.264   5.647 -0.1233 -0.0914 -0.4269
 4421SOL    HW124896   4.424   3.174   5.677  0.8627  0.5583  1.2010
 4421SOL    HW224897   4.454   3.316   5.717  2.8490 -0.2631 -2.0457
 4422SOL     OW24898   3.165   3.698  15.344 -0.0275 -0.7032 -0.0476
 4422SOL    HW124899   3.089   3.662  15.390 -1.3828 -1.3196 -2.7649
 4422SOL    HW224900   3.147   3.792  15.349 -0.9175 -1.1039  4.4115
 4423SOL     OW24901   4.716   3.838  16.152 -0.2801 -0.3493 -0.1258
 4423SOL    HW124902   4.650   3.842  16.084  0.9823  0.1286 -1.3147
 4423SOL    HW224903   4.663   3.795  16.219 -2.1255  0.6622 -0.9578
 4424SOL     OW24904   2.051   2.951  15.287  0.3684  0.1135  0.5740
 4424SOL    HW124905   1.957   2.968  15.289  0.3869  0.6717 -2.1186
 4424SOL    HW224906   2.052   2.862  15.321  1.5614 -0.1377 -0.1084
 4425SOL     OW24907   1.756   3.263  14.377 -0.2933 -0.2756  0.1580
 4425SOL    HW124908   1.676   3.271  14.429  0.7583  1.0971  1.5413
 4425SOL    HW224909   1.722   3.194  14.319  1.3027 -2.6610  2.0789
 4426SOL     OW24910   1.348   3.475   7.284  0.4274  0.3945 -0.4509
 4426SOL    HW124911   1.393   3.444   7.205  0.8251  1.0428 -0.4825
 4426SOL    HW224912   1.348   3.396   7.339  1.7546  0.5314 -0.2607
 4427SOL     OW24913   0.776   1.144   1.741  0.4745 -0.2307 -0.0165
 4427SOL    HW124914   0.872   1.147   1.745  0.5955 -0.8385 -2.1421
 4427SOL    HW224915   0.759   1.144   1.835  0.5274  0.1541 -0.0095
 4428SOL     OW24916   4.152   1.331   4.024 -0.4210  0.5502  0.9301
 4428SOL    HW124917   4.141   1.425   4.008  1.5012  0.6971  0.5162
 4428SOL    HW224918   4.172   1.323   4.118  0.6682  1.4493  0.7673
 4429SOL     OW24919   2.216   0.335  11.100 -0.6237  0.0689 -0.4687
 4429SOL    HW124920   2.263   0.345  11.182 -1.7837  1.6919  0.0078
 4429SOL    HW224921   2.277   0.286  11.045 -2.0885 -0.5396 -1.5690
 4430SOL     OW24922   2.832   2.797   4.704 -0.2082  0.2406  0.1496
 4430SOL    HW124923   2.856   2.717   4.750  0.5095 -0.1990 -0.9869
 4430SOL    HW224924   2.753   2.811   4.756 -0.4108  1.2959 -0.4332
 4431SOL     OW24925   3.198   3.329   6.490 -0.3366  0.3659 -0.2432
 4431SOL    HW124926   3.217   3.293   6.577  0.1412 -0.5019 -0.7093
 4431SOL    HW224927   3.113   3.295   6.464 -0.2850 -0.0989  0.2014
 4432SOL     OW24928   0.021   0.725  16.775  0.5375 -0.0711  0.1458
 4432SOL    HW124929   4.657   0.732  16.772  0.4228 -0.9881  1.8959
 4432SOL    HW224930   0.049   0.816  16.764  1.0533 -0.4508 -1.6835
 4433SOL     OW24931   2.763   2.447   6.134 -0.0451 -0.4538 -0.1511
 4433SOL    HW124932   2.746   2.400   6.216 -0.6339  1.1525  0.6588
 4433SOL    HW224933   2.853   2.416   6.125  0.1645  0.1799 -0.2751
 4434SOL     OW24934   3.963   2.871   3.379 -0.7189 -0.0084  0.6341
 4434SOL    HW124935   3.888   2.892   3.436 -1.2278  1.4198 -0.5565
 4434SOL    HW224936   4.003   2.803   3.433 -1.8675 -0.4333  0.9545
 4435SOL     OW24937   0.227   3.285   2.043 -0.2564  0.4350  0.2471
 4435SOL    HW124938   0.220   3.248   1.955 -1.1927 -0.6225  0.7582
 4435SOL    HW224939   0.167   3.360   2.041 -2.1467 -1.1070 -1.1276
 4436SOL     OW24940   1.731   0.653   2.407  0.0130  0.2947 -0.1080
 4436SOL    HW124941   1.723   0.570   2.454 -1.2410  1.0939  1.0946
 4436SOL    HW224942   1.794   0.697   2.464 -0.1519  1.0271 -0.4967
 4437SOL     OW24943   3.897   3.473   2.478  0.0319  0.2619  0.0863
 4437SOL    HW124944   3.978   3.466   2.428  2.0088 -1.5984  3.5521
 4437SOL    HW224945   3.935   3.520   2.552 -2.3506  1.6857  0.4082
 4438SOL     OW24946   2.728   1.231   4.431 -0.1865 -0.2318  0.0728
 4438SOL    HW124947   2.678   1.294   4.483 -0.5146 -0.3542 -0.0951
 4438SOL    HW224948   2.819   1.261   4.433  0.0019 -0.9421  2.0620
 4439SOL     OW24949   2.264   0.623   4.908 -0.3747 -0.2493  0.2046
 4439SOL    HW124950   2.228   0.619   4.819 -1.6681  0.3580  0.7199
 4439SOL    HW224951   2.356   0.649   4.904 -1.1187  2.1824 -0.8310
 4440SOL     OW24952   2.659   1.309   4.910 -0.1231 -0.0148  0.8767
 4440SOL    HW124953   2.615   1.340   4.831 -0.2546 -0.6491  0.6990
 4440SOL    HW224954   2.620   1.356   4.983 -0.8878 -0.1630  0.5576
 4441SOL     OW24955   4.337   2.970   3.837 -0.2995 -0.9052 -0.5722
 4441SOL    HW124956   4.314   2.911   3.765  1.4260 -0.9950 -1.0455
 4441SOL    HW224957   4.432   2.961   3.835 -0.0263  1.9833 -0.4940
 4442SOL     OW24958   4.477   3.807   5.778  0.5094 -0.4488 -0.1624
 4442SOL    HW124959   4.503   3.740   5.842  1.2609  0.0578  0.0523
 4442SOL    HW224960   4.529   3.882   5.806 -3.5913  2.0502  0.8739
 4443SOL     OW24961   1.499   3.183   9.961 -0.0741  0.2505  0.1370
 4443SOL    HW124962   1.483   3.160   9.870  1.4615 -0.5262  0.0625
 4443SOL    HW224963   1.430   3.125   9.997  1.1828  0.0383  2.2246
 4444SOL     OW24964   3.339   3.799   3.782 -1.0976 -0.8376  0.3298
 4444SOL    HW124965   3.289   3.718   3.792 -1.0031 -1.1923 -1.9398
 4444SOL    HW224966   3.337   3.824   3.874 -0.4823 -1.5362  0.5353
 4445SOL     OW24967   3.236   2.707   4.217  0.1153 -0.2123 -0.3505
 4445SOL    HW124968   3.218   2.695   4.124  1.1108  1.7020 -0.7954
 4445SOL    HW224969   3.320   2.662   4.218 -0.4089 -1.1779 -0.0034
 4446SOL     OW24970   0.547   3.102   1.442 -0.1843  0.0174 -0.7665
 4446SOL    HW124971   0.602   3.060   1.508  1.2117  0.5453 -1.5964
 4446SOL    HW224972   0.506   3.029   1.395 -2.4524  0.1407  1.0191
 4447SOL     OW24973   3.292   2.759   8.120 -1.0455 -0.3109 -0.2863
 4447SOL    HW124974   3.325   2.788   8.035 -0.6461  0.9940  0.3121
 4447SOL    HW224975   3.378   2.745   8.159 -0.9405 -1.6464 -0.9812
 4448SOL     OW24976   3.130   0.534   3.284 -0.5467  0.1860 -0.5631
 4448SOL    HW124977   3.110   0.481   3.362  3.4380  1.3568  1.2473
 4448SOL    HW224978   3.219   0.505   3.263 -0.4691 -0.6258  0.8671
 4449SOL     OW24979   2.684   1.717   5.327 -0.1191 -0.0428 -0.0986
 4449SOL    HW124980   2.683   1.719   5.423 -1.2928 -1.9315 -0.0641
 4449SOL    HW224981   2.676   1.810   5.307 -1.1595  0.0147  0.5827
 4450SOL     OW24982   0.375   3.960   2.515  0.2266  0.2268  0.5349
 4450SOL    HW124983   0.317   4.036   2.514  2.0910  1.6276 -0.1589
 4450SOL    HW224984   0.325   3.893   2.467  0.5793  1.5773 -1.7113
 4451SOL     OW24985   4.087   0.259   2.696 -0.2567  0.4552 -0.0230
 4451SOL    HW124986   3.995   0.277   2.679 -0.2811  0.9223  0.6122
 4451SOL    HW224987   4.088   0.174   2.741  1.1109  1.3836  1.6613
 4452SOL     OW24988   0.474   4.252   4.303  0.5731 -0.0177  0.4020
 4452SOL    HW124989   0.438   4.172   4.264  2.0333 -0.3401 -0.2796
 4452SOL    HW224990   0.526   4.211   4.372  0.0876 -0.8885  0.2489
 4453SOL     OW24991   1.019   0.818   6.250  0.0472  0.1046 -0.3150
 4453SOL    HW124992   1.040   0.889   6.310 -0.0540 -0.8309  0.8412
 4453SOL    HW224993   1.046   0.744   6.305 -0.8584 -0.1185 -0.1598
 4454SOL     OW24994   0.898   1.284   8.902 -0.3529 -0.4340  0.6297
 4454SOL    HW124995   0.858   1.345   8.963 -0.2524 -0.0097  0.2691
 4454SOL    HW224996   0.923   1.211   8.958 -1.4360  0.8710  2.7974
 4455SOL     OW24997   0.501   2.146   1.500 -0.0580 -0.0904  0.2603
 4455SOL    HW124998   0.578   2.103   1.537  2.0550  1.8800 -1.9109
 4455SOL    HW224999   0.499   2.113   1.410 -1.8846 -0.2797  0.3526
 4456SOL     OW25000   1.073   3.572   3.267 -0.3945 -0.1407  0.1571
 4456SOL    HW125001   1.068   3.489   3.220  0.4955 -0.8264  1.2815
 4456SOL    HW225002   0.989   3.577   3.312 -0.3370  0.1203  0.2312
 4457SOL     OW25003   3.044   1.211   8.479 -0.1843 -0.2630  0.1493
 4457SOL    HW125004   3.032   1.124   8.442 -0.9171  0.3045 -0.9636
 4457SOL    HW225005   3.128   1.229   8.436 -1.0621  1.2629 -0.9475
 4458SOL     OW25006   0.911   1.053   9.055 -0.4011 -0.0846  0.0714
 4458SOL    HW125007   0.846   1.006   9.109  3.3171 -3.3320  1.7031
 4458SOL    HW225008   0.984   1.059   9.117  0.4852  1.0108 -1.1059
 4459SOL     OW25009   3.971   2.900   1.808 -0.4023 -0.0592 -0.0345
 4459SOL    HW125010   3.968   2.872   1.899  1.5932  2.0046  0.6605
 4459SOL    HW225011   3.903   2.848   1.765 -0.0550  0.8189 -1.6561
 4460SOL     OW25012   2.098   1.340   2.269 -0.7242  0.1146  0.2875
 4460SOL    HW125013   2.016   1.366   2.226  0.0551 -0.2901 -1.4352
 4460SOL    HW225014   2.133   1.415   2.316  3.1130 -2.0642  0.9127
 4461SOL     OW25015   4.432   2.800   1.774 -0.4650  0.5993 -1.0061
 4461SOL    HW125016   4.441   2.847   1.857  1.0928 -1.7698  0.1619
 4461SOL    HW225017   4.355   2.747   1.793 -0.6207  0.2696 -2.5238
 4462SOL     OW25018   4.144   1.328   8.115  0.0785  0.7182  0.4099
 4462SOL    HW125019   4.135   1.235   8.093  1.7292  0.9964 -1.4195
 4462SOL    HW225020   4.152   1.323   8.210  2.6181  0.6975  0.1893
 4463SOL     OW25021   4.118   1.506   4.379  0.1578 -0.5625 -0.0891
 4463SOL    HW125022   4.110   1.527   4.286 -0.4666 -1.3033 -0.1990
 4463SOL    HW225023   4.213   1.516   4.385 -0.1757  1.6366  1.5968
 4464SOL     OW25024   1.787   0.768   2.872 -0.4554  0.5577 -0.0181
 4464SOL    HW125025   1.719   0.718   2.919 -1.1018  0.8287 -0.6570
 4464SOL    HW225026   1.868   0.721   2.889  0.5046  2.0345 -0.5149
 4465SOL     OW25027   0.035   1.697   6.808  0.0268  0.3500  0.1131
 4465SOL    HW125028   4.687   1.752   6.816  0.4629  0.7012  2.0509
 4465SOL    HW225029   0.039   1.673   6.900  1.5427 -1.8403 -0.5346
 4466SOL     OW25030   4.711   0.320   7.288  0.1488 -0.2626  0.5147
 4466SOL    HW125031   0.061   0.281   7.319  0.6278 -1.0556 -1.6788
 4466SOL    HW225032   0.009   0.387   7.226  1.7134 -0.8754  0.5952
 4467SOL     OW25033   2.536   1.812  12.417  0.1138  0.4210  0.6251
 4467SOL    HW125034   2.537   1.830  12.511 -0.0099 -2.2992  1.1614
 4467SOL    HW225035   2.592   1.736  12.403 -1.1234 -0.2358 -0.8273
 4468SOL     OW25036   2.644   2.760   9.924 -0.2005 -0.4627 -0.1063
 4468SOL    HW125037   2.667   2.758   9.831 -0.8227 -1.7432 -0.2426
 4468SOL    HW225038   2.603   2.846   9.930 -0.5510 -0.6835  0.6503
 4469SOL     OW25039   1.485   3.209   6.834 -0.4023 -0.0417 -0.3747
 4469SOL    HW125040   1.477   3.223   6.739  2.2008 -3.4962 -1.0929
 4469SOL    HW225041   1.578   3.227   6.845  0.1488 -2.4470 -1.1842
 4470SOL     OW25042   4.669   3.899   2.178 -0.0776  0.0591  0.2991
 4470SOL    HW125043   4.601   3.899   2.245 -0.2563 -1.1224  0.1229
 4470SOL    HW225044   0.012   3.875   2.234 -1.1687  0.9090  2.1149
 4471SOL     OW25045   0.646   4.542  12.962 -0.1224  0.4906 -0.0779
 4471SOL    HW125046   0.704   4.465  12.961 -1.5128 -0.5079 -3.3518
 4471SOL    HW225047   0.562   4.497  12.955 -0.3791  0.5403  2.5901
 4472SOL     OW25048   1.015   1.450  10.216  0.1009  0.0908  0.4221
 4472SOL    HW125049   1.102   1.480  10.192  0.7878 -0.9528  1.6570
 4472SOL    HW225050   0.991   1.505  10.291 -0.6687 -0.4713  0.5854
 4473SOL     OW25051   1.213   2.769   3.670  0.5239 -0.3177  0.0691
 4473SOL    HW125052   1.289   2.783   3.613  0.1101  0.7157 -0.2408
 4473SOL    HW225053   1.248   2.815   3.747  1.3263  0.5205 -0.7901
 4474SOL     OW25054   3.941   0.794   8.707  0.4921  0.0259 -0.2790
 4474SOL    HW125055   3.971   0.718   8.757 -1.8616  0.6547  2.1421
 4474SOL    HW225056   3.885   0.756   8.640 -0.0465  0.3965 -0.0440
 4475SOL     OW25057   4.676   4.568   2.535  0.2613 -0.7123  0.2665
 4475SOL    HW125058   4.671   4.662   2.518  2.4036 -0.5772  0.3499
 4475SOL    HW225059   4.608   4.542   2.472 -0.3488  0.7296  0.3466
 4476SOL     OW25060   0.699   0.557   2.195  0.2617  0.2154  0.3037
 4476SOL    HW125061   0.700   0.622   2.265  1.7274  1.1441 -0.5823
 4476SOL    HW225062   0.727   0.484   2.249 -0.8208  0.2842  0.9636
 4477SOL     OW25063   1.421   1.445   1.850  0.0639 -0.7875 -0.0442
 4477SOL    HW125064   1.360   1.514   1.826  1.4328  0.3953 -0.1654
 4477SOL    HW225065   1.454   1.427   1.762 -0.3677 -0.3510 -0.2900
 4478SOL     OW25066   1.302   4.586   3.514  0.3706 -0.1354 -0.6302
 4478SOL    HW125067   1.272   4.496   3.524 -0.2891  0.0646 -0.8773
 4478SOL    HW225068   1.351   4.608   3.594 -0.2355 -0.7312 -0.0917
 4479SOL     OW25069   2.432   1.119   2.926 -0.4902  0.0953  0.1609
 4479SOL    HW125070   2.364   1.106   2.860  1.0211  2.5226 -1.8341
 4479SOL    HW225071   2.482   1.040   2.907  2.2104  0.9564  3.6796
 4480SOL     OW25072   1.833   1.763   7.372  0.2158  0.0144  0.2607
 4480SOL    HW125073   1.752   1.788   7.415  0.2504 -1.2305  1.0620
 4480SOL    HW225074   1.866   1.851   7.356  0.6471 -0.3744 -1.0182
 4481SOL     OW25075   2.213   1.165   7.705 -0.6678 -0.1124  0.8397
 4481SOL    HW125076   2.175   1.085   7.668  1.2457 -1.4310  1.6900
 4481SOL    HW225077   2.175   1.226   7.642 -1.6524 -0.9057  0.6688
 4482SOL     OW25078   1.116   1.132   3.989  0.1569  0.0058  0.5543
 4482SOL    HW125079   1.080   1.211   4.028 -0.0431 -0.3583  1.1017
 4482SOL    HW225080   1.047   1.069   4.010  1.6527 -1.3184  1.5056
 4483SOL     OW25081   3.338   2.683   6.785  0.0356 -0.1460 -0.3657
 4483SOL    HW125082   3.396   2.681   6.709 -1.3433 -1.5299 -1.3799
 4483SOL    HW225083   3.309   2.773   6.775 -1.0952 -0.5737 -0.8950
 4484SOL     OW25084   0.262   2.635  12.478 -0.4617  0.5503  0.2747
 4484SOL    HW125085   0.299   2.702  12.536  2.8882 -1.1389  0.0863
 4484SOL    HW225086   0.339   2.627  12.421 -1.3605 -2.3005 -0.5525
 4485SOL     OW25087   3.995   3.973   5.024 -0.1633 -0.0941 -0.5952
 4485SOL    HW125088   3.976   3.892   5.072  0.1213  1.4705  2.1667
 4485SOL    HW225089   4.044   3.937   4.950  1.1946  0.6499 -0.0562
 4486SOL     OW25090   0.518   1.895   7.666  0.5516 -0.0949  0.0067
 4486SOL    HW125091   0.435   1.855   7.692 -0.3340  0.4194 -2.0459
 4486SOL    HW225092   0.521   1.873   7.573  2.5127 -0.1436  0.0743
 4487SOL     OW25093   0.428   2.727   8.171  0.0069 -0.1619 -0.2675
 4487SOL    HW125094   0.500   2.716   8.233  1.5005  1.9070 -1.6649
 4487SOL    HW225095   0.449   2.816   8.144 -1.4424 -0.2149 -1.5581
 4488SOL     OW25096   2.679   4.198   7.675 -0.8625 -0.2179  0.3121
 4488SOL    HW125097   2.732   4.134   7.722 -0.0643 -0.0327 -0.3436
 4488SOL    HW225098   2.735   4.275   7.684  0.4249 -0.9796 -1.1327
 4489SOL     OW25099   0.099   0.836   7.082  0.0311  0.4996  0.0249
 4489SOL    HW125100   0.061   0.780   7.014 -2.0402  0.5557  1.1520
 4489SOL    HW225101   0.179   0.863   7.035 -1.5171  2.3510 -1.5456
 4490SOL     OW25102   3.923   1.100   9.856  0.7978  0.4241 -0.4773
 4490SOL    HW125103   3.853   1.036   9.844  1.5550 -0.2875 -1.1329
 4490SOL    HW225104   3.874   1.157   9.916  1.2031 -0.9263  1.1339
 4491SOL     OW25105   4.463   3.807   6.191  0.5983  0.0722  0.1156
 4491SOL    HW125106   4.552   3.778   6.211  0.5030  0.3673  0.9733
 4491SOL    HW225107   4.471   3.893   6.151  3.5233  0.2054  0.9567
 4492SOL     OW25108   1.170   0.764   2.366  0.0253  0.3594  0.0261
 4492SOL    HW125109   1.237   0.828   2.342  0.1053  0.0636 -0.5267
 4492SOL    HW225110   1.091   0.805   2.329 -0.9062  1.2109  2.9134
 4493SOL     OW25111   2.628   1.938  11.637 -1.0267  0.1288  0.0658
 4493SOL    HW125112   2.633   1.853  11.593  0.6660 -0.0363  0.5801
 4493SOL    HW225113   2.546   1.935  11.686 -2.0820  1.6609 -1.5881
 4494SOL     OW25114   0.292   1.129  15.726 -0.6321  0.2606 -0.1821
 4494SOL    HW125115   0.276   1.203  15.784 -0.8015 -1.1272  1.5379
 4494SOL    HW225116   0.380   1.149  15.694  0.7681 -2.5937  1.8635
 4495SOL     OW25117   2.371   1.186   5.954 -0.4354 -0.1284 -0.8306
 4495SOL    HW125118   2.397   1.138   5.876 -0.5776 -0.3930 -0.7136
 4495SOL    HW225119   2.281   1.153   5.958 -0.1992 -0.7302 -0.6267
 4496SOL     OW25120   0.835   1.839  10.610 -0.0940 -0.2303  0.2139
 4496SOL    HW125121   0.853   1.763  10.665 -0.6597  0.9088  2.0047
 4496SOL    HW225122   0.903   1.894  10.648  0.2316 -0.5048  0.0203
 4497SOL     OW25123   1.839   1.281  11.657  0.1564 -0.4582  0.1662
 4497SOL    HW125124   1.903   1.352  11.655 -0.4103 -0.0177 -2.3329
 4497SOL    HW225125   1.761   1.333  11.640  1.1795 -0.2097 -3.7458
 4498SOL     OW25126   0.165   2.814   7.722 -0.1025 -0.5432  0.2481
 4498SOL    HW125127   0.213   2.886   7.764 -2.3258  1.5238 -0.8149
 4498SOL    HW225128   0.236   2.765   7.681  1.0475  0.4408  1.0416
 4499SOL     OW25129   2.837   1.376  13.411 -0.3940 -0.1534  0.0504
 4499SOL    HW125130   2.869   1.290  13.384 -0.4486 -0.3825  0.7404
 4499SOL    HW225131   2.853   1.372  13.505 -0.2357 -0.8869 -0.0056
 4500SOL     OW25132   3.943   2.449  12.450 -0.7034  0.3051  0.1606
 4500SOL    HW125133   3.856   2.442  12.410 -0.9020  1.2194  0.4281
 4500SOL    HW225134   3.931   2.519  12.514 -0.9607  0.5913 -0.2020
 4501SOL     OW25135   3.911   1.038   5.860  0.4316  0.3138 -0.7257
 4501SOL    HW125136   3.921   1.101   5.789  0.9231 -0.7001 -1.5513
 4501SOL    HW225137   3.816   1.025   5.862  0.2543  1.9468  1.7978
 4502SOL     OW25138   2.822   2.313   7.574 -0.1487 -0.2285 -0.2996
 4502SOL    HW125139   2.750   2.359   7.618 -0.4873  0.6527 -1.7650
 4502SOL    HW225140   2.895   2.361   7.613  1.5047 -2.3806 -0.7890
 4503SOL     OW25141   3.059   1.024   5.283 -0.1407  0.2098  0.0257
 4503SOL    HW125142   2.998   1.079   5.331 -0.1581 -1.2803  1.7117
 4503SOL    HW225143   2.999   0.950   5.270 -1.2909  1.4526 -1.7342
 4504SOL     OW25144   2.804   3.095  10.764  0.2333 -0.4762 -0.1436
 4504SOL    HW125145   2.767   3.008  10.782 -2.2015  0.5260 -0.2836
 4504SOL    HW225146   2.894   3.071  10.784  0.9386  0.8832 -1.6832
 4505SOL     OW25147   2.630   2.931   1.250  0.0005  0.5055 -0.9033
 4505SOL    HW125148   2.579   2.999   1.294  1.8551  1.7316 -0.6313
 4505SOL    HW225149   2.576   2.853   1.260  1.2175  0.0006  1.9090
 4506SOL     OW25150   3.700   1.602  11.744 -0.2255 -0.2338 -0.2269
 4506SOL    HW125151   3.693   1.507  11.748 -1.4610 -0.2946 -3.6209
 4506SOL    HW225152   3.776   1.612  11.686 -0.5935 -1.9365 -0.9881
 4507SOL     OW25153   0.710   2.371  13.039  0.0495  0.2265  0.0675
 4507SOL    HW125154   0.728   2.458  13.075  0.8816 -0.2301  0.7623
 4507SOL    HW225155   0.622   2.385  13.005  0.2318 -2.2135 -1.4214
 4508SOL     OW25156   2.606   2.580  16.127 -0.1605 -0.1116 -0.1162
 4508SOL    HW125157   2.511   2.565  16.127  0.0829 -1.6608  0.1217
 4508SOL    HW225158   2.637   2.511  16.187  0.3738 -1.6186 -2.1399
 4509SOL     OW25159   2.157   1.221  15.979 -0.2074  0.2107 -0.2215
 4509SOL    HW125160   2.201   1.152  15.929  1.7546  2.2287 -1.2888
 4509SOL    HW225161   2.076   1.175  16.000 -0.8821  2.0505  1.1641
 4510SOL     OW25162   0.666   0.175  16.320  0.2439  0.1370  0.1880
 4510SOL    HW125163   0.693   0.095  16.365  0.5676  1.0205  1.5433
 4510SOL    HW225164   0.576   0.189  16.350  0.1281  2.8350 -1.4604
 4511SOL     OW25165   4.269   1.643  17.051  0.5574  0.4101 -0.1431
 4511SOL    HW125166   4.225   1.620  17.133  2.2039 -0.5955  0.4626
 4511SOL    HW225167   4.303   1.556  17.029  0.8566  0.7701 -1.1258
 4512SOL     OW25168   0.335   0.729   4.960 -0.9958  0.3700 -0.3356
 4512SOL    HW125169   0.293   0.804   5.002 -2.1031  0.1237 -1.0002
 4512SOL    HW225170   0.353   0.670   5.034 -0.6848  1.4479  0.4506
 4513SOL     OW25171   2.292   2.808   3.863 -0.7223  0.7506 -0.1933
 4513SOL    HW125172   2.290   2.894   3.821  1.0130  0.5875 -0.5916
 4513SOL    HW225173   2.381   2.805   3.898 -0.4920 -3.4222 -1.1304
 4514SOL     OW25174   4.132   1.928  17.623  0.5228  0.4815 -0.2492
 4514SOL    HW125175   4.049   1.975  17.620 -0.2691 -0.8834  0.0689
 4514SOL    HW225176   4.176   1.988  17.683 -1.2343 -2.4399  3.9502
 4515SOL     OW25177   3.021   2.699  15.781 -0.3481 -0.1677 -0.4700
 4515SOL    HW125178   3.049   2.791  15.787 -2.0522  0.1696  2.5384
 4515SOL    HW225179   3.062   2.671  15.700 -2.0533  1.0178 -1.7362
 4516SOL     OW25180   3.854   2.747   2.503  0.1482 -0.3357 -0.2607
 4516SOL    HW125181   3.833   2.769   2.594 -1.5716 -0.7407 -0.5596
 4516SOL    HW225182   3.789   2.800   2.458 -0.1761 -0.5249 -0.0210
 4517SOL     OW25183   2.987   0.808  12.944  0.3650  0.1246 -0.4020
 4517SOL    HW125184   2.951   0.778  13.028 -0.1651  0.2317 -0.5884
 4517SOL    HW225185   3.006   0.899  12.963  0.7592 -0.5740  2.5929
 4518SOL     OW25186   1.076   2.319   2.539  0.5360  0.3722  0.0529
 4518SOL    HW125187   1.120   2.374   2.474  0.5000  0.7290  0.3285
 4518SOL    HW225188   0.987   2.326   2.503  0.3278  0.4857  0.5795
 4519SOL     OW25189   3.935   2.284   3.278 -0.7971  0.2963 -0.3984
 4519SOL    HW125190   3.921   2.351   3.345  2.1828  0.1597  0.3427
 4519SOL    HW225191   3.864   2.310   3.220  0.4949  1.7907 -1.2958
 4520SOL     OW25192   0.791   2.263   1.097 -0.5398 -0.4954  0.0361
 4520SOL    HW125193   0.703   2.241   1.127 -0.4533  0.0705  0.6846
 4520SOL    HW225194   0.788   2.290   1.005 -1.2360 -1.4400 -0.2242
 4521SOL     OW25195   3.377   3.718   5.402 -0.3011  0.1773 -0.4085
 4521SOL    HW125196   3.339   3.804   5.422 -2.0088 -0.6075 -0.3247
 4521SOL    HW225197   3.306   3.679   5.351 -1.0968 -0.0597  0.8620
 4522SOL     OW25198   1.214   4.331   3.442  0.0097 -0.5654 -0.1962
 4522SOL    HW125199   1.242   4.250   3.483 -0.7528  0.0820  1.5886
 4522SOL    HW225200   1.121   4.319   3.457 -0.5362  1.9056 -1.5151
 4523SOL     OW25201   0.528   4.308   7.892 -0.0762 -0.0800  0.3532
 4523SOL    HW125202   0.591   4.251   7.849 -1.1009  1.3066 -2.9615
 4523SOL    HW225203   0.464   4.251   7.936  0.5989 -0.2889  1.0748
 4524SOL     OW25204   2.917   0.647   1.138 -0.0396 -0.2996 -0.5975
 4524SOL    HW125205   2.827   0.620   1.121  0.7779 -3.3103 -0.1853
 4524SOL    HW225206   2.907   0.740   1.116  0.5662 -0.3868 -1.2333
 4525SOL     OW25207   4.725   2.499  13.950  0.0870  0.0759 -0.7688
 4525SOL    HW125208   4.676   2.554  13.888 -1.5098 -1.1989 -0.6347
 4525SOL    HW225209   0.059   2.471  13.886 -0.6195 -2.7432 -0.2459
 4526SOL     OW25210   3.515   0.976   7.525 -0.8225  0.0262  0.0213
 4526SOL    HW125211   3.550   0.899   7.482 -0.5097 -0.0966  0.4985
 4526SOL    HW225212   3.430   0.979   7.481 -0.9477 -2.2926  0.1323
 4527SOL     OW25213   4.731   3.273   7.971  0.2120  0.1891  0.6562
 4527SOL    HW125214   0.082   3.295   7.926 -0.9701  1.1791 -1.0497
 4527SOL    HW225215   0.039   3.205   8.025 -0.7627 -0.3891  0.6315
 4528SOL     OW25216   4.159   0.573   6.983 -0.7226  0.3666  0.6961
 4528SOL    HW125217   4.250   0.593   7.003 -1.2404  2.9174  0.5092
 4528SOL    HW225218   4.131   0.591   7.073 -0.5289  1.7559  0.4725
 4529SOL     OW25219   1.073   1.257   8.150 -0.2600  0.9085 -0.6809
 4529SOL    HW125220   1.000   1.283   8.094 -0.4815 -0.5572 -1.0584
 4529SOL    HW225221   1.025   1.198   8.207 -0.6353  1.4681 -0.4100
 4530SOL     OW25222   1.201   1.085   7.534  0.2615 -0.0392 -0.3285
 4530SOL    HW125223   1.116   1.053   7.504 -0.0035  1.5555 -1.2679
 4530SOL    HW225224   1.193   1.176   7.507  1.4551  0.6649  1.6495
 4531SOL     OW25225   1.852   3.523  16.735 -0.8271 -0.3131 -0.0120
 4531SOL    HW125226   1.812   3.443  16.768  1.0047 -1.7702 -1.3114
 4531SOL    HW225227   1.773   3.566  16.703 -1.0755 -0.5190  0.3332
 4532SOL     OW25228   4.553   2.599  17.117 -0.2138  0.1074 -0.3064
 4532SOL    HW125229   4.468   2.578  17.157  0.3736  0.0393  0.9136
 4532SOL    HW225230   4.606   2.520  17.128 -0.4329  0.1166  0.7878
 4533SOL     OW25231   2.582   1.062   6.849  0.1219  0.1983  0.0909
 4533SOL    HW125232   2.502   1.014   6.827  0.8992 -0.2031 -1.8233
 4533SOL    HW225233   2.640   1.048   6.775  0.1955  1.4357 -0.0851
 4534SOL     OW25234   3.900   1.929   8.068  0.0384  0.1004  0.6705
 4534SOL    HW125235   3.933   1.994   8.005  1.4040 -0.7706  0.4884
 4534SOL    HW225236   3.960   1.856   8.052  0.4977  0.7501 -0.6091
 4535SOL     OW25237   3.869   0.679   6.289  0.3994  0.2785  0.2896
 4535SOL    HW125238   3.845   0.686   6.381 -1.2030  2.8344 -0.3067
 4535SOL    HW225239   3.850   0.768   6.260  1.1566  0.1437 -0.6069
 4536SOL     OW25240   2.558   0.687   7.268  0.0008  0.7003 -0.6372
 4536SOL    HW125241   2.492   0.679   7.199 -1.3382 -1.4195  0.8575
 4536SOL    HW225242   2.519   0.627   7.332  0.7366 -0.7503 -1.5364
 4537SOL     OW25243   0.509   1.104   7.218 -0.1139  0.0221  0.0776
 4537SOL    HW125244   0.501   1.036   7.150 -3.2014  1.7894 -1.3205
 4537SOL    HW225245   0.592   1.146   7.194  0.3445 -1.2183 -0.5203
 4538SOL     OW25246   0.989   2.148   5.987  0.3199  0.5535 -0.1028
 4538SOL    HW125247   0.929   2.222   5.979 -2.2606 -1.3945  1.0534
 4538SOL    HW225248   1.037   2.174   5.909  1.6351  0.9549  0.8512
 4539SOL     OW25249   3.140   4.537  16.562  0.2881 -0.1288  0.3586
 4539SOL    HW125250   3.077   4.479  16.521  0.2204  0.2316 -0.0518
 4539SOL    HW225251   3.182   4.584  16.490 -1.4015  1.2793  0.2808
 4540SOL     OW25252   1.031   4.454   9.935 -0.1044  0.3734 -0.2031
 4540SOL    HW125253   1.056   4.432   9.845  1.6065  3.6205 -0.5072
 4540SOL    HW225254   1.041   4.371   9.981  2.8088 -0.2097 -1.8583
 4541SOL     OW25255   0.664   2.536   6.861 -0.2765 -0.0788  0.1684
 4541SOL    HW125256   0.718   2.463   6.829 -1.4523 -1.2632  0.8774
 4541SOL    HW225257   0.662   2.510   6.953  1.9969  1.3296  0.6110
 4542SOL     OW25258   0.350   4.375   6.318  0.4708  0.1410 -0.1065
 4542SOL    HW125259   0.324   4.464   6.341  1.1676  0.0247  1.1660
 4542SOL    HW225260   0.429   4.370   6.372  0.5537  1.5018 -0.1090
 4543SOL     OW25261   1.747   3.828  12.474 -0.0428  0.7569  0.8207
 4543SOL    HW125262   1.741   3.787  12.388 -1.2307  3.0226 -0.1685
 4543SOL    HW225263   1.789   3.910  12.450  1.4443  0.6105  2.9073
 4544SOL     OW25264   1.428   3.512   4.371  0.2013 -0.3780 -0.4297
 4544SOL    HW125265   1.472   3.427   4.359  1.4114  0.2906 -0.7066
 4544SOL    HW225266   1.499   3.559   4.416 -0.4326  0.1172  0.0430
 4545SOL     OW25267   2.827   3.247  13.798  0.0885  0.0829 -0.0072
 4545SOL    HW125268   2.858   3.211  13.715 -0.1217 -1.0793  0.4163
 4545SOL    HW225269   2.771   3.317  13.764  1.4040  1.5563  0.8298
 4546SOL     OW25270   4.169   3.891   7.602 -0.1988  0.2554  0.8378
 4546SOL    HW125271   4.168   3.836   7.680  1.0551 -0.7296  0.1641
 4546SOL    HW225272   4.264   3.891   7.586 -0.2289 -0.9126  0.6767
 4547SOL     OW25273   3.081   0.425   3.524 -0.2922  0.2988 -0.0533
 4547SOL    HW125274   3.015   0.363   3.493  1.5170 -1.4290 -0.5163
 4547SOL    HW225275   3.065   0.429   3.618  1.1666  0.6779  0.1737
 4548SOL     OW25276   4.642   3.400   5.365  0.0253  0.8604  0.6314
 4548SOL    HW125277   4.586   3.420   5.290 -0.0104  0.5149  0.5670
 4548SOL    HW225278   4.603   3.456   5.432  1.7176  0.5075  1.9157
 4549SOL     OW25279   0.227   1.779   7.652  0.1660 -0.1332 -0.3010
 4549SOL    HW125280   0.174   1.841   7.602  0.0125  0.4544  0.5985
 4549SOL    HW225281   0.200   1.803   7.740  0.1366  0.5188 -0.4871
 4550SOL     OW25282   2.380   2.537   5.429 -0.3149  0.2533  0.1321
 4550SOL    HW125283   2.465   2.496   5.415 -0.9153 -0.4324 -1.4867
 4550SOL    HW225284   2.406   2.590   5.505 -1.5646  0.7105  0.2467
 4551SOL     OW25285   0.353   0.726   3.794  0.1725 -0.4881  0.1929
 4551SOL    HW125286   0.295   0.662   3.835  0.6061 -0.0350  1.5188
 4551SOL    HW225287   0.355   0.794   3.862  0.7144  1.3321 -1.6460
 4552SOL     OW25288   3.903   2.911  16.363  0.1098 -0.5612 -0.3679
 4552SOL    HW125289   3.893   2.863  16.445  2.3686  0.2499  0.3811
 4552SOL    HW225290   3.975   2.969  16.387 -0.6946  0.2718  0.0290
 4553SOL     OW25291   2.014   2.410   0.161  0.0798 -0.6785  1.0922
 4553SOL    HW125292   1.989   2.318   0.172 -0.4635 -0.5418  1.0110
 4553SOL    HW225293   1.928   2.446   0.136  0.4186 -1.3276 -1.0512
 4554SOL     OW25294   0.250   0.019   8.147 -0.4421  0.4099 -0.1885
 4554SOL    HW125295   0.240   0.075   8.224  0.4786  1.3615 -0.7539
 4554SOL    HW225296   0.163   0.015   8.109 -0.3637 -0.1822 -0.3051
 4555SOL     OW25297   0.217   2.912   4.787 -0.2054  0.0206 -0.1461
 4555SOL    HW125298   0.218   2.865   4.703  0.7363  0.0141 -0.1205
 4555SOL    HW225299   0.138   2.877   4.830  0.3775  0.0967  0.9725
 4556SOL     OW25300   0.300   0.266  12.959  0.2718 -0.5678  0.1097
 4556SOL    HW125301   0.318   0.260  12.865 -0.5392 -0.5839 -0.0516
 4556SOL    HW225302   0.389   0.286  12.986  0.0427 -0.5981  0.8900
 4557SOL     OW25303   2.503   1.394   3.017 -0.0666  0.5855  0.5649
 4557SOL    HW125304   2.493   1.302   2.992 -0.5828 -0.0106  2.9748
 4557SOL    HW225305   2.441   1.409   3.089 -1.7165  2.6947 -1.2965
 4558SOL     OW25306   3.577   1.725   4.632 -0.6844  0.1869 -0.4630
 4558SOL    HW125307   3.564   1.658   4.565 -0.8373 -1.1907  0.9367
 4558SOL    HW225308   3.496   1.775   4.623 -0.0813  1.1759 -0.3595
 4559SOL     OW25309   1.193   0.009   6.418 -0.3416 -0.0040  0.2446
 4559SOL    HW125310   1.099   4.725   6.414 -0.2770 -0.2410 -0.3728
 4559SOL    HW225311   1.193   0.105   6.415  0.7753 -0.0183 -0.1667
 4560SOL     OW25312   2.221   0.091   6.450  0.0059 -0.1121 -0.1429
 4560SOL    HW125313   2.289   0.024   6.441  0.2698  0.2199 -0.6043
 4560SOL    HW225314   2.149   0.028   6.444 -0.5077  0.4807 -0.1024
 4561SOL     OW25315   2.872   4.464   8.955  0.2653 -0.4448  0.1965
 4561SOL    HW125316   2.893   4.557   8.964  0.1810 -0.2478 -1.7372
 4561SOL    HW225317   2.918   4.434   9.034 -0.2010 -2.2183 -0.2235
 4562SOL     OW25318   2.411   3.496   4.624  0.1582  0.5324  0.1862
 4562SOL    HW125319   2.371   3.482   4.538  2.4573 -1.9701 -0.4923
 4562SOL    HW225320   2.426   3.590   4.612  1.3996  0.5112  1.5759
 4563SOL     OW25321   1.432   2.980   2.071  0.2653  0.2023  0.0550
 4563SOL    HW125322   1.380   3.000   2.148 -0.0867 -1.2356  0.1881
 4563SOL    HW225323   1.434   2.884   2.070 -0.5244  0.1848 -0.3741
 4564SOL     OW25324   4.118   3.921   6.048 -0.5593  0.1855  0.3608
 4564SOL    HW125325   4.193   3.862   6.039 -0.8704  0.2127 -2.3742
 4564SOL    HW225326   4.053   3.857   6.020  0.1460 -0.0264 -0.7771
 4565SOL     OW25327   1.196   0.264   2.045  0.1230 -0.2818 -0.3299
 4565SOL    HW125328   1.159   0.175   2.044  0.7092 -0.5286 -0.0950
 4565SOL    HW225329   1.289   0.241   2.035  0.2709  0.6377 -1.0230
 4566SOL     OW25330   2.219   4.248   7.831  0.0960  0.5803  0.4342
 4566SOL    HW125331   2.272   4.312   7.880  1.6865 -0.5722  0.2204
 4566SOL    HW225332   2.289   4.212   7.777 -0.1172 -0.0203  0.5564
 4567SOL     OW25333   0.390   2.450  16.800 -0.1900  0.3622  0.6700
 4567SOL    HW125334   0.480   2.478  16.784  0.2689 -1.5356 -0.0498
 4567SOL    HW225335   0.377   2.508  16.875 -0.2435  0.9643  0.1908
 4568SOL     OW25336   0.613   1.226   5.946 -0.1499  0.1300 -0.5136
 4568SOL    HW125337   0.522   1.234   5.917 -0.1518 -0.8429 -0.7632
 4568SOL    HW225338   0.663   1.223   5.864  1.4308 -1.8877  0.5399
 4569SOL     OW25339   3.635   0.566   6.997  0.9887 -0.1948  0.5600
 4569SOL    HW125340   3.620   0.472   7.012 -0.3897 -0.2336 -1.1614
 4569SOL    HW225341   3.724   0.557   6.963  1.2238 -0.1762  1.1547
 4570SOL     OW25342   1.163   4.429  13.870 -0.0458 -0.0320 -0.1106
 4570SOL    HW125343   1.228   4.498  13.883  0.4417 -0.4828 -0.1673
 4570SOL    HW225344   1.112   4.435  13.951 -1.2989 -0.1496 -0.8937
 4571SOL     OW25345   1.936   0.932  14.325 -0.0437 -0.0615  0.3461
 4571SOL    HW125346   1.874   0.972  14.385 -1.7990 -2.3422  0.0559
 4571SOL    HW225347   1.947   1.009  14.269  2.3786 -0.3400  0.4422
 4572SOL     OW25348   2.575   0.896   8.747 -0.4707 -0.3199  0.6604
 4572SOL    HW125349   2.524   0.924   8.824 -0.2344  1.1459  0.2724
 4572SOL    HW225350   2.553   0.963   8.683 -2.6641 -2.3150 -0.6795
 4573SOL     OW25351   1.045   0.344   5.933  0.3196 -0.4234  0.2864
 4573SOL    HW125352   0.962   0.349   5.886 -0.2927  1.8356  1.6039
 4573SOL    HW225353   1.108   0.332   5.862 -1.2340 -0.3164 -1.1210
 4574SOL     OW25354   2.427   1.135   3.559  0.0234 -0.3979  0.2272
 4574SOL    HW125355   2.387   1.222   3.564 -0.7320 -0.5873 -2.4264
 4574SOL    HW225356   2.412   1.124   3.465  1.2262  0.2462 -0.0267
 4575SOL     OW25357   3.298   0.268   4.724  0.3087  0.3548  0.3940
 4575SOL    HW125358   3.324   0.308   4.806  1.8520  1.8980 -0.8431
 4575SOL    HW225359   3.204   0.272   4.740  0.3798 -1.1290  1.1395
 4576SOL     OW25360   1.473   1.255   7.285  0.0984  0.0712 -0.3476
 4576SOL    HW125361   1.539   1.296   7.341 -1.0462 -1.7625  2.3989
 4576SOL    HW225362   1.391   1.282   7.328 -0.4853 -1.2404 -0.6446
 4577SOL     OW25363   0.486   3.848   7.586  0.6758 -0.1345  0.4693
 4577SOL    HW125364   0.501   3.803   7.504 -0.7045  1.0794 -0.4564
 4577SOL    HW225365   0.575   3.848   7.621  0.4676 -0.6791  1.0003
 4578SOL     OW25366   3.470   3.441   6.716  0.0589  1.1079 -0.3864
 4578SOL    HW125367   3.488   3.456   6.623  0.6576 -0.2868 -0.4947
 4578SOL    HW225368   3.541   3.499   6.743 -0.5697  2.7911 -2.3064
 4579SOL     OW25369   3.944   3.491   2.117 -0.6147 -0.2328 -0.5264
 4579SOL    HW125370   3.966   3.530   2.032  0.0611 -0.5382 -0.4927
 4579SOL    HW225371   3.931   3.400   2.091  0.6454 -0.6283  0.2463
 4580SOL     OW25372   4.661   3.370  12.702  0.2945  0.0530  0.0625
 4580SOL    HW125373   4.706   3.286  12.708 -2.4358 -1.3393  0.9500
 4580SOL    HW225374   4.728   3.425  12.661  0.4557 -1.7511 -2.1154
 4581SOL     OW25375   4.139   1.282  13.135  0.1091  0.1581  0.2811
 4581SOL    HW125376   4.218   1.325  13.101  0.4454 -3.3489 -3.3163
 4581SOL    HW225377   4.073   1.334  13.088 -1.5522 -1.7948  0.4486
 4582SOL     OW25378   4.382   0.482   8.142 -0.1020  0.0966  0.5543
 4582SOL    HW125379   4.415   0.475   8.053  0.7291 -4.3672  1.1847
 4582SOL    HW225380   4.301   0.531   8.131 -0.2038 -0.0540  0.6354
 4583SOL     OW25381   4.462   1.732   5.906 -0.0801  0.1094  0.2531
 4583SOL    HW125382   4.433   1.662   5.848  0.9126 -0.3551  0.3071
 4583SOL    HW225383   4.543   1.745   5.857  0.6946 -2.7220  0.7574
 4584SOL     OW25384   2.517   1.488   5.052 -0.2487  0.1688 -0.0724
 4584SOL    HW125385   2.426   1.484   5.022 -0.3370  0.2637  0.1901
 4584SOL    HW225386   2.537   1.580   5.034  2.5393 -1.0182 -3.1115
 4585SOL     OW25387   3.008   1.341   6.387  0.1631 -0.3149  0.2019
 4585SOL    HW125388   2.954   1.334   6.308  0.0869 -2.4895  0.4301
 4585SOL    HW225389   2.937   1.349   6.451  1.9868 -0.7815  2.2895
 4586SOL     OW25390   2.810   0.098   4.544  0.7751 -0.3692  0.4117
 4586SOL    HW125391   2.895   0.062   4.521  0.2728 -1.2211 -0.1091
 4586SOL    HW225392   2.791   0.150   4.466 -4.2650 -2.4422  0.2492
 4587SOL     OW25393   0.829   2.038   4.422 -0.2019  0.8547 -0.2493
 4587SOL    HW125394   0.762   2.047   4.490  2.2169  2.4669  1.9249
 4587SOL    HW225395   0.773   2.038   4.344 -1.1085  1.8138  0.4015
 4588SOL     OW25396   1.950   2.084   2.002 -0.2580  0.1788  0.4554
 4588SOL    HW125397   1.916   1.996   2.016  0.0631 -0.3088 -1.8125
 4588SOL    HW225398   1.921   2.099   1.912 -0.9946  2.0224  0.9981
 4589SOL     OW25399   1.698   2.069   3.756 -0.2833 -0.2878 -0.2329
 4589SOL    HW125400   1.630   2.081   3.690 -1.1186  0.6862  0.8077
 4589SOL    HW225401   1.695   1.978   3.786 -0.8520 -0.5266 -1.0129
 4590SOL     OW25402   4.054   3.327   8.630 -0.7200  0.0208 -0.3042
 4590SOL    HW125403   4.004   3.287   8.560 -1.5112  1.7815 -0.7620
 4590SOL    HW225404   4.072   3.256   8.691 -1.8138 -2.2407 -2.6337
 4591SOL     OW25405   1.356   2.152   4.456  0.0614  0.9711 -0.8091
 4591SOL    HW125406   1.261   2.153   4.444 -0.0066 -1.2667 -0.2940
 4591SOL    HW225407   1.362   2.219   4.524 -0.5682 -0.1970  0.4015
 4592SOL     OW25408   0.523   2.298   7.267  0.0188 -0.7128  0.0440
 4592SOL    HW125409   0.530   2.225   7.206  0.6202 -0.5815 -0.0464
 4592SOL    HW225410   0.545   2.259   7.352 -0.4537 -2.7469 -0.7638
 4593SOL     OW25411   0.038   3.994   8.260  0.2341 -0.4271 -0.2392
 4593SOL    HW125412   0.079   4.046   8.329  1.5809  1.8750 -2.7391
 4593SOL    HW225413   0.113   3.971   8.205  1.4918 -2.6005  2.4094
 4594SOL     OW25414   3.994   3.238  16.063 -0.3185  0.4065 -0.4776
 4594SOL    HW125415   3.995   3.149  16.098  1.9591  0.4295 -0.4871
 4594SOL    HW225416   4.081   3.249  16.025 -0.9608  0.4219 -1.9337
 4595SOL     OW25417   1.020   3.736   8.251  0.0853 -0.1494  0.0883
 4595SOL    HW125418   1.066   3.656   8.275  0.3229 -0.5440 -1.6904
 4595SOL    HW225419   1.053   3.791   8.322 -2.4995  1.0904  0.3676
 4596SOL     OW25420   4.382   0.826   9.699 -0.5106  0.8632 -0.2982
 4596SOL    HW125421   4.420   0.788   9.777  3.1319  2.3418 -1.3533
 4596SOL    HW225422   4.410   0.917   9.712 -2.1940  1.5417 -1.3946
 4597SOL     OW25423   0.747   4.155   7.808 -0.4836 -0.1714 -0.4771
 4597SOL    HW125424   0.830   4.197   7.787 -0.0802  0.5798  2.5596
 4597SOL    HW225425   0.765   4.081   7.750 -1.9226 -0.4833 -0.5374
 4598SOL     OW25426   3.867   4.590   2.054 -0.3812  0.6107 -0.2855
 4598SOL    HW125427   3.941   4.620   2.106 -1.5933 -0.2724  1.9831
 4598SOL    HW225428   3.862   4.644   1.975  0.6850 -0.9886 -1.4505
 4599SOL     OW25429   2.043   4.586   4.014  0.0479  0.2543 -0.0692
 4599SOL    HW125430   2.026   4.675   3.984 -2.0796 -1.0126 -2.6345
 4599SOL    HW225431   2.053   4.589   4.109 -1.2931  0.2665  0.0763
 4600SOL     OW25432   3.680   2.532   3.988  0.0698 -0.0562  0.1518
 4600SOL    HW125433   3.640   2.496   3.909 -1.6105  2.1613  0.0035
 4600SOL    HW225434   3.757   2.475   3.990 -0.7770 -1.1796  0.4444
 4601SOL     OW25435   4.288   2.607   0.533 -0.3761  0.5130  0.0459
 4601SOL    HW125436   4.218   2.616   0.597  0.9051  2.0024  1.2408
 4601SOL    HW225437   4.250   2.541   0.476 -1.1482  1.9733 -1.1235
 4602SOL     OW25438   2.241   1.328   9.137  0.6280  0.0227  0.3612
 4602SOL    HW125439   2.205   1.256   9.189 -1.5669  1.3823  0.7164
 4602SOL    HW225440   2.313   1.281   9.095  1.7073  0.4979  1.6920
 4603SOL     OW25441   0.604   2.470  11.095  0.1752 -0.4533  0.5029
 4603SOL    HW125442   0.629   2.561  11.079 -1.5728 -0.5876 -2.9937
 4603SOL    HW225443   0.557   2.449  11.014  0.9601 -0.4235  0.0490
 4604SOL     OW25444   0.533   2.109   3.384 -0.0794  0.4959 -0.1633
 4604SOL    HW125445   0.444   2.078   3.404  0.7574 -0.6171  1.8249
 4604SOL    HW225446   0.586   2.037   3.419  0.3647  2.0438  2.3411
 4605SOL     OW25447   3.381   0.748   2.754 -0.0426  0.6684 -0.4441
 4605SOL    HW125448   3.404   0.655   2.751  3.1535  1.4604 -0.1214
 4605SOL    HW225449   3.348   0.751   2.844 -1.2788 -0.7937 -0.8438
 4606SOL     OW25450   1.256   3.839   6.579 -0.2100 -0.2053 -0.2444
 4606SOL    HW125451   1.255   3.893   6.658  0.9133 -2.0973  1.0775
 4606SOL    HW225452   1.175   3.865   6.535  0.3536 -0.1047 -1.2120
 4607SOL     OW25453   0.161   2.255  12.382 -0.0074  0.1698 -0.5641
 4607SOL    HW125454   0.172   2.223  12.293  0.8183 -3.1129  0.7299
 4607SOL    HW225455   0.247   2.297  12.388  1.5111 -3.0908  0.6879
 4608SOL     OW25456   3.959   2.408   5.440  0.0103 -0.6207 -0.4431
 4608SOL    HW125457   3.979   2.498   5.413 -1.0489 -0.1861  0.2004
 4608SOL    HW225458   3.971   2.401   5.535  0.2157  1.3153 -0.3216
 4609SOL     OW25459   1.092   2.248   2.839  0.1841  0.0870 -0.1423
 4609SOL    HW125460   1.176   2.205   2.853 -0.2618 -0.8531 -0.2933
 4609SOL    HW225461   1.085   2.272   2.746 -0.8003 -1.0815 -0.3748
 4610SOL     OW25462   1.569   0.554  12.094  0.0422 -0.0667  0.2273
 4610SOL    HW125463   1.479   0.574  12.070 -0.0625  0.4757  1.0542
 4610SOL    HW225464   1.598   0.634  12.138  1.9810 -0.8752  0.4183
 4611SOL     OW25465   3.486   3.726  11.650 -0.1133  0.1089 -0.0266
 4611SOL    HW125466   3.549   3.656  11.668 -1.5943 -1.3136 -0.3127
 4611SOL    HW225467   3.405   3.676  11.637  0.1657 -0.0907 -1.0335
 4612SOL     OW25468   0.936   4.414   5.383 -0.2182 -0.0536 -0.1431
 4612SOL    HW125469   0.934   4.324   5.352  1.9826 -0.2307  0.2429
 4612SOL    HW225470   1.024   4.430   5.417  0.3133  1.8742 -2.4430
 4613SOL     OW25471   0.534   0.116  11.087 -0.3367  0.2705 -0.0754
 4613SOL    HW125472   0.501   0.152  11.005  1.0007 -0.4906 -0.9599
 4613SOL    HW225473   0.588   0.041  11.063 -0.5623 -0.1886  0.8271
 4614SOL     OW25474   3.436   2.633   2.178  0.4560 -0.0832  0.0339
 4614SOL    HW125475   3.479   2.718   2.174  0.4265  0.0301  2.5298
 4614SOL    HW225476   3.501   2.579   2.222  1.6293  0.9747 -0.4097
 4615SOL     OW25477   1.408   3.877   0.685 -0.2262  0.3658 -0.2033
 4615SOL    HW125478   1.398   3.830   0.768  1.0262 -2.5830 -1.7126
 4615SOL    HW225479   1.321   3.888   0.647  0.5627  1.0126 -1.8160
 4616SOL     OW25480   2.486   4.539  16.503  0.0415 -0.2472  0.0727
 4616SOL    HW125481   2.414   4.500  16.454 -0.1632 -1.1048  1.0558
 4616SOL    HW225482   2.517   4.463  16.551 -1.2104 -1.6197 -1.2894
 4617SOL     OW25483   3.888   2.807   4.918  0.4883  0.0113  0.0695
 4617SOL    HW125484   3.935   2.867   4.860 -0.4434 -0.1067 -0.7969
 4617SOL    HW225485   3.956   2.744   4.943  2.0242  0.9799 -1.6177
 4618SOL     OW25486   4.525   4.595  16.567  0.5909  0.0386 -0.1513
 4618SOL    HW125487   4.504   4.661  16.501 -0.3442 -0.8339 -0.7242
 4618SOL    HW225488   4.565   4.643  16.640 -2.0465  2.4138 -0.2654
 4619SOL     OW25489   2.769   4.642   7.057 -0.0085  0.2101  0.4885
 4619SOL    HW125490   2.831   4.642   6.984 -1.7791 -0.2312 -1.0304
 4619SOL    HW225491   2.825   4.662   7.132  1.6225 -1.6632 -0.2225
 4620SOL     OW25492   0.761   3.701   9.553  0.1645 -0.3120 -0.1870
 4620SOL    HW125493   0.754   3.739   9.640 -2.0735 -0.4082 -0.3274
 4620SOL    HW225494   0.840   3.648   9.568 -0.0890 -1.0505 -1.4058
 4621SOL     OW25495   3.023   0.799  15.199  0.2951  0.4020  0.0859
 4621SOL    HW125496   3.047   0.755  15.117 -1.9288 -2.4438  0.9396
 4621SOL    HW225497   2.976   0.726  15.240 -0.4983  1.4310  1.0137
 4622SOL     OW25498   0.090   2.292   5.838  0.5333  0.1136  0.1408
 4622SOL    HW125499   0.147   2.322   5.766 -1.0973  4.9960  0.9001
 4622SOL    HW225500   0.145   2.272   5.914  0.7493 -0.1884 -0.0928
 4623SOL     OW25501   1.206   3.966  15.221  0.6352 -0.2081 -0.3846
 4623SOL    HW125502   1.256   4.035  15.178 -3.0277  1.1412 -2.5477
 4623SOL    HW225503   1.171   4.018  15.294  1.5833  2.1094 -1.5752
 4624SOL     OW25504   0.698   3.943  12.486  0.4206  0.3898 -0.2175
 4624SOL    HW125505   0.646   3.934  12.406  1.9777  2.2783 -1.4794
 4624SOL    HW225506   0.688   3.855  12.520  0.3852  0.4407 -0.0949
 4625SOL     OW25507   1.587   0.977   8.847 -0.0931 -0.6618 -0.1419
 4625SOL    HW125508   1.655   0.926   8.804  2.2881  2.5564 -0.1451
 4625SOL    HW225509   1.562   0.923   8.921 -0.3985  0.1324  0.3348
 4626SOL     OW25510   3.206   2.087   4.402 -0.2318  0.3079  0.1749
 4626SOL    HW125511   3.286   2.045   4.370 -1.2162  0.4065 -2.3968
 4626SOL    HW225512   3.200   2.144   4.326 -3.4689 -0.7704 -0.3593
 4627SOL     OW25513   0.336   0.479   8.859 -0.4539 -0.2209 -0.2795
 4627SOL    HW125514   0.310   0.423   8.932 -2.6837 -0.6999 -1.4488
 4627SOL    HW225515   0.258   0.523   8.823 -0.7654  0.1190  0.7956
 4628SOL     OW25516   2.061   1.283   8.100  0.1448 -0.0209  0.1179
 4628SOL    HW125517   2.006   1.246   8.169  0.6882 -1.0787 -0.0189
 4628SOL    HW225518   2.138   1.322   8.142  1.0683 -0.1313 -1.4788
 4629SOL     OW25519   4.443   3.198  11.200  0.6138  0.0166 -0.1861
 4629SOL    HW125520   4.351   3.207  11.223  0.6244 -1.0360  0.2588
 4629SOL    HW225521   4.486   3.234  11.278 -0.3182  0.3435  0.1807
 4630SOL     OW25522   1.975   0.440  12.816  0.2347 -0.2787 -0.5107
 4630SOL    HW125523   1.882   0.441  12.839  0.9511 -4.1081  2.6161
 4630SOL    HW225524   1.992   0.351  12.788  0.1634 -0.7208  0.8648
 4631SOL     OW25525   4.513   3.760   4.614  0.9515  0.3312  0.1779
 4631SOL    HW125526   4.530   3.788   4.524  0.3123 -2.3612 -0.7878
 4631SOL    HW225527   4.464   3.682   4.587  0.3186  1.0226 -0.6536
 4632SOL     OW25528   0.057   0.037   5.044  0.1555 -0.1911 -0.4784
 4632SOL    HW125529   0.143   4.728   5.056 -0.2126 -0.8790 -0.1088
 4632SOL    HW225530   0.076   0.131   5.050 -0.1930 -0.2307  1.4560
 4633SOL     OW25531   0.704   1.693   7.727 -0.4641  0.2397  0.0808
 4633SOL    HW125532   0.681   1.645   7.648  0.4956  0.3218 -0.2431
 4633SOL    HW225533   0.646   1.769   7.728  0.9972  1.3856 -1.7006
 4634SOL     OW25534   0.164   0.162   8.928  0.0409  0.1811  0.5381
 4634SOL    HW125535   0.088   0.111   8.957  0.1485 -0.1521  0.2378
 4634SOL    HW225536   0.131   0.207   8.850  0.4541  0.1138  0.3212
 4635SOL     OW25537   0.950   1.176  13.667  0.1058  0.2573 -0.0617
 4635SOL    HW125538   1.017   1.155  13.601 -1.9027  0.1142 -2.0279
 4635SOL    HW225539   0.862   1.175  13.629 -1.2330  2.0700  2.9941
 4636SOL     OW25540   3.440   1.186   2.924 -0.1394 -0.1774  0.2436
 4636SOL    HW125541   3.452   1.143   2.839 -4.2907  2.0548 -1.4773
 4636SOL    HW225542   3.523   1.178   2.969 -0.7681  0.1393  1.4469
 4637SOL     OW25543   0.896   4.015  13.702  0.5008  0.0250  0.0257
 4637SOL    HW125544   0.977   4.056  13.732  0.3980 -1.5229  2.3404
 4637SOL    HW225545   0.833   4.058  13.760  0.2349 -0.4864  0.1121
 4638SOL     OW25546   2.999   2.992   7.073 -0.4587 -0.3999  0.1968
 4638SOL    HW125547   3.075   2.935   7.063 -1.0894 -1.0862 -0.6618
 4638SOL    HW225548   3.046   3.075   7.078 -0.0164 -0.6745  0.5867
 4639SOL     OW25549   1.472   3.667  17.666 -0.3039  0.3136 -0.2271
 4639SOL    HW125550   1.475   3.723   0.019 -0.0717 -0.7942  0.5623
 4639SOL    HW225551   1.449   3.732  17.600 -0.1763  1.2936  0.6851
 4640SOL     OW25552   1.907   1.382  14.435 -0.3334  0.1565  0.9244
 4640SOL    HW125553   1.923   1.338  14.351 -0.7510 -0.7673  1.3312
 4640SOL    HW225554   1.916   1.311  14.499  2.5790  1.6744  2.1808
 4641SOL     OW25555   4.509   2.377  14.937 -0.2922  0.7908 -0.1466
 4641SOL    HW125556   4.529   2.396  15.028  0.1293  0.8072 -0.2444
 4641SOL    HW225557   4.557   2.452  14.903  2.3262  0.1785  2.1857
 4642SOL     OW25558   2.566   1.612  15.155 -0.3393  0.3356  0.3376
 4642SOL    HW125559   2.636   1.577  15.100  0.9816  2.1433  0.8346
 4642SOL    HW225560   2.595   1.581  15.241 -0.8689 -1.8521 -0.2894
 4643SOL     OW25561   1.920   2.352   1.802 -0.5976 -0.0066 -0.1115
 4643SOL    HW125562   1.829   2.351   1.771 -0.4937 -0.3167 -0.3999
 4643SOL    HW225563   1.953   2.417   1.740 -2.4917  0.5130 -0.5775
 4644SOL     OW25564   4.155   3.177   7.655 -0.1335 -0.1659  0.1063
 4644SOL    HW125565   4.117   3.265   7.660  0.3277  0.0867 -0.7471
 4644SOL    HW225566   4.082   3.118   7.641 -0.0882 -0.8862  2.9254
 4645SOL     OW25567   1.733   2.434   3.245  0.0972  0.4266  0.6205
 4645SOL    HW125568   1.715   2.389   3.162 -0.0670  1.0571  0.3118
 4645SOL    HW225569   1.824   2.405   3.250 -0.2283 -0.2936  2.3980
 4646SOL     OW25570   3.521   2.409   1.753  0.5508 -0.2475  0.5345
 4646SOL    HW125571   3.455   2.475   1.774  2.1290  1.3526  0.4119
 4646SOL    HW225572   3.545   2.374   1.840  0.2015 -0.4343  0.5570
 4647SOL     OW25573   2.170   3.362   8.466 -0.6903  0.0362  0.1057
 4647SOL    HW125574   2.118   3.404   8.397  2.0399  0.6502 -1.5563
 4647SOL    HW225575   2.116   3.283   8.463 -2.3872  1.1111  2.4016
 4648SOL     OW25576   0.389   3.113  14.042  0.5345 -0.2938  0.1634
 4648SOL    HW125577   0.319   3.089  14.103 -0.6025 -1.2646 -1.4971
 4648SOL    HW225578   0.432   3.028  14.033 -1.2013 -1.2545  0.8530
 4649SOL     OW25579   1.806   2.682   8.549 -0.2345 -0.2632 -0.0813
 4649SOL    HW125580   1.737   2.622   8.521 -0.9646 -0.4562  2.0945
 4649SOL    HW225581   1.865   2.678   8.474  0.6429 -0.7899  0.6344
 4650SOL     OW25582   4.316   3.474   5.396 -0.0603 -0.0741  0.2559
 4650SOL    HW125583   4.230   3.497   5.432  0.3920  0.5371  0.9507
 4650SOL    HW225584   4.373   3.512   5.463 -2.1421  2.4473  0.5983
 4651SOL     OW25585   2.724   1.915   5.045  0.0850 -0.1171  0.3124
 4651SOL    HW125586   2.669   1.837   5.052 -1.8340  1.0928 -1.1356
 4651SOL    HW225587   2.807   1.870   5.057 -0.3443  0.1022  3.9656
 4652SOL     OW25588   1.204   2.818   6.293 -0.3090 -0.0775  0.0025
 4652SOL    HW125589   1.166   2.730   6.284 -1.9076  0.8421 -2.2107
 4652SOL    HW225590   1.191   2.816   6.388 -0.7383  0.6150 -0.0448
 4653SOL     OW25591   3.756   1.917   6.690  0.2471  0.2382  0.9774
 4653SOL    HW125592   3.760   1.974   6.766  3.6254 -0.2254  1.1670
 4653SOL    HW225593   3.849   1.906   6.670 -0.1331  1.5342 -1.5042
 4654SOL     OW25594   1.499   3.772  13.019  0.0276  0.4428 -0.2796
 4654SOL    HW125595   1.481   3.852  12.970 -2.5106  0.0627 -0.0015
 4654SOL    HW225596   1.512   3.704  12.953  0.0002 -0.3692  0.5440
 4655SOL     OW25597   0.836   4.036   7.046  0.4820 -0.1340 -0.0551
 4655SOL    HW125598   0.752   4.011   7.006  0.9504 -0.4310 -0.8601
 4655SOL    HW225599   0.825   4.123   7.085  0.5638 -0.3158  0.3673
 4656SOL     OW25600   0.732   3.601  11.058  0.2200 -0.2466  0.6487
 4656SOL    HW125601   0.803   3.556  11.104  1.4634 -0.8746 -1.8859
 4656SOL    HW225602   0.680   3.525  11.030 -0.8382  1.3762 -1.7208
 4657SOL     OW25603   2.502   2.879   3.630 -0.3606  0.2974 -0.2561
 4657SOL    HW125604   2.545   2.956   3.666  2.4367 -0.7495 -1.3278
 4657SOL    HW225605   2.502   2.901   3.537 -1.6491 -2.7805 -0.9871
 4658SOL     OW25606   4.691   1.377  11.186  0.1066  0.1149 -0.3626
 4658SOL    HW125607   0.055   1.385  11.189  0.1605 -1.1833  2.3864
 4658SOL    HW225608   4.658   1.443  11.126  1.4732 -0.7597 -2.0711
 4659SOL     OW25609   2.234   4.537   3.796  0.0600  0.8366 -0.6536
 4659SOL    HW125610   2.185   4.523   3.877  3.2677 -0.3747  1.0667
 4659SOL    HW225611   2.310   4.589   3.821 -1.0512  1.2742  1.8063
 4660SOL     OW25612   4.410   1.898   7.102 -0.1066  0.1709  0.1654
 4660SOL    HW125613   4.440   1.810   7.081  4.3688  1.3133  1.7074
 4660SOL    HW225614   4.398   1.892   7.197 -0.7452 -0.3842  0.0475
 4661SOL     OW25615   1.776   1.642   3.388  0.2659 -0.4015  0.0121
 4661SOL    HW125616   1.848   1.691   3.428  0.4455 -0.5156 -0.1694
 4661SOL    HW225617   1.811   1.628   3.300  0.2042 -3.3107  0.4556
 4662SOL     OW25618   4.371   1.490   2.773  0.0257  1.1273  0.2055
 4662SOL    HW125619   4.276   1.476   2.771 -0.1371  2.3114 -0.8855
 4662SOL    HW225620   4.395   1.405   2.808  0.5804  0.0503 -2.8364
 4663SOL     OW25621   2.643   3.023   8.167 -0.1017 -0.6958  0.1050
 4663SOL    HW125622   2.659   3.093   8.231  1.8388 -2.0263  1.1005
 4663SOL    HW225623   2.558   2.992   8.198 -0.3490 -0.3957 -0.2806
 4664SOL     OW25624   1.720   1.032   2.905  0.2727 -0.2783 -0.4367
 4664SOL    HW125625   1.738   0.938   2.919 -2.4082 -0.8240 -0.7126
 4664SOL    HW225626   1.686   1.032   2.816  0.2252  0.6289 -0.4113
 4665SOL     OW25627   2.003   2.084  15.828  0.2821  0.3518 -0.4880
 4665SOL    HW125628   1.916   2.061  15.794  1.5312 -1.2502 -2.5464
 4665SOL    HW225629   1.974   2.107  15.916  3.0945  0.0784  0.4986
 4666SOL     OW25630   4.331   0.188   3.065  0.2282  0.0660  0.3154
 4666SOL    HW125631   4.361   0.275   3.037 -0.2282  0.3823  0.8042
 4666SOL    HW225632   4.244   0.218   3.093  0.3207  0.7310 -0.1003
 4667SOL     OW25633   3.120   1.565   9.480  0.0378 -0.0446  0.2085
 4667SOL    HW125634   3.081   1.590   9.397  2.7759  2.1268 -0.4118
 4667SOL    HW225635   3.054   1.512   9.525  2.1350 -2.4344  0.4823
 4668SOL     OW25636   0.818   4.046   6.292 -0.2561 -0.3963  0.3660
 4668SOL    HW125637   0.899   4.082   6.254  0.4978 -2.0678  0.4012
 4668SOL    HW225638   0.763   4.118   6.262 -2.2128 -2.2834 -0.4734
 4669SOL     OW25639   2.007   4.633   7.026  0.0041  0.4945 -0.2140
 4669SOL    HW125640   2.059   4.700   7.071 -0.4273  1.6379 -1.4227
 4669SOL    HW225641   1.964   4.683   6.957  1.9665 -0.0339 -1.8429
 4670SOL     OW25642   4.435   3.042  15.526  0.2187 -0.1664 -0.4732
 4670SOL    HW125643   4.413   2.957  15.488  0.7922 -0.5840  0.1181
 4670SOL    HW225644   4.498   3.082  15.467 -1.6637  0.8648 -1.7989
 4671SOL     OW25645   2.621   4.142   5.612 -0.3609  0.4398 -0.1138
 4671SOL    HW125646   2.633   4.212   5.547 -0.5823 -0.3465 -1.0118
 4671SOL    HW225647   2.597   4.187   5.693  2.2519  0.0314  0.8575
 4672SOL     OW25648   2.938   1.028   4.725 -0.3181  0.4274 -1.3135
 4672SOL    HW125649   2.871   0.971   4.686 -1.2969  1.8059 -1.6522
 4672SOL    HW225650   2.910   1.024   4.817  3.6030 -2.0640 -0.2297
 4673SOL     OW25651   2.139   1.460   7.774 -0.6441 -0.0971  0.6935
 4673SOL    HW125652   2.213   1.412   7.812  0.3883  0.9691  0.0230
 4673SOL    HW225653   2.110   1.502   7.855 -0.0558 -1.0295  1.3916
 4674SOL     OW25654   0.966   3.924   1.178  0.2358  0.7117  0.2064
 4674SOL    HW125655   0.962   3.886   1.266 -0.1688 -0.5466 -0.3598
 4674SOL    HW225656   0.873   3.940   1.167  0.3458  1.4504  0.3324
 4675SOL     OW25657   1.171   3.676   0.734  0.0125 -0.0313  0.4398
 4675SOL    HW125658   1.223   3.653   0.810 -1.1763 -1.7720  0.7393
 4675SOL    HW225659   1.096   3.722   0.773  0.7537  2.4560 -1.0661
 4676SOL     OW25660   1.655   2.873   7.209  0.3220 -0.8249 -0.8654
 4676SOL    HW125661   1.596   2.897   7.138 -2.4817  0.0171  1.7498
 4676SOL    HW225662   1.733   2.867   7.153  0.5991  2.7226 -0.8613
 4677SOL     OW25663   1.327   3.645   2.513  0.3301  0.1411  0.0565
 4677SOL    HW125664   1.359   3.610   2.597 -2.9571  0.8333  1.5986
 4677SOL    HW225665   1.391   3.716   2.501 -1.2357  1.9323  2.3349
 4678SOL     OW25666   0.885   3.638   6.777  0.1916 -0.5055 -0.2745
 4678SOL    HW125667   0.929   3.651   6.861  0.4020  0.5770 -0.5434
 4678SOL    HW225668   0.813   3.581   6.804  0.1019  0.5630  1.7055
 4679SOL     OW25669   1.000   2.961   7.353  0.1853  0.6785 -0.0300
 4679SOL    HW125670   0.913   2.995   7.331  0.4111 -0.3026 -2.3665
 4679SOL    HW225671   1.019   3.017   7.429 -0.7525  2.8649 -1.4095
 4680SOL     OW25672   1.214   0.264   4.765  0.0861 -0.4171  0.4696
 4680SOL    HW125673   1.214   0.221   4.679  1.9297 -0.7073  0.6151
 4680SOL    HW225674   1.216   0.354   4.733  0.4623  0.9329  4.3560
 4681SOL     OW25675   1.268   1.409  10.059 -0.1689 -0.0641  0.0822
 4681SOL    HW125676   1.327   1.355  10.113 -1.7909  0.4388  2.3510
 4681SOL    HW225677   1.335   1.448  10.002 -1.0558 -0.8305 -1.4649
 4682SOL     OW25678   0.964   0.158   7.208 -0.2902  0.7354 -0.0032
 4682SOL    HW125679   0.913   0.195   7.280  0.3080  0.4349  0.5791
 4682SOL    HW225680   0.923   0.073   7.195 -2.6205  1.7432  0.7970
 4683SOL     OW25681   0.772   2.248   4.652  0.4485  0.4877 -0.3836
 4683SOL    HW125682   0.725   2.259   4.735  0.3841  3.1998 -0.7907
 4683SOL    HW225683   0.734   2.168   4.615 -0.9932  0.8147  0.3995
 4684SOL     OW25684   3.067   4.040  14.859 -0.0192  0.0487 -0.2541
 4684SOL    HW125685   3.135   4.039  14.926  0.2207 -1.1653 -0.5105
 4684SOL    HW225686   3.113   4.024  14.776  1.5790 -1.5514  0.9414
 4685SOL     OW25687   4.571   2.276  14.018  0.2148  0.3171 -0.0771
 4685SOL    HW125688   4.608   2.363  14.033 -1.5646  0.5795  3.0849
 4685SOL    HW225689   4.637   2.258  13.952  0.1418 -1.3339  0.2975
 4686SOL     OW25690   2.447   2.299   7.475 -0.1790 -0.5265 -0.4319
 4686SOL    HW125691   2.421   2.207   7.477  0.9344 -0.7807  2.7209
 4686SOL    HW225692   2.368   2.340   7.510 -0.0606 -0.8521  0.2231
 4687SOL     OW25693   3.459   1.953  12.007  0.7373 -0.2977 -0.6559
 4687SOL    HW125694   3.475   1.861  12.028  2.0345  0.4460  1.6999
 4687SOL    HW225695   3.403   1.981  12.080 -2.3025 -4.8292 -1.2670
 4688SOL     OW25696   4.523   3.984   8.520  0.2585 -0.2008  0.1352
 4688SOL    HW125697   4.456   3.983   8.588  1.4697  0.2803  1.3301
 4688SOL    HW225698   4.582   3.924   8.565  0.2345  0.8294  1.5428
 4689SOL     OW25699   4.310   4.063  12.249  0.5594  0.4690 -0.3570
 4689SOL    HW125700   4.261   4.124  12.194 -0.9347 -0.9650 -0.6106
 4689SOL    HW225701   4.312   3.998  12.179 -0.4909  1.6557 -1.5140
 4690SOL     OW25702   2.400   3.600  14.713 -0.1037  0.5910 -0.1336
 4690SOL    HW125703   2.323   3.657  14.716  1.6524  2.8323  1.5382
 4690SOL    HW225704   2.386   3.551  14.631  0.2746  1.2983 -0.6221
 4691SOL     OW25705   1.502   0.332   3.258  0.6751 -0.2264 -0.3423
 4691SOL    HW125706   1.558   0.408   3.271 -0.6619  0.5729  0.8164
 4691SOL    HW225707   1.476   0.345   3.166 -0.7906  1.5690  0.3294
 4692SOL     OW25708   0.834   3.309  14.684  0.0116 -0.0464 -0.0461
 4692SOL    HW125709   0.891   3.373  14.727  2.2282 -1.8859 -0.1901
 4692SOL    HW225710   0.780   3.276  14.755  0.7213  0.4329  0.7242
 4693SOL     OW25711   0.330   1.469  12.548  0.0479 -0.2618  0.3541
 4693SOL    HW125712   0.266   1.399  12.547  2.6756 -2.6340 -2.1389
 4693SOL    HW225713   0.404   1.412  12.525 -0.7097 -0.7202 -0.9679
 4694SOL     OW25714   4.561   2.038  11.284 -0.3306  0.4620  0.6873
 4694SOL    HW125715   4.558   1.975  11.212  0.4096  1.7763 -0.4835
 4694SOL    HW225716   4.482   2.091  11.271 -0.2837  0.4437  0.3307
 4695SOL     OW25717   2.093   2.678  17.251  0.6700 -0.0820  0.5639
 4695SOL    HW125718   2.146   2.665  17.329 -1.1721 -0.2471  1.7880
 4695SOL    HW225719   2.153   2.711  17.184 -0.7293 -0.7013 -0.9896
 4696SOL     OW25720   0.752   3.330  11.185  0.1691 -0.2007 -0.5395
 4696SOL    HW125721   0.713   3.331  11.098 -1.2041 -2.6391  0.0409
 4696SOL    HW225722   0.679   3.334  11.247 -0.3278 -1.6430 -1.0426
 4697SOL     OW25723   0.277   1.492   9.811  0.3642 -0.4860 -0.3762
 4697SOL    HW125724   0.335   1.490   9.735  3.0025  1.8720  1.5778
 4697SOL    HW225725   0.322   1.433   9.871 -1.7396 -1.8013 -0.0713
 4698SOL     OW25726   4.570   2.907   3.288 -0.0418 -0.1208  0.7121
 4698SOL    HW125727   4.516   2.903   3.209  0.7642  0.4329  0.1372
 4698SOL    HW225728   4.633   2.840   3.260 -0.5612 -0.3505  0.0760
 4699SOL     OW25729   0.433   3.745   7.337 -0.0567  0.2260  0.2674
 4699SOL    HW125730   0.516   3.747   7.289 -0.6540  0.8727 -0.7624
 4699SOL    HW225731   0.370   3.788   7.279 -1.2825 -0.6664  0.9367
 4700SOL     OW25732   2.195   2.087   3.280  0.4611  0.1705  0.2137
 4700SOL    HW125733   2.270   2.128   3.237  0.7002 -0.6578 -0.1569
 4700SOL    HW225734   2.145   2.157   3.322 -0.5466 -0.6345  0.3398
 4701SOL     OW25735   4.276   3.127  14.340  0.0387  0.1051 -0.1486
 4701SOL    HW125736   4.218   3.052  14.324  0.2084 -0.1438  0.3923
 4701SOL    HW225737   4.335   3.090  14.406  0.4965  1.7059  0.3429
 4702SOL     OW25738   4.566   0.422   8.683 -0.2554 -0.3045 -0.5776
 4702SOL    HW125739   4.474   0.414   8.708  0.1672 -2.1456  0.3080
 4702SOL    HW225740   4.598   0.336   8.709  1.6119  0.7579  0.6415
 4703SOL     OW25741   0.693   0.115  12.050 -0.1775 -0.1717  0.1367
 4703SOL    HW125742   0.648   0.170  11.986 -1.2423  0.3069  1.2928
 4703SOL    HW225743   0.685   0.171  12.127  0.1905 -0.4617  0.3849
 4704SOL     OW25744   0.870   1.175   2.808  0.3701  0.0205 -0.6696
 4704SOL    HW125745   0.952   1.218   2.786  0.1432  1.0624  0.5034
 4704SOL    HW225746   0.880   1.083   2.784  0.2074  0.5572 -2.7407
 4705SOL     OW25747   3.024   0.769   8.265 -0.0334  0.4829  0.0346
 4705SOL    HW125748   3.112   0.757   8.230 -0.3591  1.3273 -1.0779
 4705SOL    HW225749   3.037   0.722   8.347  2.4641  1.4903  0.2238
 4706SOL     OW25750   4.194   4.522   3.096  0.3646 -0.2462  0.7599
 4706SOL    HW125751   4.242   4.533   3.179 -1.2535  0.0682  1.6554
 4706SOL    HW225752   4.104   4.542   3.122  0.2770  0.8576 -0.3941
 4707SOL     OW25753   0.283   0.535   3.079  0.7203  0.1688  0.0485
 4707SOL    HW125754   0.190   0.521   3.068  0.4581  1.2588  0.8418
 4707SOL    HW225755   0.297   0.510   3.171 -0.3787 -2.2158 -0.4501
 4708SOL     OW25756   1.545   4.017   6.868 -0.2504  0.4701 -0.8394
 4708SOL    HW125757   1.499   3.972   6.938 -0.8226  0.1728 -1.3987
 4708SOL    HW225758   1.479   4.048   6.805 -2.7478  1.9045  2.5327
 4709SOL     OW25759   1.974   2.149  14.259  0.8356 -0.0952 -0.6779
 4709SOL    HW125760   2.060   2.114  14.236  0.6260 -1.2660  0.3153
 4709SOL    HW225761   1.963   2.213  14.189 -0.1473 -0.0531 -0.4803
 4710SOL     OW25762   1.200   2.735  14.714  0.0549  0.3217  0.1223
 4710SOL    HW125763   1.153   2.688  14.782  3.8783 -1.2039  1.7249
 4710SOL    HW225764   1.277   2.680  14.698  1.1474  2.3374 -1.6299
 4711SOL     OW25765   2.173   3.044   2.699  0.1239 -0.0629  0.0716
 4711SOL    HW125766   2.228   3.055   2.777 -2.3862  1.4652  1.6402
 4711SOL    HW225767   2.106   3.113   2.705  0.9698  1.1374 -4.7531
 4712SOL     OW25768   0.820   3.577  10.423 -0.1671  0.5710 -0.2333
 4712SOL    HW125769   0.837   3.577  10.517 -0.1671 -0.2281 -0.2333
 4712SOL    HW225770   0.729   3.607  10.419 -0.6405 -0.6436  1.5711
 4713SOL     OW25771   2.744   1.200   2.671  0.7676 -0.4247 -0.6184
 4713SOL    HW125772   2.719   1.116   2.634 -0.8267 -0.4652  0.5424
 4713SOL    HW225773   2.783   1.171   2.753  0.6007  2.0755  0.3600
 4714SOL     OW25774   3.082   0.154   8.246 -0.9791  0.4662 -0.0462
 4714SOL    HW125775   3.107   0.197   8.327 -0.2433  2.5708 -1.3872
 4714SOL    HW225776   3.073   0.062   8.270  0.7819  0.5914  1.1198
 4715SOL     OW25777   2.822   2.226   5.370  0.6795  0.0681 -0.0313
 4715SOL    HW125778   2.801   2.140   5.407  0.0524  1.1352  2.0337
 4715SOL    HW225779   2.909   2.235   5.410  0.9451  1.4609 -0.9126
 4716SOL     OW25780   0.686   2.687   6.415 -0.7411  0.0135  0.2030
 4716SOL    HW125781   0.591   2.680   6.409 -0.6705  0.4110 -1.2964
 4716SOL    HW225782   0.710   2.670   6.506 -1.2416 -0.0110  0.3271
 4717SOL     OW25783   4.225   2.425   2.055 -0.3003 -0.1118  1.0481
 4717SOL    HW125784   4.288   2.496   2.039  1.4886 -1.6088  1.5758
 4717SOL    HW225785   4.273   2.351   2.018  1.2456  0.4305  1.9521
 4718SOL     OW25786   4.413   0.436  11.047  0.6726 -0.0550 -0.3208
 4718SOL    HW125787   4.367   0.354  11.028  0.8331 -0.5076  1.2322
 4718SOL    HW225788   4.340   0.488  11.079  0.5821 -0.4085  0.0542
 4719SOL     OW25789   3.139   3.177   5.851 -0.5141 -0.3205 -0.5381
 4719SOL    HW125790   3.198   3.111   5.816  0.1544  1.3499 -2.5783
 4719SOL    HW225791   3.101   3.118   5.915  0.3797  1.2116  1.3878
 4720SOL     OW25792   2.670   0.076   0.062 -0.3664  0.0463  0.1531
 4720SOL    HW125793   2.713   0.113   0.139  1.8745 -0.1929 -0.9717
 4720SOL    HW225794   2.613   0.150   0.042 -0.7952  0.2909  2.2498
 4721SOL     OW25795   2.246   2.636   3.149  0.5681  0.3590  0.1687
 4721SOL    HW125796   2.326   2.632   3.202 -0.7620 -0.3602  2.1132
 4721SOL    HW225797   2.246   2.566   3.084 -0.1326  0.3376  0.1958
 4722SOL     OW25798   2.827   3.739   2.402  0.2285 -0.2827 -0.2933
 4722SOL    HW125799   2.860   3.674   2.340  1.7668 -1.6480  1.9364
 4722SOL    HW225800   2.861   3.824   2.376  3.2845 -0.3041  3.6818
 4723SOL     OW25801   1.222   3.535   4.622  0.2013 -0.0898  0.1078
 4723SOL    HW125802   1.303   3.528   4.572 -1.2070 -4.1794 -1.6128
 4723SOL    HW225803   1.163   3.476   4.575  2.5498 -2.9383  0.7477
 4724SOL     OW25804   3.069   2.909   3.523 -0.4678  0.0537  0.1739
 4724SOL    HW125805   3.081   2.983   3.583 -1.7470 -0.3755  0.9482
 4724SOL    HW225806   3.162   2.903   3.502 -0.4515 -0.2734  0.3341
 4725SOL     OW25807   2.542   2.339   8.818 -0.0843  0.2650 -0.7488
 4725SOL    HW125808   2.629   2.307   8.797 -0.3750  0.3636 -2.0907
 4725SOL    HW225809   2.550   2.433   8.805 -1.0365  0.2981 -1.1309
 4726SOL     OW25810   4.008   0.577   3.484  0.2941  0.3419  0.4478
 4726SOL    HW125811   3.914   0.560   3.476  0.2414  1.1148 -0.6523
 4726SOL    HW225812   4.055   0.556   3.403 -2.1624 -0.7375 -0.7088
 4727SOL     OW25813   1.151   2.938   6.696  0.4106  0.5339 -0.5380
 4727SOL    HW125814   1.234   2.980   6.721  0.4968  0.4394 -0.6635
 4727SOL    HW225815   1.108   3.014   6.656 -1.8256  0.0827  0.9903
 4728SOL     OW25816   3.460   4.365   7.669 -0.0566  0.0539  0.9149
 4728SOL    HW125817   3.528   4.330   7.727 -0.2525  0.8726  1.6385
 4728SOL    HW225818   3.437   4.437   7.729 -0.0469 -0.3155  1.3614
 4729SOL     OW25819   3.561   4.130   1.443  0.2321  0.2291  0.1312
 4729SOL    HW125820   3.629   4.068   1.417 -0.4940 -0.8451  0.8102
 4729SOL    HW225821   3.485   4.091   1.399 -0.1563  0.1963  0.8373
 4730SOL     OW25822   0.901   2.875  13.485  0.0858  0.4693  0.0199
 4730SOL    HW125823   0.958   2.951  13.478  0.8380 -0.2527 -1.6467
 4730SOL    HW225824   0.831   2.879  13.420  1.0611 -1.9681 -1.1727
 4731SOL     OW25825   3.996   3.735   4.209 -0.4162  0.4358  0.3954
 4731SOL    HW125826   4.056   3.809   4.207 -0.7752  0.7246  0.1929
 4731SOL    HW225827   3.971   3.735   4.301  1.3678 -1.2086  0.8818
 4732SOL     OW25828   2.369   2.407  10.796  0.9684  0.0113 -0.3627
 4732SOL    HW125829   2.420   2.368  10.726  1.8400 -0.3174  0.4557
 4732SOL    HW225830   2.355   2.325  10.843 -2.7291  0.9401  0.2068
 4733SOL     OW25831   2.081   1.466  11.477  0.0156 -0.0277  0.2615
 4733SOL    HW125832   2.138   1.542  11.492  0.1461  0.0415 -0.5851
 4733SOL    HW225833   2.082   1.453  11.383 -1.5008  0.4772  0.1725
 4734SOL     OW25834   0.987   0.463   3.234 -0.2671 -0.3891  0.1278
 4734SOL    HW125835   1.027   0.478   3.149  1.8912  2.1764  1.5753
 4734SOL    HW225836   0.956   0.550   3.257  1.0692  0.9627 -3.2243
 4735SOL     OW25837   1.074   2.247   1.877 -0.1581  0.4332 -0.1091
 4735SOL    HW125838   0.994   2.270   1.829 -0.8760 -1.3770  0.2327
 4735SOL    HW225839   1.051   2.154   1.878  0.5204  0.2713  0.4757
 4736SOL     OW25840   0.527   2.731  11.223 -0.1484 -0.0497 -0.7145
 4736SOL    HW125841   0.600   2.672  11.244 -1.2797 -1.7198 -1.5058
 4736SOL    HW225842   0.513   2.784  11.302 -1.4922 -0.1301 -0.8995
 4737SOL     OW25843   1.514   1.952   4.035 -0.9730 -0.6743 -0.4078
 4737SOL    HW125844   1.448   1.937   3.968 -0.3344 -2.0379 -0.7390
 4737SOL    HW225845   1.498   2.038   4.075 -0.1081 -0.9242  0.4883
 4738SOL     OW25846   2.835   1.300  10.471 -0.3652 -0.1259  0.0260
 4738SOL    HW125847   2.845   1.267  10.560  0.2956 -2.4376 -0.9163
 4738SOL    HW225848   2.776   1.374  10.486 -1.1120 -0.5615 -0.7977
 4739SOL     OW25849   2.110   3.659   4.664  0.5082 -0.6032  0.1708
 4739SOL    HW125850   2.150   3.689   4.582 -1.0590 -0.6460 -0.5978
 4739SOL    HW225851   2.049   3.731   4.679  1.1727 -0.1778  0.8583
 4740SOL     OW25852   3.723   1.542  16.726 -0.1446 -0.6643  0.3290
 4740SOL    HW125853   3.805   1.584  16.754  0.1921  0.5744 -2.5106
 4740SOL    HW225854   3.666   1.545  16.802  0.7946  0.8408  0.9865
 4741SOL     OW25855   2.946   2.226   7.993  0.6242 -0.2182  0.0105
 4741SOL    HW125856   2.878   2.269   7.941  0.7886  0.4701  0.3580
 4741SOL    HW225857   2.909   2.211   8.080 -0.7216 -0.8117 -0.6779
 4742SOL     OW25858   2.462   3.307   2.417 -0.3008  0.5067 -0.0056
 4742SOL    HW125859   2.441   3.293   2.509 -0.2381 -1.0159 -0.2257
 4742SOL    HW225860   2.538   3.364   2.429  1.1145 -1.4455  0.3194
 4743SOL     OW25861   3.334   2.735   1.240  0.0451 -0.3031 -0.5796
 4743SOL    HW125862   3.357   2.663   1.298  0.9696  0.2845 -0.2182
 4743SOL    HW225863   3.241   2.720   1.222  0.7870 -1.9790 -2.9940
 4744SOL     OW25864   2.589   3.439  14.810 -0.2826 -0.1374  0.8052
 4744SOL    HW125865   2.641   3.481  14.879 -0.8823  0.2578  1.0172
 4744SOL    HW225866   2.520   3.503  14.793 -0.5219  0.2673  3.2674
 4745SOL     OW25867   1.757   4.171   2.123  0.1115  0.4629  0.2669
 4745SOL    HW125868   1.731   4.263   2.129 -1.8620 -0.0560 -0.2851
 4745SOL    HW225869   1.761   4.139   2.213  0.3296  0.9665  0.4372
 4746SOL     OW25870   1.493   1.498   1.599 -0.2790 -0.6548 -0.2054
 4746SOL    HW125871   1.562   1.562   1.582 -2.8690  2.0532 -0.3505
 4746SOL    HW225872   1.484   1.467   1.509  3.0464  1.3299 -1.2246
 4747SOL     OW25873   2.634   0.779   2.175  0.1012 -0.0779 -0.0850
 4747SOL    HW125874   2.616   0.858   2.225 -0.5323  0.1464 -0.6593
 4747SOL    HW225875   2.719   0.763   2.216 -0.6555  2.5582  2.4596
 4748SOL     OW25876   3.448   2.093  13.186  0.7352  0.0356 -0.7529
 4748SOL    HW125877   3.388   2.028  13.222 -0.9058  1.5143 -0.7817
 4748SOL    HW225878   3.491   2.120  13.267  2.6805  0.2476 -1.8481
 4749SOL     OW25879   0.266   0.314   4.593 -0.8389 -0.1352 -0.2638
 4749SOL    HW125880   0.192   0.363   4.558  0.8441  1.8450 -1.0817
 4749SOL    HW225881   0.305   0.382   4.649  0.3101  0.3864 -1.6924
 4750SOL     OW25882   1.129   0.472   3.510 -0.2462  0.7375  0.4915
 4750SOL    HW125883   1.196   0.524   3.467  0.9849 -1.0182  0.3006
 4750SOL    HW225884   1.170   0.393   3.476 -0.5862  0.2033  1.3469
 4751SOL     OW25885   3.659   3.947   5.183 -0.6220 -0.4720 -0.5283
 4751SOL    HW125886   3.651   4.002   5.261 -0.7241  0.5210 -1.2415
 4751SOL    HW225887   3.696   4.020   5.134 -0.7558  0.8406  1.3148
 4752SOL     OW25888   4.719   2.870   2.563 -0.2373  0.0708  0.0172
 4752SOL    HW125889   4.698   2.949   2.513  2.1654  0.3993 -0.4577
 4752SOL    HW225890   0.076   2.841   2.537  0.2078  1.3168  0.1631
 4753SOL     OW25891   0.612   1.226  11.369  0.0957 -0.2118  0.3128
 4753SOL    HW125892   0.566   1.292  11.421 -0.6514  1.1196 -2.0428
 4753SOL    HW225893   0.657   1.287  11.311  1.7463 -2.3682 -0.6815
 4754SOL     OW25894   1.027   2.859  11.271  0.2361 -0.0326  0.0349
 4754SOL    HW125895   1.081   2.858  11.350 -1.1482 -2.4872  0.9498
 4754SOL    HW225896   1.006   2.953  11.267 -1.5748 -0.5370 -2.7301
 4755SOL     OW25897   2.697   1.091   5.227  0.0235 -0.2276  0.5768
 4755SOL    HW125898   2.688   1.017   5.286 -2.0441 -0.4985 -0.0648
 4755SOL    HW225899   2.637   1.164   5.245  1.2184  0.8944  0.0387
 4756SOL     OW25900   0.297   4.470   4.213 -0.0281  0.4757 -0.6283
 4756SOL    HW125901   0.346   4.394   4.245  0.0498  1.0796  0.7000
 4756SOL    HW225902   0.209   4.445   4.240 -0.7585  2.5536 -1.0950
 4757SOL     OW25903   1.866   4.317   6.264 -0.3313 -0.3331 -0.2869
 4757SOL    HW125904   1.892   4.226   6.251  0.6259 -0.1358  0.2311
 4757SOL    HW225905   1.889   4.359   6.181  1.9891  1.1385  1.0754
 4758SOL     OW25906   4.375   3.972   8.739  0.4387  0.0997  0.2454
 4758SOL    HW125907   4.287   3.934   8.747 -0.5759  2.3765 -0.1742
 4758SOL    HW225908   4.363   4.065   8.754  0.3844  0.4114 -1.6999
 4759SOL     OW25909   4.488   2.616   5.533  0.2306  0.2090 -0.7508
 4759SOL    HW125910   4.466   2.535   5.489 -0.7564  0.9883 -1.7032
 4759SOL    HW225911   4.465   2.600   5.625 -1.0007  0.2792 -1.0385
 4760SOL     OW25912   0.874   2.902   9.866  0.4316 -0.0943  0.2727
 4760SOL    HW125913   0.928   2.968   9.911 -1.6689  1.0263  1.1582
 4760SOL    HW225914   0.946   2.846   9.838  0.1772 -1.3850  2.1842
 4761SOL     OW25915   3.698   3.255  10.165  0.0439  0.3355 -0.1041
 4761SOL    HW125916   3.778   3.307  10.159 -0.0935  0.2690 -2.2675
 4761SOL    HW225917   3.639   3.316  10.122  0.3057  0.2869 -0.5314
 4762SOL     OW25918   4.714   1.845   8.008 -0.4711 -0.1991 -0.2318
 4762SOL    HW125919   4.631   1.797   8.009 -1.3380  1.2737 -1.2653
 4762SOL    HW225920   0.037   1.766   8.016  0.2925  0.4126  0.6123
 4763SOL     OW25921   0.175   3.369  14.299 -0.4044  0.0504  0.9733
 4763SOL    HW125922   0.186   3.372  14.394  0.2126 -1.1837  0.9454
 4763SOL    HW225923   0.266   3.392  14.281 -0.2287 -0.8511  0.7150
 4764SOL     OW25924   3.538   0.209  12.128 -0.4944  0.0913  0.0417
 4764SOL    HW125925   3.595   0.211  12.204 -2.5961 -0.5160  1.6335
 4764SOL    HW225926   3.539   0.117  12.101 -1.2766  0.0108  0.2919
 4765SOL     OW25927   3.799   3.362   0.907 -0.0734 -0.0741 -0.4704
 4765SOL    HW125928   3.718   3.317   0.882 -1.3067  2.2691 -0.7750
 4765SOL    HW225929   3.791   3.343   1.001 -3.1302 -1.7445 -1.0675
 4766SOL     OW25930   4.068   4.607  13.429 -0.6465  0.7009  0.1567
 4766SOL    HW125931   3.981   4.589  13.465 -0.3456  1.5193  1.2922
 4766SOL    HW225932   4.052   4.584  13.337  2.0357  1.7163 -0.5776
 4767SOL     OW25933   2.833   1.029  14.908 -0.2070 -0.2472  0.3815
 4767SOL    HW125934   2.839   0.958  14.845  1.3271  0.4787 -0.2974
 4767SOL    HW225935   2.739   1.023  14.927 -0.2137 -1.0139  0.1155
 4768SOL     OW25936   1.352   3.745   7.457 -0.4926  0.0785 -0.2014
 4768SOL    HW125937   1.395   3.767   7.374  1.0586 -0.5946  0.4173
 4768SOL    HW225938   1.278   3.697   7.422 -1.3676 -0.3324  2.1830
 4769SOL     OW25939   1.297   1.197   1.596 -0.2561  1.1437 -0.4395
 4769SOL    HW125940   1.364   1.131   1.613 -1.1238 -0.0133 -1.5779
 4769SOL    HW225941   1.310   1.260   1.668  0.1655  0.3072  0.2215
 4770SOL     OW25942   3.091   0.838   3.729 -0.1162  0.0707 -0.3687
 4770SOL    HW125943   3.038   0.867   3.804 -1.4301  2.0516 -2.0533
 4770SOL    HW225944   3.078   0.917   3.676 -0.5228 -0.5048 -1.1189
 4771SOL     OW25945   0.818   4.711   3.492 -0.0367 -0.2457 -0.3759
 4771SOL    HW125946   0.787   0.070   3.495  1.3996  0.2174  0.5866
 4771SOL    HW225947   0.911   4.726   3.508 -0.0336  1.6385 -2.1640
 4772SOL     OW25948   0.253   3.204   4.771  0.2256 -0.2117  0.0890
 4772SOL    HW125949   0.211   3.118   4.780  0.4977 -0.4536 -0.9981
 4772SOL    HW225950   0.262   3.205   4.676 -0.9096  0.1850 -0.0102
 4773SOL     OW25951   1.780   3.987   0.229  0.1535  0.0513  0.3992
 4773SOL    HW125952   1.716   4.005   0.297 -1.0896 -1.4146 -0.3857
 4773SOL    HW225953   1.852   4.004   0.289 -0.7703 -0.6368  1.6963
 4774SOL     OW25954   4.655   4.209   5.287  0.3849  0.2724  0.3643
 4774SOL    HW125955   4.626   4.216   5.196  1.4913 -1.7671 -0.1398
 4774SOL    HW225956   0.017   4.229   5.279  0.9561 -2.5192  0.0378
 4775SOL     OW25957   1.080   3.905   3.011  0.5106 -0.1717  0.3183
 4775SOL    HW125958   1.155   3.960   2.988  1.4184 -1.6615 -0.2740
 4775SOL    HW225959   1.080   3.902   3.107 -0.2033 -3.1524  0.2240
 4776SOL     OW25960   1.470   2.003   9.097 -0.5861  0.2137 -0.1120
 4776SOL    HW125961   1.465   1.964   9.009 -0.9634  1.6256 -0.7125
 4776SOL    HW225962   1.428   1.931   9.143  0.3856  0.5572  1.3201
 4777SOL     OW25963   0.166   3.821   5.036  0.3105  0.3550 -0.6074
 4777SOL    HW125964   0.157   3.726   5.048 -0.7910  0.6467  0.8968
 4777SOL    HW225965   0.132   3.862   5.116  0.0440 -0.7648 -0.1432
 4778SOL     OW25966   0.033   2.430   6.079  0.4030 -0.9224  0.5813
 4778SOL    HW125967   4.689   2.395   6.032  0.5698 -0.6229  0.0837
 4778SOL    HW225968   0.051   2.358   6.139  2.0229 -0.2226  0.9604
 4779SOL     OW25969   0.421   2.949   2.076 -0.1780  0.6876  0.2092
 4779SOL    HW125970   0.490   2.934   2.011 -1.9786 -0.8802 -1.3680
 4779SOL    HW225971   0.418   2.863   2.118 -2.8866  0.3098 -0.6954
 4780SOL     OW25972   2.624   3.546   2.186 -0.4335  0.3809 -0.0501
 4780SOL    HW125973   2.719   3.541   2.177 -0.5530  0.6796 -1.5550
 4780SOL    HW225974   2.617   3.623   2.130  3.2351  0.6886 -0.1223
 4781SOL     OW25975   3.178   3.660   9.067 -0.1833  0.5291  0.6734
 4781SOL    HW125976   3.139   3.592   9.122 -0.1890  0.3206  0.4118
 4781SOL    HW225977   3.094   3.698   9.041  1.0477  0.6701 -3.1011
 4782SOL     OW25978   0.246   4.225   2.086 -0.6483  0.1777 -0.2933
 4782SOL    HW125979   0.310   4.235   2.157 -0.2984 -0.0654 -0.5774
 4782SOL    HW225980   0.282   4.281   2.017  0.8498  1.9440  1.9176
 4783SOL     OW25981   0.790   0.054   9.271  0.4508 -0.3297 -0.5048
 4783SOL    HW125982   0.714   4.728   9.259 -0.4112  0.6572  0.2923
 4783SOL    HW225983   0.772   0.126   9.210 -0.6373  1.3221  1.7679
 4784SOL     OW25984   4.630   2.815  12.186  0.6787 -0.3610  0.0251
 4784SOL    HW125985   4.597   2.769  12.263 -1.1700  0.8962 -0.0121
 4784SOL    HW225986   4.699   2.753  12.162  1.8450 -0.4415  3.4943
 4785SOL     OW25987   0.518   1.220   9.834  0.8116  0.4045  0.7144
 4785SOL    HW125988   0.440   1.166   9.820  0.5099  1.3554 -1.2554
 4785SOL    HW225989   0.583   1.157   9.802 -0.2061  0.0944 -0.7573
 4786SOL     OW25990   2.476   1.788  11.991  0.2010  0.6168  0.8484
 4786SOL    HW125991   2.496   1.858  12.053 -2.6442  2.3678 -0.2012
 4786SOL    HW225992   2.396   1.751  12.028 -1.6568  1.9045 -1.8806
 4787SOL     OW25993   1.199   1.128   3.377  0.2463  0.4925 -0.1111
 4787SOL    HW125994   1.105   1.140   3.392  0.4302 -0.6052  1.8359
 4787SOL    HW225995   1.204   1.107   3.283 -1.6975  0.4198 -0.2051
 4788SOL     OW25996   4.175   0.920   2.450 -0.3506 -0.2140 -0.2488
 4788SOL    HW125997   4.270   0.915   2.440  0.0343  2.2339  2.4763
 4788SOL    HW225998   4.170   0.879   2.536  2.3634 -1.0859 -0.5192
 4789SOL     OW25999   0.447   4.439   9.047  0.2067  0.7982 -0.2381
 4789SOL    HW126000   0.374   4.381   9.070 -1.2750  2.2539 -1.2347
 4789SOL    HW226001   0.492   4.383   8.983  0.4239 -0.0868  0.6877
 4790SOL     OW26002   0.759   3.045   6.856 -0.1538 -0.0576 -0.3394
 4790SOL    HW126003   0.758   2.970   6.915  2.9541  0.6384  0.6109
 4790SOL    HW226004   0.667   3.070   6.865 -0.4960 -0.5778 -2.3182
 4791SOL     OW26005   1.857   2.065   3.525 -0.2103  0.2220 -0.0646
 4791SOL    HW126006   1.905   2.125   3.468  1.2781 -1.5880 -0.7023
 4791SOL    HW226007   1.870   2.117   3.605  1.5086 -0.5044  0.1230
 4792SOL     OW26008   0.034   0.689   2.153 -0.0153 -0.1454  0.0277
 4792SOL    HW126009   0.041   0.627   2.080  1.0670 -0.7292  0.6255
 4792SOL    HW226010   0.126   0.685   2.181  0.5454 -1.6917 -2.0142
 4793SOL     OW26011   0.838   0.794  14.868  0.6294 -0.2161 -0.5328
 4793SOL    HW126012   0.868   0.704  14.881 -1.5875 -0.7414  1.0337
 4793SOL    HW226013   0.743   0.779  14.871  1.1070 -3.8096 -3.4247
 4794SOL     OW26014   0.304   2.867  17.292  0.4977 -0.2132 -0.0194
 4794SOL    HW126015   0.219   2.823  17.285  1.7609 -2.7421  0.7299
 4794SOL    HW226016   0.314   2.898  17.382 -0.2698  1.7606 -0.6047
 4795SOL     OW26017   4.300   1.701   9.852  0.0010  0.2142 -0.3384
 4795SOL    HW126018   4.354   1.699   9.773 -1.6482  1.9282 -1.5142
 4795SOL    HW226019   4.313   1.613   9.887 -0.3995  0.1746 -0.2808
 4796SOL     OW26020   4.495   1.353   7.103 -0.4113 -0.5006 -0.4519
 4796SOL    HW126021   4.413   1.332   7.057 -0.8697 -0.8426  0.5193
 4796SOL    HW226022   4.533   1.265   7.109 -0.1573 -0.3994 -0.5922
 4797SOL     OW26023   1.249   2.678   6.563 -0.0385 -0.0729  0.1004
 4797SOL    HW126024   1.243   2.739   6.636  1.7658  0.3946 -0.1442
 4797SOL    HW226025   1.174   2.620   6.577 -1.5259  1.8088 -0.0989
 4798SOL     OW26026   2.822   4.563   5.064  0.4132  0.1842 -0.5953
 4798SOL    HW126027   2.802   4.575   5.157  3.5438 -2.7606  0.5171
 4798SOL    HW226028   2.853   4.472   5.061 -1.1689 -0.4215  1.9632
 4799SOL     OW26029   3.447   1.327   9.496  0.0226 -0.1194  0.1502
 4799SOL    HW126030   3.361   1.297   9.526 -0.1352  0.4726  0.3005
 4799SOL    HW226031   3.502   1.289   9.564 -0.9743 -0.8345  0.5611
 4800SOL     OW26032   4.191   3.106  12.722 -0.4021 -0.5958  0.3826
 4800SOL    HW126033   4.180   3.046  12.796  0.1020 -1.9304 -0.6130
 4800SOL    HW226034   4.283   3.129  12.715 -0.2694 -1.5740 -1.0386
 4801SOL     OW26035   1.711   3.859  15.130 -0.3216 -0.5418  0.2266
 4801SOL    HW126036   1.798   3.899  15.130 -0.3592 -0.4447  1.9062
 4801SOL    HW226037   1.650   3.932  15.129  0.3703  0.0833  2.1246
 4802SOL     OW26038   3.354   3.019   4.193 -0.5749  0.0699 -0.4520
 4802SOL    HW126039   3.351   2.924   4.201 -0.4317  0.0849 -0.2342
 4802SOL    HW226040   3.439   3.029   4.235 -1.3340  1.9707  0.6535
 4803SOL     OW26041   4.356   2.255   2.521 -0.7451 -0.2411  0.1526
 4803SOL    HW126042   4.321   2.256   2.432  2.5596  1.7207 -1.1397
 4803SOL    HW226043   4.327   2.343   2.546  2.2571  1.7334 -3.2970
 4804SOL     OW26044   0.212   3.467   4.873 -0.0597  0.6641  0.6604
 4804SOL    HW126045   0.203   3.371   4.874  0.8758  0.5628 -1.2620
 4804SOL    HW226046   0.137   3.497   4.925 -0.1326 -0.2450  1.0847
 4805SOL     OW26047   2.659   3.131  11.779 -0.5527  0.2916  0.0254
 4805SOL    HW126048   2.719   3.099  11.846 -4.3026 -0.3983  3.0243
 4805SOL    HW226049   2.632   3.048  11.740  1.6582 -1.2530  1.7636
 4806SOL     OW26050   3.060   0.582   4.763  0.5264 -0.0491 -0.5984
 4806SOL    HW126051   3.146   0.621   4.778 -1.1026  3.4299 -0.3734
 4806SOL    HW226052   3.070   0.487   4.759  0.0302 -0.1731  1.1037
 4807SOL     OW26053   0.833   0.925  10.799 -0.0727  0.0264 -0.7669
 4807SOL    HW126054   0.925   0.945  10.783  0.4687 -1.8414  0.0568
 4807SOL    HW226055   0.851   0.848  10.853 -0.6636 -0.3698 -1.1226
 4808SOL     OW26056   3.848   4.428   8.779  0.4073  0.4988 -0.0888
 4808SOL    HW126057   3.872   4.345   8.821  1.2635  1.0250  0.4667
 4808SOL    HW226058   3.758   4.413   8.750  0.0882 -0.6807  1.5581
 4809SOL     OW26059   4.587   4.191  13.770  0.2348 -0.4698 -0.1251
 4809SOL    HW126060   4.592   4.269  13.715 -0.2068 -1.0163 -0.9398
 4809SOL    HW226061   4.503   4.203  13.813  0.0994 -2.1513  0.1014
 4810SOL     OW26062   0.547   1.645  16.129 -0.0709 -0.0358 -0.0231
 4810SOL    HW126063   0.612   1.711  16.106  2.3048 -3.2328 -2.5665
 4810SOL    HW226064   0.572   1.575  16.068 -0.9320  1.0932 -1.6872
 4811SOL     OW26065   1.877   0.913   5.472 -0.1010  0.3652  0.1833
 4811SOL    HW126066   1.944   0.981   5.466 -0.2740  0.4203 -1.0203
 4811SOL    HW226067   1.838   0.941   5.555  1.3283  1.5449  0.4563
 4812SOL     OW26068   0.089   3.177   2.709  0.3365  0.1997  0.5797
 4812SOL    HW126069   0.180   3.154   2.696  0.3970  0.8976 -0.2557
 4812SOL    HW226070   0.084   3.273   2.716 -3.5845  0.0054  0.3768
 4813SOL     OW26071   3.202   2.776  17.433 -0.4350 -0.1807 -0.0833
 4813SOL    HW126072   3.204   2.849  17.372  2.4102  1.2800  1.7378
 4813SOL    HW226073   3.182   2.826  17.513  0.3993  2.0666 -1.2915
 4814SOL     OW26074   1.288   4.214   4.882  0.4720 -0.5088  0.6352
 4814SOL    HW126075   1.202   4.237   4.848  1.0943  0.3921 -0.3134
 4814SOL    HW226076   1.331   4.297   4.864  0.6788 -0.8002 -0.2019
 4815SOL     OW26077   1.126   0.507   2.109 -0.2374  0.4152 -0.2716
 4815SOL    HW126078   1.158   0.515   2.199  0.4321  2.9926 -0.7347
 4815SOL    HW226079   1.142   0.417   2.082  1.3429  1.1536 -1.7211
 4816SOL     OW26080   0.025   2.322   3.126  0.8203  0.0704 -0.3550
 4816SOL    HW126081   4.715   2.257   3.069  0.0959  1.2192 -1.1297
 4816SOL    HW226082   0.010   2.279   3.210  0.1233 -1.4450 -1.2387
 4817SOL     OW26083   4.091   1.825  17.295 -0.0168 -0.0473  0.2426
 4817SOL    HW126084   4.004   1.819  17.333  0.2133 -2.1263  0.4178
 4817SOL    HW226085   4.146   1.785  17.363 -0.5715  1.8739  1.8173
 4818SOL     OW26086   2.344   3.996   0.156 -0.2066 -0.4137  0.0290
 4818SOL    HW126087   2.402   4.071   0.142 -0.4087 -0.5515 -1.5290
 4818SOL    HW226088   2.330   3.972   0.065 -0.0889  0.7460 -0.2875
 4819SOL     OW26089   3.578   3.057   9.035  0.3135 -0.1930  0.3578
 4819SOL    HW126090   3.567   3.004   9.114  0.7878 -0.6347  0.1206
 4819SOL    HW226091   3.562   3.006   8.956  1.0458 -1.2521  0.9016
 4820SOL     OW26092   1.202   2.266   6.421 -0.3690  0.6342  0.4891
 4820SOL    HW126093   1.250   2.265   6.503  1.2268  1.3488 -0.4336
 4820SOL    HW226094   1.122   2.215   6.431  0.8148 -1.5624 -1.2859
 4821SOL     OW26095   4.587   3.703   1.977  0.0892  0.7168 -0.2334
 4821SOL    HW126096   4.582   3.767   2.047  1.4096 -1.4984  1.8940
 4821SOL    HW226097   4.506   3.704   1.926 -0.0274  1.3020 -0.0251
 4822SOL     OW26098   2.282   4.648   2.520 -0.0060  0.9927 -0.3265
 4822SOL    HW126099   2.298   4.636   2.613  1.3174 -1.0273 -0.8164
 4822SOL    HW226100   2.212   4.583   2.515  0.0192  1.0911 -1.9892
 4823SOL     OW26101   0.511   2.258   1.136 -0.4159  0.7644 -0.5292
 4823SOL    HW126102   0.448   2.185   1.134  0.3206  0.0659  1.3430
 4823SOL    HW226103   0.449   2.327   1.159 -0.4512  0.8708 -0.9575
 4824SOL     OW26104   1.586   0.769   7.314 -0.4541 -0.1025  0.0749
 4824SOL    HW126105   1.585   0.673   7.314  1.3091 -0.1120  0.0124
 4824SOL    HW226106   1.578   0.774   7.409 -0.7513 -0.8830  0.0879
 4825SOL     OW26107   2.299   0.996   6.762  0.1883 -0.3288 -0.1243
 4825SOL    HW126108   2.270   1.087   6.775  0.3171 -0.3428  0.2476
 4825SOL    HW226109   2.219   0.945   6.774  0.4672 -0.6903  0.1675
 4826SOL     OW26110   2.815   1.613   2.819  0.0586 -0.0051  0.5917
 4826SOL    HW126111   2.865   1.532   2.806  0.5451 -0.0047  2.4260
 4826SOL    HW226112   2.892   1.669   2.832 -0.2641  0.2822  1.2616
 4827SOL     OW26113   1.520   3.723  14.261 -0.6438  0.0288 -0.2303
 4827SOL    HW126114   1.424   3.725  14.269 -0.6429 -1.0460 -0.0776
 4827SOL    HW226115   1.546   3.763  14.344 -0.2580  3.7097 -2.0784
 4828SOL     OW26116   1.621   4.323   4.735  0.7005  0.2318 -0.6653
 4828SOL    HW126117   1.698   4.381   4.736  1.0640 -0.2526 -0.1801
 4828SOL    HW226118   1.547   4.383   4.738  0.2536 -0.5259  2.7662
 4829SOL     OW26119   3.691   4.013   2.227  0.3138  0.1832  0.7510
 4829SOL    HW126120   3.658   4.090   2.182  2.0273  0.0468 -0.7157
 4829SOL    HW226121   3.785   4.027   2.236  0.2681  0.3577  0.9751
 4830SOL     OW26122   4.315   3.183   5.397 -0.5523  0.1341  0.2395
 4830SOL    HW126123   4.348   3.190   5.486  2.9315  0.4624 -1.0852
 4830SOL    HW226124   4.332   3.274   5.373 -0.4021 -0.1594 -0.7702
 4831SOL     OW26125   3.175   1.091   8.043 -0.5276 -0.4395  0.3057
 4831SOL    HW126126   3.130   1.125   7.966 -0.1640 -2.6384 -0.8740
 4831SOL    HW226127   3.266   1.122   8.038 -1.4427  2.3392  0.6514
 4832SOL     OW26128   0.266   2.648   2.484 -0.2519 -0.5986 -0.0430
 4832SOL    HW126129   0.208   2.602   2.422  0.3765 -3.2722  1.3441
 4832SOL    HW226130   0.326   2.699   2.430 -2.1171  0.1055 -1.4893
 4833SOL     OW26131   3.556   1.451  14.081 -0.4954  0.1852 -0.4466
 4833SOL    HW126132   3.502   1.379  14.115  0.6978 -0.4540  0.0864
 4833SOL    HW226133   3.527   1.460  13.991  1.3956 -0.8094 -1.1537
 4834SOL     OW26134   0.427   0.969  14.955  0.6699 -0.5859 -0.3315
 4834SOL    HW126135   0.420   0.987  14.861 -0.0810  1.0484  0.0451
 4834SOL    HW226136   0.494   0.901  14.965 -0.0027 -1.1415  0.3380
 4835SOL     OW26137   1.516   3.835  12.587 -0.2246  0.1400  0.0379
 4835SOL    HW126138   1.473   3.895  12.527  1.4018  1.0139 -0.2290
 4835SOL    HW226139   1.597   3.821  12.539  0.3304  0.3298  0.9117
 4836SOL     OW26140   0.173   1.831   9.466  0.5365 -1.0615  0.1798
 4836SOL    HW126141   0.187   1.737   9.479  0.4046 -1.1316 -0.1770
 4836SOL    HW226142   0.194   1.873   9.550  3.0728  1.3736 -1.6664
 4837SOL     OW26143   0.242   2.972  10.864 -0.2612  0.0630  0.2959
 4837SOL    HW126144   0.176   2.905  10.882 -0.5133  0.3335  0.3882
 4837SOL    HW226145   0.303   2.948  10.933  0.7501  0.1780 -0.5594
 4838SOL     OW26146   2.833   4.236   6.822  0.3204 -0.1846  0.0311
 4838SOL    HW126147   2.749   4.192   6.818  0.8369 -1.1653  0.0241
 4838SOL    HW226148   2.851   4.237   6.728  1.2055  1.6449  0.2232
 4839SOL     OW26149   4.725   1.150   3.420  0.1979 -0.2426  0.3564
 4839SOL    HW126150   0.087   1.135   3.403  0.3242  1.8664 -0.6678
 4839SOL    HW226151   4.707   1.239   3.392 -0.6380 -0.3950  0.3970
 4840SOL     OW26152   0.296   1.775  14.383 -0.4249  0.4074 -0.3613
 4840SOL    HW126153   0.335   1.747  14.466 -2.1123  0.4269  0.4559
 4840SOL    HW226154   0.237   1.700  14.379 -0.7507  0.7461 -1.8122
 4841SOL     OW26155   3.423   1.902   4.333 -0.0674  0.1079 -0.0955
 4841SOL    HW126156   3.435   1.828   4.273  1.6092  0.0708  0.2826
 4841SOL    HW226157   3.485   1.889   4.404  1.2239  2.9482 -0.7224
 4842SOL     OW26158   4.094   3.797  13.401  0.5711 -0.1545 -0.3206
 4842SOL    HW126159   4.095   3.827  13.310 -0.6593  0.6972 -0.0517
 4842SOL    HW226160   4.018   3.739  13.405  1.0358 -0.5489  2.8472
 4843SOL     OW26161   2.845   2.343  11.560 -0.1073 -0.4034 -0.5045
 4843SOL    HW126162   2.804   2.265  11.523 -1.5216 -0.9887  2.2256
 4843SOL    HW226163   2.793   2.416  11.525 -0.7015 -1.1094 -1.0942
 4844SOL     OW26164   1.674   2.777  13.093  0.4676 -0.2182 -0.7331
 4844SOL    HW126165   1.698   2.757  13.003  0.6036  0.2011 -0.7932
 4844SOL    HW226166   1.753   2.811  13.135 -1.2591 -0.0193  2.3332
 4845SOL     OW26167   4.521   1.221  12.444 -0.2737  0.0823 -0.2387
 4845SOL    HW126168   4.551   1.289  12.384  1.9282 -1.4317 -0.8583
 4845SOL    HW226169   4.562   1.150  12.394 -1.7773  0.6038 -2.2468
 4846SOL     OW26170   0.541   0.732   9.121  0.0266 -0.4475  0.2246
 4846SOL    HW126171   0.612   0.671   9.099  0.1834 -0.2908  0.2964
 4846SOL    HW226172   0.562   0.819   9.086  0.9720 -0.4625  0.7638
 4847SOL     OW26173   0.948   4.138   8.366 -0.6311 -0.0577  0.1985
 4847SOL    HW126174   0.857   4.110   8.378 -0.3286 -0.9615  0.3771
 4847SOL    HW226175   0.946   4.224   8.409 -1.7936 -0.3125  0.6509
 4848SOL     OW26176   0.473   3.149   0.489  0.3583  0.4215 -0.0824
 4848SOL    HW126177   0.506   3.234   0.516  1.0853  0.5915 -1.4986
 4848SOL    HW226178   0.546   3.087   0.478  1.1687  1.5841 -1.2286
 4849SOL     OW26179   2.012   2.336   3.124 -0.3421 -0.7091  0.4121
 4849SOL    HW126180   2.082   2.382   3.078  0.4163 -0.2068  2.0815
 4849SOL    HW226181   2.032   2.359   3.214  0.7058 -1.3105  0.3355
 4850SOL     OW26182   1.275   2.460   4.960  0.3852  0.2790  0.0707
 4850SOL    HW126183   1.240   2.549   4.959  0.6285  0.3752  0.0909
 4850SOL    HW226184   1.221   2.422   5.029  2.3454 -1.5608  0.6120
 4851SOL     OW26185   0.503   0.752   6.262  0.0541 -0.5372 -0.3641
 4851SOL    HW126186   0.598   0.742   6.271  0.1770 -0.0589 -1.1093
 4851SOL    HW226187   0.501   0.806   6.183 -0.5934  3.2390  2.1735
 4852SOL     OW26188   3.193   1.751   5.288  0.0163 -0.5972 -0.5764
 4852SOL    HW126189   3.154   1.664   5.297  1.8473 -1.3943 -0.2456
 4852SOL    HW226190   3.230   1.776   5.373 -0.1453  0.8179 -0.9184
 4853SOL     OW26191   2.126   1.976   0.882  0.1758  0.6736  0.5421
 4853SOL    HW126192   2.094   2.061   0.911  0.3879  0.3745  1.6319
 4853SOL    HW226193   2.078   1.956   0.802  0.6200 -1.8754  0.8939
 4854SOL     OW26194   0.073   3.721   5.453 -0.5742  0.5817 -0.0618
 4854SOL    HW126195   0.084   3.797   5.396 -0.5364 -0.9935 -2.1893
 4854SOL    HW226196   4.713   3.709   5.427 -0.3704 -0.8342 -0.1346
 4855SOL     OW26197   3.174   2.687   3.937 -0.2497 -0.4696  0.3465
 4855SOL    HW126198   3.128   2.714   3.858  1.3467  1.1838 -0.0356
 4855SOL    HW226199   3.139   2.600   3.953  2.6639 -1.7267 -0.0971
 4856SOL     OW26200   1.522   1.264   9.003 -0.6762  0.5747 -0.1527
 4856SOL    HW126201   1.572   1.231   8.929 -1.2431 -0.9386  0.1466
 4856SOL    HW226202   1.443   1.211   8.994 -0.4430  0.4900 -1.6778
 4857SOL     OW26203   0.724   2.685  10.986 -0.4389  0.5053 -0.3866
 4857SOL    HW126204   0.789   2.699  10.917 -1.2115  2.1449 -0.7535
 4857SOL    HW226205   0.724   2.770  11.031  0.8991 -0.5219  1.5900
 4858SOL     OW26206   0.765   0.864   9.938  0.1501  0.2787  0.1244
 4858SOL    HW126207   0.793   0.836   9.851  1.8670 -0.6403  0.9702
 4858SOL    HW226208   0.802   0.953   9.946 -1.1513  0.7322  1.0661
 4859SOL     OW26209   2.926   3.033   4.555  0.5330 -0.1313  0.6047
 4859SOL    HW126210   3.003   3.002   4.510  0.2765 -1.8618  1.3594
 4859SOL    HW226211   2.888   2.952   4.589 -2.7441  1.5738  1.0472
 4860SOL     OW26212   0.230   4.196   8.320 -0.4553 -0.2827  0.3976
 4860SOL    HW126213   0.194   4.279   8.352 -3.5296 -2.1869  1.8146
 4860SOL    HW226214   0.244   4.207   8.226 -0.8255  0.5114  0.4376
 4861SOL     OW26215   1.820   0.912  14.012 -0.2811  0.0678 -0.3793
 4861SOL    HW126216   1.773   0.868  14.082  1.1738 -0.6099  0.1772
 4861SOL    HW226217   1.857   0.840  13.961  1.0532 -0.2938  1.1145
 4862SOL     OW26218   3.790   2.310   7.899  0.2831 -0.7161  0.0822
 4862SOL    HW126219   3.864   2.371   7.893  0.2321 -0.8145 -1.6874
 4862SOL    HW226220   3.769   2.312   7.992  1.5496  0.2560  0.3566
 4863SOL     OW26221   2.133   2.645   4.301  0.4366  0.0229  0.1526
 4863SOL    HW126222   2.195   2.708   4.336  0.2870 -0.4025  1.1977
 4863SOL    HW226223   2.123   2.675   4.211 -1.7284 -1.0598  0.0171
 4864SOL     OW26224   3.137   4.625   2.642  0.3918 -0.5643  0.1731
 4864SOL    HW126225   3.095   4.597   2.561 -0.5999 -0.6008  0.7029
 4864SOL    HW226226   3.228   4.630   2.612 -0.3510  0.7262 -1.8144
 4865SOL     OW26227   0.634   3.887   1.810 -0.0896 -0.2125 -0.2011
 4865SOL    HW126228   0.641   3.803   1.856  1.6265  0.7786  1.3535
 4865SOL    HW226229   0.576   3.938   1.866 -1.0620 -0.4495 -1.0002
 4866SOL     OW26230   2.421   2.831   8.147 -0.9747 -0.6436  0.2898
 4866SOL    HW126231   2.336   2.840   8.104 -0.8390 -1.1105 -0.0702
 4866SOL    HW226232   2.477   2.820   8.070 -0.8332  2.6970 -0.0741
 4867SOL     OW26233   3.612   2.671  15.628  0.1704  0.7116  0.0744
 4867SOL    HW126234   3.633   2.662  15.721 -0.6460  1.4832  0.3379
 4867SOL    HW226235   3.543   2.606  15.619  0.1513  0.4740  1.9091
 4868SOL     OW26236   1.715   3.488   5.016 -0.0359  0.3119  0.3703
 4868SOL    HW126237   1.756   3.442   4.944 -1.2803  1.2097 -0.9143
 4868SOL    HW226238   1.626   3.453   5.027 -0.6955  1.9510  0.2921
 4869SOL     OW26239   2.992   3.450   7.810  0.0137  0.2813 -0.0730
 4869SOL    HW126240   3.046   3.391   7.758 -0.4286  1.4581 -1.8446
 4869SOL    HW226241   3.015   3.417   7.897  0.3207  0.8626  0.0656
 4870SOL     OW26242   4.291   2.047   5.657  0.4300  0.4781 -0.0113
 4870SOL    HW126243   4.275   2.050   5.563 -0.9450 -1.7110  0.1523
 4870SOL    HW226244   4.385   2.029   5.650 -0.0463 -1.9619 -0.3227
 4871SOL     OW26245   2.925   1.802   6.068  0.7548 -0.2720 -0.6376
 4871SOL    HW126246   2.919   1.878   6.126  1.5323 -0.2053 -0.6408
 4871SOL    HW226247   2.927   1.846   5.983  0.7659  1.8451  0.4455
 4872SOL     OW26248   2.031   3.618   0.362  0.1744 -0.0433 -0.4292
 4872SOL    HW126249   2.058   3.530   0.386  1.3432 -0.0071 -1.6193
 4872SOL    HW226250   2.052   3.618   0.269  0.5389  0.9198 -0.3512
 4873SOL     OW26251   3.967   1.365  10.251  0.0667 -0.4395 -0.3191
 4873SOL    HW126252   3.946   1.271  10.258  0.1568 -0.5233 -1.2180
 4873SOL    HW226253   3.895   1.408  10.296 -0.3987 -1.6444  0.1126
 4874SOL     OW26254   2.457   2.518   3.289 -0.2523  0.7325  0.1227
 4874SOL    HW126255   2.538   2.475   3.261 -1.3798 -0.7839 -0.7696
 4874SOL    HW226256   2.487   2.546   3.376  1.4096  1.6426 -0.7494
 4875SOL     OW26257   1.043   1.897   4.594  0.4694 -0.5142  0.2007
 4875SOL    HW126258   1.005   1.892   4.681 -1.6395  2.7847 -0.5027
 4875SOL    HW226259   0.979   1.952   4.548  1.8318  0.6793 -0.2694
 4876SOL     OW26260   4.252   1.892   6.041 -0.2350 -0.3895  0.5091
 4876SOL    HW126261   4.313   1.860   5.974  0.5655  0.2623  0.9153
 4876SOL    HW226262   4.197   1.816   6.058  0.1456 -0.8042 -0.1306
 4877SOL     OW26263   1.059   4.304   7.363 -0.4356 -0.1206  0.0851
 4877SOL    HW126264   1.066   4.385   7.415  0.3139 -0.1832  0.0721
 4877SOL    HW226265   1.143   4.304   7.319 -0.8317  1.5601 -0.6823
 4878SOL     OW26266   3.399   1.754  12.388  0.0377  0.0811  0.6852
 4878SOL    HW126267   3.468   1.783  12.447  0.2828  1.5615 -0.3141
 4878SOL    HW226268   3.451   1.721  12.315 -1.4885 -2.0995  0.5735
 4879SOL     OW26269   2.846   3.210   3.137 -0.1539  0.3097  0.8444
 4879SOL    HW126270   2.785   3.173   3.074  0.0761  1.6429 -0.1596
 4879SOL    HW226271   2.916   3.146   3.123 -0.2814  0.9838 -2.8979
 4880SOL     OW26272   0.891   1.380   6.420  0.0592  0.3131 -0.6685
 4880SOL    HW126273   0.987   1.385   6.412  0.1051 -0.8995 -0.8810
 4880SOL    HW226274   0.873   1.338   6.504 -0.0805  2.3918  0.3382
 4881SOL     OW26275   3.935   2.933   3.927  0.4769  0.2667  0.1626
 4881SOL    HW126276   3.943   2.962   3.836  1.7120  1.0429  0.5226
 4881SOL    HW226277   3.855   2.881   3.919  0.8094  0.2620 -2.9258
 4882SOL     OW26278   0.090   1.075   9.737 -0.1748 -0.6575 -0.1080
 4882SOL    HW126279   0.094   1.101   9.829 -0.0154  1.3642 -0.6872
 4882SOL    HW226280   4.726   1.063   9.732 -0.0588 -1.0557 -1.3988
 4883SOL     OW26281   1.540   3.434   3.233 -0.2701 -0.4369 -0.2665
 4883SOL    HW126282   1.523   3.357   3.178  0.0264  0.8015 -2.0782
 4883SOL    HW226283   1.482   3.493   3.185 -1.3146 -1.3798 -0.1625
 4884SOL     OW26284   2.681   3.712   7.080 -0.1575 -0.0872  0.1934
 4884SOL    HW126285   2.638   3.768   7.016  2.4785  0.8255 -0.7643
 4884SOL    HW226286   2.743   3.664   7.025 -0.7301  0.9954 -1.4045
 4885SOL     OW26287   3.783   0.009   4.040  0.1832  0.2659  0.1149
 4885SOL    HW126288   3.877   0.016   4.023 -0.1584 -0.6288 -2.0722
 4885SOL    HW226289   3.765   4.646   4.044 -1.8965  0.6952  0.7002
 4886SOL     OW26290   1.508   0.175   2.114  0.5024  0.4091 -0.4656
 4886SOL    HW126291   1.439   0.112   2.134  0.2963  0.8942  0.3455
 4886SOL    HW226292   1.519   0.235   2.187 -0.7145  1.1395 -0.8767
 4887SOL     OW26293   0.083   1.313   4.058 -0.0715 -0.6929 -0.0237
 4887SOL    HW126294   0.099   1.218   4.056  0.3983 -0.6003 -1.3642
 4887SOL    HW226295   0.121   1.337   3.973  0.5544 -0.1765  0.4068
 4888SOL     OW26296   2.931   3.454   8.392  0.0400  0.8525 -0.4172
 4888SOL    HW126297   2.899   3.466   8.481  0.0302  1.7751 -0.5394
 4888SOL    HW226298   3.023   3.432   8.409 -0.3973 -0.3637  0.4068
 4889SOL     OW26299   0.382   3.079   3.834 -0.0198 -0.0766  0.1331
 4889SOL    HW126300   0.455   3.123   3.877 -0.6538  2.7915 -1.6920
 4889SOL    HW226301   0.431   3.020   3.777  1.5151  0.4856  0.8683
 4890SOL     OW26302   1.393   0.409  14.566 -0.0509 -0.5372  0.3337
 4890SOL    HW126303   1.423   0.461  14.492 -3.1013 -0.6439 -0.9922
 4890SOL    HW226304   1.453   0.443  14.632  0.4996  3.0149 -2.0180
 4891SOL     OW26305   0.920   3.781  12.359  0.1443  0.2826  0.1697
 4891SOL    HW126306   0.915   3.793  12.264  0.9549 -0.0188  0.0871
 4891SOL    HW226307   0.876   3.863  12.382 -1.3112 -0.4280 -0.1393
 4892SOL     OW26308   1.913   3.528   2.581 -0.1559 -0.4773 -0.3457
 4892SOL    HW126309   1.871   3.542   2.496  0.1538  2.1886 -0.0289
 4892SOL    HW226310   1.994   3.482   2.558  1.1139  0.9609  1.3431
 4893SOL     OW26311   0.107   3.409   9.166 -0.3963  0.5913  0.4159
 4893SOL    HW126312   0.134   3.495   9.198 -0.8464  1.2470 -0.9431
 4893SOL    HW226313   0.159   3.397   9.086 -1.2508 -0.8539  0.0648
 4894SOL     OW26314   3.553   1.655   5.076  0.7368  0.1120 -0.5443
 4894SOL    HW126315   3.534   1.745   5.051  0.3796  1.0325  2.9940
 4894SOL    HW226316   3.481   1.606   5.035  1.1422  0.6987 -1.9324
 4895SOL     OW26317   1.662   0.764  12.257  0.0093 -0.2597 -0.2743
 4895SOL    HW126318   1.600   0.769  12.330 -1.3993  0.6199 -1.5546
 4895SOL    HW226319   1.749   0.778  12.295  0.0155  0.6311 -0.6027
 4896SOL     OW26320   2.887   4.694   5.798  0.4456  0.1184 -0.0296
 4896SOL    HW126321   2.906   4.671   5.707  2.4773 -1.7296  0.8649
 4896SOL    HW226322   2.806   0.014   5.796  1.6721  2.0895  0.9844
 4897SOL     OW26323   2.579   4.007   1.186  0.5551 -0.0265  0.3632
 4897SOL    HW126324   2.489   3.979   1.201  0.6429 -0.4720  0.0524
 4897SOL    HW226325   2.591   3.977   1.096 -1.2659 -0.2517  0.1904
 4898SOL     OW26326   4.536   2.462   3.651 -0.4952 -0.1136  0.1753
 4898SOL    HW126327   4.493   2.420   3.576 -0.1137 -1.9193  0.9710
 4898SOL    HW226328   4.562   2.549   3.622  1.4152 -0.3800  1.1179
 4899SOL     OW26329   0.315   0.728   7.974 -0.3476  0.4061  0.6791
 4899SOL    HW126330   0.409   0.743   7.966 -0.3117 -0.0084  0.3260
 4899SOL    HW226331   0.301   0.657   8.036 -0.6783 -0.7504 -0.7104
 4900SOL     OW26332   0.853   1.265   8.008  0.2469 -0.3401  0.0596
 4900SOL    HW126333   0.797   1.301   8.077  2.1522 -0.4751  1.6836
 4900SOL    HW226334   0.824   1.317   7.932 -1.1685  0.0582  0.8698
 4901SOL     OW26335   4.297   2.194   1.244  0.0542  0.2410 -0.5174
 4901SOL    HW126336   4.338   2.269   1.202  1.8341 -0.1266  0.5916
 4901SOL    HW226337   4.329   2.118   1.196  2.6276 -0.4196  2.2212
 4902SOL     OW26338   1.411   1.489   4.472 -0.2583  0.5515  0.0788
 4902SOL    HW126339   1.397   1.486   4.567  0.6074  3.3999  0.2921
 4902SOL    HW226340   1.333   1.539   4.449 -1.5053 -0.9270  1.0547
 4903SOL     OW26341   1.962   3.087   5.073 -0.0893  0.2836 -0.4310
 4903SOL    HW126342   1.932   2.997   5.072 -0.6697  0.4566  2.6033
 4903SOL    HW226343   1.888   3.117   5.126 -1.2274 -0.0021 -1.8521
 4904SOL     OW26344   3.880   0.405   7.043 -0.4453  0.0310  0.2465
 4904SOL    HW126345   3.838   0.403   7.129  2.1602 -0.2544  1.5142
 4904SOL    HW226346   3.944   0.335   7.055  0.3954  0.4995 -1.4446
 4905SOL     OW26347   1.950   2.326  14.071  0.1079  0.1229  0.6697
 4905SOL    HW126348   2.043   2.337  14.086 -0.0312  0.7330  1.0988
 4905SOL    HW226349   1.948   2.356  13.980  2.0207 -1.0268  0.2608
 4906SOL     OW26350   3.607   3.900   3.971 -0.8203 -0.7864  0.0917
 4906SOL    HW126351   3.631   3.877   4.061  0.8140  0.1704 -0.0942
 4906SOL    HW226352   3.580   3.812   3.946  1.2438 -0.7760 -2.1323
 4907SOL     OW26353   3.603   2.770  12.577  0.2149  0.1993  0.1446
 4907SOL    HW126354   3.655   2.696  12.546  1.2620  0.1940  1.9340
 4907SOL    HW226355   3.568   2.733  12.658  0.2403  2.0196  1.0068
 4908SOL     OW26356   4.633   2.769   9.118 -0.3224  0.6589  0.5019
 4908SOL    HW126357   4.596   2.691   9.160  1.4497 -0.6145 -0.3309
 4908SOL    HW226358   4.590   2.843   9.161  2.1707  1.8706  0.8788
 4909SOL     OW26359   4.116   0.785   2.665 -0.1014 -0.2212  0.3203
 4909SOL    HW126360   4.025   0.786   2.695 -0.0352 -0.5668  0.5329
 4909SOL    HW226361   4.102   0.705   2.615 -0.8087 -0.4964  0.9634
 4910SOL     OW26362   3.266   0.923   2.564  0.5034 -1.2628 -0.5044
 4910SOL    HW126363   3.301   0.859   2.625  2.6470  0.7840  0.3915
 4910SOL    HW226364   3.204   0.869   2.514 -1.3718  0.6538 -0.2755
 4911SOL     OW26365   1.075   4.075  12.958  0.1739  0.2902  0.5233
 4911SOL    HW126366   0.988   4.035  12.962  0.8020 -0.9968  1.3089
 4911SOL    HW226367   1.122   3.994  12.978  0.2838  0.1692 -0.2148
 4912SOL     OW26368   1.797   0.565   8.896  0.4506 -0.7693 -0.0621
 4912SOL    HW126369   1.704   0.546   8.900  0.6122 -1.4886  0.2981
 4912SOL    HW226370   1.818   0.600   8.983 -0.5304 -0.1927 -0.0574
 4913SOL     OW26371   1.665   1.939   2.688  0.8103  0.0683  0.2904
 4913SOL    HW126372   1.606   1.964   2.616  0.4034 -0.3460  0.4825
 4913SOL    HW226373   1.650   1.846   2.702  0.3937  0.3496  1.6808
 4914SOL     OW26374   2.180   2.377   4.261  0.2422 -0.5750 -0.6442
 4914SOL    HW126375   2.154   2.462   4.298  1.0361 -1.1932  1.2976
 4914SOL    HW226376   2.212   2.407   4.176  1.6221 -2.6284 -0.8325
 4915SOL     OW26377   2.821   0.233   3.707 -0.2072  0.1207 -0.2679
 4915SOL    HW126378   2.904   0.236   3.755 -1.2501  1.8760  1.3909
 4915SOL    HW226379   2.757   0.284   3.756  0.2065  1.5939 -1.2439
 4916SOL     OW26380   3.264   2.536   6.208 -0.6182 -0.2529 -0.6080
 4916SOL    HW126381   3.303   2.538   6.120  0.8393  2.1047  0.1012
 4916SOL    HW226382   3.331   2.488   6.257 -0.3225 -1.1846 -1.8878
 4917SOL     OW26383   1.417   3.225   4.111 -0.3714 -0.6149  0.5402
 4917SOL    HW126384   1.482   3.293   4.092  0.8519 -2.5121 -2.0736
 4917SOL    HW226385   1.351   3.254   4.048 -1.9993 -0.4673  2.3355
 4918SOL     OW26386   2.901   1.262   7.208 -0.8197 -0.1027  0.4949
 4918SOL    HW126387   2.911   1.230   7.298  1.0716  3.3076  1.4820
 4918SOL    HW226388   2.806   1.255   7.197 -0.9545 -0.6533  1.8836
 4919SOL     OW26389   2.882   3.446   5.323  0.1117 -0.1683 -0.0314
 4919SOL    HW126390   2.838   3.386   5.384  0.2220 -1.2204 -0.9812
 4919SOL    HW226391   2.813   3.512   5.312  0.6034  0.1906 -0.9457
 4920SOL     OW26392   1.478   2.702   6.406 -0.8515  0.0163  0.3861
 4920SOL    HW126393   1.501   2.771   6.469 -2.8380 -0.3865  1.5786
 4920SOL    HW226394   1.394   2.665   6.434  0.1816 -2.1161  0.6667
 4921SOL     OW26395   2.797   2.656   7.797  0.2225  0.1942  0.4336
 4921SOL    HW126396   2.784   2.700   7.713 -0.6110  0.9228  0.9467
 4921SOL    HW226397   2.880   2.688   7.831  0.8149 -0.5703 -0.3016
 4922SOL     OW26398   3.133   0.841   3.032  0.1888 -0.3895 -0.3543
 4922SOL    HW126399   3.160   0.932   3.022  2.0084 -0.8313  0.6115
 4922SOL    HW226400   3.218   0.800   3.049 -0.3818 -2.6863 -3.0584
 4923SOL     OW26401   1.100   0.104   3.012  0.2130  0.0098  0.1722
 4923SOL    HW126402   1.093   0.079   2.920  1.2272  2.2289 -0.5212
 4923SOL    HW226403   1.184   0.066   3.037  0.0799 -0.6453 -0.3923
 4924SOL     OW26404   2.047   3.671   3.161 -0.4855 -0.4341 -0.7841
 4924SOL    HW126405   1.952   3.663   3.170 -0.5570  0.1831 -0.9781
 4924SOL    HW226406   2.076   3.604   3.223  3.7749  0.9687 -1.1986
 4925SOL     OW26407   4.133   1.214  11.882 -0.4775 -0.5373  0.4663
 4925SOL    HW126408   4.179   1.261  11.952  0.2204  0.2215 -0.4974
 4925SOL    HW226409   4.057   1.271  11.870 -2.2392 -2.7521  1.2130
 4926SOL     OW26410   2.006   4.035   0.387  0.1774 -0.5411  0.3298
 4926SOL    HW126411   1.999   3.993   0.473  1.0018 -2.1136 -0.3813
 4926SOL    HW226412   2.031   4.125   0.407 -1.3358 -0.0870  0.2202
 4927SOL     OW26413   3.265   3.219   7.345 -0.2269 -0.9942  0.5288
 4927SOL    HW126414   3.182   3.249   7.383 -0.3091  0.2289 -0.5854
 4927SOL    HW226415   3.325   3.278   7.391  0.4411 -0.5229 -0.9746
 4928SOL     OW26416   1.951   3.103  12.580 -0.0353 -0.6084  0.1550
 4928SOL    HW126417   1.927   3.193  12.604  1.2345  0.1532 -1.4151
 4928SOL    HW226418   1.930   3.059  12.662 -1.2353 -0.6928 -0.1921
 4929SOL     OW26419   4.505   1.462   8.124  0.8915  0.5999 -0.3393
 4929SOL    HW126420   4.535   1.394   8.064 -2.1151 -0.8942 -0.1539
 4929SOL    HW226421   4.445   1.420   8.185  0.0888 -1.2589 -2.4171
 4930SOL     OW26422   3.502   0.952   9.427 -0.0976 -0.0240 -0.2378
 4930SOL    HW126423   3.579   0.943   9.371 -1.8307 -0.4747 -2.5528
 4930SOL    HW226424   3.538   0.998   9.503 -1.4055 -0.7903  0.8368
 4931SOL     OW26425   1.189   1.564   8.218  0.7852 -0.0759 -0.0394
 4931SOL    HW126426   1.240   1.595   8.143  0.0685  0.4294 -0.3237
 4931SOL    HW226427   1.246   1.490   8.237  1.3002  0.5696  0.9470
 4932SOL     OW26428   4.068   1.141   9.617  0.0712 -0.1996 -0.0423
 4932SOL    HW126429   4.068   1.046   9.624 -1.9177 -0.3132 -1.7191
 4932SOL    HW226430   4.002   1.156   9.685 -0.5518  0.2961 -0.7536
 4933SOL     OW26431   1.926   3.864   4.738 -0.7388  0.0087 -0.2898
 4933SOL    HW126432   1.830   3.860   4.743 -0.4782 -1.1753  3.2614
 4933SOL    HW226433   1.948   3.869   4.831 -1.0603 -1.3739 -0.1373
 4934SOL     OW26434   2.405   3.875   7.523  0.1623 -0.0270  0.0875
 4934SOL    HW126435   2.329   3.826   7.491  0.2747  1.0886 -1.8879
 4934SOL    HW226436   2.460   3.801   7.553 -0.4473  0.7129  3.0362
 4935SOL     OW26437   2.957   3.892   7.153  0.1708 -0.9323 -0.1066
 4935SOL    HW126438   2.893   3.945   7.106 -1.2990 -1.2050  1.5882
 4935SOL    HW226439   2.912   3.860   7.231 -2.5138  2.5027 -0.2869
 4936SOL     OW26440   1.562   4.148  10.101  0.0666 -0.5137  0.0001
 4936SOL    HW126441   1.499   4.147  10.173  2.8704 -1.1483  2.4520
 4936SOL    HW226442   1.594   4.236  10.118  0.0247 -0.6109  0.5824
 4937SOL     OW26443   1.557   4.386   5.540  0.3080 -0.4923 -0.1007
 4937SOL    HW126444   1.487   4.348   5.593  0.7030  1.6393  1.9164
 4937SOL    HW226445   1.629   4.373   5.602  2.4362  1.4125 -2.2076
 4938SOL     OW26446   1.771   3.785   3.962  0.4320 -0.7544  0.3108
 4938SOL    HW126447   1.760   3.815   4.052  0.5846  2.6679 -0.8166
 4938SOL    HW226448   1.812   3.865   3.929 -4.6426  0.4691 -2.9326
 4939SOL     OW26449   3.005   1.710  14.045  0.2581 -0.2312 -0.0720
 4939SOL    HW126450   3.042   1.744  14.126 -2.2616  2.0498  0.1432
 4939SOL    HW226451   2.969   1.790  14.006 -0.8658  0.7372  2.9517
 4940SOL     OW26452   1.125   2.092  16.540  1.2498 -0.0737 -0.1349
 4940SOL    HW126453   1.207   2.057  16.574  1.0114  0.5083  1.0529
 4940SOL    HW226454   1.168   2.167  16.500  1.2020 -0.1384 -0.3063
 4941SOL     OW26455   2.860   3.987   5.651  0.0650  0.3053  0.2939
 4941SOL    HW126456   2.847   3.942   5.735 -2.3584  0.2108 -0.1362
 4941SOL    HW226457   2.782   4.042   5.650 -0.3539 -0.2532  2.4323
 4942SOL     OW26458   1.501   0.561   6.614 -0.0858 -0.6351  0.2517
 4942SOL    HW126459   1.522   0.616   6.538  0.1439  0.0681  0.8264
 4942SOL    HW226460   1.518   0.478   6.570  0.3589 -0.2088 -0.3750
 4943SOL     OW26461   1.136   4.409   0.990  0.3079 -0.0560 -0.4430
 4943SOL    HW126462   1.084   4.445   1.061 -0.7205 -1.2387 -0.6025
 4943SOL    HW226463   1.067   4.365   0.939 -0.4489  0.9353 -0.2663
 4944SOL     OW26464   1.690   2.760  14.864 -0.3305  0.0325  0.0218
 4944SOL    HW126465   1.602   2.792  14.844  0.6287  1.8776 -1.2885
 4944SOL    HW226466   1.676   2.721  14.951 -2.3526 -0.3466 -0.4716
 4945SOL     OW26467   0.693   1.157   4.117 -0.3993 -0.0025  0.8549
 4945SOL    HW126468   0.733   1.239   4.147 -2.0282  0.8844  0.6366
 4945SOL    HW226469   0.621   1.191   4.064  1.4221 -0.5936 -1.9576
 4946SOL     OW26470   0.196   3.632   1.218 -0.2965 -0.0743 -0.0161
 4946SOL    HW126471   0.197   3.543   1.181  2.5024  0.9605 -2.4446
 4946SOL    HW226472   0.171   3.607   1.306 -1.4782  0.2218 -0.2693
 4947SOL     OW26473   0.141   3.283   5.261 -0.0764 -0.1641 -0.2664
 4947SOL    HW126474   0.067   3.330   5.300  0.9106  2.3356 -1.4259
 4947SOL    HW226475   0.102   3.234   5.189 -1.2513  0.7520 -0.2580
 4948SOL     OW26476   2.992   0.444   9.765  0.2435 -0.2727 -0.4367
 4948SOL    HW126477   3.084   0.468   9.780  0.3777 -0.6169 -0.7257
 4948SOL    HW226478   2.957   0.518   9.715 -0.0062  1.0220  1.6475
 4949SOL     OW26479   0.528   3.964   9.932 -0.6678 -0.2129 -0.2130
 4949SOL    HW126480   0.435   3.979   9.945 -0.4771 -0.4798  1.4648
 4949SOL    HW226481   0.544   3.920  10.015 -1.5564 -1.0184 -0.4736
 4950SOL     OW26482   3.818   2.886   0.100 -0.2599  0.5835  0.0193
 4950SOL    HW126483   3.794   2.942   0.026 -1.2187  0.2885  0.1077
 4950SOL    HW226484   3.794   2.800   0.066  1.4572  0.4929 -0.9929
 4951SOL     OW26485   2.592   2.628  12.852  0.5966 -0.0758  0.3094
 4951SOL    HW126486   2.644   2.560  12.895  1.1583  0.7559  0.9314
 4951SOL    HW226487   2.646   2.706  12.864  0.2846 -0.3532  3.5962
 4952SOL     OW26488   1.715   4.700   7.092 -0.1841  0.3011  0.0406
 4952SOL    HW126489   1.795   4.659   7.059  0.1160  0.9790 -0.0574
 4952SOL    HW226490   1.646   4.633   7.095  0.4486 -0.3798 -0.5698
 4953SOL     OW26491   3.648   0.039   5.056  0.1771 -0.3590 -0.5641
 4953SOL    HW126492   3.576   0.025   4.995 -0.5837 -2.3271  0.7751
 4953SOL    HW226493   3.718   0.044   4.991 -0.4334  2.6252 -1.0337
 4954SOL     OW26494   1.105   2.814   8.405  0.2138 -0.1770  0.3597
 4954SOL    HW126495   1.022   2.809   8.453  0.1190  0.4177  0.2521
 4954SOL    HW226496   1.086   2.868   8.328  1.9156  0.3306  0.3038
 4955SOL     OW26497   0.435   2.814  15.507  0.0012 -0.1461 -0.6517
 4955SOL    HW126498   0.353   2.813  15.558  1.7579  0.4297  2.2101
 4955SOL    HW226499   0.477   2.742  15.554 -0.6510  0.6852  1.2216
 4956SOL     OW26500   0.604   0.871   1.279 -0.1826  0.1253 -0.0248
 4956SOL    HW126501   0.670   0.934   1.306 -0.6575 -0.2742  2.1111
 4956SOL    HW226502   0.633   0.794   1.327  0.9556  0.5334 -0.0712
 4957SOL     OW26503   3.426   2.771   3.850  0.0346 -0.4433 -0.2415
 4957SOL    HW126504   3.431   2.867   3.849  0.4466 -0.4357  1.8167
 4957SOL    HW226505   3.344   2.756   3.897  0.7563  1.2694  1.5870
 4958SOL     OW26506   0.100   2.504   0.573  0.1812 -0.2842  0.2079
 4958SOL    HW126507   0.167   2.523   0.508  1.5849  0.2817  1.8129
 4958SOL    HW226508   0.027   2.552   0.535 -0.6073 -0.3023  1.6758
 4959SOL     OW26509   2.615   2.765   9.132 -0.6548  0.3048 -0.3229
 4959SOL    HW126510   2.533   2.779   9.085  0.2712 -0.7289 -2.2452
 4959SOL    HW226511   2.635   2.677   9.100 -1.6714 -0.5034  1.3038
 4960SOL     OW26512   0.810   1.257   8.621 -0.5489 -0.3634  0.6506
 4960SOL    HW126513   0.839   1.260   8.712 -0.5493 -1.0008  0.6732
 4960SOL    HW226514   0.867   1.320   8.576 -1.2289 -0.2050  0.0098
 4961SOL     OW26515   4.230   1.935   9.702  0.5426  0.5286  0.6521
 4961SOL    HW126516   4.286   2.012   9.714  2.1706 -0.6946  0.7691
 4961SOL    HW226517   4.263   1.865   9.758  2.2934  0.5126 -0.4087
 4962SOL     OW26518   1.688   3.396   7.422  0.0948 -0.3419 -0.4453
 4962SOL    HW126519   1.692   3.418   7.328  0.6097  0.7630 -0.1703
 4962SOL    HW226520   1.597   3.368   7.431 -0.0126 -0.5061 -1.9981
 4963SOL     OW26521   0.065   1.790   4.510  0.4912 -0.4072 -0.2081
 4963SOL    HW126522   0.108   1.842   4.442  0.1655 -0.5397 -0.5162
 4963SOL    HW226523   0.060   1.865   4.568  1.2604 -0.3087 -0.2674
 4964SOL     OW26524   0.048   4.391   8.120 -0.1501  0.1447 -0.3096
 4964SOL    HW126525   0.127   4.432   8.153 -1.6613  2.6277  0.2135
 4964SOL    HW226526   4.719   4.465   8.117  0.1591  0.4062  0.0080
 4965SOL     OW26527   2.968   1.241   7.537 -0.1069  0.6362 -0.0026
 4965SOL    HW126528   2.878   1.264   7.515  0.2497  0.8846 -1.1904
 4965SOL    HW226529   3.012   1.326   7.541  2.1610 -0.5677  0.4975
 4966SOL     OW26530   2.693   3.841   3.685  0.4864  0.1634  0.2529
 4966SOL    HW126531   2.643   3.788   3.624  0.0748  0.8293  0.0215
 4966SOL    HW226532   2.741   3.891   3.619  1.0706  0.6792  1.0634
 4967SOL     OW26533   0.750   3.477  14.403 -0.5170 -0.3086  0.0548
 4967SOL    HW126534   0.707   3.462  14.486 -2.7281 -3.2937 -1.6500
 4967SOL    HW226535   0.796   3.558  14.425 -0.7564 -0.7222  2.0536
 4968SOL     OW26536   1.056   1.595  10.434 -0.7047  0.2124  0.0313
 4968SOL    HW126537   1.119   1.626  10.499  1.0722  0.6239 -1.9008
 4968SOL    HW226538   0.993   1.562  10.498 -3.3910  0.3629 -2.5404
 4969SOL     OW26539   2.774   4.273  11.535  0.2868  0.2414  0.3047
 4969SOL    HW126540   2.832   4.276  11.611 -2.8922  2.8058  2.6511
 4969SOL    HW226541   2.689   4.272  11.579  0.1757  1.5658  0.1165
 4970SOL     OW26542   2.499   0.073  15.462  0.2436 -0.5195 -0.0777
 4970SOL    HW126543   2.500   0.148  15.522  1.0611  0.7875 -1.6993
 4970SOL    HW226544   2.498   0.115  15.376 -2.7845  0.6515  0.5450
 4971SOL     OW26545   1.136   2.771   1.649 -0.0920  0.2708 -0.1784
 4971SOL    HW126546   1.111   2.729   1.731  0.8216 -0.9761 -0.5307
 4971SOL    HW226547   1.202   2.707   1.621  0.1846  0.5666 -0.1976
 4972SOL     OW26548   3.338   2.792   2.792 -0.3785  0.2085  0.5486
 4972SOL    HW126549   3.280   2.785   2.716 -1.2396 -1.0226  1.3259
 4972SOL    HW226550   3.312   2.876   2.831 -0.4191  0.4134  0.0862
 4973SOL     OW26551   0.700   0.784   7.297 -0.2897  0.0337 -0.2764
 4973SOL    HW126552   0.692   0.868   7.343  0.2643 -0.3374  0.4820
 4973SOL    HW226553   0.737   0.811   7.213 -0.4850 -0.9102 -0.6579
 4974SOL     OW26554   2.134   0.361   8.341 -0.2408  0.2501 -0.0475
 4974SOL    HW126555   2.138   0.450   8.375 -0.6050  0.1318  0.3090
 4974SOL    HW226556   2.039   0.358   8.338 -0.2274 -0.3109  0.0178
 4975SOL     OW26557   0.797   0.243  12.633  0.4445  0.1562  0.6251
 4975SOL    HW126558   0.867   0.279  12.688  0.0338  1.7574  0.1179
 4975SOL    HW226559   0.821   0.151  12.631 -1.3128 -0.3879  3.8016
 4976SOL     OW26560   4.399   0.786   3.703 -0.7512 -0.9168  0.2366
 4976SOL    HW126561   4.450   0.858   3.666 -5.7575  1.5826 -1.8855
 4976SOL    HW226562   4.444   0.780   3.787  1.6478  3.2693 -0.7030
 4977SOL     OW26563   2.775   2.454   1.575  0.1478 -0.0112  0.1222
 4977SOL    HW126564   2.704   2.397   1.603  1.5972  0.6777  5.2017
 4977SOL    HW226565   2.740   2.543   1.584 -1.8299 -0.7402 -0.5967
 4978SOL     OW26566   2.342   3.929  17.615 -0.2424 -0.2655  0.0813
 4978SOL    HW126567   2.380   3.909  17.530 -0.4888 -2.2033  0.4238
 4978SOL    HW226568   2.298   3.844  17.620 -1.9280  0.6634  1.3835
 4979SOL     OW26569   3.543   2.926   1.175 -0.2811 -0.3342 -0.3862
 4979SOL    HW126570   3.468   2.868   1.190 -1.0367  0.5087 -0.9026
 4979SOL    HW226571   3.569   2.963   1.259  0.4269  3.1255 -2.1132
 4980SOL     OW26572   0.410   1.264   9.425 -0.1567 -0.1801 -0.7771
 4980SOL    HW126573   0.406   1.326   9.498  2.0376 -1.3880  0.3786
 4980SOL    HW226574   0.369   1.192   9.474 -0.1138  0.2136 -0.1646
 4981SOL     OW26575   1.607   1.643   4.981  0.2117 -0.2863 -0.0963
 4981SOL    HW126576   1.579   1.615   5.068  1.1048 -0.6605  0.0686
 4981SOL    HW226577   1.581   1.733   4.997  0.5434 -0.4747  1.4976
 4982SOL     OW26578   2.063   4.223  14.964  0.2896  0.0096  1.5857
 4982SOL    HW126579   1.968   4.215  14.969  0.3993 -2.2268 -0.4492
 4982SOL    HW226580   2.077   4.317  14.950 -0.4266 -0.1077  0.1521
 4983SOL     OW26581   0.838   0.025   3.939  0.1663  0.4802  0.0405
 4983SOL    HW126582   0.881   0.063   3.862  1.0791 -0.1845  0.2196
 4983SOL    HW226583   0.747   0.015   3.912  0.8366 -0.7806 -1.7580
 4984SOL     OW26584   3.993   2.524   1.049  0.6328  0.0173  0.2641
 4984SOL    HW126585   3.899   2.539   1.063  0.5102 -2.2261  1.8291
 4984SOL    HW226586   4.018   2.594   0.989 -0.4323  1.1346  1.1283
 4985SOL     OW26587   4.227   2.468   8.865 -0.1733  0.6247 -0.6177
 4985SOL    HW126588   4.203   2.390   8.915  1.4437 -1.0980 -2.5145
 4985SOL    HW226589   4.251   2.518   8.942  0.4797  0.6468 -0.8332
 4986SOL     OW26590   4.444   3.009  16.755 -0.5612 -0.0033  0.2957
 4986SOL    HW126591   4.416   2.949  16.825  0.1271 -0.9662 -0.2666
 4986SOL    HW226592   4.518   2.961  16.719 -0.3712 -0.9846  1.9845
 4987SOL     OW26593   1.330   1.925  15.502 -0.6002  0.5735  0.4042
 4987SOL    HW126594   1.278   1.891  15.575 -1.5116 -0.2242 -0.6124
 4987SOL    HW226595   1.389   1.989  15.542  1.1754 -0.4290 -0.6013
 4988SOL     OW26596   1.630   3.672   0.441  0.1683  0.0845  0.3648
 4988SOL    HW126597   1.547   3.691   0.395  0.5662 -1.7795 -1.1201
 4988SOL    HW226598   1.661   3.597   0.391  1.2814 -0.3261  1.7006
 4989SOL     OW26599   2.560   4.050   4.691  0.4467 -0.7863  0.1413
 4989SOL    HW126600   2.580   3.978   4.750  1.1815 -0.7905 -0.1091
 4989SOL    HW226601   2.504   4.003   4.629 -0.9192  0.2688  0.5855
 4990SOL     OW26602   3.065   0.117   8.571 -0.0521  0.0126 -0.2911
 4990SOL    HW126603   3.060   0.066   8.652 -1.1503  1.6007  0.6454
 4990SOL    HW226604   2.995   0.178   8.593  0.6062  0.5375  0.3497
 4991SOL     OW26605   2.617   0.925   2.808 -0.4189  0.5443  0.0957
 4991SOL    HW126606   2.687   0.876   2.852 -1.1281  0.4700  1.1348
 4991SOL    HW226607   2.653   0.924   2.719 -3.1023 -2.0112 -0.9590
 4992SOL     OW26608   3.413   4.377   3.584 -0.3159  0.5018 -0.9476
 4992SOL    HW126609   3.379   4.466   3.586 -1.0005  0.1818  1.5739
 4992SOL    HW226610   3.469   4.378   3.662 -3.5171  1.0191  1.3748
 4993SOL     OW26611   1.575   4.153   4.532 -0.2573  0.3403 -0.0036
 4993SOL    HW126612   1.586   4.196   4.617  1.9720  0.3965 -0.3231
 4993SOL    HW226613   1.491   4.191   4.506 -1.6348 -0.7683  2.9242
 4994SOL     OW26614   1.737   3.418   8.058  0.6994 -0.0934 -0.5314
 4994SOL    HW126615   1.764   3.328   8.078  1.6509 -0.1101 -1.8656
 4994SOL    HW226616   1.645   3.431   8.081  0.9375  2.2853 -0.9377
 4995SOL     OW26617   2.385   4.420   6.922 -0.3281 -0.8610  0.6945
 4995SOL    HW126618   2.379   4.329   6.950  1.0408 -0.7811  1.2283
 4995SOL    HW226619   2.457   4.450   6.977 -1.1808 -0.7861  1.7625
 4996SOL     OW26620   2.117   4.442   2.544 -0.0200 -0.4741 -0.1069
 4996SOL    HW126621   2.073   4.364   2.510  1.1617  0.3340 -3.4903
 4996SOL    HW226622   2.159   4.394   2.616 -1.9292 -1.9697  0.0044
 4997SOL     OW26623   3.528   0.784   4.803  0.0935 -0.8990  0.1253
 4997SOL    HW126624   3.552   0.871   4.769 -0.6598 -1.4825 -1.8914
 4997SOL    HW226625   3.603   0.728   4.783 -0.0468 -0.3966 -1.8506
 4998SOL     OW26626   1.309   3.790   2.057  0.2832 -0.8673 -0.1906
 4998SOL    HW126627   1.308   3.848   1.982  0.4044 -0.3411  0.2140
 4998SOL    HW226628   1.219   3.755   2.059 -1.3608  3.3186 -1.8371
 4999SOL     OW26629   1.379   3.259   8.484  0.1156  0.1483 -0.0686
 4999SOL    HW126630   1.362   3.219   8.399 -0.6484  1.1527 -0.3859
 4999SOL    HW226631   1.330   3.341   8.475 -2.1273 -1.3685 -1.5991
 5000SOL     OW26632   1.379   4.318   9.566  0.2985  0.3648 -0.3239
 5000SOL    HW126633   1.413   4.299   9.654 -3.3382 -2.6939  0.4459
 5000SOL    HW226634   1.444   4.291   9.502  0.6013 -3.4212  1.5843
 5001SOL     OW26635   0.489   4.011   9.196 -0.2084 -0.0203 -0.3705
 5001SOL    HW126636   0.466   3.921   9.217  1.4535 -0.2486  0.4927
 5001SOL    HW226637   0.453   4.063   9.268  1.9441  0.8038  0.1158
 5002SOL     OW26638   1.809   2.662   7.565  0.0105 -0.8471  0.5702
 5002SOL    HW126639   1.805   2.570   7.538 -1.3382 -0.6414  0.0650
 5002SOL    HW226640   1.738   2.650   7.628 -0.3732 -0.2034  0.2585
 5003SOL     OW26641   1.889   1.482   6.510  0.1470 -0.8039  0.6761
 5003SOL    HW126642   1.943   1.409   6.480  0.2407  0.1539 -1.4706
 5003SOL    HW226643   1.889   1.482   6.605 -0.7056  0.3778  0.6827
 5004SOL     OW26644   2.550   1.561   4.210 -0.4720 -0.4006 -0.0102
 5004SOL    HW126645   2.560   1.599   4.123  0.7831  2.5222  1.3708
 5004SOL    HW226646   2.578   1.639   4.259  2.0467 -2.6215  2.0267
 5005SOL     OW26647   4.312   1.381   0.861 -0.3911  0.3591 -0.1771
 5005SOL    HW126648   4.275   1.355   0.777  1.1072 -1.2474 -0.3471
 5005SOL    HW226649   4.240   1.400   0.922  0.6829  1.3669  0.7836
 5006SOL     OW26650   2.365   1.857   4.412 -0.2499  0.5062 -0.1307
 5006SOL    HW126651   2.444   1.876   4.361 -0.0380  0.5477  0.2126
 5006SOL    HW226652   2.332   1.946   4.413 -1.1919  0.1536  0.6260
 5007SOL     OW26653   1.740   0.669   4.615  0.0767  0.3224 -0.3871
 5007SOL    HW126654   1.713   0.587   4.574 -0.7048  0.4960 -0.2191
 5007SOL    HW226655   1.717   0.651   4.706  1.1351 -0.1926 -0.2248
 5008SOL     OW26656   3.907   2.023  11.625 -0.7304 -0.0520 -0.3671
 5008SOL    HW126657   3.964   1.955  11.662 -1.3475  1.6625  3.6788
 5008SOL    HW226658   3.826   1.995  11.667 -0.0591 -0.0423  0.9364
 5009SOL     OW26659   2.841   0.239  17.417  0.2709 -0.0199 -0.3631
 5009SOL    HW126660   2.931   0.231  17.386 -0.5793  1.2030 -3.1388
 5009SOL    HW226661   2.821   0.322  17.374  1.1828 -0.4627 -1.6276
 5010SOL     OW26662   3.824   2.242   9.374 -0.0285 -0.3421 -0.3895
 5010SOL    HW126663   3.827   2.167   9.434  1.6217  1.0111  1.1877
 5010SOL    HW226664   3.775   2.306   9.426  2.1555 -0.7679  2.2092
 5011SOL     OW26665   3.361   3.785  10.935  0.4932 -0.6128 -0.1827
 5011SOL    HW126666   3.284   3.821  10.979 -1.0328 -1.2834 -2.2915
 5011SOL    HW226667   3.382   3.848  10.866 -0.2668  1.3046  1.3553
 5012SOL     OW26668   4.402   4.144  12.484 -0.4074  0.2470  0.8404
 5012SOL    HW126669   4.322   4.099  12.511  0.3091 -1.5054  0.0952
 5012SOL    HW226670   4.386   4.142  12.389  1.9673 -1.1333  0.4728
 5013SOL     OW26671   3.222   1.221   3.381 -0.3213 -0.1759 -0.6264
 5013SOL    HW126672   3.223   1.259   3.470  1.8176 -0.7911 -0.3843
 5013SOL    HW226673   3.204   1.304   3.336 -2.0883 -0.7193 -0.8986
 5014SOL     OW26674   4.512   1.690   6.169 -1.1267  0.7829  0.1047
 5014SOL    HW126675   4.431   1.641   6.188 -0.2791 -0.6073  0.1976
 5014SOL    HW226676   4.502   1.692   6.074  0.5721  1.2430 -0.0624
 5015SOL     OW26677   3.648   4.648   8.221 -0.0121  0.0338 -0.4951
 5015SOL    HW126678   3.556   4.620   8.215 -0.0887  0.4419 -1.2627
 5015SOL    HW226679   3.644   0.012   8.228  4.4441  0.2945 -1.5694
 5016SOL     OW26680   1.829   3.741  12.913 -1.0043 -0.7513  0.2849
 5016SOL    HW126681   1.752   3.774  12.867  0.3760  2.2758  0.1081
 5016SOL    HW226682   1.806   3.760  13.004  1.0051 -2.2855  1.1213
 5017SOL     OW26683   0.428   4.589  14.451 -0.3336  0.1505  0.2102
 5017SOL    HW126684   0.429   4.551  14.539 -0.7119 -0.4046 -0.0246
 5017SOL    HW226685   0.338   4.615  14.436 -0.0367  1.1189  0.1326
 5018SOL     OW26686   0.698   0.640  10.861 -0.0667 -0.1416 -0.2435
 5018SOL    HW126687   0.666   0.714  10.912  0.2891 -1.0365  1.2839
 5018SOL    HW226688   0.617   0.590  10.856 -1.4933  2.0488  1.2707
 5019SOL     OW26689   1.818   4.444   8.282  0.1814 -0.1778  0.0282
 5019SOL    HW126690   1.856   4.473   8.365 -1.2188 -1.9850  1.3038
 5019SOL    HW226691   1.726   4.467   8.297 -0.1044 -0.7885 -0.7884
 5020SOL     OW26692   2.473   0.378   1.686  0.1244  0.0294  0.1976
 5020SOL    HW126693   2.433   0.464   1.672  0.2676  0.1377  0.4457
 5020SOL    HW226694   2.392   0.335   1.712 -0.2535 -0.1153 -1.2578
 5021SOL     OW26695   1.325   1.613   5.735 -0.1482 -0.1620  0.3091
 5021SOL    HW126696   1.274   1.532   5.724  0.0052 -0.2493  0.2344
 5021SOL    HW226697   1.329   1.613   5.831  0.7545  1.7340  0.2708
 5022SOL     OW26698   0.485   0.458  10.914  0.6093 -0.0131 -0.0298
 5022SOL    HW126699   0.434   0.508  10.850  2.4618  0.5916 -1.0108
 5022SOL    HW226700   0.445   0.371  10.912  0.1704  0.1500  1.6669
 5023SOL     OW26701   1.057   0.665   0.400  0.1619  0.7917 -0.4770
 5023SOL    HW126702   1.116   0.646   0.328  0.4503  0.2057 -0.0823
 5023SOL    HW226703   1.116   0.721   0.451  0.3736 -0.0981  0.2503
 5024SOL     OW26704   1.869   3.937  12.073  0.2486  0.4307  1.0658
 5024SOL    HW126705   1.931   4.004  12.045 -0.0849 -1.3279 -3.8780
 5024SOL    HW226706   1.835   3.903  11.990 -0.6090  0.6727  1.3126
 5025SOL     OW26707   4.231   0.737   8.108  0.1341 -0.4073 -0.3018
 5025SOL    HW126708   4.146   0.702   8.080 -0.7605  1.4012  0.1115
 5025SOL    HW226709   4.262   0.775   8.025 -0.9043 -0.4366 -0.7047
 5026SOL     OW26710   2.529   0.670   5.826 -0.2050  0.1989 -0.3068
 5026SOL    HW126711   2.549   0.713   5.743 -0.2889  1.2473  0.2259
 5026SOL    HW226712   2.470   0.601   5.795  0.5523 -0.8120  0.5053
 5027SOL     OW26713   0.626   0.664   5.185  0.1066 -0.0631 -0.5712
 5027SOL    HW126714   0.706   0.693   5.230 -0.4419  1.3338 -0.4835
 5027SOL    HW226715   0.628   0.706   5.099  0.6572  1.1193  0.0074
 5028SOL     OW26716   4.221   3.222   3.812 -0.3101  0.7729 -0.7517
 5028SOL    HW126717   4.169   3.221   3.732  0.6864  0.3724 -1.3868
 5028SOL    HW226718   4.244   3.132   3.835  0.6177  1.3439  0.5506
 5029SOL     OW26719   3.796   2.257   2.707  0.3643 -0.1817 -0.1834
 5029SOL    HW126720   3.856   2.331   2.695  0.2613 -0.4403 -2.1538
 5029SOL    HW226721   3.842   2.188   2.660  1.3443 -1.3262  2.4388
 5030SOL     OW26722   4.129   1.031   8.016 -0.5875 -0.6953 -0.1097
 5030SOL    HW126723   4.040   1.013   7.985 -0.7216  0.1775 -0.2385
 5030SOL    HW226724   4.154   0.942   8.040  1.3760 -0.0583  0.1447
 5031SOL     OW26725   0.105   2.015   3.285  0.4230 -0.2408 -0.1142
 5031SOL    HW126726   0.184   2.050   3.243  0.1373 -0.7325 -1.0477
 5031SOL    HW226727   0.068   1.955   3.220 -0.3832 -0.1836  0.2895
 5032SOL     OW26728   0.109   0.215   8.653 -0.2229  0.6017 -0.0708
 5032SOL    HW126729   0.201   0.232   8.672 -0.3412 -2.0517  2.8105
 5032SOL    HW226730   0.098   0.262   8.570  2.7049 -0.3029 -0.9637
 5033SOL     OW26731   2.923   1.651   6.746  0.6021  0.1937 -0.0340
 5033SOL    HW126732   3.014   1.650   6.715  0.5865  2.8591 -0.2379
 5033SOL    HW226733   2.919   1.562   6.780  4.4585 -0.6101 -1.5940
 5034SOL     OW26734   0.628   4.269   8.864 -0.8017  0.2829 -0.2930
 5034SOL    HW126735   0.620   4.196   8.803  2.0781 -2.4896  2.6367
 5034SOL    HW226736   0.588   4.336   8.809  0.9514  0.1309 -1.7354
 5035SOL     OW26737   0.955   4.729   4.568 -0.4559  0.1286 -0.4854
 5035SOL    HW126738   0.964   4.667   4.496  0.2222 -0.4880  0.1354
 5035SOL    HW226739   1.018   0.066   4.545 -0.9751  0.2602 -1.4625
 5036SOL     OW26740   0.472   3.758   1.232 -0.0635 -0.3459  0.1011
 5036SOL    HW126741   0.487   3.684   1.292  1.4575 -0.0072  0.1506
 5036SOL    HW226742   0.377   3.756   1.219 -0.2296  2.0491  1.0054
 5037SOL     OW26743   1.131   0.265   7.876  0.1301 -0.0010  0.2331
 5037SOL    HW126744   1.095   0.229   7.957  0.7978  0.9287  0.9406
 5037SOL    HW226745   1.088   0.209   7.812  2.4449  0.9325 -2.1245
 5038SOL     OW26746   3.108   0.449   4.114 -0.0121  0.0422  0.4902
 5038SOL    HW126747   3.125   0.458   4.020 -0.1176 -1.6164  0.2967
 5038SOL    HW226748   3.135   0.535   4.144 -2.1537  0.1162  2.2521
 5039SOL     OW26749   1.774   0.583   7.690  0.5455  0.3993  0.3614
 5039SOL    HW126750   1.695   0.613   7.646  0.2632  0.1286  0.6846
 5039SOL    HW226751   1.752   0.635   7.767  0.3936  1.5929 -0.4953
 5040SOL     OW26752   4.651   0.084   9.020 -0.1552 -0.0599 -0.0803
 5040SOL    HW126753   4.559   0.097   9.042  0.2292  0.8659  0.9473
 5040SOL    HW226754   4.687   0.049   9.101 -0.6765 -0.8819 -0.2038
 5041SOL     OW26755   0.112   2.625  11.789 -0.1257  0.3257 -0.0955
 5041SOL    HW126756   0.144   2.607  11.878 -2.2813 -0.3987  0.5516
 5041SOL    HW226757   0.126   2.540  11.748  3.6109  0.3751  1.0988
 5042SOL     OW26758   2.160   2.784   6.964  0.6511  0.2677  0.3197
 5042SOL    HW126759   2.205   2.824   7.038  1.7458  0.2048 -0.3158
 5042SOL    HW226760   2.120   2.705   7.003  3.8729 -0.9193  1.1753
 5043SOL     OW26761   1.073   3.281   1.866  0.3244  0.8221 -0.8159
 5043SOL    HW126762   1.113   3.335   1.798 -0.3514 -1.5697 -3.1508
 5043SOL    HW226763   1.094   3.331   1.945 -1.9225  1.3689 -0.5677
 5044SOL     OW26764   3.532   1.421   0.797 -0.3498  0.4196  0.6882
 5044SOL    HW126765   3.616   1.415   0.842 -0.0574  0.8979  0.2123
 5044SOL    HW226766   3.474   1.413   0.873 -0.3669 -2.9208  0.3237
 5045SOL     OW26767   3.812   0.676   2.367 -0.5926  0.5150  0.0706
 5045SOL    HW126768   3.769   0.600   2.405  0.8703  0.6825  2.0809
 5045SOL    HW226769   3.809   0.647   2.276  2.5658 -1.6715  0.6566
 5046SOL     OW26770   1.346   4.428   5.134 -0.1414  0.7366 -0.5539
 5046SOL    HW126771   1.275   4.370   5.159 -0.2014  1.9441  2.0145
 5046SOL    HW226772   1.299   4.479   5.067  0.5500 -0.4121 -1.9260
 5047SOL     OW26773   4.080   1.390   2.521 -0.1897 -0.9118  0.3459
 5047SOL    HW126774   4.025   1.371   2.446 -0.3948 -0.4140  0.3714
 5047SOL    HW226775   4.061   1.316   2.579 -0.4395 -0.0080  1.4145
 5048SOL     OW26776   0.558   0.335   4.253  0.3215 -0.2070 -0.0412
 5048SOL    HW126777   0.524   0.386   4.181  1.5949 -3.0631 -2.6860
 5048SOL    HW226778   0.647   0.367   4.270  0.6507 -0.3043 -1.5771
 5049SOL     OW26779   0.192   1.402   8.527  0.4197 -0.3427 -0.5246
 5049SOL    HW126780   0.252   1.337   8.564 -2.6142 -2.6410  0.4004
 5049SOL    HW226781   0.153   1.438   8.606  1.3860 -0.3430 -0.0509
 5050SOL     OW26782   2.376   2.200   4.461  0.3602 -0.2180 -0.4988
 5050SOL    HW126783   2.447   2.248   4.418  0.4701 -0.9799 -1.1610
 5050SOL    HW226784   2.298   2.236   4.419 -1.3678 -1.4239  1.6691
 5051SOL     OW26785   3.912   0.010   4.915 -0.6352 -0.0502 -0.5800
 5051SOL    HW126786   3.917   4.653   4.880  3.1878 -0.8202  1.8895
 5051SOL    HW226787   3.997   0.007   4.959 -0.0616  1.0852 -1.6036
 5052SOL     OW26788   3.091   3.322  17.020  0.0220  0.0243  0.4232
 5052SOL    HW126789   3.150   3.259  17.062 -0.3712  0.2888  1.3918
 5052SOL    HW226790   3.032   3.346  17.092 -2.5450 -1.2590 -1.2585
 5053SOL     OW26791   0.283   4.608   9.192  0.1098 -0.1596 -0.1561
 5053SOL    HW126792   0.254   4.517   9.201  1.1386 -0.7215 -2.4591
 5053SOL    HW226793   0.339   4.611   9.114 -1.8206 -1.7742 -1.6135
 5054SOL     OW26794   2.822   2.248   5.112  0.5510 -0.3169  0.4780
 5054SOL    HW126795   2.769   2.174   5.083 -1.5662  0.1505  3.0644
 5054SOL    HW226796   2.822   2.237   5.208 -0.1627  1.8454  0.7326
 5055SOL     OW26797   0.089   3.571   4.265 -0.1647  0.0753 -0.1454
 5055SOL    HW126798   0.025   3.576   4.194  0.3398  2.0444 -0.4715
 5055SOL    HW226799   0.076   3.663   4.286 -2.2140 -0.3901  0.5609
 5056SOL     OW26800   3.430   1.609   8.362  0.1819 -0.0080  0.3239
 5056SOL    HW126801   3.466   1.609   8.273 -1.8398  1.9319 -0.4939
 5056SOL    HW226802   3.449   1.521   8.396 -0.1126  0.4191  1.5913
 5057SOL     OW26803   4.698   1.017  12.348 -0.4080  0.0506  1.0154
 5057SOL    HW126804   4.648   0.960  12.289  0.8828  1.5321 -1.4802
 5057SOL    HW226805   0.009   0.948  12.399  0.5110 -0.0868  0.0660
 5058SOL     OW26806   2.939   1.595  15.398  0.3909 -0.1101 -0.2874
 5058SOL    HW126807   2.850   1.566  15.375  0.0099 -1.0990  2.4441
 5058SOL    HW226808   2.986   1.599  15.315 -0.0165  0.3627 -0.4906
 5059SOL     OW26809   3.953   2.078   7.836 -0.7071  0.0522 -0.4200
 5059SOL    HW126810   3.968   2.070   7.742  1.1168  0.2901 -0.1492
 5059SOL    HW226811   3.885   2.144   7.831 -1.4332 -0.6942 -0.3577
 5060SOL     OW26812   0.934   4.302   6.707 -0.6850 -0.2469 -0.1432
 5060SOL    HW126813   0.902   4.212   6.709 -2.9408  0.5737  0.9098
 5060SOL    HW226814   1.026   4.278   6.696 -0.8042 -0.4596 -0.7180
 5061SOL     OW26815   4.685   2.107   3.504 -0.0314  0.3342 -0.1242
 5061SOL    HW126816   4.731   2.066   3.430 -0.1355 -0.1220  0.0628
 5061SOL    HW226817   4.718   2.196   3.510  0.2830  0.0599  2.1016
 5062SOL     OW26818   2.215   1.539   8.443 -0.1343  0.2034 -0.5006
 5062SOL    HW126819   2.276   1.610   8.463 -2.4500  2.0576 -0.0786
 5062SOL    HW226820   2.241   1.522   8.352 -0.2235  0.6504 -0.6066
 5063SOL     OW26821   2.294   1.444   6.167 -0.0479 -0.1812  0.5446
 5063SOL    HW126822   2.203   1.439   6.138  0.3599 -2.5011 -0.3385
 5063SOL    HW226823   2.334   1.370   6.121 -0.9304 -0.9370  0.9960
 5064SOL     OW26824   3.597   0.468   8.486 -0.0124 -0.1497  0.0690
 5064SOL    HW126825   3.639   0.383   8.493 -2.2550 -1.3547 -1.1799
 5064SOL    HW226826   3.507   0.444   8.510 -0.3252  0.6716 -0.2538
 5065SOL     OW26827   1.333   3.333   5.314 -0.7083  0.6667 -0.7797
 5065SOL    HW126828   1.409   3.332   5.373 -1.5616 -0.1698  0.3057
 5065SOL    HW226829   1.335   3.242   5.284 -0.8421  0.7711 -1.1022
 5066SOL     OW26830   4.646   1.914  15.042  0.1917  0.4225  0.6089
 5066SOL    HW126831   4.592   1.973  15.093 -2.4731 -0.9691 -0.6059
 5066SOL    HW226832   4.713   1.966  14.998  0.4880 -0.5725 -0.1209
 5067SOL     OW26833   2.198   3.991  12.236 -0.0188 -0.0302 -0.1390
 5067SOL    HW126834   2.186   3.926  12.305  0.4984  0.8308  0.7631
 5067SOL    HW226835   2.283   4.024  12.265 -0.4564  0.3426  0.7225
 5068SOL     OW26836   0.908   3.202   9.140 -0.0588 -0.1131  0.5140
 5068SOL    HW126837   0.821   3.162   9.137  1.0590 -2.5172  0.5555
 5068SOL    HW226838   0.965   3.143   9.091 -0.4337  0.8032 -1.0323
 5069SOL     OW26839   0.450   3.308   8.551  0.3919  0.2506 -0.3539
 5069SOL    HW126840   0.402   3.391   8.557 -1.5601 -1.0262  2.0838
 5069SOL    HW226841   0.377   3.247   8.558 -0.1759  0.9905  0.2288
 5070SOL     OW26842   1.997   3.144   8.448  0.3408  0.0331 -0.1512
 5070SOL    HW126843   1.970   3.109   8.533 -0.7606 -0.4676 -0.7130
 5070SOL    HW226844   1.913   3.162   8.407 -0.9784  0.1513  2.5793
 5071SOL     OW26845   3.050   1.895   9.374  0.6956  0.4296 -0.2280
 5071SOL    HW126846   3.042   1.809   9.332  2.1997 -0.2063  0.8183
 5071SOL    HW226847   2.993   1.957   9.328  0.1629  2.2725  2.9254
 5072SOL     OW26848   2.345   1.853   3.421 -0.3093 -0.2624  0.2378
 5072SOL    HW126849   2.328   1.863   3.515  0.1968 -0.4949  0.3499
 5072SOL    HW226850   2.301   1.933   3.391 -0.0825 -0.0448  0.4784
 5073SOL     OW26851   2.467   3.459   8.301  0.0216 -0.0223  0.3607
 5073SOL    HW126852   2.409   3.533   8.286 -0.0147 -0.2063 -0.4372
 5073SOL    HW226853   2.419   3.380   8.275 -2.2007  1.8399 -1.0772
 5074SOL     OW26854   0.700   2.816   7.174  0.0253 -0.3947 -0.2440
 5074SOL    HW126855   0.687   2.726   7.204  1.7272 -1.0661 -1.5080
 5074SOL    HW226856   0.780   2.805   7.122 -1.1105  1.2179 -2.3556
 5075SOL     OW26857   2.272   3.835   5.833  0.0614  0.1772 -0.2381
 5075SOL    HW126858   2.323   3.790   5.766 -1.5814  1.5661 -2.4470
 5075SOL    HW226859   2.227   3.758   5.868  0.4166 -0.2512 -0.7377
 5076SOL     OW26860   2.515   2.905   6.945 -0.2281 -0.9552  0.7853
 5076SOL    HW126861   2.510   2.877   6.854 -2.0723  1.4470  0.1706
 5076SOL    HW226862   2.603   2.874   6.966  0.4726  1.5711  1.5752
 5077SOL     OW26863   3.156   0.815   9.854 -0.1953  0.0487 -0.2351
 5077SOL    HW126864   3.149   0.839   9.762  1.4041  1.5588  0.0214
 5077SOL    HW226865   3.066   0.797   9.882  1.0420 -1.7975  2.5412
 5078SOL     OW26866   0.782   3.529   8.344  0.1949  0.0035  0.2257
 5078SOL    HW126867   0.812   3.620   8.348  1.0038 -0.1676 -2.0406
 5078SOL    HW226868   0.845   3.480   8.397 -0.0746 -0.1880  0.3685
 5079SOL     OW26869   0.266   3.941   1.132 -0.1022 -0.6337 -0.3196
 5079SOL    HW126870   0.215   3.888   1.193 -3.1326  2.4756 -0.1176
 5079SOL    HW226871   0.199   3.974   1.072  0.3739 -1.1650 -1.1442
 5080SOL     OW26872   4.325   3.879  12.041  0.0096 -0.4968  0.5128
 5080SOL    HW126873   4.377   3.799  12.047 -0.6149 -1.0347 -1.2268
 5080SOL    HW226874   4.393   3.930  11.996 -0.7268 -0.9285 -1.1144
 5081SOL     OW26875   0.657   3.735   3.679  0.4125  0.1998 -0.1193
 5081SOL    HW126876   0.699   3.783   3.608  1.0679  0.5391  0.4987
 5081SOL    HW226877   0.732   3.684   3.710  1.4770  0.6183 -2.0325
 5082SOL     OW26878   4.036   1.114   6.391 -0.3380  0.4834 -0.1158
 5082SOL    HW126879   4.070   1.089   6.305 -0.8796 -1.5448  0.2570
 5082SOL    HW226880   3.943   1.133   6.382 -0.1747  1.0963 -0.5154
 5083SOL     OW26881   3.258   3.277  11.578 -0.6285 -0.4745  0.0598
 5083SOL    HW126882   3.211   3.209  11.626  0.1027 -0.3901  0.8922
 5083SOL    HW226883   3.177   3.314  11.543 -0.1363  0.7850  0.2398
 5084SOL     OW26884   4.056   4.322   6.187 -0.2126 -0.1497 -0.4330
 5084SOL    HW126885   4.018   4.409   6.176  1.2728  0.4718 -0.6198
 5084SOL    HW226886   3.998   4.265   6.136  0.6435 -1.4184  0.0067
 5085SOL     OW26887   1.079   0.922  14.937 -0.7772  0.0670 -0.4208
 5085SOL    HW126888   1.100   0.881  14.852  0.5461 -0.3741  0.1241
 5085SOL    HW226889   0.991   0.892  14.960 -0.0302 -1.7574  0.0422
 5086SOL     OW26890   3.229   0.772   2.002 -0.1323  0.1053 -0.3525
 5086SOL    HW126891   3.309   0.775   1.949  2.2028 -0.8636  3.1636
 5086SOL    HW226892   3.245   0.724   2.083 -0.2133 -1.7827 -1.4697
 5087SOL     OW26893   0.361   3.300   8.882  0.5964  0.4045  0.1144
 5087SOL    HW126894   0.315   3.233   8.830  2.5330 -0.4727 -0.4576
 5087SOL    HW226895   0.442   3.249   8.882  0.9971  1.0632  1.1796
 5088SOL     OW26896   0.685   4.555   8.215  0.0417 -0.0332 -0.3597
 5088SOL    HW126897   0.779   4.568   8.205 -0.2386  2.2505  0.0095
 5088SOL    HW226898   0.643   4.641   8.217  1.0544  0.4543 -0.2687
 5089SOL     OW26899   2.524   2.231   7.045 -0.2928  0.1675  0.2319
 5089SOL    HW126900   2.522   2.280   6.963  0.9603 -1.7848 -0.9786
 5089SOL    HW226901   2.436   2.247   7.078 -0.6242 -0.0100 -0.5784
 5090SOL     OW26902   1.138   1.453   4.657  0.4147  0.5828 -0.5143
 5090SOL    HW126903   1.108   1.377   4.606  2.8670 -1.0812  0.5261
 5090SOL    HW226904   1.099   1.434   4.742  0.2069  2.0726 -0.2868
 5091SOL     OW26905   1.589   1.382   6.749  0.1934  0.3857 -0.5131
 5091SOL    HW126906   1.590   1.423   6.836 -3.8728 -1.6017  0.4337
 5091SOL    HW226907   1.634   1.301   6.773 -0.4703 -0.1990 -1.2629
 5092SOL     OW26908   2.132   0.268  11.601  0.4923 -0.0174  0.4810
 5092SOL    HW126909   2.186   0.189  11.612 -1.9414 -1.4539  2.1023
 5092SOL    HW226910   2.184   0.344  11.626  0.1638  0.1825  0.5563
 5093SOL     OW26911   2.339   1.984  14.927 -0.1885 -0.6010 -0.5390
 5093SOL    HW126912   2.417   1.998  14.873  0.7900  0.6888  1.1874
 5093SOL    HW226913   2.274   2.000  14.859 -0.6575  1.2294  0.3381
 5094SOL     OW26914   0.612   0.361   1.429 -0.3233  0.1215  0.1599
 5094SOL    HW126915   0.532   0.309   1.432 -0.0935 -0.2627 -0.4124
 5094SOL    HW226916   0.681   0.302   1.399 -1.1556 -1.4426  1.3274
 5095SOL     OW26917   1.996   1.339  13.817 -0.0466  0.3140  0.3523
 5095SOL    HW126918   1.918   1.326  13.871 -0.2687  1.2046  0.2525
 5095SOL    HW226919   1.971   1.302  13.732  0.8779 -0.4372  0.4082
 5096SOL     OW26920   2.867   1.625   6.403  0.0373  0.3789 -0.3998
 5096SOL    HW126921   2.785   1.644   6.359  0.4461  2.1987 -0.3818
 5096SOL    HW226922   2.832   1.612   6.491  2.4771  3.3376  1.0163
 5097SOL     OW26923   4.440   2.945   1.497  0.1693 -0.2007 -0.0803
 5097SOL    HW126924   4.526   2.987   1.492 -0.0832  0.2735 -0.4432
 5097SOL    HW226925   4.444   2.894   1.578 -0.5596 -0.7940 -0.4195
 5098SOL     OW26926   4.337   4.483   5.806  0.2511 -0.0340 -0.6399
 5098SOL    HW126927   4.245   4.460   5.793 -0.1127  0.2338  1.4699
 5098SOL    HW226928   4.363   4.480   5.714  1.5097 -4.3416 -0.1346
 5099SOL     OW26929   1.828   0.514   6.248  0.0096 -0.4949 -0.5910
 5099SOL    HW126930   1.768   0.503   6.174  2.3608  0.7834 -2.6633
 5099SOL    HW226931   1.898   0.450   6.235  0.6480  0.0383  0.2584
 5100SOL     OW26932   3.547   0.885   4.307 -0.1043  0.5188 -0.1835
 5100SOL    HW126933   3.555   0.980   4.301 -0.3280  0.5727  0.3851
 5100SOL    HW226934   3.474   0.873   4.247 -1.4691  1.7358  1.2093
 5101SOL     OW26935   1.689   4.409  16.799  0.6479 -0.6752  0.4849
 5101SOL    HW126936   1.754   4.448  16.858  0.6462 -0.9638  0.6764
 5101SOL    HW226937   1.642   4.486  16.768  2.8105 -0.2742 -1.8360
 5102SOL     OW26938   1.854   2.503   4.934 -0.0701 -0.0677 -0.1301
 5102SOL    HW126939   1.893   2.416   4.946 -0.3956 -0.6227 -3.0819
 5102SOL    HW226940   1.876   2.528   4.845 -1.2026 -0.0033 -0.3922
 5103SOL     OW26941   3.422   3.176   3.119 -0.0309  0.3071 -0.2507
 5103SOL    HW126942   3.450   3.168   3.027 -0.1723  0.1409 -0.2811
 5103SOL    HW226943   3.496   3.219   3.160  0.3910  1.6317 -2.3899
 5104SOL     OW26944   1.311   1.316   9.560  0.7251  0.3231  0.6341
 5104SOL    HW126945   1.281   1.251   9.624 -0.7336  0.0896 -0.2797
 5104SOL    HW226946   1.395   1.334   9.602  0.3895  0.0370  1.4261
 5105SOL     OW26947   3.208   1.723  17.087 -0.4241 -0.0826  0.9096
 5105SOL    HW126948   3.204   1.630  17.110  1.9126 -0.8082 -1.6917
 5105SOL    HW226949   3.216   1.767  17.171  0.3086  0.5375  0.5052
 5106SOL     OW26950   4.476   2.981   2.991 -0.9990  0.2926  0.0485
 5106SOL    HW126951   4.559   2.978   2.944  0.9831 -0.6181  3.6085
 5106SOL    HW226952   4.508   3.029   3.067 -3.1737  0.4146  0.8954
 5107SOL     OW26953   1.505   4.410   4.306  0.1935  0.4613 -0.3860
 5107SOL    HW126954   1.588   4.457   4.312  0.0404  0.6245  0.4396
 5107SOL    HW226955   1.487   4.426   4.214  1.8736  0.9732 -0.6324
 5108SOL     OW26956   3.278   3.443   2.224 -0.8473  0.5855 -0.2994
 5108SOL    HW126957   3.297   3.372   2.163  1.4375  2.1073 -1.3785
 5108SOL    HW226958   3.323   3.518   2.184 -0.2277 -0.1026 -0.8924
 5109SOL     OW26959   2.820   0.475  17.294  0.3462  0.4868  0.6940
 5109SOL    HW126960   2.799   0.555  17.342 -0.5882  1.2724 -1.0034
 5109SOL    HW226961   2.734   0.456  17.255 -0.0975  2.8429  0.4834
 5110SOL     OW26962   2.469   1.130   9.163  0.2746  0.1019 -0.0647
 5110SOL    HW126963   2.548   1.182   9.150  0.0473  0.6543  0.7453
 5110SOL    HW226964   2.471   1.124   9.259 -0.2916  2.5711  0.1017
 5111SOL     OW26965   1.290   2.596   0.425  0.2405  0.3255 -0.0067
 5111SOL    HW126966   1.330   2.538   0.360  0.4579 -0.6127  0.9727
 5111SOL    HW226967   1.197   2.579   0.408  0.4943 -0.9434 -0.1151
 5112SOL     OW26968   0.142   3.203   3.029 -0.2682  0.2438 -0.2194
 5112SOL    HW126969   0.203   3.191   2.956 -0.0635  0.5276 -0.0928
 5112SOL    HW226970   0.138   3.299   3.024  3.3638  0.2397 -3.6094
 5113SOL     OW26971   0.365   0.193  10.871  0.5270 -0.2717  0.1085
 5113SOL    HW126972   0.278   0.234  10.876  0.9808  1.0687 -2.9941
 5113SOL    HW226973   0.363   0.134  10.796 -2.3113  0.0107 -0.0517
 5114SOL     OW26974   3.893   4.216   3.072  0.4902 -0.1798 -0.3229
 5114SOL    HW126975   3.876   4.304   3.038 -1.5116 -0.8564 -1.0581
 5114SOL    HW226976   3.953   4.178   3.007 -0.2000  0.6777 -1.4631
 5115SOL     OW26977   1.076   0.740   1.792 -0.5894 -0.1797 -0.1703
 5115SOL    HW126978   0.988   0.730   1.757 -0.5665  1.1347 -0.5988
 5115SOL    HW226979   1.058   0.771   1.880 -0.2282 -2.1040  0.5695
 5116SOL     OW26980   3.874   3.702  13.090  0.2127 -0.2456  0.2579
 5116SOL    HW126981   3.883   3.767  13.159 -0.7766 -3.3745  3.2912
 5116SOL    HW226982   3.958   3.661  13.109  0.0703  0.4849  2.4467
 5117SOL     OW26983   1.988   2.109  15.491 -0.0431 -0.2136  0.1562
 5117SOL    HW126984   1.976   2.139  15.401 -1.8711 -0.0998  0.4408
 5117SOL    HW226985   1.897   2.085  15.505 -0.2745 -0.3919 -1.6134
 5118SOL     OW26986   3.779   0.257   6.034 -0.1432 -0.0330 -0.4355
 5118SOL    HW126987   3.810   0.196   5.968  2.7088  0.6879  0.2486
 5118SOL    HW226988   3.861   0.292   6.069 -0.9112  1.2885  0.0643
 5119SOL     OW26989   0.672   2.644  10.584  0.2084 -0.1333  0.1138
 5119SOL    HW126990   0.609   2.707  10.617  1.5634  0.5284  1.4533
 5119SOL    HW226991   0.666   2.662  10.490 -0.6179  0.1370  0.2198
 5120SOL     OW26992   4.666   3.433   2.059  0.2289  0.2910 -0.1038
 5120SOL    HW126993   4.687   3.402   1.971 -0.2991 -0.3852  0.0120
 5120SOL    HW226994   4.628   3.519   2.039 -1.6585 -0.6520 -0.5276
 5121SOL     OW26995   3.558   1.338   9.757  0.1298  0.3671  0.0901
 5121SOL    HW126996   3.531   1.418   9.712 -0.9923  0.5469  1.0873
 5121SOL    HW226997   3.473   1.320   9.796  0.5252  1.4956  1.4587
 5122SOL     OW26998   4.042   0.989   3.072  0.2143 -0.1879 -0.2369
 5122SOL    HW126999   3.980   1.001   3.000 -0.0229 -0.9741 -0.1684
 5122SOL    HW227000   4.034   0.894   3.080  1.7222 -0.1914  1.2060
 5123SOL     OW27001   0.756   0.299   3.545 -0.2946  0.0933 -0.0410
 5123SOL    HW127002   0.783   0.306   3.637  4.1125  0.1234 -1.3421
 5123SOL    HW227003   0.707   0.380   3.534 -0.8984  0.0728  2.2954
 5124SOL     OW27004   0.905   3.263  12.885 -0.6370  0.5885  0.1225
 5124SOL    HW127005   0.998   3.242  12.878 -0.6532 -0.0731  1.7958
 5124SOL    HW227006   0.886   3.212  12.964 -0.7932 -0.4547 -0.5809
 5125SOL     OW27007   2.131   2.758   8.894  0.0863 -0.1236  0.4659
 5125SOL    HW127008   2.081   2.683   8.864 -0.0960 -0.0365  0.5511
 5125SOL    HW227009   2.071   2.830   8.873  0.7377  0.3708  0.2747
 5126SOL     OW27010   4.092   1.886  11.799  0.0535 -0.1055  0.0573
 5126SOL    HW127011   4.065   1.809  11.850  0.2128  0.1073  0.4600
 5126SOL    HW227012   4.186   1.890  11.812  0.2054  2.3797 -1.8305
 5127SOL     OW27013   3.886   0.929   6.911 -0.6639  0.4754 -0.1527
 5127SOL    HW127014   3.883   0.993   6.982 -0.6841  1.6344 -1.1979
 5127SOL    HW227015   3.833   0.981   6.850  0.9853  1.5146 -0.7009
 5128SOL     OW27016   3.187   2.777   5.526 -0.0717 -0.0375 -0.1021
 5128SOL    HW127017   3.104   2.784   5.480  0.8591 -0.9536 -1.9049
 5128SOL    HW227018   3.188   2.690   5.567  4.7954  0.7359  1.4298
 5129SOL     OW27019   4.053   0.513   8.171 -0.2791  0.0951 -0.2299
 5129SOL    HW127020   3.992   0.585   8.158 -0.4728 -0.1095 -0.4534
 5129SOL    HW227021   4.017   0.487   8.256 -0.5828  2.4120  0.3424
 5130SOL     OW27022   0.067   0.628   1.216 -0.0727 -0.2652  0.0078
 5130SOL    HW127023   0.028   0.553   1.172 -3.1175  0.3876  1.5875
 5130SOL    HW227024   0.150   0.594   1.249  0.1873 -1.4640 -1.9111
 5131SOL     OW27025   4.225   0.207   4.163  0.2323  0.1968 -0.5699
 5131SOL    HW127026   4.312   0.213   4.123 -0.1845  2.6867 -1.1051
 5131SOL    HW227027   4.183   0.285   4.127  1.3642  2.1079  2.2010
 5132SOL     OW27028   3.220   4.635   7.522  0.9742  0.0208 -0.2298
 5132SOL    HW127029   3.218   4.714   7.468 -0.2753  1.9452  2.6272
 5132SOL    HW227030   3.198   4.574   7.452 -1.3656  1.0877 -0.4055
 5133SOL     OW27031   0.673   2.498   4.064  0.1495 -0.1774 -0.2752
 5133SOL    HW127032   0.666   2.594   4.059  0.8073 -0.1209 -0.1762
 5133SOL    HW227033   0.685   2.489   4.158  0.0741 -1.7903 -0.4283
 5134SOL     OW27034   2.633   3.941  11.655  0.1207  0.5712 -0.0214
 5134SOL    HW127035   2.601   4.003  11.589  0.0556 -0.7949 -1.2609
 5134SOL    HW227036   2.625   3.983  11.741  2.0495 -2.6578  1.7459
 5135SOL     OW27037   4.130   1.730   8.980 -0.0860  0.2018 -0.1745
 5135SOL    HW127038   4.112   1.637   8.996 -0.5545  0.7956  2.8994
 5135SOL    HW227039   4.054   1.757   8.928  0.5251 -2.7126 -2.5460
 5136SOL     OW27040   0.137   2.026  14.968 -0.0796  0.5819  0.5704
 5136SOL    HW127041   0.157   2.104  14.917  3.6871  0.4534  1.8419
 5136SOL    HW227042   0.219   1.996  15.007  0.1177 -0.0133 -0.3009
 5137SOL     OW27043   4.410   2.544   3.137  0.2418 -0.3403 -0.3779
 5137SOL    HW127044   4.413   2.474   3.072 -0.4929 -0.0166 -0.7646
 5137SOL    HW227045   4.499   2.544   3.173  0.3913 -0.7658 -0.7448
 5138SOL     OW27046   1.138   2.078   3.136 -0.1342  0.0067 -0.0912
 5138SOL    HW127047   1.175   2.166   3.133 -1.6405  0.5817 -1.4439
 5138SOL    HW227048   1.061   2.084   3.079  0.0716  2.1116 -0.1362
 5139SOL     OW27049   4.514   4.423   9.083  0.0572  0.1767  0.9665
 5139SOL    HW127050   4.549   4.492   9.138 -1.3544  2.1255 -0.5921
 5139SOL    HW227051   4.522   4.455   8.993 -2.1695 -2.3368 -0.1643
 5140SOL     OW27052   2.703   0.392   1.855  0.5880 -0.1895  0.1801
 5140SOL    HW127053   2.645   0.365   1.783  1.0718  0.2948 -0.3896
 5140SOL    HW227054   2.725   0.483   1.835 -1.4558  0.7385  2.1488
 5141SOL     OW27055   0.812   4.184   4.220  0.6879  0.1227  0.1250
 5141SOL    HW127056   0.785   4.203   4.130  0.4012 -1.1638 -0.0723
 5141SOL    HW227057   0.773   4.098   4.240  1.6790 -0.4421 -0.3540
 5142SOL     OW27058   1.450   1.076   8.629  0.0678  0.3995  0.3994
 5142SOL    HW127059   1.476   1.028   8.708 -1.7838 -1.0535  0.1229
 5142SOL    HW227060   1.465   1.009   8.562 -0.7965  2.3314 -1.7331
 5143SOL     OW27061   4.174   0.236   6.249  0.0059  0.1404  0.3311
 5143SOL    HW127062   4.253   0.288   6.238 -0.6902  1.1245  0.0020
 5143SOL    HW227063   4.117   0.295   6.297  0.6257  0.8672  0.1692
 5144SOL     OW27064   2.811   2.944  10.340  0.2571 -0.2615 -0.2970
 5144SOL    HW127065   2.774   2.902  10.417 -0.5339 -2.9056 -2.0905
 5144SOL    HW227066   2.807   2.866  10.284  0.3843 -0.7381  0.3643
 5145SOL     OW27067   4.311   4.237   0.938  0.1020  0.1525  0.4408
 5145SOL    HW127068   4.342   4.183   0.865 -1.6651 -0.7723  0.3643
 5145SOL    HW227069   4.344   4.189   1.013  1.8688 -1.2242 -1.2054
 5146SOL     OW27070   0.966   1.252  11.952  0.6676  0.2090 -0.6209
 5146SOL    HW127071   1.028   1.189  11.916  0.7254 -0.1349  0.0733
 5146SOL    HW227072   0.901   1.236  11.884  2.1684 -0.4445 -1.9037
 5147SOL     OW27073   3.606   1.644  14.644 -0.1898 -0.5529 -0.2290
 5147SOL    HW127074   3.643   1.565  14.605  2.8726  0.6640  0.2804
 5147SOL    HW227075   3.678   1.685  14.691  0.6845  0.5802 -2.5671
 5148SOL     OW27076   3.112   1.313   1.563  0.1904 -0.4946 -0.1605
 5148SOL    HW127077   3.180   1.252   1.534 -1.2698 -2.5581  0.6919
 5148SOL    HW227078   3.132   1.318   1.656  0.4413 -1.8686 -0.1318
 5149SOL     OW27079   2.262   2.239  15.298 -0.4115  0.0036 -0.3885
 5149SOL    HW127080   2.358   2.241  15.303 -0.3420 -0.1099 -1.6210
 5149SOL    HW227081   2.252   2.150  15.264 -1.0074  0.8338 -2.4264
 5150SOL     OW27082   2.987   2.099   7.086 -0.7106  0.2545 -0.3105
 5150SOL    HW127083   3.064   2.042   7.095 -1.9902 -1.5851 -1.1090
 5150SOL    HW227084   2.955   2.103   7.176 -0.4212 -1.2043 -0.1420
 5151SOL     OW27085   4.394   4.387  15.270  0.3355 -0.0529 -0.4319
 5151SOL    HW127086   4.398   4.435  15.353 -0.6619  0.1460 -0.5015
 5151SOL    HW227087   4.477   4.416  15.232  1.6081 -3.1677  0.0328
 5152SOL     OW27088   3.855   3.568   4.635 -0.5380 -0.3072 -0.6074
 5152SOL    HW127089   3.794   3.554   4.707 -0.3130 -0.0470 -0.3668
 5152SOL    HW227090   3.854   3.487   4.585 -0.5176 -0.0443 -1.0334
 5153SOL     OW27091   4.709   3.222   0.381 -0.6013  0.2109 -0.1942
 5153SOL    HW127092   4.730   3.143   0.431 -0.5527  0.0015 -0.5447
 5153SOL    HW227093   0.065   3.250   0.351 -0.5242 -0.4098 -0.5464
 5154SOL     OW27094   3.709   0.626   3.535  0.2908  0.0253 -0.4964
 5154SOL    HW127095   3.684   0.717   3.520 -1.6066 -0.7122 -1.9091
 5154SOL    HW227096   3.648   0.574   3.483  2.6193 -0.1767 -2.9743
 5155SOL     OW27097   3.725   2.305  11.805  0.0743 -0.2424 -0.0282
 5155SOL    HW127098   3.735   2.223  11.852 -2.7371  0.4755  1.8427
 5155SOL    HW227099   3.636   2.324  11.837 -0.3539 -1.9381 -0.2241
 5156SOL     OW27100   3.630   1.090   9.642 -1.2191  0.0757  0.4323
 5156SOL    HW127101   3.648   1.029   9.713  1.3731  0.8412  0.4009
 5156SOL    HW227102   3.631   1.177   9.682  1.9225 -0.7490  2.0959
 5157SOL     OW27103   0.861   4.248   3.110  0.0453  0.3488 -0.0251
 5157SOL    HW127104   0.920   4.176   3.131 -0.0516 -0.1247 -1.3969
 5157SOL    HW227105   0.781   4.197   3.105  0.0479  0.2036  1.3492
 5158SOL     OW27106   3.355   3.294   2.738 -0.0889 -0.0200 -0.5229
 5158SOL    HW127107   3.421   3.299   2.670 -0.3209 -2.5829 -0.9042
 5158SOL    HW227108   3.312   3.209   2.730 -1.9478  0.6841  1.9355
 5159SOL     OW27109   4.184   4.166   4.069 -0.2292  0.2752 -0.3915
 5159SOL    HW127110   4.264   4.213   4.045  0.1417 -0.2441 -0.1895
 5159SOL    HW227111   4.122   4.237   4.085  0.4417  0.5640  0.9536
 5160SOL     OW27112   0.315   4.486  16.372 -0.1738  0.3122  0.6591
 5160SOL    HW127113   0.270   4.405  16.351 -0.4489  0.5497  0.3197
 5160SOL    HW227114   0.321   4.515  16.281 -1.4024 -0.8025  0.2277
 5161SOL     OW27115   4.261   1.278  12.547  0.4016  0.0072  0.3009
 5161SOL    HW127116   4.354   1.284  12.525  0.8186 -1.3327  1.7130
 5161SOL    HW227117   4.267   1.247  12.637 -1.3820 -1.7165 -0.1725
 5162SOL     OW27118   2.193   1.324  11.698  0.5968  0.2527  0.8565
 5162SOL    HW127119   2.136   1.252  11.724 -0.4975  0.4387 -1.0016
 5162SOL    HW227120   2.138   1.368  11.632  1.8280  0.5086 -0.0061
 5163SOL     OW27121   2.361   0.481  10.702  0.2387  0.2397  0.1470
 5163SOL    HW127122   2.267   0.469  10.690 -0.2140  0.5131  3.5456
 5163SOL    HW227123   2.362   0.531  10.784 -4.4163  0.6965 -0.0714
 5164SOL     OW27124   1.426   2.701   3.518  0.1710  0.2485 -0.4137
 5164SOL    HW127125   1.466   2.658   3.594 -2.1193  0.4087  0.8786
 5164SOL    HW227126   1.487   2.677   3.449  2.9613  2.1958  1.3963
 5165SOL     OW27127   2.695   2.830   0.837  0.1322 -0.3198 -0.0861
 5165SOL    HW127128   2.621   2.785   0.879 -2.2179  1.5206 -2.3442
 5165SOL    HW227129   2.676   2.813   0.745  0.5317 -1.4720  0.0375
 5166SOL     OW27130   1.005   3.501   6.209 -0.5419  0.5354 -0.5382
 5166SOL    HW127131   1.038   3.416   6.237 -1.2857  0.0070 -1.2406
 5166SOL    HW227132   1.087   3.550   6.215 -0.0393 -0.5716  1.6633
 5167SOL     OW27133   3.420   2.106  17.156 -0.5614 -0.8178 -0.2006
 5167SOL    HW127134   3.403   2.200  17.161 -1.2477 -1.0324  1.4073
 5167SOL    HW227135   3.450   2.092  17.067  0.0819 -1.9576  0.1989
 5168SOL     OW27136   3.922   2.707  15.686 -0.8404  0.9813 -0.2539
 5168SOL    HW127137   3.926   2.612  15.690 -0.1938  0.9655 -1.1948
 5168SOL    HW227138   3.883   2.721  15.599  1.5839 -1.2199 -1.6866
 5169SOL     OW27139   0.789   0.268   5.533 -0.1128 -0.1540  0.4531
 5169SOL    HW127140   0.805   0.206   5.463 -0.8535  0.6898 -0.4651
 5169SOL    HW227141   0.777   0.354   5.492 -0.7866 -0.5799 -0.2107
 5170SOL     OW27142   0.372   1.199   8.627  0.0955  0.2118  0.0248
 5170SOL    HW127143   0.384   1.104   8.615 -0.6452  0.2876 -1.3275
 5170SOL    HW227144   0.314   1.198   8.703  0.7864  0.3258  0.5515
 5171SOL     OW27145   1.434   3.707   4.878  0.0505  0.3455 -0.1990
 5171SOL    HW127146   1.523   3.737   4.899  0.6321 -1.9201  0.5151
 5171SOL    HW227147   1.455   3.622   4.838 -1.8405 -0.5145  0.6434
 5172SOL     OW27148   1.450   1.350   3.975  0.2145 -0.3955 -0.2311
 5172SOL    HW127149   1.474   1.377   4.064  0.5401  0.5862 -0.6075
 5172SOL    HW227150   1.404   1.430   3.948 -0.5132 -0.3833  1.0492
 5173SOL     OW27151   1.406   0.704   7.977  0.3288  0.1294 -0.2214
 5173SOL    HW127152   1.345   0.674   8.045 -0.1143 -0.2092 -0.7701
 5173SOL    HW227153   1.449   0.620   7.960 -0.6092 -0.6750  1.3729
 5174SOL     OW27154   2.271   0.165   0.227 -0.3829 -0.5862  0.3642
 5174SOL    HW127155   2.353   0.162   0.275 -1.2196  0.0293  1.8229
 5174SOL    HW227156   2.238   0.243   0.271 -1.8841 -1.6347  1.0763
 5175SOL     OW27157   1.070   0.554  13.738 -0.1664 -0.1703 -0.2720
 5175SOL    HW127158   1.061   0.553  13.643  1.0419 -0.4619 -0.3896
 5175SOL    HW227159   1.085   0.648  13.751 -1.9332 -0.0396  0.8153
 5176SOL     OW27160   4.628   0.257   6.007 -0.1387  0.2107 -0.2886
 5176SOL    HW127161   4.691   0.297   6.067 -1.1713 -0.4276  1.2247
 5176SOL    HW227162   4.631   0.306   5.925  0.1378  0.9175  0.1349
 5177SOL     OW27163   4.570   2.360   9.565 -0.6333 -0.1448 -0.1141
 5177SOL    HW127164   4.647   2.306   9.581 -1.3910 -0.8610  1.1508
 5177SOL    HW227165   4.607   2.440   9.529 -0.7770  0.9871  2.2018
 5178SOL     OW27166   0.350   4.156   4.918  0.1024  0.1459  0.2125
 5178SOL    HW127167   0.428   4.166   4.972  0.6691 -1.8172 -0.2574
 5178SOL    HW227168   0.351   4.065   4.889  0.2639  1.0052 -2.5481
 5179SOL     OW27169   0.018   3.155  12.005  0.8844 -0.6142  0.3210
 5179SOL    HW127170   4.697   3.234  12.019  0.8122 -0.2007 -2.4211
 5179SOL    HW227171   4.690   3.081  12.015 -0.0058  0.1431  0.5826
 5180SOL     OW27172   1.341   4.378  16.112  0.1622 -0.4483  0.0821
 5180SOL    HW127173   1.269   4.333  16.067  1.0129 -0.7857 -0.9190
 5180SOL    HW227174   1.312   4.364  16.202 -3.1234 -1.8706 -1.1690
 5181SOL     OW27175   0.702   0.646  12.244  0.7459  0.1275 -0.1313
 5181SOL    HW127176   0.683   0.566  12.194  0.9439  0.2993 -0.4802
 5181SOL    HW227177   0.746   0.622  12.325  2.6941  2.5664 -0.4527
 5182SOL     OW27178   2.850   0.181   8.060  0.1279 -0.0617  0.5568
 5182SOL    HW127179   2.919   0.134   8.108 -0.6620 -1.2980  0.4957
 5182SOL    HW227180   2.778   0.164   8.120 -2.3659  0.6975 -2.2602
 5183SOL     OW27181   3.059   3.339   1.990 -0.0187  0.4021 -0.4609
 5183SOL    HW127182   3.092   3.425   1.964 -1.5033  1.0895 -0.1145
 5183SOL    HW227183   3.125   3.282   1.951 -0.4945  0.3464 -1.1946
 5184SOL     OW27184   4.592   2.375   4.690 -0.2618 -0.3110  0.0749
 5184SOL    HW127185   4.541   2.405   4.765 -0.6329  0.7946 -0.6123
 5184SOL    HW227186   4.672   2.426   4.705 -0.6083  0.8266 -2.0219
 5185SOL     OW27187   0.494   0.388   7.667  0.2892  0.2830 -0.1121
 5185SOL    HW127188   0.452   0.473   7.657 -1.7758 -0.8232 -0.9849
 5185SOL    HW227189   0.561   0.411   7.603 -2.0559  2.1126 -1.8636
 5186SOL     OW27190   2.052   1.435   4.161  0.4633 -0.2046  0.3723
 5186SOL    HW127191   2.062   1.530   4.150  2.3614 -0.6103 -1.4856
 5186SOL    HW227192   1.960   1.433   4.186  0.2436 -0.7052 -0.4566
 5187SOL     OW27193   4.485   0.548   5.035 -0.3770 -0.4184 -0.3774
 5187SOL    HW127194   4.426   0.496   4.980  0.5189  1.0561 -2.7200
 5187SOL    HW227195   4.568   0.545   4.988  0.8133  0.1659  1.6688
 5188SOL     OW27196   1.633   2.102   5.468 -0.3214 -0.2892  0.4786
 5188SOL    HW127197   1.617   2.157   5.544 -1.7625 -1.4945  1.0453
 5188SOL    HW227198   1.552   2.052   5.465  0.8862 -2.1720 -1.2484
 5189SOL     OW27199   3.343   2.930   7.296 -0.1859  0.4200 -0.6854
 5189SOL    HW127200   3.302   3.012   7.325  2.1408  1.0361  0.8221
 5189SOL    HW227201   3.380   2.967   7.216  0.9679  2.2766  0.6937
 5190SOL     OW27202   4.612   3.912  14.450 -0.6244 -0.5333 -0.0054
 5190SOL    HW127203   4.523   3.888  14.425 -0.7688  2.3455 -2.2306
 5190SOL    HW227204   4.653   3.897  14.365 -0.3469 -1.9613  0.3796
 5191SOL     OW27205   3.123   4.731   1.899  0.1734 -0.1122  0.1543
 5191SOL    HW127206   3.047   0.032   1.851  0.6835 -0.2115 -0.7130
 5191SOL    HW227207   3.099   0.010   1.991  1.1990 -2.1074  0.6607
 5192SOL     OW27208   0.486   3.382   1.215  0.6655 -0.5329 -0.1632
 5192SOL    HW127209   0.568   3.391   1.264  0.6341  0.3060 -0.2598
 5192SOL    HW227210   0.435   3.368   1.295  2.1325  0.2903  0.9326
 5193SOL     OW27211   1.301   3.999   7.577 -0.3973  0.2660  0.3344
 5193SOL    HW127212   1.316   3.912   7.541  1.9449  0.2953  1.2178
 5193SOL    HW227213   1.386   4.039   7.558 -1.3452  2.0195 -0.1632
 5194SOL     OW27214   1.790   2.705   4.377 -0.2938 -0.4329  1.0857
 5194SOL    HW127215   1.830   2.785   4.344 -2.8246  0.2522 -0.3560
 5194SOL    HW227216   1.748   2.660   4.304  1.9392 -0.7963  0.0203
 5195SOL     OW27217   3.425   0.829  16.505  0.1041 -0.2178  0.0862
 5195SOL    HW127218   3.445   0.901  16.565 -0.9338  0.3132 -0.2114
 5195SOL    HW227219   3.511   0.820  16.464  0.6755 -0.3114  1.2988
 5196SOL     OW27220   4.102   3.853   8.770 -0.0184  0.4314  0.3065
 5196SOL    HW127221   4.033   3.854   8.837 -1.3759  1.3269 -1.1196
 5196SOL    HW227222   4.156   3.779   8.799 -0.6180 -0.5222 -1.0208
 5197SOL     OW27223   2.747   4.052   2.096 -0.3058  0.9107 -0.6818
 5197SOL    HW127224   2.738   4.116   2.025  2.6647  2.0117 -0.0320
 5197SOL    HW227225   2.663   4.060   2.142 -0.9686  0.2533 -1.7613
 5198SOL     OW27226   4.633   4.130   7.684  0.3571 -0.2468  0.1466
 5198SOL    HW127227   4.611   4.202   7.625 -1.6560  0.0515  1.2929
 5198SOL    HW227228   4.670   4.179   7.757  1.8568 -1.0856 -0.0400
 5199SOL     OW27229   0.838   3.941   5.723 -0.3351  0.3044  0.4092
 5199SOL    HW127230   0.885   3.974   5.646  0.1058 -3.0878 -0.8093
 5199SOL    HW227231   0.843   3.850   5.692  0.4758  0.7884 -0.9179
 5200SOL     OW27232   1.860   2.740   3.069  0.2904  0.0872 -0.6631
 5200SOL    HW127233   1.811   2.666   3.031  0.3542 -0.7328  0.8634
 5200SOL    HW227234   1.816   2.812   3.025  0.1746  0.6650  0.4157
 5201SOL     OW27235   0.723   1.382   8.242  0.4541 -0.2761 -0.2892
 5201SOL    HW127236   0.647   1.363   8.297  0.1740  1.4506 -0.0789
 5201SOL    HW227237   0.785   1.408   8.311 -0.5667  1.6291 -0.0977
 5202SOL     OW27238   2.984   3.340   4.227  0.0094 -0.3550  0.5065
 5202SOL    HW127239   3.050   3.386   4.175 -1.1247  1.2565  0.5195
 5202SOL    HW227240   2.961   3.419   4.275  1.4287  2.2105 -3.0599
 5203SOL     OW27241   0.143   2.039   8.202  0.1852 -0.2631 -0.5625
 5203SOL    HW127242   0.144   1.965   8.262 -1.2546 -0.2126 -0.4733
 5203SOL    HW227243   0.051   2.055   8.220  1.1668  1.6435  2.6792
 5204SOL     OW27244   0.079   2.821   4.117 -0.2852 -0.1049  0.1686
 5204SOL    HW127245   0.124   2.807   4.201 -0.9900 -2.6375  0.1154
 5204SOL    HW227246   0.115   2.902   4.081 -0.1806 -0.5075 -0.6285
 5205SOL     OW27247   4.550   2.339   2.137 -0.8562 -0.2239 -0.5165
 5205SOL    HW127248   4.513   2.268   2.189  1.3174  0.1998  1.6235
 5205SOL    HW227249   4.573   2.294   2.057 -0.3454  0.5938 -0.8281
 5206SOL     OW27250   0.270   1.299   6.420  0.7134  0.0148  0.2914
 5206SOL    HW127251   0.269   1.205   6.400 -1.4173 -0.1559  1.1558
 5206SOL    HW227252   0.365   1.305   6.432  0.4902  0.7575  1.7358
 5207SOL     OW27253   2.659   1.217   5.524 -0.1103 -0.4210  0.0190
 5207SOL    HW127254   2.640   1.237   5.432 -0.1352 -0.1285  0.0880
 5207SOL    HW227255   2.581   1.181   5.565 -2.1126 -0.2399 -3.6629
 5208SOL     OW27256   4.233   4.450   8.817  0.4138 -0.2466 -0.2431
 5208SOL    HW127257   4.232   4.545   8.834 -1.4596 -0.2952 -0.0816
 5208SOL    HW227258   4.143   4.442   8.786  0.5941 -0.8231 -0.6015
 5209SOL     OW27259   3.169   3.612   9.369  0.5625  0.2751 -0.2733
 5209SOL    HW127260   3.119   3.685   9.334 -0.4568  0.8856  2.4646
 5209SOL    HW227261   3.126   3.538   9.326 -1.2046  0.7232  0.7423
 5210SOL     OW27262   0.947   4.202   0.961  0.0166  0.4708  0.4246
 5210SOL    HW127263   1.008   4.152   1.017  0.4812 -0.1175 -0.6121
 5210SOL    HW227264   0.873   4.207   1.021 -0.4028 -0.8625  0.0244
 5211SOL     OW27265   0.032   4.416  12.689  0.5458 -0.1631 -0.5516
 5211SOL    HW127266   4.711   4.337  12.681  0.1634 -0.5397  5.4200
 5211SOL    HW227267   4.693   4.479  12.707  0.4544 -0.6781  0.8916
 5212SOL     OW27268   2.968   0.775  11.069 -0.0500  0.2573 -0.0049
 5212SOL    HW127269   3.053   0.813  11.093 -0.0716 -0.9793  2.0579
 5212SOL    HW227270   2.955   0.707  11.135 -2.1539 -0.0634 -0.7388
 5213SOL     OW27271   2.737   2.090   7.220  0.1332 -0.3972  0.1424
 5213SOL    HW127272   2.782   2.079   7.304 -2.2498 -1.8283  1.2127
 5213SOL    HW227273   2.729   2.185   7.221 -1.1070 -0.5005 -1.0303
 5214SOL     OW27274   4.480   0.478  16.622 -0.0524  0.3483  0.0925
 5214SOL    HW127275   4.459   0.423  16.698 -1.4661 -0.0544 -0.5942
 5214SOL    HW227276   4.466   0.559  16.671 -1.1511  0.4517 -0.3917
 5215SOL     OW27277   1.072   0.529  17.015 -0.2863 -0.4216  0.2529
 5215SOL    HW127278   1.150   0.573  17.049 -1.1332  0.4003  1.1678
 5215SOL    HW227279   1.113   0.479  16.945  0.7603  0.6693  0.0953
 5216SOL     OW27280   0.458   2.851   9.539  0.0353 -0.0201 -0.5115
 5216SOL    HW127281   0.521   2.862   9.610  1.5657  0.9291 -2.0186
 5216SOL    HW227282   0.503   2.785   9.488  1.1887  0.4075 -0.0358
 5217SOL     OW27283   4.628   4.299   0.609  0.1957  0.5054 -0.0624
 5217SOL    HW127284   4.676   4.373   0.647 -0.6848  1.3366 -0.5673
 5217SOL    HW227285   4.699   4.238   0.590 -0.8248 -0.9123  0.7413
 5218SOL     OW27286   4.342   3.228   2.098  0.6862  0.1828  0.1835
 5218SOL    HW127287   4.315   3.261   2.012  1.8662  0.7786  0.0530
 5218SOL    HW227288   4.259   3.235   2.146  0.7084 -1.6580  0.4940
 5219SOL     OW27289   1.475   1.493   9.924  0.9999 -0.0679  0.7844
 5219SOL    HW127290   1.560   1.472   9.963  1.6797 -0.5503 -0.9072
 5219SOL    HW227291   1.502   1.465   9.836 -0.8505  0.6574 -0.0140
 5220SOL     OW27292   3.563   1.463   1.357  0.0846  0.0641 -0.5071
 5220SOL    HW127293   3.491   1.488   1.299 -0.3902 -0.1229  0.0037
 5220SOL    HW227294   3.519   1.417   1.429 -0.1663  2.6531  0.9949
 5221SOL     OW27295   1.464   4.165   5.301  0.2410  0.0645 -0.3627
 5221SOL    HW127296   1.558   4.172   5.318  0.0872 -1.0399  1.0322
 5221SOL    HW227297   1.463   4.148   5.207 -0.6905  0.0100 -0.3440
 5222SOL     OW27298   1.948   1.069  16.934 -0.0076  0.2854 -0.1446
 5222SOL    HW127299   1.905   0.986  16.956  2.3451 -0.4121  1.7470
 5222SOL    HW227300   1.999   1.084  17.014  0.1384 -0.4122 -0.1097
 5223SOL     OW27301   0.746   1.992   8.076 -0.0128  0.5104  0.2320
 5223SOL    HW127302   0.668   1.990   8.132 -0.0504 -1.4691  0.1126
 5223SOL    HW227303   0.804   2.056   8.117  1.7761 -0.2358 -1.1330
 5224SOL     OW27304   0.895   3.854   7.746 -0.2471 -0.1590 -0.9982
 5224SOL    HW127305   0.984   3.881   7.772  0.1560  0.5788 -3.1727
 5224SOL    HW227306   0.890   3.791   7.818  1.8264  1.0622  0.2352
 5225SOL     OW27307   2.495   4.268  16.601 -0.5682 -0.2523  0.1767
 5225SOL    HW127308   2.475   4.190  16.652  1.6547 -0.9410 -0.0042
 5225SOL    HW227309   2.478   4.233  16.513 -2.4963 -1.2416  0.9353
 5226SOL     OW27310   2.014   2.673   5.270 -0.5531  0.3586 -0.5461
 5226SOL    HW127311   1.974   2.590   5.298 -0.2180  0.6552  0.7781
 5226SOL    HW227312   2.040   2.647   5.182  0.9476  1.0542 -0.3046
 5227SOL     OW27313   1.972   4.313   3.977  0.2150  0.0263 -0.2568
 5227SOL    HW127314   1.943   4.404   3.984 -0.9157 -0.4254  0.9114
 5227SOL    HW227315   1.964   4.301   3.883 -0.8591 -0.9884 -0.0323
 5228SOL     OW27316   0.502   1.495   1.659 -0.0062 -0.5257  0.4016
 5228SOL    HW127317   0.481   1.546   1.581 -2.7338 -0.4022  1.2099
 5228SOL    HW227318   0.532   1.411   1.626 -2.0244 -0.9180 -0.4371
 5229SOL     OW27319   1.607   1.083   1.387 -0.0450 -0.0147  0.5571
 5229SOL    HW127320   1.515   1.058   1.379 -0.2647  0.8384  0.4856
 5229SOL    HW227321   1.600   1.178   1.377 -2.1240 -0.2278  0.0126
 5230SOL     OW27322   1.149   3.762   1.664  0.6982  0.2082  0.2563
 5230SOL    HW127323   1.061   3.754   1.702  1.4333  2.1488  2.3718
 5230SOL    HW227324   1.197   3.805   1.734 -0.1270  0.5090  0.6369
 5231SOL     OW27325   0.383   1.065   6.253 -0.1450  1.1227  0.7804
 5231SOL    HW127326   0.335   1.102   6.179 -0.2661 -0.2162  0.1839
 5231SOL    HW227327   0.438   0.997   6.214 -1.9698 -1.1390  2.1642
 5232SOL     OW27328   1.517   3.924   0.143 -0.2753 -0.3080  0.1486
 5232SOL    HW127329   1.612   3.928   0.154 -0.1660  0.7532 -1.2128
 5232SOL    HW227330   1.484   3.991   0.203 -0.8525 -0.8012  0.3930
 5233SOL     OW27331   0.188   0.237   0.584  0.1545  0.7726 -0.2860
 5233SOL    HW127332   0.240   0.311   0.551 -0.3291  2.5893  2.9850
 5233SOL    HW227333   0.104   0.283   0.597 -0.1863  0.5013 -1.5878
 5234SOL     OW27334   4.507   2.066  13.839  0.3269  0.0357 -0.7061
 5234SOL    HW127335   4.504   1.985  13.788 -2.5748  1.0295 -2.1729
 5234SOL    HW227336   4.594   2.099  13.820  0.7356 -0.2237  0.7294
 5235SOL     OW27337   4.578   1.722   2.081  0.6040  0.2849 -0.9143
 5235SOL    HW127338   4.673   1.725   2.070  0.4729  1.3595 -1.7347
 5235SOL    HW227339   4.568   1.627   2.076  1.2055  0.1302  1.0939
 5236SOL     OW27340   1.528   3.712   5.601  0.4606  0.6743  0.4029
 5236SOL    HW127341   1.465   3.641   5.610  1.3020 -0.0981  0.0945
 5236SOL    HW227342   1.563   3.716   5.690 -1.1375 -1.5570  1.1299
 5237SOL     OW27343   1.762   0.252   4.074  0.8251 -0.0135 -0.0928
 5237SOL    HW127344   1.738   0.294   3.992 -1.1661 -2.8492 -0.9513
 5237SOL    HW227345   1.719   0.304   4.143  0.5223 -0.8913  0.3773
 5238SOL     OW27346   0.925   2.348   9.232 -0.9641  0.4220 -0.2668
 5238SOL    HW127347   0.947   2.256   9.216  0.3151  0.7883 -0.5898
 5238SOL    HW227348   1.007   2.393   9.253  0.1782 -1.3633 -0.9073
 5239SOL     OW27349   1.253   1.030  16.797 -0.1432 -0.3305 -0.0057
 5239SOL    HW127350   1.240   1.038  16.703 -2.0616  0.8205  0.3533
 5239SOL    HW227351   1.171   0.987  16.821  0.9315 -2.0545  0.5499
 5240SOL     OW27352   3.513   0.283   1.800  0.3301  0.1441 -0.0145
 5240SOL    HW127353   3.542   0.270   1.710 -1.4634  1.7572 -0.8359
 5240SOL    HW227354   3.467   0.201   1.817  0.4385  0.3794  1.3822
 5241SOL     OW27355   2.295   0.010   6.049  0.8759 -0.2876 -0.5621
 5241SOL    HW127356   2.349   4.700   6.115  0.2692 -0.6388 -0.2804
 5241SOL    HW227357   2.333   0.097   6.044 -0.2593  0.2748  0.5923
 5242SOL     OW27358   3.205   2.315   5.729 -0.1252  0.2652 -0.3123
 5242SOL    HW127359   3.251   2.372   5.668  1.4194  0.5030  1.0643
 5242SOL    HW227360   3.163   2.261   5.662  0.3300 -0.5350  0.0461
 5243SOL     OW27361   2.838   2.055   6.516 -0.0643  0.0001  0.8015
 5243SOL    HW127362   2.753   2.099   6.525  0.3473  0.4723  2.3547
 5243SOL    HW227363   2.898   2.101   6.574  0.8887 -0.7203  0.3891
 5244SOL     OW27364   1.873   3.638   3.654 -0.3084 -0.0329 -0.3400
 5244SOL    HW127365   1.959   3.651   3.614 -0.6457  1.4258 -0.5757
 5244SOL    HW227366   1.826   3.713   3.618 -0.6665  0.8534  2.0044
 5245SOL     OW27367   0.751   1.239  10.421 -0.0639 -0.3507  0.2463
 5245SOL    HW127368   0.753   1.147  10.447  2.4232 -0.8418 -1.7322
 5245SOL    HW227369   0.767   1.226  10.327 -1.8274 -0.2765 -0.0547
 5246SOL     OW27370   3.199   2.102   8.674 -0.5834 -0.0611  0.0948
 5246SOL    HW127371   3.221   2.042   8.746 -0.6912  0.5211  0.6164
 5246SOL    HW227372   3.250   2.179   8.698 -1.7761  1.2207 -1.5456
 5247SOL     OW27373   0.724   0.628   4.740  0.9749  0.1546  0.5492
 5247SOL    HW127374   0.697   0.674   4.661  0.3187  0.7093  1.0890
 5247SOL    HW227375   0.693   0.539   4.721 -1.1626  0.9395  0.4612
 5248SOL     OW27376   0.021   0.678  11.167 -0.1768 -0.3465  0.1335
 5248SOL    HW127377   0.107   0.700  11.203 -0.2224  0.8014 -0.4709
 5248SOL    HW227378   4.686   0.741  11.198  0.5953  0.8139 -0.5926
 5249SOL     OW27379   2.586   4.177   6.420  0.0126  0.2205 -0.2681
 5249SOL    HW127380   2.593   4.253   6.363 -0.8173  0.8507  0.4734
 5249SOL    HW227381   2.514   4.198   6.480  0.0053 -1.8184  0.4268
 5250SOL     OW27382   3.814   3.563   6.546 -0.2498 -0.5679  0.4374
 5250SOL    HW127383   3.772   3.551   6.632 -0.7333  1.8610  0.5487
 5250SOL    HW227384   3.838   3.656   6.539 -1.7445 -0.0599  1.9414
 5251SOL     OW27385   1.599   2.224   6.007  0.3531  0.3822  0.6957
 5251SOL    HW127386   1.562   2.302   6.049  0.4887 -0.2420  1.9919
 5251SOL    HW227387   1.553   2.230   5.924  0.0405 -1.5813  0.7417
 5252SOL     OW27388   1.528   0.857   2.480  0.5467  0.2303  0.7792
 5252SOL    HW127389   1.619   0.879   2.500  1.3589 -0.2790 -2.3268
 5252SOL    HW227390   1.535   0.762   2.480 -0.8371  0.1333 -2.2581
 5253SOL     OW27391   3.369   0.692  10.720 -0.7546 -0.0195  0.3507
 5253SOL    HW127392   3.311   0.664  10.791  0.3830 -1.8249  0.5945
 5253SOL    HW227393   3.432   0.620  10.731 -0.0110  0.6352  0.4076
 5254SOL     OW27394   0.753   4.594   2.383  0.5724 -0.3610 -0.2558
 5254SOL    HW127395   0.799   4.527   2.436  1.6081 -0.5829 -1.4347
 5254SOL    HW227396   0.659   4.579   2.382  0.7842 -1.5606 -1.8189
 5255SOL     OW27397   1.679   0.076   1.918  0.0731 -0.4980 -0.1275
 5255SOL    HW127398   1.613   0.115   1.976  0.2676  1.3673 -1.1639
 5255SOL    HW227399   1.646   4.718   1.913 -0.7150 -0.1265 -1.6250
 5256SOL     OW27400   2.230   2.038   5.267 -0.2271  0.6889 -0.4521
 5256SOL    HW127401   2.302   1.999   5.218  0.5116  0.9076  0.4489
 5256SOL    HW227402   2.274   2.118   5.295  0.7693 -0.8657  2.4193
 5257SOL     OW27403   2.646   0.085  13.981 -0.7412  0.1820 -0.4007
 5257SOL    HW127404   2.690   0.016  13.931 -0.2029  0.9448 -0.9872
 5257SOL    HW227405   2.572   0.115  13.928 -1.3669 -2.6639 -1.1080
 5258SOL     OW27406   4.714   3.014   8.068 -0.4917 -0.6457 -0.1306
 5258SOL    HW127407   0.033   2.949   8.117  2.8546  0.5811 -1.9185
 5258SOL    HW227408   4.655   2.962   8.013  1.0716 -1.4452 -1.0472
 5259SOL     OW27409   1.196   3.462   7.654 -0.1180 -0.0263 -0.1870
 5259SOL    HW127410   1.206   3.369   7.673 -1.3803  0.1646  1.3282
 5259SOL    HW227411   1.121   3.476   7.712 -0.7885  1.1139 -1.3350
 5260SOL     OW27412   0.508   3.782   7.909  0.0577  0.1458  0.4640
 5260SOL    HW127413   0.541   3.870   7.928  0.4553  0.5134 -1.9099
 5260SOL    HW227414   0.568   3.730   7.964 -0.5525  1.8761  2.7874
 5261SOL     OW27415   3.571   0.610   8.237  0.4383  0.0948 -0.2028
 5261SOL    HW127416   3.599   0.543   8.299 -2.3715 -1.1414 -0.3111
 5261SOL    HW227417   3.618   0.690   8.261  0.4742 -0.2359  0.8362
 5262SOL     OW27418   2.058   3.327   7.284  0.6144  0.3323  0.2343
 5262SOL    HW127419   2.126   3.346   7.349  0.3811 -0.9908  0.8569
 5262SOL    HW227420   2.082   3.237   7.263  0.5109  0.2868  0.3142
 5263SOL     OW27421   1.320   3.113  10.185 -0.2769  0.0640  0.7445
 5263SOL    HW127422   1.378   3.189  10.192  0.0333 -0.1807  0.8205
 5263SOL    HW227423   1.374   3.055  10.238  1.3674 -0.5235 -1.5646
 5264SOL     OW27424   3.174   1.825   5.829  0.1097 -0.0558  0.0188
 5264SOL    HW127425   3.206   1.765   5.897 -0.3443  0.3597  0.5930
 5264SOL    HW227426   3.258   1.843   5.786  1.3798  0.2992  2.6520
 5265SOL     OW27427   3.671   2.998  10.107 -0.1467  0.0649 -0.3621
 5265SOL    HW127428   3.680   3.093  10.120 -1.3610  0.4070 -2.1453
 5265SOL    HW227429   3.585   2.985  10.145  1.1425 -2.2940  1.7076
 5266SOL     OW27430   0.719   3.518   2.867 -0.0797 -0.0802  0.2237
 5266SOL    HW127431   0.690   3.567   2.944 -0.8610  0.8987 -0.6986
 5266SOL    HW227432   0.644   3.542   2.813  0.3794  1.5239  0.2787
 5267SOL     OW27433   1.636   2.337   4.687  0.8124  0.0629 -0.0788
 5267SOL    HW127434   1.626   2.355   4.780  1.6180 -1.0966  0.2359
 5267SOL    HW227435   1.552   2.361   4.649  0.3692  0.3394  1.0852
 5268SOL     OW27436   0.480   0.778   7.085 -0.4142  0.0878  0.1789
 5268SOL    HW127437   0.546   0.722   7.043 -1.2467 -0.5498 -0.2786
 5268SOL    HW227438   0.519   0.785   7.172 -1.4744  0.8913  0.5768
 5269SOL     OW27439   0.157   0.269   2.898 -0.3887  0.0668  0.2571
 5269SOL    HW127440   0.181   0.328   2.826 -0.1624 -1.9366 -1.3148
 5269SOL    HW227441   0.101   0.210   2.848 -1.5839  2.8669 -1.7836
 5270SOL     OW27442   2.492   3.775   2.947  0.2722  0.1586  0.1842
 5270SOL    HW127443   2.484   3.865   2.978  0.8281 -0.1638  1.2799
 5270SOL    HW227444   2.585   3.785   2.968  0.0715 -0.3996  1.3925
 5271SOL     OW27445   0.980   1.925   2.481 -0.0189 -0.1618  0.0627
 5271SOL    HW127446   0.979   1.853   2.545  0.5573  0.2383  0.5262
 5271SOL    HW227447   0.887   1.942   2.465 -0.3259 -0.3355  1.6558
 5272SOL     OW27448   1.616   0.363   6.476  0.5381 -0.4246  0.2236
 5272SOL    HW127449   1.693   0.313   6.501 -0.2455 -0.9777  1.5369
 5272SOL    HW227450   1.592   0.334   6.388  0.5777 -0.6250  0.2797
 5273SOL     OW27451   1.428   4.608   6.921  0.0696  0.4440  0.2376
 5273SOL    HW127452   1.521   4.592   6.937 -0.5775 -1.1299  2.4395
 5273SOL    HW227453   1.424   4.701   6.943 -0.3507  0.2293  1.0447
 5274SOL     OW27454   2.636   0.114   4.741  0.4951 -0.0654 -0.3954
 5274SOL    HW127455   2.656   0.193   4.790 -1.3635  1.2696 -1.7661
 5274SOL    HW227456   2.697   0.122   4.668  0.9703  2.1125  0.2478
 5275SOL     OW27457   1.731   3.667   3.238 -0.3110  0.4701  0.0647
 5275SOL    HW127458   1.699   3.717   3.312  3.9917 -0.2707  2.3830
 5275SOL    HW227459   1.692   3.580   3.242  1.4529 -0.4491 -1.9891
 5276SOL     OW27460   4.250   2.760   3.045  0.2516  0.5278  0.4482
 5276SOL    HW127461   4.286   2.788   2.960 -0.9583  2.0559  0.4428
 5276SOL    HW227462   4.298   2.679   3.063 -1.0631  0.0121  1.5745
 5277SOL     OW27463   0.744   1.545  17.168 -0.3117  0.4236 -0.3725
 5277SOL    HW127464   0.691   1.470  17.141 -0.1052  0.3891 -0.6842
 5277SOL    HW227465   0.695   1.621  17.135 -1.8022 -0.4904 -0.2475
 5278SOL     OW27466   4.588   4.544   8.867 -0.1418  0.1891 -0.1346
 5278SOL    HW127467   4.583   4.532   8.772  1.7077  2.4945 -0.5363
 5278SOL    HW227468   4.563   4.636   8.879  1.2125  0.6198 -0.6411
 5279SOL     OW27469   0.468   1.438   9.624 -0.1776  0.7837  0.4579
 5279SOL    HW127470   0.524   1.409   9.696 -1.5957 -0.1354  1.1743
 5279SOL    HW227471   0.530   1.496   9.579  0.6863  0.2893  1.0005
 5280SOL     OW27472   1.425   2.992   1.695  0.0611  0.6709  0.0277
 5280SOL    HW127473   1.416   3.058   1.626 -1.6307  2.0452  1.5622
 5280SOL    HW227474   1.342   2.998   1.741 -0.0402  0.4424 -0.1238
 5281SOL     OW27475   3.662   4.104   2.610  0.1649 -0.0059  0.6409
 5281SOL    HW127476   3.603   4.149   2.549  2.4664 -0.4721 -1.9385
 5281SOL    HW227477   3.645   4.014   2.583 -1.3053  0.7830 -1.0463
 5282SOL     OW27478   4.327   2.687   3.398  0.7609  0.2045  0.7812
 5282SOL    HW127479   4.357   2.665   3.310 -1.0867  0.2844  0.1213
 5282SOL    HW227480   4.292   2.776   3.393  0.9450  0.2558  0.4083
 5283SOL     OW27481   4.440   4.260   9.281  0.1971 -0.4912 -0.5789
 5283SOL    HW127482   4.366   4.313   9.311 -0.4980 -1.6731 -0.1844
 5283SOL    HW227483   4.466   4.307   9.202 -1.3703 -0.7700 -1.2593
 5284SOL     OW27484   1.671   1.737   8.683 -0.4121  0.5065  0.0464
 5284SOL    HW127485   1.634   1.672   8.742 -0.2844  2.0215  1.7872
 5284SOL    HW227486   1.639   1.696   8.603 -1.4370  3.7477 -1.1956
 5285SOL     OW27487   2.774   1.661   8.665  0.3859 -0.3549  0.2940
 5285SOL    HW127488   2.750   1.751   8.644  1.2651  0.2501  1.8677
 5285SOL    HW227489   2.847   1.645   8.605  0.3861 -2.6352  0.8793
 5286SOL     OW27490   2.256   2.101   8.367  0.5781  0.4359  0.0561
 5286SOL    HW127491   2.187   2.126   8.428  0.8471  3.1926 -0.7911
 5286SOL    HW227492   2.255   2.161   8.292  1.7708 -0.5592 -0.7624
 5287SOL     OW27493   1.254   0.763   8.354 -0.0329 -0.3335 -0.2314
 5287SOL    HW127494   1.228   0.700   8.287  0.6014  1.3265 -2.0465
 5287SOL    HW227495   1.174   0.755   8.406 -1.1482  0.1165 -1.9031
 5288SOL     OW27496   2.424   1.780  13.454  0.0652 -0.4405  0.0200
 5288SOL    HW127497   2.432   1.875  13.464 -0.3649 -0.1575 -2.3583
 5288SOL    HW227498   2.409   1.755  13.545 -0.9103  0.9911  0.2518
 5289SOL     OW27499   3.177   0.565   9.019  0.1014 -0.3615  0.2156
 5289SOL    HW127500   3.167   0.653   9.055 -0.2353  0.4515 -1.8731
 5289SOL    HW227501   3.188   0.514   9.099 -0.0183 -0.8677 -0.0880
 5290SOL     OW27502   3.065   0.195   2.643  0.0806  0.0895 -0.3110
 5290SOL    HW127503   3.112   0.143   2.578 -2.6942 -1.2933 -1.2200
 5290SOL    HW227504   3.097   0.150   2.721  0.8528 -1.6107 -1.6086
 5291SOL     OW27505   2.493   2.587  13.175  0.0246  0.7125 -0.0470
 5291SOL    HW127506   2.478   2.502  13.133 -2.7512  1.2099 -0.1126
 5291SOL    HW227507   2.518   2.555  13.261  1.7242  1.4252 -0.2785
 5292SOL     OW27508   3.654   4.510   2.178  0.4912 -0.1189 -0.7870
 5292SOL    HW127509   3.726   4.557   2.136  0.5640  0.2733 -0.2112
 5292SOL    HW227510   3.649   4.427   2.130 -1.7525 -0.4000 -0.0479
 5293SOL     OW27511   3.891   3.987   3.381 -0.2225 -0.1028 -0.7482
 5293SOL    HW127512   3.927   3.904   3.350  0.2687 -0.7128  1.3969
 5293SOL    HW227513   3.856   3.964   3.467  0.0682 -1.7658 -1.0792
 5294SOL     OW27514   2.798   3.289   2.748  0.6727  0.0914 -0.9766
 5294SOL    HW127515   2.808   3.224   2.678 -0.2571 -1.0273 -0.0759
 5294SOL    HW227516   2.819   3.236   2.825 -0.5625  0.7493 -0.1877
 5295SOL     OW27517   1.609   0.980   9.370  0.3817 -0.5893 -0.0526
 5295SOL    HW127518   1.534   0.933   9.406  0.5312 -1.1165 -0.4259
 5295SOL    HW227519   1.630   1.043   9.439  1.9337  0.2973 -1.3372
 5296SOL     OW27520   1.432   0.442   1.337 -0.2082  0.6152  0.2843
 5296SOL    HW127521   1.432   0.534   1.361 -0.5083  0.5021  0.7292
 5296SOL    HW227522   1.368   0.401   1.396  2.1426  0.1347  2.5022
 5297SOL     OW27523   3.625   3.680   4.377  0.0326  0.0504  0.1936
 5297SOL    HW127524   3.539   3.648   4.349 -0.0377 -1.0817  1.6944
 5297SOL    HW227525   3.618   3.676   4.473  1.0771  0.2259  0.2708
 5298SOL     OW27526   0.793   3.865   9.346 -0.4148 -0.3459 -0.1553
 5298SOL    HW127527   0.833   3.944   9.382  1.7746 -0.7645 -1.6407
 5298SOL    HW227528   0.786   3.812   9.425  0.2080  0.7327  0.6264
 5299SOL     OW27529   4.167   3.869   9.646 -0.0534  0.6907  0.1169
 5299SOL    HW127530   4.144   3.857   9.739 -2.2693  1.4681 -0.3315
 5299SOL    HW227531   4.081   3.894   9.613 -0.2877 -0.2151  0.0463
 5300SOL     OW27532   4.237   0.715   4.928  0.1234  0.5786 -0.1786
 5300SOL    HW127533   4.279   0.800   4.914 -1.5482  0.9368 -2.8887
 5300SOL    HW227534   4.160   0.726   4.873 -1.0288 -2.9699  0.7087
 5301SOL     OW27535   2.338   3.486   3.364  0.1814 -0.2795 -0.3811
 5301SOL    HW127536   2.363   3.473   3.272 -0.4435 -0.8798 -0.4681
 5301SOL    HW227537   2.244   3.506   3.359  0.9901  3.3533 -1.1392
 5302SOL     OW27538   3.187   0.890   6.580  0.0132  0.4274  0.1976
 5302SOL    HW127539   3.107   0.866   6.533  0.0736 -1.9437  1.3282
 5302SOL    HW227540   3.220   0.950   6.513  1.4848  0.6416  1.1023
 5303SOL     OW27541   3.057   3.724   6.371 -0.4354 -0.4751 -0.7146
 5303SOL    HW127542   3.064   3.764   6.458  0.8354 -0.6876 -0.7097
 5303SOL    HW227543   3.012   3.791   6.321 -0.1278 -2.1193 -3.2088
 5304SOL     OW27544   3.149   0.667   8.497  0.3038 -0.0704  0.1225
 5304SOL    HW127545   3.231   0.710   8.518  1.5740 -1.9181 -1.0494
 5304SOL    HW227546   3.113   0.660   8.586 -3.3355 -2.6373 -1.5536
 5305SOL     OW27547   1.136   3.038   3.459  0.0064  0.0047  0.0522
 5305SOL    HW127548   1.126   3.052   3.553  0.2945  1.1510 -0.0903
 5305SOL    HW227549   1.171   3.123   3.434  0.2591 -0.1848 -0.2420
 5306SOL     OW27550   0.909   4.531   2.171 -0.6728  0.7945 -0.1421
 5306SOL    HW127551   0.878   4.575   2.250 -0.0269  0.2852  0.3972
 5306SOL    HW227552   0.998   4.504   2.194 -1.1770 -1.5177 -0.8771
 5307SOL     OW27553   4.240   2.811   7.074 -0.0853  0.0850 -0.0687
 5307SOL    HW127554   4.220   2.731   7.124 -3.6760  1.0801  0.1106
 5307SOL    HW227555   4.227   2.777   6.986 -1.9361 -2.2468  1.1049
 5308SOL     OW27556   2.059   2.815   7.522  0.1723 -0.4161 -0.2717
 5308SOL    HW127557   1.990   2.754   7.549 -0.8595  0.4758 -0.8839
 5308SOL    HW227558   2.100   2.763   7.452  1.1907  0.6863 -0.5065
 5309SOL     OW27559   0.938   1.454   8.465 -0.0433  0.3092 -0.0164
 5309SOL    HW127560   1.015   1.472   8.520 -1.7533  1.3707  1.9915
 5309SOL    HW227561   0.945   1.535   8.415 -1.0734  1.4558  1.7391
 5310SOL     OW27562   4.213   1.658   8.604 -0.3081  0.2768 -0.2126
 5310SOL    HW127563   4.128   1.625   8.575  1.4570 -3.1677 -1.4608
 5310SOL    HW227564   4.214   1.670   8.699  0.6715 -2.2152  0.1060
 5311SOL     OW27565   4.163   4.697   6.745 -0.0478 -0.2661  0.0848
 5311SOL    HW127566   4.237   4.649   6.782 -0.7545 -1.2052  0.2852
 5311SOL    HW227567   4.191   0.055   6.764 -0.0470  0.0686 -1.4886
 5312SOL     OW27568   1.320   4.006   2.956 -0.1147  0.0357  0.4494
 5312SOL    HW127569   1.399   4.059   2.968 -1.2383  1.6941  0.5565
 5312SOL    HW227570   1.366   3.928   2.927 -0.1145 -0.3599  1.4997
 5313SOL     OW27571   3.918   2.617   6.555  0.0023 -0.2567 -0.4887
 5313SOL    HW127572   3.831   2.622   6.595  0.3444 -0.3858  0.2795
 5313SOL    HW227573   3.918   2.528   6.522  0.1902 -0.6075  0.4585
 5314SOL     OW27574   2.532   2.895   7.869 -0.1417  0.6214 -0.2121
 5314SOL    HW127575   2.465   2.964   7.874  1.1997  1.6975  2.4488
 5314SOL    HW227576   2.610   2.946   7.847 -1.5317  2.8080 -0.1254
 5315SOL     OW27577   1.125   4.562  15.869  0.6522  0.1030  0.7884
 5315SOL    HW127578   1.129   4.586  15.961  0.7906 -1.8443  1.2945
 5315SOL    HW227579   1.093   4.472  15.872 -2.4759  1.2822  2.5321
 5316SOL     OW27580   1.610   3.981  17.336 -0.0682 -0.4833  0.1721
 5316SOL    HW127581   1.679   3.915  17.346 -1.5187 -1.9285  0.5601
 5316SOL    HW227582   1.539   3.923  17.309  0.5381 -0.6076 -1.1541
 5317SOL     OW27583   4.435   2.165  14.790  0.0608 -0.5186  0.1354
 5317SOL    HW127584   4.403   2.218  14.717 -0.1847 -0.9064 -0.0420
 5317SOL    HW227585   4.455   2.237  14.849  0.5142 -0.6428  0.1362
 5318SOL     OW27586   4.285   4.656  13.184  0.5266 -0.4559 -0.5274
 5318SOL    HW127587   4.204   4.610  13.160  1.2874 -1.3255 -1.4480
 5318SOL    HW227588   4.347   4.583  13.174  0.7370 -0.1494 -1.4044
 5319SOL     OW27589   4.087   0.323   4.397  0.2708 -0.7210 -0.0817
 5319SOL    HW127590   4.106   0.272   4.319 -1.3099 -0.5551 -0.5692
 5319SOL    HW227591   4.107   0.256   4.462  0.5447  0.5430  1.1502
 5320SOL     OW27592   4.332   2.362   6.504 -0.4988 -0.1001 -0.5606
 5320SOL    HW127593   4.300   2.437   6.454  1.0565  1.2478  0.4549
 5320SOL    HW227594   4.421   2.390   6.524 -0.6748 -0.2915  0.5109
 5321SOL     OW27595   1.543   3.386   6.307  0.5116 -0.0596 -0.4185
 5321SOL    HW127596   1.561   3.480   6.313  1.5033 -0.3555  1.0971
 5321SOL    HW227597   1.449   3.384   6.324  0.4835  2.9790 -0.1818
 5322SOL     OW27598   0.606   3.186   4.729  0.5323 -0.0671 -0.1065
 5322SOL    HW127599   0.678   3.242   4.699  0.7158  0.4980  1.3865
 5322SOL    HW227600   0.541   3.255   4.744  1.6039  1.0387 -0.4597
 5323SOL     OW27601   3.221   0.236   4.236  0.4184 -0.2022  0.8845
 5323SOL    HW127602   3.189   0.314   4.189  1.4016 -0.1155  0.3676
 5323SOL    HW227603   3.313   0.259   4.226  0.4474 -1.1661 -0.9540
 5324SOL     OW27604   4.578   3.143  17.477  0.6832 -0.0623 -0.7674
 5324SOL    HW127605   4.648   3.080  17.462  0.4773 -0.7479  1.1947
 5324SOL    HW227606   4.619   3.221  17.514  1.3209 -0.4352 -0.6936
 5325SOL     OW27607   0.976   2.321   4.032  0.0178 -0.0174 -0.2184
 5325SOL    HW127608   0.958   2.231   4.004  1.7726 -0.1209 -1.0372
 5325SOL    HW227609   0.986   2.370   3.950 -0.5028 -1.0633 -0.9138
 5326SOL     OW27610   0.667   0.265  11.827  0.0966  0.2037  0.1838
 5326SOL    HW127611   0.739   0.317  11.861 -0.2707 -0.1070  1.4441
 5326SOL    HW227612   0.673   0.288  11.735 -2.2340  1.2285  0.2910
 5327SOL     OW27613   2.543   0.906  12.883 -0.7482 -0.4044  0.2998
 5327SOL    HW127614   2.576   0.996  12.879 -1.8561 -0.0606 -0.9234
 5327SOL    HW227615   2.448   0.917  12.876 -0.3628  2.8515  0.2081
 5328SOL     OW27616   0.882   0.873   9.351  0.1828 -0.0108 -0.0489
 5328SOL    HW127617   0.941   0.800   9.332 -0.0051  0.0842 -0.9929
 5328SOL    HW227618   0.798   0.828   9.361 -0.6561  1.5503 -0.0198
 5329SOL     OW27619   0.396   4.655  10.411  0.1666 -0.4321  0.1603
 5329SOL    HW127620   0.388   4.567  10.447  0.0210 -2.0262 -3.7446
 5329SOL    HW227621   0.390   4.630  10.318  2.2285 -0.8737  0.1488
 5330SOL     OW27622   0.626   3.100   4.084 -0.0928  0.4030  0.4330
 5330SOL    HW127623   0.557   3.163   4.106  0.5356  1.3795 -0.3764
 5330SOL    HW227624   0.696   3.131   4.141 -0.2978 -1.0543  1.4573
 5331SOL     OW27625   1.649   3.729   9.721 -0.0530 -0.2759  0.5235
 5331SOL    HW127626   1.566   3.685   9.700  0.1791  1.1344 -3.2946
 5331SOL    HW227627   1.617   3.785   9.792  0.2686 -2.1507  2.1531
 5332SOL     OW27628   0.743   1.986   9.920 -0.3779  0.1702  0.0986
 5332SOL    HW127629   0.826   1.991   9.872 -0.9778 -1.4631 -1.1296
 5332SOL    HW227630   0.773   1.925   9.987  1.2460  1.6693  0.7154
 5333SOL     OW27631   3.378   1.782   9.060 -0.1707 -0.4010 -0.0420
 5333SOL    HW127632   3.384   1.838   9.137 -1.7961 -1.0623  0.5473
 5333SOL    HW227633   3.450   1.725   9.087  1.7039  1.8887 -0.1363
 5334SOL     OW27634   0.053   0.271  16.699  0.7925  0.3999 -0.2889
 5334SOL    HW127635   0.133   0.245  16.745  0.1357 -1.4876 -0.1746
 5334SOL    HW227636   0.056   0.363  16.724 -2.6293  0.7061 -1.0023
 5335SOL     OW27637   1.760   3.350  10.168 -0.2759 -0.0522  0.3631
 5335SOL    HW127638   1.751   3.375  10.260  1.9492  0.0985  0.5524
 5335SOL    HW227639   1.806   3.266  10.167 -2.2945 -1.1793  3.1546
 5336SOL     OW27640   1.280   0.843   2.605 -0.3943 -0.2941 -0.3816
 5336SOL    HW127641   1.369   0.843   2.569 -0.3921 -2.2950 -0.3873
 5336SOL    HW227642   1.227   0.807   2.534 -1.1521  0.5413 -0.2434
 5337SOL     OW27643   1.811   0.501   2.151 -0.1417  0.5586 -0.5474
 5337SOL    HW127644   1.899   0.526   2.122  0.4733  0.0276  0.8701
 5337SOL    HW227645   1.775   0.445   2.082  2.5691 -3.5517  1.4171
 5338SOL     OW27646   3.399   2.594   1.915  0.4260  0.7577  0.1474
 5338SOL    HW127647   3.357   2.511   1.935 -1.7028  1.2751 -2.2801
 5338SOL    HW227648   3.409   2.627   2.005  0.2965  1.3475 -0.0556
 5339SOL     OW27649   2.276   0.698   7.616 -0.1508 -0.0947  0.5876
 5339SOL    HW127650   2.216   0.663   7.681 -1.1076 -0.0888 -0.2879
 5339SOL    HW227651   2.330   0.620   7.607  1.6766  0.8560  3.4875
 5340SOL     OW27652   2.190   4.118  14.742  0.3650 -0.6299 -0.7750
 5340SOL    HW127653   2.150   4.134  14.828  1.2600  0.0172 -0.4869
 5340SOL    HW227654   2.124   4.125  14.673  0.7171  1.4569 -0.8976
 5341SOL     OW27655   0.069   2.468  16.139 -0.1766 -0.1234 -0.2678
 5341SOL    HW127656   0.105   2.557  16.145  0.6625 -0.3947 -1.1896
 5341SOL    HW227657   0.090   2.447  16.230 -0.0205 -0.0688 -0.2906
 5342SOL     OW27658   0.002   0.827   7.690 -0.2835  0.5168 -0.4027
 5342SOL    HW127659   4.669   0.762   7.661  0.5437 -0.6106  0.3159
 5342SOL    HW227660   4.686   0.881   7.754 -0.0214  1.0764 -0.6832
 5343SOL     OW27661   4.083   1.338   6.546  0.0981  0.0554 -0.3340
 5343SOL    HW127662   4.054   1.267   6.490 -0.7805 -0.0005  0.1830
 5343SOL    HW227663   4.003   1.391   6.554  1.2874  1.7219  0.4936
 5344SOL     OW27664   0.409   0.540   4.131 -0.5382 -0.1877 -0.0449
 5344SOL    HW127665   0.347   0.563   4.063  0.8181  0.2735 -1.1292
 5344SOL    HW227666   0.356   0.551   4.210  0.5784 -0.3939  0.7405
 5345SOL     OW27667   4.038   0.789   4.767  0.0556  0.2925  0.2379
 5345SOL    HW127668   3.987   0.843   4.707 -0.3719 -0.5321 -0.1405
 5345SOL    HW227669   4.014   0.830   4.850  0.3097 -1.5083  1.2163
 5346SOL     OW27670   1.397   4.293   7.095 -0.1365 -0.2507 -0.1284
 5346SOL    HW127671   1.470   4.350   7.071 -0.9196  0.1297 -1.6110
 5346SOL    HW227672   1.449   4.215   7.115  0.0886  0.0608  0.5072
 5347SOL     OW27673   0.186   2.402  17.452  0.3141  0.6168  1.1366
 5347SOL    HW127674   0.185   2.494  17.423 -3.6039  0.1407 -0.3322
 5347SOL    HW227675   0.109   2.399  17.509  0.2175 -1.5407  0.8922
 5348SOL     OW27676   0.504   4.023   1.013  0.2411 -0.5253  0.3097
 5348SOL    HW127677   0.447   4.057   0.944  1.3242 -0.1126 -0.3716
 5348SOL    HW227678   0.442   3.972   1.066 -0.5692  0.4239  0.2778
 5349SOL     OW27679   4.619   2.059   2.257 -0.1946 -0.0631 -0.4691
 5349SOL    HW127680   4.675   2.009   2.198  0.1958 -0.2612  0.0651
 5349SOL    HW227681   4.549   1.997   2.275 -0.0103 -0.1431 -0.0215
 5350SOL     OW27682   0.274   0.829   7.732 -0.0394 -0.1148 -0.2965
 5350SOL    HW127683   0.180   0.837   7.720  0.0544 -0.5469 -1.3696
 5350SOL    HW227684   0.279   0.799   7.822  1.9202 -0.8492 -0.6391
 5351SOL     OW27685   1.502   1.740   3.449  0.4157 -0.1374  0.1800
 5351SOL    HW127686   1.447   1.669   3.417 -0.8876  1.6503 -1.6020
 5351SOL    HW227687   1.585   1.693   3.451  0.9838  0.9017  1.0104
 5352SOL     OW27688   1.008   2.544   9.620  0.7445  1.0755  0.2406
 5352SOL    HW127689   1.013   2.561   9.714  0.1522  1.1273  0.2616
 5352SOL    HW227690   1.101   2.533   9.600  0.8706  1.4923  0.5898
 5353SOL     OW27691   1.325   0.867   7.765  0.4179 -0.2421  0.0413
 5353SOL    HW127692   1.353   0.827   7.848 -0.1148  0.2942  0.4746
 5353SOL    HW227693   1.241   0.906   7.788  0.3095 -0.6221  0.2922
 5354SOL     OW27694   1.208   1.301   8.392 -0.2759  0.0534  0.3182
 5354SOL    HW127695   1.241   1.211   8.383 -1.3397 -0.0652 -2.6007
 5354SOL    HW227696   1.130   1.311   8.338  1.0303 -2.8566 -2.1380
 5355SOL     OW27697   2.832   2.286   1.317 -0.2043  0.0132  0.1426
 5355SOL    HW127698   2.804   2.293   1.408  0.8885  2.5745  0.2938
 5355SOL    HW227699   2.910   2.341   1.331 -0.1200 -0.1692  0.3927
 5356SOL     OW27700   2.732   3.361   3.996  0.1767 -0.0305 -0.1090
 5356SOL    HW127701   2.722   3.456   3.994  0.8328  0.0373 -0.2644
 5356SOL    HW227702   2.657   3.324   4.041  0.0430  2.0545  1.3909
 5357SOL     OW27703   0.390   1.129  10.297  0.3800  0.2556  0.5247
 5357SOL    HW127704   0.318   1.088  10.346 -0.1822  1.5950  0.8464
 5357SOL    HW227705   0.458   1.148  10.362  1.4693  1.0960 -0.8452
 5358SOL     OW27706   0.655   3.735   6.001 -0.0225  0.5196 -0.6907
 5358SOL    HW127707   0.665   3.659   6.058 -1.3987  0.3099 -0.7288
 5358SOL    HW227708   0.745   3.767   5.997  0.2993 -0.1899  0.8370
 5359SOL     OW27709   4.357   2.806   6.398  0.2185 -0.1828 -0.6046
 5359SOL    HW127710   4.290   2.742   6.423 -0.0899 -0.2792 -1.6595
 5359SOL    HW227711   4.437   2.791   6.448 -1.8042  0.1249  2.7244
 5360SOL     OW27712   0.585   3.070  10.954 -0.2290  0.1833  0.1550
 5360SOL    HW127713   0.669   3.033  10.981 -0.4801  0.4842  1.3529
 5360SOL    HW227714   0.534   3.057  11.035  0.3027  0.4953  0.5376
 5361SOL     OW27715   0.795   1.971   6.953  0.9379 -0.2498 -0.1378
 5361SOL    HW127716   0.786   1.999   6.862  0.4146 -0.3188 -0.1068
 5361SOL    HW227717   0.861   2.037   6.972 -1.2561  1.7235  0.5886
 5362SOL     OW27718   0.105   1.718  15.096 -0.4252 -0.1222  0.3735
 5362SOL    HW127719   0.038   1.785  15.080 -1.2258 -0.8157  0.8537
 5362SOL    HW227720   0.179   1.776  15.078  2.0375 -2.5738  2.6671
 5363SOL     OW27721   4.670   3.789   8.650  0.1068 -0.0664  0.2864
 5363SOL    HW127722   4.585   3.776   8.693  0.5512 -1.8453  0.6300
 5363SOL    HW227723   4.703   3.699   8.658 -1.5725 -0.6433  0.7552
 5364SOL     OW27724   4.564   2.685  15.392  0.2023  0.5341 -0.2718
 5364SOL    HW127725   4.477   2.711  15.363  0.2156  0.2669 -0.5521
 5364SOL    HW227726   4.628   2.700  15.322  0.7500  0.9191  0.3100
 5365SOL     OW27727   1.594   2.938   9.246  0.3869 -0.5843 -0.3990
 5365SOL    HW127728   1.686   2.958   9.226  0.2963  0.5548  0.3505
 5365SOL    HW227729   1.550   2.957   9.163 -0.7144 -2.4419 -0.2471
 5366SOL     OW27730   1.106   4.372   4.753  0.6350  0.6817  0.2940
 5366SOL    HW127731   1.115   4.413   4.667 -1.1925 -0.8237 -0.6107
 5366SOL    HW227732   1.014   4.384   4.778  0.2633  0.8536 -1.1415
 5367SOL     OW27733   0.896   1.822   6.531 -0.4695 -0.0494  0.3868
 5367SOL    HW127734   0.872   1.834   6.439  2.4845  1.8914 -0.1272
 5367SOL    HW227735   0.845   1.744   6.553  1.3055 -0.8719  1.5907
 5368SOL     OW27736   0.300   3.136   5.969  0.3289  0.5581  0.0263
 5368SOL    HW127737   0.314   3.192   6.044  0.7322  0.5485 -0.0441
 5368SOL    HW227738   0.329   3.196   5.901  0.6866  1.0050  0.5821
 5369SOL     OW27739   0.834   0.337   3.804  0.9516  0.2288 -0.2918
 5369SOL    HW127740   0.871   0.416   3.844  2.1078 -0.6555  0.3947
 5369SOL    HW227741   0.766   0.312   3.867 -0.6485 -0.9233 -2.4669
 5370SOL     OW27742   3.970   0.343  17.355  0.7163  0.5581  0.0632
 5370SOL    HW127743   3.923   0.261  17.339  2.2247  0.0481 -1.7195
 5370SOL    HW227744   3.950   0.397  17.279  0.2268 -0.2184 -0.3525
 5371SOL     OW27745   3.373   4.071   1.942 -0.3146  0.2745  0.1381
 5371SOL    HW127746   3.417   4.009   2.001  2.9430  2.3954 -0.0367
 5371SOL    HW227747   3.299   4.015   1.921 -1.5576  2.6923 -1.8199
 5372SOL     OW27748   3.850   3.713   2.819 -0.4412 -0.1412 -0.1049
 5372SOL    HW127749   3.884   3.733   2.732 -1.7666  1.5356 -0.2241
 5372SOL    HW227750   3.761   3.747   2.809 -0.3210  0.4153  0.6863
 5373SOL     OW27751   0.089   1.309   9.499  0.1491 -0.3757  0.5539
 5373SOL    HW127752   0.012   1.351   9.537  0.9606  2.4102 -0.8511
 5373SOL    HW227753   0.062   1.242   9.436  0.5803 -0.8426  0.8590
 5374SOL     OW27754   1.491   2.195   3.042  0.1726 -0.1892  0.2533
 5374SOL    HW127755   1.557   2.127   3.047  1.7717  1.2391 -1.5439
 5374SOL    HW227756   1.493   2.243   3.125  0.7536 -0.8160  0.5945
 5375SOL     OW27757   1.224   1.670   1.824  0.3677  0.0536 -0.0405
 5375SOL    HW127758   1.206   1.633   1.737  1.3490 -1.0936  0.2457
 5375SOL    HW227759   1.183   1.756   1.825  1.6742  0.6698  0.6899
 5376SOL     OW27760   4.424   3.911   7.536 -0.1897 -0.0241  0.3238
 5376SOL    HW127761   4.486   3.876   7.473 -0.3658  0.4042 -0.0921
 5376SOL    HW227762   4.438   4.000   7.502 -0.2692  0.6588  2.0537
 5377SOL     OW27763   4.229   3.295   1.848 -0.6971  0.1194 -0.4725
 5377SOL    HW127764   4.137   3.291   1.822 -1.0422  0.7718  0.6424
 5377SOL    HW227765   4.272   3.283   1.764  3.5332  1.7605  1.5002
 5378SOL     OW27766   3.246   1.291   5.194  0.0435 -0.5703 -0.2006
 5378SOL    HW127767   3.152   1.289   5.175 -0.3353  1.6675  1.5003
 5378SOL    HW227768   3.256   1.200   5.166 -1.3127 -0.2638 -1.6907
 5379SOL     OW27769   3.585   2.688   4.956 -0.0368  0.1072  0.1448
 5379SOL    HW127770   3.651   2.657   4.895 -0.2088 -0.3637  0.2008
 5379SOL    HW227771   3.523   2.615   4.948 -1.3096  1.3815 -1.7998
 5380SOL     OW27772   4.040   0.920   2.075 -0.4024  0.6586 -0.0789
 5380SOL    HW127773   3.986   0.992   2.040 -1.4276 -0.6600 -1.2075
 5380SOL    HW227774   4.090   0.963   2.144  1.0195  1.6338 -1.7280
 5381SOL     OW27775   3.059   1.109  12.932 -0.2203  0.6168  0.4474
 5381SOL    HW127776   3.142   1.065  12.955  0.3576  1.6507  0.3311
 5381SOL    HW227777   3.068   1.194  12.974  0.6950 -0.3434  2.2087
 5382SOL     OW27778   1.131   0.948   3.675  0.3934 -0.0279  0.0929
 5382SOL    HW127779   1.161   1.039   3.688  1.9252 -0.5600  0.2912
 5382SOL    HW227780   1.132   0.900   3.758  0.8495  2.3003  1.4439
 5383SOL     OW27781   1.172   4.309  15.079 -0.4569 -0.4565  0.0657
 5383SOL    HW127782   1.237   4.240  15.065  0.2149 -0.0645  1.2919
 5383SOL    HW227783   1.192   4.326  15.171 -0.9700  1.4895 -0.1876
 5384SOL     OW27784   1.135   3.640   1.192  0.1042  0.0156  0.0023
 5384SOL    HW127785   1.161   3.718   1.241 -3.6436  0.2500  1.5604
 5384SOL    HW227786   1.164   3.667   1.104 -0.8512  1.6494  0.1908
 5385SOL     OW27787   3.578   4.401   4.868  0.5414  0.1299  0.1222
 5385SOL    HW127788   3.500   4.353   4.899  0.3174  0.3901 -0.0381
 5385SOL    HW227789   3.620   4.436   4.947  0.2797  0.9015 -0.0851
 5386SOL     OW27790   0.411   1.576  10.981  0.4863 -0.3558 -0.0697
 5386SOL    HW127791   0.330   1.604  11.024 -0.3119  0.0014 -1.8052
 5386SOL    HW227792   0.386   1.599  10.892  0.0975  0.0521  0.1482
 5387SOL     OW27793   2.591   2.184   6.626 -0.5177 -0.2574  0.1102
 5387SOL    HW127794   2.502   2.220   6.629  0.5518  2.6566 -3.3003
 5387SOL    HW227795   2.611   2.177   6.719 -1.1551  1.7734  0.4025
 5388SOL     OW27796   3.374   0.064   4.534 -0.0329  0.2368  0.5396
 5388SOL    HW127797   3.420   0.148   4.532 -0.8857  0.6988  0.7355
 5388SOL    HW227798   3.423   0.025   4.461 -0.9694 -0.3555  0.2256
 5389SOL     OW27799   2.615   0.097   9.541 -0.3084  0.4326 -0.3102
 5389SOL    HW127800   2.686   0.162   9.535 -1.0583  1.0658 -2.1588
 5389SOL    HW227801   2.614   0.071   9.449 -0.2591 -2.0817  0.4034
 5390SOL     OW27802   4.489   3.191  10.093  0.1764  0.1351  0.1137
 5390SOL    HW127803   4.559   3.225  10.037  0.0042  1.8495  0.9176
 5390SOL    HW227804   4.438   3.272  10.098 -0.0098  0.1054 -1.4819
 5391SOL     OW27805   1.466   0.357   4.410  0.1454  0.1321 -0.6095
 5391SOL    HW127806   1.478   0.421   4.480 -1.0125 -0.0893 -0.2111
 5391SOL    HW227807   1.452   0.279   4.463  0.3703  1.8578  1.9992
 5392SOL     OW27808   0.995   1.299   7.169  0.0231 -0.3433 -0.2426
 5392SOL    HW127809   1.006   1.215   7.213  0.8040  0.2813  0.7364
 5392SOL    HW227810   0.916   1.335   7.207 -0.4046 -2.9919  1.3325
 5393SOL     OW27811   1.600   4.660   6.100  0.0385 -0.4544  0.2892
 5393SOL    HW127812   1.519   4.707   6.117  0.1972  0.9757 -2.9782
 5393SOL    HW227813   1.614   4.604   6.176 -0.5135  0.2492  0.9098
 5394SOL     OW27814   0.064   3.194   9.380  0.0605  0.2548 -0.0669
 5394SOL    HW127815   0.140   3.158   9.333 -0.3421  1.0653 -1.3401
 5394SOL    HW227816   0.083   3.287   9.369  2.0261 -0.0634  0.7391
 5395SOL     OW27817   2.593   2.868   8.767 -0.6863  0.1741  0.2808
 5395SOL    HW127818   2.533   2.912   8.707 -1.2307  0.2662  0.8922
 5395SOL    HW227819   2.667   2.929   8.772 -1.1682  0.8711 -0.9965
 5396SOL     OW27820   0.302   0.251   5.120 -0.0396  0.4049  0.2229
 5396SOL    HW127821   0.309   0.201   5.202 -0.1307 -0.5783 -0.3786
 5396SOL    HW227822   0.302   0.340   5.157 -2.2297  0.0159  1.1386
 5397SOL     OW27823   0.118   1.655   3.279  0.5016  0.6203 -0.0310
 5397SOL    HW127824   0.139   1.735   3.327  0.5123  1.4515 -1.4158
 5397SOL    HW227825   0.054   1.605   3.330 -2.0057  3.1546 -0.6848
 5398SOL     OW27826   1.865   4.024   8.657 -0.1821  0.1594 -0.7789
 5398SOL    HW127827   1.817   4.103   8.683 -1.6475 -0.8558 -0.3949
 5398SOL    HW227828   1.836   4.007   8.568  1.5369  1.8813 -1.6650
 5399SOL     OW27829   3.982   1.011   5.258  0.2614 -0.5666  0.2411
 5399SOL    HW127830   3.989   0.921   5.290 -1.8548  0.0384  2.3814
 5399SOL    HW227831   3.997   1.058   5.340 -0.5546  0.0060  0.0734
 5400SOL     OW27832   2.572   3.217  10.815  0.4120  0.1445 -0.0649
 5400SOL    HW127833   2.549   3.174  10.898 -1.3889  3.4899  1.1995
 5400SOL    HW227834   2.651   3.169  10.792  0.2712  0.0720 -0.3939
 5401SOL     OW27835   0.614   0.540   3.497 -0.0147 -0.0460 -0.3356
 5401SOL    HW127836   0.631   0.550   3.403 -0.8785 -1.0865 -0.5949
 5401SOL    HW227837   0.561   0.620   3.506  0.0121  0.2261 -2.5356
 5402SOL     OW27838   1.154   3.932   8.426  0.1939  0.1323 -0.8044
 5402SOL    HW127839   1.220   3.991   8.462 -0.2791  0.6011 -0.7121
 5402SOL    HW227840   1.085   3.997   8.414 -0.0100  0.2522  0.9332
 5403SOL     OW27841   2.212   4.091   3.327  0.0281 -0.0829  0.0705
 5403SOL    HW127842   2.241   4.058   3.242  0.3988  1.0204 -0.2384
 5403SOL    HW227843   2.269   4.168   3.331  1.1100 -0.8802  0.0645
 5404SOL     OW27844   3.660   3.743  12.308  0.0123 -0.3595 -0.3223
 5404SOL    HW127845   3.733   3.784  12.261  0.3243  0.4864  0.8951
 5404SOL    HW227846   3.668   3.651  12.281  1.9499 -0.2118 -0.2569
 5405SOL     OW27847   2.089   2.075  16.759 -0.0738  0.5119  0.2529
 5405SOL    HW127848   1.998   2.082  16.732 -0.1519  2.2400  0.9794
 5405SOL    HW227849   2.123   2.028  16.682 -0.1630 -1.1967  1.2644
 5406SOL     OW27850   4.683   4.676  10.871 -0.0032  0.0255 -0.2805
 5406SOL    HW127851   4.648   4.600  10.916 -1.9074  0.2364 -1.4132
 5406SOL    HW227852   0.045   4.670  10.892 -0.2918 -1.3100  0.6109
 5407SOL     OW27853   4.396   1.748   2.781  0.0041 -0.7114  0.0206
 5407SOL    HW127854   4.368   1.657   2.781 -0.7953 -0.4646  1.8774
 5407SOL    HW227855   4.485   1.737   2.815  0.9010 -0.8288 -2.3171
 5408SOL     OW27856   1.039   3.238   6.379  0.2031  0.4889 -0.0185
 5408SOL    HW127857   1.051   3.182   6.302 -1.6686  1.8198 -1.2825
 5408SOL    HW227858   0.944   3.236   6.389  0.3711 -0.0414  1.3727
 5409SOL     OW27859   4.053   1.622  11.922  0.0727  0.4662 -0.3603
 5409SOL    HW127860   4.083   1.571  11.998  2.3677 -0.1149 -1.6472
 5409SOL    HW227861   4.033   1.550  11.861  0.4942  2.2542 -2.6117
 5410SOL     OW27862   4.320   2.351   3.504  0.0480 -0.0359  0.8874
 5410SOL    HW127863   4.276   2.317   3.426  0.8021 -1.1475  0.9401
 5410SOL    HW227864   4.249   2.369   3.566  0.8967  2.1337  1.2416
 5411SOL     OW27865   2.207   2.878   0.458 -0.0005 -0.2698  0.5251
 5411SOL    HW127866   2.146   2.824   0.409 -1.5266  1.3079  0.6661
 5411SOL    HW227867   2.150   2.953   0.478 -0.6233 -0.8450  0.9033
 5412SOL     OW27868   0.771   3.593   6.402  0.1872  0.1227 -0.4488
 5412SOL    HW127869   0.831   3.607   6.328  0.4503  0.6508 -0.1324
 5412SOL    HW227870   0.733   3.679   6.413  2.3189  1.0824 -0.5549
 5413SOL     OW27871   3.756   3.705   1.515 -0.5936 -0.4894  0.2724
 5413SOL    HW127872   3.688   3.690   1.449  1.5487 -1.0608 -1.8008
 5413SOL    HW227873   3.804   3.622   1.512 -2.0785 -1.3414  0.0307
 5414SOL     OW27874   1.204   2.705   7.850  0.4146 -0.2754  0.8501
 5414SOL    HW127875   1.250   2.789   7.852 -2.6784  1.4622 -0.7837
 5414SOL    HW227876   1.140   2.720   7.781  1.7299  2.8664  0.2774
 5415SOL     OW27877   2.804   1.945   3.189 -0.4145  0.2508  0.0695
 5415SOL    HW127878   2.776   1.907   3.272  1.3718  1.3692  1.1735
 5415SOL    HW227879   2.813   1.868   3.133 -0.0017  1.0256 -0.9276
 5416SOL     OW27880   3.512   2.860   3.105  0.2269 -0.6982  0.0702
 5416SOL    HW127881   3.544   2.940   3.063 -0.9609 -0.4813 -0.3942
 5416SOL    HW227882   3.453   2.897   3.171  0.2397  0.8147 -0.7598
 5417SOL     OW27883   4.322   0.660   6.186  0.5557 -0.1328 -0.0764
 5417SOL    HW127884   4.341   0.703   6.270  2.6181  1.7824 -1.5459
 5417SOL    HW227885   4.233   0.626   6.195  1.5059 -3.2308 -2.5872
 5418SOL     OW27886   2.409   1.223   7.202  0.5128 -0.1066 -0.6597
 5418SOL    HW127887   2.442   1.262   7.283  1.6550 -2.3767 -0.0058
 5418SOL    HW227888   2.351   1.293   7.171 -0.9588 -0.7534  0.6569
 5419SOL     OW27889   3.812   1.242   4.117 -0.3993 -0.4421 -0.2692
 5419SOL    HW127890   3.729   1.282   4.091 -0.3307  0.2929  0.6874
 5419SOL    HW227891   3.822   1.179   4.045 -1.6558 -0.9272 -0.0190
 5420SOL     OW27892   1.804   1.978   2.951  0.7421  0.2846 -0.1615
 5420SOL    HW127893   1.749   2.013   2.881 -1.2494 -2.6018 -0.0091
 5420SOL    HW227894   1.834   2.065   2.979  3.4590 -0.0593 -2.0416
 5421SOL     OW27895   0.051   2.045   4.651 -0.5943 -0.0118  0.5362
 5421SOL    HW127896   4.695   2.074   4.680 -0.6056  0.1787  0.3086
 5421SOL    HW227897   0.107   2.087   4.716  1.1903 -2.5761  0.6777
 5422SOL     OW27898   0.439   4.504   6.931  0.1408  0.2856  0.0747
 5422SOL    HW127899   0.468   4.507   6.840  4.0472  0.0569  1.2858
 5422SOL    HW227900   0.353   4.543   6.918 -0.1743 -1.0247 -1.7417
 5423SOL     OW27901   1.569   3.650   5.194 -0.2024  0.7018 -0.6696
 5423SOL    HW127902   1.626   3.697   5.133  1.9104 -2.4418 -1.0995
 5423SOL    HW227903   1.540   3.569   5.152 -0.3790  0.2249  0.3861
 5424SOL     OW27904   4.093   2.686   9.214  0.7203  0.0283 -0.7059
 5424SOL    HW127905   4.036   2.617   9.180 -0.7873  0.4281  0.9834
 5424SOL    HW227906   4.037   2.722   9.283  1.0380  0.0753 -0.4685
 5425SOL     OW27907   4.417   2.452  13.048 -0.1559  0.1570 -0.0433
 5425SOL    HW127908   4.426   2.546  13.030  2.1651 -0.1299 -0.3451
 5425SOL    HW227909   4.372   2.449  13.132 -2.2053  0.4864 -1.1108
 5426SOL     OW27910   3.927   0.525  16.604  0.3243 -0.1243  0.0546
 5426SOL    HW127911   4.017   0.552  16.585  0.0449  1.6212  1.2314
 5426SOL    HW227912   3.938   0.435  16.572  0.9118  0.9783 -2.9133
 5427SOL     OW27913   0.697   2.414   8.600 -0.4745 -0.3727 -0.2929
 5427SOL    HW127914   0.774   2.366   8.631 -1.4514 -0.9433  1.2220
 5427SOL    HW227915   0.742   2.486   8.556  0.2579  1.2231  3.1282
 5428SOL     OW27916   0.504   3.414   3.459 -0.0018  0.0282  0.0861
 5428SOL    HW127917   0.562   3.383   3.389 -0.8938 -0.2354 -0.5380
 5428SOL    HW227918   0.522   3.348   3.525  1.6029 -1.3531 -1.7302
 5429SOL     OW27919   4.452   0.224   4.004 -0.2371 -0.0956  0.4641
 5429SOL    HW127920   4.545   0.207   4.019 -0.0480  1.6823  1.2727
 5429SOL    HW227921   4.434   0.152   3.943  0.2110  0.2480 -0.0696
 5430SOL     OW27922   0.448   4.536  17.181  0.2780 -0.4517 -0.6190
 5430SOL    HW127923   0.437   4.441  17.191  0.4371 -0.3727  0.3298
 5430SOL    HW227924   0.528   4.549  17.232  0.2110 -1.7048 -0.2056
 5431SOL     OW27925   4.599   1.946   9.574  0.1548  0.3374 -0.4259
 5431SOL    HW127926   4.566   1.952   9.484 -0.4921 -0.5129 -0.2531
 5431SOL    HW227927   4.630   2.036   9.588  0.5514 -0.0667  1.3110
 5432SOL     OW27928   0.510   3.584   2.386 -0.5595 -0.5138  0.0570
 5432SOL    HW127929   0.464   3.644   2.328  1.0580 -0.1824 -0.8711
 5432SOL    HW227930   0.459   3.598   2.466 -0.8846 -0.1548 -0.2167
 5433SOL     OW27931   1.926   4.658  15.397  0.2301  0.6070  0.0219
 5433SOL    HW127932   1.953   4.616  15.315  2.0429  3.7923 -0.9709
 5433SOL    HW227933   1.864   4.595  15.435 -0.2018  0.4649 -0.9098
 5434SOL     OW27934   0.587   2.562   5.305 -0.2936  0.0192 -0.7266
 5434SOL    HW127935   0.549   2.603   5.383  1.0557  0.2612 -0.1861
 5434SOL    HW227936   0.588   2.630   5.237 -1.3195  0.3704 -0.3979
 5435SOL     OW27937   0.605   1.150   8.459 -0.4721  0.0101  0.1198
 5435SOL    HW127938   0.534   1.200   8.499 -0.9505 -0.8093  0.2794
 5435SOL    HW227939   0.674   1.172   8.522 -2.4166 -0.2020  2.3150
 5436SOL     OW27940   4.202   2.288   6.979  0.3271 -0.6290 -0.2186
 5436SOL    HW127941   4.138   2.266   7.046 -1.4048 -1.4192 -2.1377
 5436SOL    HW227942   4.250   2.362   7.018  0.0628 -0.1985 -0.7122
 5437SOL     OW27943   1.191   0.276   3.351  0.1140  0.0170 -0.1864
 5437SOL    HW127944   1.265   0.267   3.292  1.6016 -0.4920  1.7625
 5437SOL    HW227945   1.111   0.296   3.302  0.5964  2.4090  0.0039
 5438SOL     OW27946   1.777   4.168  14.962 -0.2149  0.0274 -0.1212
 5438SOL    HW127947   1.732   4.177  14.878 -0.9945  1.1703  0.4081
 5438SOL    HW227948   1.702   4.128  15.007  0.3709  0.4005  1.1785
 5439SOL     OW27949   0.266   1.019   2.251 -0.4024  0.0989  0.2268
 5439SOL    HW127950   0.346   1.051   2.210 -0.4511  0.9886  0.8328
 5439SOL    HW227951   0.200   1.044   2.186 -1.7930 -0.6824  1.3469
 5440SOL     OW27952   1.015   3.450   8.881  0.1921  0.1150 -0.0535
 5440SOL    HW127953   0.934   3.423   8.926  1.5127  1.1627  2.9526
 5440SOL    HW227954   0.982   3.526   8.834  1.5617  0.1896 -0.8757
 5441SOL     OW27955   3.454   3.270  12.286  0.0909  0.1325 -0.5255
 5441SOL    HW127956   3.453   3.346  12.228 -2.3024  1.9342  1.9321
 5441SOL    HW227957   3.396   3.301  12.356  1.3408  3.2451 -0.8768
 5442SOL     OW27958   1.230   1.379   7.452 -0.6744 -0.4947 -0.2892
 5442SOL    HW127959   1.151   1.430   7.433 -0.1973  0.7266  0.9507
 5442SOL    HW227960   1.268   1.434   7.521 -0.8885 -1.5650  0.6787
 5443SOL     OW27961   3.315   0.215   7.715  0.3520  0.0560 -0.3615
 5443SOL    HW127962   3.316   0.311   7.712 -1.3045  0.1336  1.5481
 5443SOL    HW227963   3.235   0.202   7.766  0.3665  2.5722  0.3066
 5444SOL     OW27964   0.367   1.979  13.524  0.5339  0.5006  0.2902
 5444SOL    HW127965   0.290   1.969  13.580  0.6493 -3.1738 -0.1956
 5444SOL    HW227966   0.386   1.892  13.489 -3.1864 -0.1796 -0.0397
 5445SOL     OW27967   0.146   2.254   2.772 -0.4553  0.9004  0.1564
 5445SOL    HW127968   0.232   2.270   2.734 -0.4067  2.8502  1.0655
 5445SOL    HW227969   0.119   2.344   2.794 -0.0204  1.3101 -1.0133
 5446SOL     OW27970   3.004   0.527  15.343  0.6829 -0.0326  0.0164
 5446SOL    HW127971   2.985   0.519  15.436  1.8281  1.5176  0.3795
 5446SOL    HW227972   2.957   0.454  15.302  0.0860 -0.4921  1.5286
 5447SOL     OW27973   2.918   0.935  11.936 -0.2586 -0.3874 -0.6042
 5447SOL    HW127974   2.928   0.882  11.857  1.2837 -1.1551  0.0942
 5447SOL    HW227975   2.915   0.864  12.001 -0.5217  0.7294  0.6076
 5448SOL     OW27976   1.036   0.544   7.278  0.3073  0.0264  0.2998
 5448SOL    HW127977   1.084   0.557   7.196  0.2001  0.7384  0.3504
 5448SOL    HW227978   0.949   0.514   7.251 -0.8703  2.1329  1.7668
 5449SOL     OW27979   3.198   3.121   2.411  0.4812  0.2278  0.9490
 5449SOL    HW127980   3.157   3.065   2.346  0.5427 -0.2973  1.3569
 5449SOL    HW227981   3.122   3.130   2.468 -0.8809  2.1894 -1.2014
 5450SOL     OW27982   4.240   2.571   7.713 -0.7499  0.2044  0.3026
 5450SOL    HW127983   4.203   2.596   7.798 -0.4426 -1.0819  0.8063
 5450SOL    HW227984   4.305   2.641   7.700  1.4000 -1.9458 -0.5190
 5451SOL     OW27985   1.355   4.437   7.349  0.6685 -0.2057 -0.4138
 5451SOL    HW127986   1.371   4.427   7.255 -1.3033 -1.9886 -0.5662
 5451SOL    HW227987   1.303   4.517   7.359 -0.6794 -1.4877  2.8164
 5452SOL     OW27988   0.737   2.047   1.588 -0.2806 -0.0722 -0.2122
 5452SOL    HW127989   0.723   1.952   1.585 -0.3524 -0.0340 -1.1094
 5452SOL    HW227990   0.830   2.050   1.565 -0.3591 -2.0297 -0.7394
 5453SOL     OW27991   3.780   0.497   4.205  0.1741 -0.1896 -0.1903
 5453SOL    HW127992   3.848   0.527   4.145 -1.5917  0.5614 -1.8001
 5453SOL    HW227993   3.764   0.405   4.187  0.1657 -0.4484  1.0859
 5454SOL     OW27994   0.401   2.735   2.232  0.3160  0.2995  0.0905
 5454SOL    HW127995   0.475   2.739   2.294  0.5574 -0.8520 -0.1377
 5454SOL    HW227996   0.416   2.654   2.185  1.5855  0.5027  0.1437
 5455SOL     OW27997   4.612   1.100   5.252  0.0660  0.0970  0.0962
 5455SOL    HW127998   4.655   1.170   5.302  0.2135  0.9427 -1.2274
 5455SOL    HW227999   4.583   1.040   5.321  0.3921  0.8576  0.8915
 5456SOL     OW28000   0.760   2.868   7.526  0.1023 -0.6629  0.3205
 5456SOL    HW128001   0.722   2.850   7.440 -0.3247 -1.9755  0.7721
 5456SOL    HW228002   0.739   2.961   7.524 -1.5043 -1.0431 -0.6099
 5457SOL     OW28003   1.066   3.807   3.983  0.0101 -0.6356 -0.0111
 5457SOL    HW128004   1.157   3.787   3.964 -0.5220 -1.2362 -1.9343
 5457SOL    HW228005   1.075   3.832   4.075 -1.1423  0.3159 -0.1479
 5458SOL     OW28006   2.534   2.817   3.973 -0.3314 -0.0656 -0.2478
 5458SOL    HW128007   2.544   2.771   4.056  1.0732 -0.1282 -0.4450
 5458SOL    HW228008   2.624   2.808   3.941  0.9565  1.2006  3.0969
 5459SOL     OW28009   4.407   1.742   8.968  0.3826  0.2423 -0.0527
 5459SOL    HW128010   4.412   1.812   8.903  0.1963 -0.3219 -0.6874
 5459SOL    HW228011   4.315   1.743   8.993  0.8298 -1.2269  1.6451
 5460SOL     OW28012   2.173   3.047   1.477 -0.2831  0.1600  0.3104
 5460SOL    HW128013   2.129   3.058   1.562  1.8376 -0.3438  1.4576
 5460SOL    HW228014   2.155   3.130   1.433 -0.3317  0.6639  1.2913
 5461SOL     OW28015   4.305   1.025  11.772 -0.1991 -0.1179 -0.3451
 5461SOL    HW128016   4.241   1.086  11.809  0.8810  1.0669 -0.4570
 5461SOL    HW228017   4.356   1.083  11.714 -0.7133  0.4047 -0.2764
 5462SOL     OW28018   2.965   4.711   0.796  0.6095  0.6511  0.5728
 5462SOL    HW128019   2.981   0.053   0.856  1.1405 -0.0627  1.2934
 5462SOL    HW228020   2.998   4.639   0.849 -1.7772 -1.3678 -0.6525
 5463SOL     OW28021   2.926   4.316   7.972 -0.1099 -0.3960 -0.6931
 5463SOL    HW128022   2.952   4.406   7.992 -0.6271 -0.1902 -0.9574
 5463SOL    HW228023   2.833   4.316   7.996 -0.8025  0.0795 -3.3867
 5464SOL     OW28024   2.235   4.687   3.356  0.4986 -0.4857  0.7580
 5464SOL    HW128025   2.212   4.617   3.418 -1.7077 -0.0866  0.4199
 5464SOL    HW228026   2.146   4.723   3.356  0.3072 -0.9823 -1.7952
 5465SOL     OW28027   4.121   2.139  15.504  0.5187 -0.2170 -0.5715
 5465SOL    HW128028   4.171   2.105  15.578 -2.8955  0.1257  1.8944
 5465SOL    HW228029   4.044   2.175  15.547  0.4142 -1.9791  0.7466
 5466SOL     OW28030   0.818   1.235  12.172  0.0388 -0.3221 -0.1346
 5466SOL    HW128031   0.878   1.265  12.104 -0.0194 -1.9470 -0.9219
 5466SOL    HW228032   0.873   1.160  12.194  1.3358  0.7424  0.2436
 5467SOL     OW28033   3.459   1.771   7.046  0.2973 -0.2951 -0.2681
 5467SOL    HW128034   3.517   1.709   7.001 -0.0830 -1.4222  0.7987
 5467SOL    HW228035   3.456   1.748   7.138 -0.3203 -0.0775 -0.2277
 5468SOL     OW28036   4.089   0.957  11.983 -0.4832  0.5462 -0.5331
 5468SOL    HW128037   4.152   0.954  12.054  1.5468  0.1496 -2.3320
 5468SOL    HW228038   4.106   1.039  11.936 -1.9563 -0.2111 -2.4181
 5469SOL     OW28039   1.780   2.044  17.602 -0.3246 -0.0705 -0.5439
 5469SOL    HW128040   1.787   1.998  17.518  0.0872 -2.6511  0.8803
 5469SOL    HW228041   1.789   2.135  17.575 -0.4179  0.0140 -0.2996
 5470SOL     OW28042   2.993   0.983  16.602 -0.3187 -0.0278  0.1926
 5470SOL    HW128043   3.002   1.006  16.510 -1.0006  3.0222  0.8980
 5470SOL    HW228044   3.061   1.032  16.648 -1.7268  0.8699  1.3040
 5471SOL     OW28045   1.074   1.711   9.955  0.3624 -0.6013 -0.2452
 5471SOL    HW128046   1.146   1.716   9.893 -0.9464 -1.9974 -1.8877
 5471SOL    HW228047   1.115   1.719  10.041 -0.0436  0.3898 -0.1368
 5472SOL     OW28048   4.116   3.935   5.599  0.0519 -0.2528 -0.0331
 5472SOL    HW128049   4.117   4.024   5.634  2.5375 -0.2094 -0.2045
 5472SOL    HW228050   4.197   3.933   5.548  0.5445  0.1670  0.7359
 5473SOL     OW28051   1.495   4.488   4.037 -0.3510  0.4936  0.1695
 5473SOL    HW128052   1.406   4.517   4.018 -1.1683 -2.2676 -0.2032
 5473SOL    HW228053   1.551   4.554   3.996 -0.8099 -0.0368 -1.2971
 5474SOL     OW28054   0.879   3.510   7.556 -0.0445  0.4695 -0.0308
 5474SOL    HW128055   0.951   3.509   7.493 -0.9565  3.2682 -1.1335
 5474SOL    HW228056   0.919   3.498   7.642  1.1171  1.2185 -0.4701
 5475SOL     OW28057   2.233   4.585  17.088  0.5441 -0.0311 -0.6283
 5475SOL    HW128058   2.235   4.491  17.071  0.3458 -0.8692  3.9999
 5475SOL    HW228059   2.141   4.594  17.063  0.1281 -1.2008  0.5587
 5476SOL     OW28060   0.867   3.154   1.993  0.4638  0.0034  0.0232
 5476SOL    HW128061   0.946   3.192   1.953  0.4425 -0.5733 -0.5708
 5476SOL    HW228062   0.851   3.081   1.933  1.2349 -0.6894  0.6506
 5477SOL     OW28063   3.812   4.584  10.153  0.3367 -0.3042  0.1864
 5477SOL    HW128064   3.800   4.675  10.182 -0.1357  0.0171 -1.0075
 5477SOL    HW228065   3.861   4.543  10.223  0.1280  1.0787  1.1405
 5478SOL     OW28066   2.771   4.331   6.263  0.2672  0.1118 -0.0396
 5478SOL    HW128067   2.847   4.275   6.255  2.1836  2.7712 -0.4801
 5478SOL    HW228068   2.787   4.370   6.349  0.6101 -0.4085  0.1269
 5479SOL     OW28069   2.916   0.072   6.594  0.3711 -0.1112 -0.0710
 5479SOL    HW128070   2.853   0.071   6.522 -0.4031 -0.4058  0.6045
 5479SOL    HW228071   2.970   4.728   6.571  1.8600  1.5780 -2.0891
 5480SOL     OW28072   3.540   0.977   7.057  0.0406 -0.3101  0.1402
 5480SOL    HW128073   3.542   0.931   6.974  1.1806  0.4822 -0.2793
 5480SOL    HW228074   3.448   0.994   7.075 -0.3329 -0.5959 -1.5872
 5481SOL     OW28075   0.578   1.138  14.032 -0.5365  0.2648  0.2790
 5481SOL    HW128076   0.626   1.194  13.971 -0.7325 -1.4969 -1.5105
 5481SOL    HW228077   0.642   1.099  14.092 -0.4935 -0.0703  0.0154
 5482SOL     OW28078   4.690   1.189   6.694 -0.6097  0.0650 -0.4988
 5482SOL    HW128079   4.597   1.206   6.677 -0.8125 -0.4021  0.1380
 5482SOL    HW228080   4.691   1.095   6.715  0.4916  0.3464  0.7337
 5483SOL     OW28081   3.658   3.399  12.833  0.0411 -0.5440  0.6274
 5483SOL    HW128082   3.648   3.409  12.927  0.8295 -0.8670  0.7446
 5483SOL    HW228083   3.714   3.472  12.806  0.2191  0.1139  2.8293
 5484SOL     OW28084   1.643   3.186   5.196  0.3662 -0.0263 -0.3044
 5484SOL    HW128085   1.581   3.239   5.145  0.5644 -1.1345 -1.7057
 5484SOL    HW228086   1.640   3.231   5.280  0.5136 -0.5957  0.0032
 5485SOL     OW28087   1.306   2.433   2.902 -0.1982 -1.1235  0.5168
 5485SOL    HW128088   1.266   2.427   2.988 -3.1199  2.3742 -0.5980
 5485SOL    HW228089   1.230   2.445   2.844  0.3324 -2.7997 -0.5238
 5486SOL     OW28090   2.477   2.501   6.171 -0.1753 -0.1469  0.0271
 5486SOL    HW128091   2.425   2.434   6.216 -0.5778  0.3465  0.3108
 5486SOL    HW228092   2.534   2.450   6.114 -0.0977 -0.6534  0.5637
 5487SOL     OW28093   2.032   3.409   2.158  0.3494  0.3035 -0.2098
 5487SOL    HW128094   1.970   3.467   2.112 -0.8412 -1.0783 -0.3624
 5487SOL    HW228095   2.073   3.363   2.085 -0.7758  2.3040 -2.1205
 5488SOL     OW28096   0.074   0.593   0.450 -0.1340  0.2550  0.0891
 5488SOL    HW128097   4.712   0.577   0.463 -0.0915 -0.9256 -1.0534
 5488SOL    HW228098   0.105   0.530   0.385  3.5142  1.8784  0.2047
 5489SOL     OW28099   1.107   0.094   8.082  0.7312  0.0394  0.3961
 5489SOL    HW128100   1.200   0.091   8.060  0.4875 -1.2707 -0.4288
 5489SOL    HW228101   1.100   0.130   8.170  2.2413  0.4533  0.3508
 5490SOL     OW28102   1.018   3.795   1.432  0.1261  1.0102  0.1544
 5490SOL    HW128103   0.932   3.769   1.465  0.2450 -2.1588 -2.0792
 5490SOL    HW228104   1.069   3.770   1.509  0.4688  0.0250 -0.3967
 5491SOL     OW28105   1.410   0.825   5.769 -0.3072  0.4010 -0.5515
 5491SOL    HW128106   1.482   0.762   5.776  1.1235  2.2619  1.6768
 5491SOL    HW228107   1.445   0.893   5.827 -0.7795 -0.5437  0.8514
 5492SOL     OW28108   4.721   1.525   8.734  0.2377 -0.3187 -0.2337
 5492SOL    HW128109   4.640   1.477   8.719 -0.4025  1.7524 -3.4289
 5492SOL    HW228110   4.703   1.562   8.821  0.9843  2.3384 -1.1891
 5493SOL     OW28111   0.252   0.418  10.178 -0.6441  0.2920  0.2860
 5493SOL    HW128112   0.161   0.448  10.177 -1.2780 -1.5191  2.1835
 5493SOL    HW228113   0.255   0.403  10.084  2.6849 -0.9281  0.5665
 5494SOL     OW28114   1.360   1.612   2.196  0.3891 -0.5738  0.2896
 5494SOL    HW128115   1.366   1.670   2.272 -0.7731  1.5302 -1.2400
 5494SOL    HW228116   1.424   1.542   2.208  0.2738 -0.7209  0.0550
 5495SOL     OW28117   4.275   0.457   7.391 -0.6989 -0.2961  0.6069
 5495SOL    HW128118   4.251   0.388   7.452 -0.8781 -0.9072 -0.1623
 5495SOL    HW228119   4.371   0.463   7.395 -0.6491  1.3426 -2.7898
 5496SOL     OW28120   0.410   3.494   7.339  0.2448  0.7123  0.2228
 5496SOL    HW128121   0.497   3.455   7.344 -1.2215 -2.6073 -0.0092
 5496SOL    HW228122   0.429   3.585   7.361 -2.4893  1.8020 -1.9023
 5497SOL     OW28123   3.869   0.009  10.378  0.2499  0.4590 -0.0401
 5497SOL    HW128124   3.854   0.095  10.419  1.8200  0.6461  0.1477
 5497SOL    HW228125   3.965   0.011  10.370  0.1458  0.0189 -1.3514
 5498SOL     OW28126   1.400   1.049   6.164  0.2326  0.0433 -0.6623
 5498SOL    HW128127   1.399   0.960   6.198 -1.5835  0.1685 -0.3854
 5498SOL    HW228128   1.331   1.044   6.098 -1.9559 -3.1683  1.8573
 5499SOL     OW28129   2.670   3.012   6.174 -0.1839 -0.2692 -0.0321
 5499SOL    HW128130   2.654   2.922   6.204 -0.0272  0.3169  1.7540
 5499SOL    HW228131   2.653   3.062   6.253 -0.2559 -0.2029 -0.0893
 5500SOL     OW28132   2.575   0.952   7.296 -0.3608 -0.4311 -0.1487
 5500SOL    HW128133   2.482   0.974   7.285 -0.2928  0.6866  1.6791
 5500SOL    HW228134   2.580   0.856   7.288 -0.1380 -0.6249  2.4048
 5501SOL     OW28135   3.732   2.184   9.107  0.2876 -0.2720  0.0746
 5501SOL    HW128136   3.693   2.112   9.158  1.4378 -0.9919 -0.0686
 5501SOL    HW228137   3.766   2.237   9.180 -1.2220 -0.1968  0.7275
 5502SOL     OW28138   3.713   0.340  11.004  0.3644 -0.6048  0.0569
 5502SOL    HW128139   3.704   0.254  10.964 -1.2755 -0.7413  0.6922
 5502SOL    HW228140   3.688   0.311  11.092  0.7611 -0.7255  0.1317
 5503SOL     OW28141   2.199   1.589  11.786 -0.0741 -0.4166  0.1436
 5503SOL    HW128142   2.105   1.585  11.804 -0.3956 -1.6868 -1.8387
 5503SOL    HW228143   2.209   1.495  11.769  5.0500  0.3109 -0.9012
 5504SOL     OW28144   0.642   0.515   3.998  0.5797 -0.0956  0.3146
 5504SOL    HW128145   0.581   0.567   4.051 -0.0166  2.9807 -3.4229
 5504SOL    HW228146   0.728   0.553   4.014 -0.1593  0.9383  1.7919
 5505SOL     OW28147   0.875   2.294   3.452  0.1316  0.2577 -0.3479
 5505SOL    HW128148   0.845   2.245   3.376  0.5227 -1.2651  0.4786
 5505SOL    HW228149   0.819   2.371   3.438 -0.9925 -0.4839  0.0258
 5506SOL     OW28150   4.071   4.416  13.738 -0.3585 -0.2993  0.4867
 5506SOL    HW128151   4.097   4.464  13.816  1.4068 -0.2791 -0.1095
 5506SOL    HW228152   4.003   4.471  13.699  1.6135  0.9623 -1.1504
 5507SOL     OW28153   1.280   3.228  17.261 -0.2225 -0.6907 -0.2504
 5507SOL    HW128154   1.210   3.226  17.327  1.3890 -1.5694  1.4457
 5507SOL    HW228155   1.336   3.159  17.299  1.9240  1.0402 -0.2573
 5508SOL     OW28156   0.907   2.877   6.389  0.7383  0.9793 -0.5626
 5508SOL    HW128157   0.820   2.843   6.412  1.0916  1.0943  0.9248
 5508SOL    HW228158   0.936   2.914   6.472  0.8050 -2.6085  0.9718
 5509SOL     OW28159   0.032   3.602   6.129 -0.1156  0.0286 -0.2116
 5509SOL    HW128160   4.721   3.569   6.208 -0.2032 -2.2702 -1.2280
 5509SOL    HW228161   0.060   3.523   6.082  1.1322  0.6495 -0.5327
 5510SOL     OW28162   2.145   2.852   4.108 -0.4845 -0.3578 -0.4199
 5510SOL    HW128163   2.206   2.913   4.150 -1.6721 -0.9270  2.1342
 5510SOL    HW228164   2.182   2.856   4.020  2.5853 -0.3564  0.8561
 5511SOL     OW28165   1.087   2.952   4.637 -0.6908  0.0309 -0.4621
 5511SOL    HW128166   1.060   3.031   4.685  2.3093  1.3505 -0.9613
 5511SOL    HW228167   1.181   2.964   4.626 -0.3682 -2.3621 -0.1742
 5512SOL     OW28168   4.357   3.413   6.149  0.6439 -0.1560 -0.4051
 5512SOL    HW128169   4.329   3.494   6.106 -1.1007 -0.5463 -0.0111
 5512SOL    HW228170   4.346   3.430   6.243  1.4475  2.4510 -0.7862
 5513SOL     OW28171   0.897   0.605   3.953  0.0601 -0.4521 -0.4249
 5513SOL    HW128172   0.979   0.632   3.994  1.1235 -1.8213 -1.6753
 5513SOL    HW228173   0.910   0.646   3.867  0.7764  0.7384  0.2620
 5514SOL     OW28174   1.054   3.939   4.898 -0.1201 -0.2665 -0.5089
 5514SOL    HW128175   1.106   3.870   4.855 -0.4472 -0.2116 -0.9977
 5514SOL    HW228176   1.128   3.978   4.944 -0.6005 -1.8713  1.6368
 5515SOL     OW28177   2.287   3.081   7.887 -0.2900 -0.0016 -0.1505
 5515SOL    HW128178   2.264   3.030   7.810 -0.4949  1.5139 -1.1006
 5515SOL    HW228179   2.201   3.090   7.927 -0.3906  2.3447 -0.8913
 5516SOL     OW28180   4.544   2.985  12.012 -0.1644  0.1379  0.0715
 5516SOL    HW128181   4.604   2.943  11.951  0.7843  1.0327  0.3947
 5516SOL    HW228182   4.564   2.916  12.076 -0.4513 -0.0670 -0.0574
 5517SOL     OW28183   2.754   0.269   8.397  0.6233 -0.0567 -0.1345
 5517SOL    HW128184   2.676   0.280   8.451 -0.1874  0.0689 -1.3338
 5517SOL    HW228185   2.814   0.310   8.460 -0.8127  2.3148 -0.2800
 5518SOL     OW28186   2.961   3.515  11.742  0.3309 -0.6303 -0.5134
 5518SOL    HW128187   2.973   3.482  11.653  0.2787  1.4529 -1.2778
 5518SOL    HW228188   2.868   3.539  11.737  0.6151  1.1537  3.3449
 5519SOL     OW28189   0.311   0.507   0.635  0.4636  0.5985  0.2481
 5519SOL    HW128190   0.270   0.549   0.560  1.3705  1.6280  0.3237
 5519SOL    HW228191   0.358   0.580   0.675  0.1827  1.0472 -0.2358
 5520SOL     OW28192   0.057   4.431   6.474  0.3293 -0.1706  0.3401
 5520SOL    HW128193   0.088   4.506   6.525  0.3848  0.2181 -0.2620
 5520SOL    HW228194   0.068   4.451   6.381 -1.0086 -0.6804  0.0656
 5521SOL     OW28195   1.667   1.072   8.051 -0.4127  0.0757 -0.2206
 5521SOL    HW128196   1.717   1.039   7.976  0.3685  0.3205  0.1929
 5521SOL    HW228197   1.736   1.070   8.117 -2.4690 -3.5502  1.7943
 5522SOL     OW28198   2.078   1.990   2.820 -0.4009 -0.0314  0.0293
 5522SOL    HW128199   2.046   1.932   2.889 -0.6417 -2.6581 -2.2788
 5522SOL    HW228200   2.160   1.942   2.811 -0.8364 -0.3923 -2.1446
 5523SOL     OW28201   1.851   4.428   7.406 -0.1102  0.4920 -0.3462
 5523SOL    HW128202   1.882   4.343   7.438 -0.1580 -0.0900 -1.8420
 5523SOL    HW228203   1.935   4.473   7.396  0.8986 -1.0673  1.0838
 5524SOL     OW28204   0.859   2.644   4.336 -0.3102 -0.0073  0.7464
 5524SOL    HW128205   0.800   2.719   4.342 -1.2568 -0.5543 -1.7668
 5524SOL    HW228206   0.905   2.656   4.419  1.1267 -2.5605  0.3258
 5525SOL     OW28207   3.702   0.982  17.670 -0.0412  0.2455  0.0267
 5525SOL    HW128208   3.736   1.050  17.612 -3.0207  0.7496 -1.1158
 5525SOL    HW228209   3.780   0.930  17.692 -0.2757  0.2724  0.9483
 5526SOL     OW28210   4.392   1.967   7.708 -0.3006  0.4984 -0.1491
 5526SOL    HW128211   4.455   1.919   7.654 -0.9744  0.1935 -0.6600
 5526SOL    HW228212   4.433   2.043   7.750 -0.6403 -0.0317  1.1234
 5527SOL     OW28213   2.722   0.921   4.583 -0.2478 -0.1963  0.3244
 5527SOL    HW128214   2.663   0.884   4.518  1.2423 -1.2135 -0.4603
 5527SOL    HW228215   2.671   0.994   4.617  0.0633  1.0134 -1.8552
 5528SOL     OW28216   3.710   0.956   9.054  0.2237 -0.0358 -0.6565
 5528SOL    HW128217   3.734   0.969   8.962  0.4511 -0.3435 -0.6373
 5528SOL    HW228218   3.743   1.035   9.097 -0.2510  0.1387 -0.6026
 5529SOL     OW28219   0.213   0.842  12.470 -0.4862 -0.1333  0.1802
 5529SOL    HW128220   0.268   0.779  12.423  0.7449  0.7421  0.4436
 5529SOL    HW228221   0.281   0.908  12.486 -1.2435  0.6986 -0.0106
 5530SOL     OW28222   0.205   3.360   6.126  0.0514 -0.1276  0.0682
 5530SOL    HW128223   0.288   3.405   6.139  0.3881 -1.2367  1.8759
 5530SOL    HW228224   0.186   3.340   6.218  1.2068 -0.2731  0.2775
 5531SOL     OW28225   0.682   4.023  13.243  0.3107  0.6223 -0.4581
 5531SOL    HW128226   0.588   4.001  13.243  0.7900 -1.4284 -2.1025
 5531SOL    HW228227   0.670   4.116  13.265  0.1569  0.7819 -1.2219
 5532SOL     OW28228   0.365   3.873   6.094  0.4021  0.0860 -0.1094
 5532SOL    HW128229   0.299   3.917   6.040  1.5821  2.6473  0.5277
 5532SOL    HW228230   0.416   3.828   6.027 -0.9255  1.0364 -1.7606
 5533SOL     OW28231   3.836   4.593   2.510  0.6347  0.6621 -0.5181
 5533SOL    HW128232   3.778   4.647   2.563  1.7058  0.7972  0.5065
 5533SOL    HW228233   3.897   4.539   2.560  0.6123 -0.8967 -2.1573
 5534SOL     OW28234   1.083   2.309   7.603  0.0289 -0.7620  0.7267
 5534SOL    HW128235   0.989   2.304   7.586  0.4842 -0.9338 -1.8148
 5534SOL    HW228236   1.111   2.363   7.529  0.3801 -3.6331 -1.2171
 5535SOL     OW28237   1.349   2.126   2.835  0.2952  0.5013 -0.1114
 5535SOL    HW128238   1.393   2.166   2.910  0.2969  0.7063 -0.2193
 5535SOL    HW228239   1.426   2.136   2.779  0.3975  2.1901  0.3223
 5536SOL     OW28240   4.406   0.324   9.954  0.3435 -0.3361 -0.6854
 5536SOL    HW128241   4.410   0.363  10.041  1.4951 -0.3765 -0.7279
 5536SOL    HW228242   4.425   0.237   9.990 -0.2458 -0.6778 -1.1938
 5537SOL     OW28243   2.362   4.624   6.660  0.0696 -0.0473 -0.5289
 5537SOL    HW128244   2.355   4.547   6.716  1.3096 -0.6255 -1.1783
 5537SOL    HW228245   2.432   4.599   6.600  1.4697 -2.2185  2.0090
 5538SOL     OW28246   1.543   0.604  14.398  1.0569  0.4520  0.5284
 5538SOL    HW128247   1.637   0.584  14.401  0.7169 -1.6331 -2.1579
 5538SOL    HW228248   1.542   0.696  14.422 -1.2032  0.3949  0.6397
 5539SOL     OW28249   3.141   1.924   4.013  0.4487 -0.3932  0.4939
 5539SOL    HW128250   3.051   1.943   4.039  0.6465 -1.8687  2.2830
 5539SOL    HW228251   3.173   1.867   4.083  0.0121 -0.3523  0.7252
 5540SOL     OW28252   2.998   2.513   2.632  0.6662  1.2318 -0.0235
 5540SOL    HW128253   3.038   2.477   2.553 -2.9872 -1.1177 -0.8351
 5540SOL    HW228254   2.924   2.566   2.602  1.4264  1.7923 -0.8606
 5541SOL     OW28255   1.962   1.490   9.102 -0.3061  0.0410  0.2382
 5541SOL    HW128256   1.939   1.487   9.009 -1.2889  1.9905  0.4196
 5541SOL    HW228257   2.056   1.490   9.087 -0.1024 -2.8788  1.6565
 5542SOL     OW28258   2.810   1.880   2.541  0.2443 -0.6817 -0.1363
 5542SOL    HW128259   2.800   1.803   2.485 -0.3478  0.2233 -1.2863
 5542SOL    HW228260   2.841   1.829   2.615  2.9459  0.3320 -0.5549
 5543SOL     OW28261   2.494   2.324   2.612  0.5755 -0.5878  0.2474
 5543SOL    HW128262   2.574   2.375   2.623 -1.1633  1.7092  2.3126
 5543SOL    HW228263   2.523   2.236   2.587  0.4541 -0.6263  0.2431
 5544SOL     OW28264   3.167   0.913   4.412  0.5433  0.1446 -0.3880
 5544SOL    HW128265   3.138   0.822   4.419  0.8918  0.1947  2.0209
 5544SOL    HW228266   3.194   0.909   4.321  0.6457  3.0293 -0.4735
 5545SOL     OW28267   2.203   4.457   3.538 -0.3004 -0.1846 -0.4176
 5545SOL    HW128268   2.219   4.459   3.633  0.4240  1.1814 -0.5725
 5545SOL    HW228269   2.113   4.425   3.534 -0.3002 -0.0672 -1.3303
 5546SOL     OW28270   1.183   1.696  16.304 -0.2490  0.0171  0.5146
 5546SOL    HW128271   1.203   1.642  16.381  3.1800  0.3093 -0.1669
 5546SOL    HW228272   1.276   1.702  16.280 -0.0137 -2.2405  0.7589
 5547SOL     OW28273   0.397   3.474  17.059 -0.3943 -0.0967  0.4546
 5547SOL    HW128274   0.363   3.529  16.989  0.5837 -1.2335 -0.9010
 5547SOL    HW228275   0.492   3.485  17.056 -0.5796  1.0603 -0.9362
 5548SOL     OW28276   2.441   2.275  11.040  0.6909  0.4573  0.2229
 5548SOL    HW128277   2.390   2.351  11.068 -1.5670 -0.3120 -1.7964
 5548SOL    HW228278   2.502   2.274  11.115  0.6808 -1.2881  0.2059
 5549SOL     OW28279   0.106   3.316   6.401 -0.1161  0.2878 -0.3421
 5549SOL    HW128280   0.087   3.244   6.462 -1.6733  1.2978  0.3767
 5549SOL    HW228281   0.172   3.373   6.440 -0.9375  1.3507 -0.4920
 5550SOL     OW28282   2.471   2.217   1.383  0.8348  0.1184  0.6841
 5550SOL    HW128283   2.466   2.122   1.369 -1.2848  0.1750  1.1022
 5550SOL    HW228284   2.386   2.239   1.346 -0.5473 -2.7373  2.1410
 5551SOL     OW28285   3.291   3.888   6.963  0.1667  0.1462  0.5106
 5551SOL    HW128286   3.258   3.920   7.047 -2.9554 -2.5872  0.3400
 5551SOL    HW228287   3.381   3.857   6.971  0.7013  1.7783  0.7986
 5552SOL     OW28288   1.347   1.389   0.069 -0.4784  0.0787  0.3400
 5552SOL    HW128289   1.280   1.421   0.129 -0.0795  0.9824  0.3008
 5552SOL    HW228290   1.398   1.322   0.114  0.7523 -0.2632 -1.5746
 5553SOL     OW28291   3.011   3.936   3.800  1.2095 -0.2316 -0.2219
 5553SOL    HW128292   2.979   3.883   3.727  2.6557 -3.1826  1.2930
 5553SOL    HW228293   3.071   3.998   3.758  2.4937 -1.4501 -0.1642
 5554SOL     OW28294   4.222   3.249   2.751 -0.5798  0.1544  0.0746
 5554SOL    HW128295   4.205   3.329   2.702 -1.4193  0.9327  1.6570
 5554SOL    HW228296   4.234   3.188   2.678  1.3722  0.0391  0.4709
 5555SOL     OW28297   0.015   3.587   3.395  0.0079 -0.3274 -0.4168
 5555SOL    HW128298   4.711   3.549   3.314  0.8954 -1.4971 -0.2490
 5555SOL    HW228299   0.109   3.585   3.378 -0.0938 -0.4839 -0.9597
 5556SOL     OW28300   2.199   2.664   2.625  0.1455  0.1649 -0.4580
 5556SOL    HW128301   2.267   2.641   2.688 -0.2957  2.6013  0.9002
 5556SOL    HW228302   2.212   2.591   2.565 -2.7007 -1.2973  0.7382
 5557SOL     OW28303   1.843   1.400  16.088 -0.3330  0.0156 -0.0578
 5557SOL    HW128304   1.870   1.415  16.178 -0.6335 -0.2020  0.0718
 5557SOL    HW228305   1.817   1.308  16.092  0.2223 -0.0874  1.0102
 5558SOL     OW28306   0.894   2.049   4.025  0.3345  0.1670  0.2009
 5558SOL    HW128307   0.821   2.039   4.086 -0.0499 -0.2107 -0.3338
 5558SOL    HW228308   0.876   1.982   3.960  1.0074  0.3074 -0.1290
 5559SOL     OW28309   2.401   3.269   8.630 -0.1555  0.3080 -0.0983
 5559SOL    HW128310   2.318   3.294   8.590  0.3995  2.4538  0.1012
 5559SOL    HW228311   2.409   3.176   8.611 -0.3415  0.3724 -0.4796
 5560SOL     OW28312   2.774   3.477   3.239 -0.5544  0.2155  0.2058
 5560SOL    HW128313   2.743   3.490   3.149 -1.4649 -0.1851  0.4613
 5560SOL    HW228314   2.816   3.393   3.220  1.2418  0.6620  2.2513
 5561SOL     OW28315   4.440   3.578   2.734  0.1518  0.7346  0.3211
 5561SOL    HW128316   4.402   3.613   2.815 -0.8619  0.6759 -0.1243
 5561SOL    HW228317   4.380   3.505   2.718  1.3951  0.9526 -5.4918
 5562SOL     OW28318   4.489   3.733  13.730  0.0145 -0.3073  0.5786
 5562SOL    HW128319   4.398   3.711  13.714 -0.7421  1.9909  1.8133
 5562SOL    HW228320   4.528   3.646  13.739 -1.2210 -0.9929 -0.7643
 5563SOL     OW28321   1.393   4.455   2.152 -0.3298 -0.2070 -0.0902
 5563SOL    HW128322   1.382   4.417   2.065 -0.5637  1.2391 -0.7030
 5563SOL    HW228323   1.484   4.485   2.153 -0.6330  0.7964 -1.9844
 5564SOL     OW28324   2.183   1.914   7.815  0.1474 -0.2440 -0.0049
 5564SOL    HW128325   2.146   1.908   7.727  0.9247  0.9055 -0.4056
 5564SOL    HW228326   2.254   1.977   7.804 -0.6795  0.1220 -3.1730
 5565SOL     OW28327   2.336   3.047   2.940 -0.1080  0.1401  0.0138
 5565SOL    HW128328   2.337   3.103   3.017 -1.5530  1.9902 -1.3119
 5565SOL    HW228329   2.271   2.981   2.962  0.6299  0.0159  1.7720
 5566SOL     OW28330   3.208   2.134   3.664 -0.6507  0.0178 -0.2255
 5566SOL    HW128331   3.253   2.152   3.581 -1.4923  1.6036 -0.3402
 5566SOL    HW228332   3.174   2.223   3.673 -2.5895 -1.0128  2.4251
 5567SOL     OW28333   4.018   4.701   5.598 -0.1506  0.6260  0.0962
 5567SOL    HW128334   4.031   0.009   5.512 -1.1008 -0.1111 -0.3811
 5567SOL    HW228335   4.008   0.054   5.642  1.5820  0.1559  1.4491
 5568SOL     OW28336   0.479   4.453   3.327  0.0519  0.3398  0.0314
 5568SOL    HW128337   0.485   4.370   3.280 -0.7524  0.3093 -0.0210
 5568SOL    HW228338   0.437   4.515   3.267  1.7410  2.1285  0.7017
 5569SOL     OW28339   2.772   2.951   7.272 -0.1974  0.4615 -0.2845
 5569SOL    HW128340   2.716   2.936   7.196 -0.9055 -0.4458  0.4176
 5569SOL    HW228341   2.854   2.960   7.225 -0.3328 -1.1090 -0.8189
 5570SOL     OW28342   2.125   3.800   3.939 -0.2309 -0.3327 -0.3924
 5570SOL    HW128343   2.186   3.820   4.010 -0.0381  0.7007 -0.8516
 5570SOL    HW228344   2.063   3.739   3.978  1.5334 -2.4702 -0.8770
 5571SOL     OW28345   1.931   1.501  15.773 -0.0284 -0.2290  0.3690
 5571SOL    HW128346   1.936   1.482  15.867 -0.5017 -2.1664  0.0045
 5571SOL    HW228347   1.940   1.596  15.774  3.2532 -0.5421  1.4274
 5572SOL     OW28348   3.541   1.901   8.278 -0.0440 -0.2078 -0.2619
 5572SOL    HW128349   3.544   1.910   8.183  0.8379  0.2591 -0.1931
 5572SOL    HW228350   3.470   1.840   8.296  0.7941 -0.9448  0.5972
 5573SOL     OW28351   0.805   4.690  10.143  0.4339 -0.1220 -0.8780
 5573SOL    HW128352   0.875   4.726  10.089  1.7216 -1.0563  0.1634
 5573SOL    HW228353   0.758   4.645  10.073 -0.6962  0.0549 -0.2442
 5574SOL     OW28354   0.327   0.445  17.403  0.1765 -0.2979  0.4456
 5574SOL    HW128355   0.330   0.420  17.495  0.7458 -1.4233  0.1126
 5574SOL    HW228356   0.232   0.455  17.397  0.0403 -2.7459 -1.5470
 5575SOL     OW28357   3.236   3.804   4.993 -0.3954 -0.7425 -0.4116
 5575SOL    HW128358   3.210   3.713   4.980  1.4049 -1.5043  1.2478
 5575SOL    HW228359   3.292   3.830   4.920 -0.7582  2.0925  0.3316
 5576SOL     OW28360   3.654   2.312   8.161  0.6880 -0.2422 -0.1912
 5576SOL    HW128361   3.742   2.304   8.198  0.6986  1.1186  0.0590
 5576SOL    HW228362   3.611   2.241   8.208 -0.5047 -0.2669 -1.3262
 5577SOL     OW28363   3.319   1.517   1.979 -0.0458  0.0047 -0.0971
 5577SOL    HW128364   3.256   1.527   2.051 -2.0259 -2.0847 -1.5300
 5577SOL    HW228365   3.386   1.457   2.012  0.8561  1.5387  0.8546
 5578SOL     OW28366   3.703   2.740   5.603 -0.0090  0.2942 -0.3139
 5578SOL    HW128367   3.776   2.682   5.624 -1.3587 -2.0844 -2.1393
 5578SOL    HW228368   3.738   2.825   5.627 -1.0192  0.7435 -0.4392
 5579SOL     OW28369   3.202   3.429   8.913 -0.5503 -0.3284 -0.3512
 5579SOL    HW128370   3.273   3.388   8.962  0.2505 -0.8950 -1.9875
 5579SOL    HW228371   3.199   3.511   8.963 -2.8311 -1.1780  0.9446
 5580SOL     OW28372   0.712   0.974  10.578 -0.8927  0.5515 -0.1227
 5580SOL    HW128373   0.757   0.962  10.662 -0.6113 -0.9989 -0.4791
 5580SOL    HW228374   0.637   1.031  10.587 -0.4498  1.4243 -1.9025
 5581SOL     OW28375   0.069   1.265  12.086  0.3148 -0.1554 -0.4502
 5581SOL    HW128376   4.728   1.304  12.136 -1.0191 -0.6295 -2.0125
 5581SOL    HW228377   0.141   1.289  12.145 -0.2879  1.3535 -0.3339
 5582SOL     OW28378   3.361   0.379   2.377  0.1002 -0.0453 -0.0151
 5582SOL    HW128379   3.381   0.310   2.314  2.4178  0.6345 -0.0512
 5582SOL    HW228380   3.267   0.364   2.379  0.0842  0.4967  4.4170
 5583SOL     OW28381   0.023   0.021  10.092  0.2668 -0.1496 -0.0347
 5583SOL    HW128382   0.045   0.010   9.999  0.5880 -0.0622  0.0336
 5583SOL    HW228383   0.104   0.059  10.124  1.2376  0.7576 -3.5745
 5584SOL     OW28384   0.637   3.774   6.732 -0.7558  0.3066  0.5183
 5584SOL    HW128385   0.722   3.737   6.757 -1.5182 -2.0403 -0.3547
 5584SOL    HW228386   0.638   3.779   6.636  0.3997  1.0112  0.5742
 5585SOL     OW28387   2.793   4.497   4.272  0.2364 -0.0077  0.3877
 5585SOL    HW128388   2.887   4.485   4.261  0.1843  0.3634 -0.4681
 5585SOL    HW228389   2.758   4.412   4.246  1.8115 -1.1982  2.1025
 5586SOL     OW28390   3.991   3.072   9.430 -0.0840 -0.1488 -0.2993
 5586SOL    HW128391   3.904   3.064   9.391  0.4751  0.8122 -1.7377
 5586SOL    HW228392   3.991   3.025   9.514 -0.2805 -0.7673 -0.6476
 5587SOL     OW28393   1.051   2.636   8.111  0.2590  0.8447  0.3423
 5587SOL    HW128394   1.097   2.645   8.028 -0.2248  0.8456  0.0754
 5587SOL    HW228395   0.979   2.692   8.083  0.8169  1.0434 -0.6666
 5588SOL     OW28396   1.446   3.060  17.393  0.1531  0.3121  0.0872
 5588SOL    HW128397   1.521   3.008  17.367  1.1610  1.1028  1.4365
 5588SOL    HW228398   1.409   3.027  17.475 -1.0352  0.0326 -0.5619
 5589SOL     OW28399   3.865   0.192   3.010  0.0487 -0.1516 -0.2797
 5589SOL    HW128400   3.873   0.162   2.920 -1.9005  2.1571 -1.2320
 5589SOL    HW228401   3.772   0.190   3.031  0.1511  1.2805  0.3587
 5590SOL     OW28402   0.356   3.939  11.645  0.2564  0.0942 -0.1954
 5590SOL    HW128403   0.357   4.014  11.705 -0.5368  0.7052 -0.9331
 5590SOL    HW228404   0.415   3.962  11.574  2.0470 -2.4200  0.5128
 5591SOL     OW28405   3.053   2.404   0.945 -0.1648 -0.6663  0.2917
 5591SOL    HW128406   3.051   2.328   0.887  0.5256  0.6130 -1.3842
 5591SOL    HW228407   2.965   2.422   0.977 -0.2930  0.9966 -1.0038
 5592SOL     OW28408   4.415   1.909   2.310  0.0060  0.2366 -0.0660
 5592SOL    HW128409   4.362   1.929   2.387  0.5889  1.2924  0.0600
 5592SOL    HW228410   4.356   1.939   2.242 -0.0035 -1.2024 -0.6985
 5593SOL     OW28411   3.338   4.269   5.809  0.1603 -0.0402 -0.2564
 5593SOL    HW128412   3.245   4.275   5.832  0.3698 -0.0641  0.6157
 5593SOL    HW228413   3.353   4.177   5.832  0.4162 -0.8585 -3.7245
 5594SOL     OW28414   3.597   2.316   2.004  0.2576 -0.3367  0.3455
 5594SOL    HW128415   3.626   2.374   2.074 -1.4464  1.9066 -0.8191
 5594SOL    HW228416   3.545   2.246   2.044  1.0639  0.5936  3.0345
 5595SOL     OW28417   1.220   3.869  13.096  0.0965  0.2082 -0.4088
 5595SOL    HW128418   1.233   3.822  13.014  4.0873 -1.5840  1.2798
 5595SOL    HW228419   1.279   3.823  13.155 -0.8541 -0.0046  0.3870
 5596SOL     OW28420   3.978   4.731   7.237  0.1902  0.4409  0.4629
 5596SOL    HW128421   3.883   4.726   7.221  0.6667  1.2348 -2.6063
 5596SOL    HW228422   3.995   4.637   7.241 -0.3930  0.2061 -2.5702
 5597SOL     OW28423   1.533   0.076   7.363 -0.3094  0.4811 -0.6045
 5597SOL    HW128424   1.544   0.151   7.422 -0.0701  0.0405 -0.0790
 5597SOL    HW228425   1.609   0.027   7.397 -1.0663  0.2261  0.7192
 5598SOL     OW28426   4.092   1.868   6.311  0.9709 -0.4550  0.4032
 5598SOL    HW128427   4.135   1.947   6.279 -0.2579  0.4889  1.0519
 5598SOL    HW228428   4.084   1.892   6.403  0.2746  2.9511 -0.5564
 5599SOL     OW28429   4.082   4.020   1.653  0.1037 -0.3536 -0.8411
 5599SOL    HW128430   4.123   3.948   1.700 -0.1024  0.3789  0.4688
 5599SOL    HW228431   4.131   4.094   1.686  0.0339 -0.0357 -1.4569
 5600SOL     OW28432   3.444   0.137  14.094 -0.1632  0.5203 -0.1100
 5600SOL    HW128433   3.497   0.217  14.090  1.2472 -0.3743  0.4634
 5600SOL    HW228434   3.355   0.164  14.073 -0.5849 -1.0211 -0.3501
 5601SOL     OW28435   2.458   3.803   3.428 -0.3034 -0.3872 -0.6444
 5601SOL    HW128436   2.516   3.729   3.412  0.7033 -0.0672  1.4845
 5601SOL    HW228437   2.372   3.774   3.399 -0.6977  0.1975 -0.0602
 5602SOL     OW28438   0.373   0.262   8.701 -0.2099  0.5374  0.2850
 5602SOL    HW128439   0.463   0.233   8.688 -0.0668  0.5321  1.3027
 5602SOL    HW228440   0.388   0.329   8.768  1.9550  0.5939 -0.2391
 5603SOL     OW28441   0.017   2.103   7.879  0.1063  0.3740  0.4169
 5603SOL    HW128442   0.075   2.146   7.942  0.4800  1.2787 -0.5420
 5603SOL    HW228443   4.710   2.030   7.927 -2.3119  0.3175 -1.6023
 5604SOL     OW28444   4.011   3.935   7.341  0.0987 -0.5192 -0.2011
 5604SOL    HW128445   4.073   4.003   7.314 -1.0228  0.2377 -0.8960
 5604SOL    HW228446   4.048   3.906   7.423 -1.6656 -1.7841  0.1465
 5605SOL     OW28447   2.353   0.194   8.740 -0.2532 -0.1488 -0.1218
 5605SOL    HW128448   2.351   0.289   8.727  4.1015 -0.1315 -0.5250
 5605SOL    HW228449   2.289   0.185   8.811  0.7914  0.6163  0.9142
 5606SOL     OW28450   1.434   3.333   7.062 -0.1508 -0.1638  0.4325
 5606SOL    HW128451   1.382   3.398   7.015  1.5763  1.4508  0.7724
 5606SOL    HW228452   1.432   3.260   6.999 -0.2242 -1.1449  1.5700
 5607SOL     OW28453   4.480   0.042   5.970 -0.0869 -0.4969 -0.3339
 5607SOL    HW128454   4.528   0.125   5.963 -1.8355  0.6777  1.6794
 5607SOL    HW228455   4.499   0.006   5.884 -0.1377  0.6268 -0.8115
 5608SOL     OW28456   1.040   4.244  11.837  0.3259 -0.4694  0.2599
 5608SOL    HW128457   1.046   4.334  11.804 -0.8508 -0.5128 -0.0886
 5608SOL    HW228458   1.119   4.254  11.889  0.8805  0.1731 -0.7103
 5609SOL     OW28459   3.041   1.939   6.761  0.5415  0.1390  0.1167
 5609SOL    HW128460   3.034   1.876   6.689  0.9715  0.6823 -0.3909
 5609SOL    HW228461   3.096   1.896   6.827  1.5853 -0.6495 -1.2900
 5610SOL     OW28462   1.318   0.689   5.392 -0.0153 -0.3205  0.0951
 5610SOL    HW128463   1.258   0.615   5.402 -0.4896 -0.1169 -1.3293
 5610SOL    HW228464   1.371   0.657   5.319  1.4941  1.7961  0.2635
 5611SOL     OW28465   2.424   2.578  11.817 -0.1415 -0.3727  0.0740
 5611SOL    HW128466   2.514   2.546  11.807 -0.7577 -2.7477  2.2424
 5611SOL    HW228467   2.379   2.496  11.833 -0.9891  0.2871  1.0525
 5612SOL     OW28468   3.853   2.501   5.681  0.0053 -0.0978 -0.0420
 5612SOL    HW128469   3.851   2.496   5.777  2.9554 -2.2445 -0.0984
 5612SOL    HW228470   3.939   2.543   5.679 -0.1178  0.0121 -2.8943
 5613SOL     OW28471   2.910   2.325   0.042  0.2457  0.1571 -0.1145
 5613SOL    HW128472   2.845   2.306  17.699  1.0553 -0.1769 -0.7906
 5613SOL    HW228473   2.861   2.382   0.102 -0.2650  0.4314 -0.7877
 5614SOL     OW28474   2.304   0.884   3.194  0.5370 -0.2245  0.9951
 5614SOL    HW128475   2.354   0.835   3.259 -1.6504 -0.3476  2.6079
 5614SOL    HW228476   2.258   0.811   3.153  0.8840  0.4696 -0.6004
 5615SOL     OW28477   1.312   3.638   0.946  0.2368  0.0453 -0.5939
 5615SOL    HW128478   1.395   3.593   0.929  0.1137 -0.1704 -0.6243
 5615SOL    HW228479   1.351   3.720   0.976  0.2558  0.2933 -1.2890
 5616SOL     OW28480   4.006   4.081   3.705 -0.0962  0.0050 -0.2602
 5616SOL    HW128481   3.925   4.122   3.734  0.4311 -0.6514  2.1777
 5616SOL    HW228482   3.978   4.010   3.648 -0.1638  0.5310 -0.8800
 5617SOL     OW28483   0.721   1.380   4.245 -0.0179  0.1279  0.0004
 5617SOL    HW128484   0.725   1.410   4.336  2.3504 -0.2295 -0.0073
 5617SOL    HW228485   0.654   1.434   4.203 -1.5299 -1.6689  0.0469
 5618SOL     OW28486   1.261   4.316   8.577  0.1928  0.1628 -0.2827
 5618SOL    HW128487   1.188   4.258   8.601  0.0998  0.4786  0.1863
 5618SOL    HW228488   1.343   4.269   8.593 -0.1556  0.0927  1.2595
 5619SOL     OW28489   0.168   1.672  11.132  0.2707 -0.0938  0.2219
 5619SOL    HW128490   0.151   1.743  11.193 -2.2125 -1.1962  0.8120
 5619SOL    HW228491   0.079   1.638  11.128  0.5842 -0.8976 -0.0068
 5620SOL     OW28492   4.032   2.033   4.563  0.0956 -0.2257  0.0408
 5620SOL    HW128493   3.948   1.989   4.560 -0.1845  0.4057 -1.5823
 5620SOL    HW228494   3.994   2.119   4.544 -1.2750 -1.1009 -1.1731
 5621SOL     OW28495   4.536   3.182   2.671  0.0899  0.1123  0.2738
 5621SOL    HW128496   4.524   3.141   2.756  0.8615  1.5291  1.0869
 5621SOL    HW228497   4.632   3.174   2.671  0.0533 -0.2870  0.1529
 5622SOL     OW28498   0.713   3.787   4.573  0.1477 -0.1153  0.0482
 5622SOL    HW128499   0.691   3.694   4.559  0.1768 -0.2981  1.2518
 5622SOL    HW228500   0.806   3.782   4.594  0.1339 -0.2766  0.0768
 5623SOL     OW28501   1.529   1.355  16.038 -0.5098  0.4073  0.2061
 5623SOL    HW128502   1.476   1.342  16.117  0.1509  1.1930  0.7838
 5623SOL    HW228503   1.468   1.406  15.986  0.1486 -0.7121 -1.6429
 5624SOL     OW28504   2.842   3.045   5.401  0.3296 -0.1747 -0.5256
 5624SOL    HW128505   2.903   3.085   5.463  1.0447 -0.1863 -1.2196
 5624SOL    HW228506   2.903   3.004   5.339  2.2458 -0.1335  1.3040
 5625SOL     OW28507   1.471   3.919   6.095 -0.0430 -0.4888 -0.4433
 5625SOL    HW128508   1.479   3.824   6.087 -0.2263 -0.6229  0.9099
 5625SOL    HW228509   1.564   3.940   6.108  0.2385 -1.4717 -0.8489
 5626SOL     OW28510   3.293   2.969   3.220  0.1047 -0.4594 -0.5714
 5626SOL    HW128511   3.307   2.988   3.312 -2.8698 -2.2804  0.2451
 5626SOL    HW228512   3.337   3.047   3.186 -0.8548  0.5758  0.5792
 5627SOL     OW28513   0.316   3.970   4.292 -0.2052  0.0457  0.5878
 5627SOL    HW128514   0.266   4.037   4.246 -1.9147  0.6469  3.3205
 5627SOL    HW228515   0.359   3.919   4.224 -2.5351  0.4478 -1.1722
 5628SOL     OW28516   2.620   3.041   1.667 -0.0345 -0.4637 -0.1594
 5628SOL    HW128517   2.572   3.027   1.749 -1.5650 -0.7642 -1.0961
 5628SOL    HW228518   2.707   3.067   1.698 -0.3882  1.3389 -0.6806
 5629SOL     OW28519   2.288   4.381   5.423 -0.0694  0.6493  0.3716
 5629SOL    HW128520   2.275   4.464   5.470 -0.2416  0.4530  0.6749
 5629SOL    HW228521   2.219   4.383   5.357  1.0600  2.7527 -0.7245
 5630SOL     OW28522   0.808   0.668   4.219  0.0670 -0.5316  0.0664
 5630SOL    HW128523   0.831   0.691   4.129  2.0207 -1.2317  0.3922
 5630SOL    HW228524   0.895   0.670   4.260  0.0855  1.5114 -0.0368
 5631SOL     OW28525   2.383   2.025   4.676 -0.5680 -0.2268  0.2750
 5631SOL    HW128526   2.377   1.933   4.652  0.8810 -0.5809  1.2671
 5631SOL    HW228527   2.395   2.066   4.590  0.2400 -0.0795  0.4576
 5632SOL     OW28528   3.845   1.362   1.402 -0.1026 -0.2154 -0.5179
 5632SOL    HW128529   3.912   1.426   1.378  0.0052  0.1971  0.8956
 5632SOL    HW228530   3.765   1.393   1.359  0.0012  0.9981  0.1507
 5633SOL     OW28531   4.326   3.405   8.246 -0.2963 -0.3680 -0.3504
 5633SOL    HW128532   4.358   3.476   8.302  1.8627  0.1681 -2.2940
 5633SOL    HW228533   4.314   3.336   8.311  0.5231 -0.3627 -0.1878
 5634SOL     OW28534   3.115   4.040   5.627 -0.1694 -0.5838  0.3512
 5634SOL    HW128535   3.030   4.017   5.591 -0.0441 -0.7273  0.1463
 5634SOL    HW228536   3.149   3.954   5.653  0.9767 -0.3123 -0.2458
 5635SOL     OW28537   1.827   1.235  14.725 -0.1914 -0.6758 -0.8479
 5635SOL    HW128538   1.857   1.326  14.730 -1.5005 -0.2596 -0.5378
 5635SOL    HW228539   1.895   1.207  14.786  0.3000 -1.8012 -1.9033
 5636SOL     OW28540   2.274   3.680   2.810 -0.2291  0.0780 -0.2404
 5636SOL    HW128541   2.343   3.683   2.744 -1.0513 -0.0451 -1.1134
 5636SOL    HW228542   2.327   3.718   2.880 -0.0264  1.6763 -1.2611
 5637SOL     OW28543   0.721   0.577  10.409 -0.7240  0.1371  0.7672
 5637SOL    HW128544   0.816   0.569  10.411 -0.7334  0.3144  2.0030
 5637SOL    HW228545   0.704   0.618  10.324  0.4877 -1.5211 -0.2884
 5638SOL     OW28546   3.427   3.185   4.569  0.5046  0.0076 -0.0919
 5638SOL    HW128547   3.371   3.152   4.639  0.4111  0.8300  0.2304
 5638SOL    HW228548   3.501   3.125   4.579  2.0985  1.9868 -0.0663
 5639SOL     OW28549   1.889   0.064  16.980 -0.2475  0.0911 -0.0880
 5639SOL    HW128550   1.855   0.075  16.891  2.2036  1.2568 -0.8564
 5639SOL    HW228551   1.822   0.016  17.030 -0.5375  0.3442 -0.2308
 5640SOL     OW28552   1.591   4.663  10.868 -0.5442  0.4232  0.0776
 5640SOL    HW128553   1.577   4.577  10.907  1.4588 -0.3098 -0.8296
 5640SOL    HW228554   1.680   4.688  10.894 -0.6918  0.3448  0.6698
 5641SOL     OW28555   2.313   3.588  16.988 -0.0589 -0.1674  0.6763
 5641SOL    HW128556   2.239   3.605  16.930  1.1344  0.0894 -0.7783
 5641SOL    HW228557   2.382   3.636  16.942 -0.7973 -0.6833 -0.9603
 5642SOL     OW28558   0.793   3.526   8.642  0.0716  0.7437 -0.5728
 5642SOL    HW128559   0.871   3.577   8.664 -0.4348  1.5166 -0.5689
 5642SOL    HW228560   0.737   3.604   8.642 -0.7135  0.1696 -2.2633
 5643SOL     OW28561   3.914   4.450   3.966  0.1783  0.1034 -0.1397
 5643SOL    HW128562   3.912   4.363   4.005  0.5366 -0.5859 -1.6513
 5643SOL    HW228563   3.831   4.484   4.001  0.3463 -1.6232  1.9127
 5644SOL     OW28564   2.657   3.912   6.349 -0.0478 -0.5323 -0.1172
 5644SOL    HW128565   2.612   3.983   6.394  0.5859  1.2537 -2.2650
 5644SOL    HW228566   2.651   3.838   6.410  0.4067  0.2649  0.9014
 5645SOL     OW28567   4.465   2.792   6.123 -0.0792  0.1747 -0.1044
 5645SOL    HW128568   4.402   2.847   6.169 -0.4422  1.1663 -1.7818
 5645SOL    HW228569   4.502   2.756   6.203  0.0448 -1.9070 -1.0943
 5646SOL     OW28570   0.659   3.119   9.133  0.5201  0.7492  0.1915
 5646SOL    HW128571   0.670   3.085   9.222  0.4405 -0.1047 -0.1238
 5646SOL    HW228572   0.606   3.049   9.094  0.2605  1.5828 -0.9733
 5647SOL     OW28573   0.954   2.162  10.090 -0.6553 -0.1412  0.1278
 5647SOL    HW128574   0.879   2.175  10.149  0.2182  1.0169  0.9778
 5647SOL    HW228575   1.027   2.148  10.149 -0.8343  2.3845  0.9462
 5648SOL     OW28576   3.196   1.959   7.881  0.2466 -0.4111  0.0327
 5648SOL    HW128577   3.221   2.051   7.870 -2.8983  0.0913 -3.0580
 5648SOL    HW228578   3.216   1.942   7.973  1.5437 -2.1359 -0.5750
 5649SOL     OW28579   0.426   0.483  15.574 -0.1657  0.2284 -0.2428
 5649SOL    HW128580   0.421   0.561  15.519 -0.1833  0.6543  0.3648
 5649SOL    HW228581   0.419   0.404  15.521  1.5359 -1.8173  2.6093
 5650SOL     OW28582   1.900   2.883   6.242 -0.2986  0.0879  0.3633
 5650SOL    HW128583   1.885   2.924   6.327 -0.1613  1.1624 -0.1320
 5650SOL    HW228584   1.947   2.954   6.198  0.6401 -0.5428  0.3513
 5651SOL     OW28585   1.729   2.254  15.919 -0.3852 -0.6452 -0.1022
 5651SOL    HW128586   1.772   2.332  15.885 -0.4569  0.6014  2.6665
 5651SOL    HW228587   1.784   2.244  15.997 -0.7853 -1.3222  0.0963
 5652SOL     OW28588   2.562   0.264  11.551 -0.0885  0.1904  0.2524
 5652SOL    HW128589   2.575   0.232  11.640  0.0708 -2.5078 -0.7504
 5652SOL    HW228590   2.494   0.329  11.567  0.5423  0.5080  1.5604
 5653SOL     OW28591   4.486   4.666   7.211 -0.1196  0.3533  0.2125
 5653SOL    HW128592   4.402   4.652   7.166  1.4006 -0.4913 -2.3385
 5653SOL    HW228593   4.513   0.020   7.177 -0.4048  1.0329  1.6678
 5654SOL     OW28594   4.218   4.667   9.208 -0.2212  0.2294 -0.1775
 5654SOL    HW128595   4.199   0.028   9.221  1.5329  0.2149  2.5447
 5654SOL    HW228596   4.282   4.667   9.137  0.0960  2.5453  0.1093
 5655SOL     OW28597   4.577   1.018  17.564 -0.2890  0.8696 -0.5769
 5655SOL    HW128598   4.526   1.054  17.637  1.1160  0.9902  0.3384
 5655SOL    HW228599   4.504   1.004  17.504 -0.0550 -1.0391 -0.4254
 5656SOL     OW28600   4.447   1.888   8.273 -0.1276  0.5718  0.0501
 5656SOL    HW128601   4.506   1.964   8.270  1.1462 -0.3266  3.1735
 5656SOL    HW228602   4.471   1.828   8.202  1.4078 -0.5534  1.5387
 5657SOL     OW28603   3.711   2.732   8.998 -0.5878  0.1973  0.1591
 5657SOL    HW128604   3.672   2.762   8.916  0.6366 -0.0766 -0.5223
 5657SOL    HW228605   3.652   2.674   9.047  1.4452 -1.3415  0.7817
 5658SOL     OW28606   3.882   2.761  12.416  0.0125 -0.2588  0.0766
 5658SOL    HW128607   3.812   2.704  12.382  0.3228 -1.7575  1.9985
 5658SOL    HW228608   3.888   2.726  12.504  0.3978  0.1246  0.2032
 5659SOL     OW28609   2.565   0.288   2.338 -0.3597 -0.2059 -0.3527
 5659SOL    HW128610   2.640   0.309   2.394 -1.1390  1.1165  0.2137
 5659SOL    HW228611   2.532   0.378   2.333  0.9325  0.1582 -2.1132
 5660SOL     OW28612   0.602   2.507  16.421  0.3746 -0.0095 -0.1712
 5660SOL    HW128613   0.643   2.430  16.383 -0.0016  0.0529 -0.7189
 5660SOL    HW228614   0.663   2.575  16.391  1.6085 -1.0361  0.0460
 5661SOL     OW28615   1.606   2.280   7.915  0.0727  0.2481  0.7040
 5661SOL    HW128616   1.519   2.241   7.904  0.1612  0.2309  0.0949
 5661SOL    HW228617   1.588   2.349   7.978  0.4387  0.3854  0.6554
 5662SOL     OW28618   3.661   0.305   7.207  0.6812  0.3473 -0.0050
 5662SOL    HW128619   3.688   0.214   7.194  1.6732  0.6783 -0.2739
 5662SOL    HW228620   3.577   0.297   7.161 -0.2667  1.6069  1.5107
 5663SOL     OW28621   3.494   2.732   7.718  0.3795 -0.1833 -0.1905
 5663SOL    HW128622   3.568   2.685   7.756  2.2119  1.8351 -1.2959
 5663SOL    HW228623   3.469   2.689   7.637 -0.8188 -2.9933  1.6765
 5664SOL     OW28624   3.545   0.366   5.962  0.3775 -0.0260 -0.0780
 5664SOL    HW128625   3.501   0.282   5.958  0.3296  0.0348 -0.8251
 5664SOL    HW228626   3.632   0.334   5.987  0.4867  0.3932  0.0894
 5665SOL     OW28627   0.904   2.304   8.727  0.0531 -0.3323  0.3999
 5665SOL    HW128628   0.973   2.362   8.697 -0.6512  0.0057 -0.5784
 5665SOL    HW228629   0.894   2.336   8.816  0.6573 -0.1574  0.4022
 5666SOL     OW28630   4.087   3.844   7.099 -0.6023 -0.5505 -0.1655
 5666SOL    HW128631   4.023   3.792   7.050 -2.0470  0.4031  0.7114
 5666SOL    HW228632   4.044   3.871   7.180  0.9524 -1.3523  0.9108
 5667SOL     OW28633   0.612   2.703   1.212  0.4328  0.2816  0.0194
 5667SOL    HW128634   0.625   2.797   1.226  0.7507  0.1972  0.3078
 5667SOL    HW228635   0.543   2.693   1.277 -0.0280  1.3139 -0.3225
 5668SOL     OW28636   3.204   3.062  14.390 -0.5897  0.8181  0.2947
 5668SOL    HW128637   3.203   3.135  14.328 -1.0926  0.6981  0.1589
 5668SOL    HW228638   3.123   3.065  14.441 -1.0773  0.3197 -0.4548
 5669SOL     OW28639   3.564   3.486  16.030  0.4085 -0.2484  0.2364
 5669SOL    HW128640   3.657   3.492  16.051  0.5890 -2.4610  0.0395
 5669SOL    HW228641   3.517   3.517  16.107 -0.6131 -0.3641 -0.3447
 5670SOL     OW28642   4.542   0.822   4.522  0.1870 -0.2414  0.5592
 5670SOL    HW128643   4.451   0.827   4.553  0.7916 -0.3153  2.3391
 5670SOL    HW228644   4.575   0.907   4.550 -2.8288  1.4753 -1.1012
 5671SOL     OW28645   3.767   0.846   3.360 -0.4161  0.1678  0.2749
 5671SOL    HW128646   3.834   0.908   3.332 -1.6810  0.9552 -0.9740
 5671SOL    HW228647   3.746   0.795   3.282  3.2094  1.1314 -1.3440
 5672SOL     OW28648   3.137   1.495  16.494 -0.6827 -0.0503 -0.3924
 5672SOL    HW128649   3.046   1.468  16.505 -0.5537 -0.1897  0.3156
 5672SOL    HW228650   3.185   1.416  16.518 -0.5503  0.0568 -0.3032
 5673SOL     OW28651   1.809   2.084   7.949  0.6291 -0.1730  0.4411
 5673SOL    HW128652   1.740   2.149   7.937 -0.4041 -2.1540 -4.1797
 5673SOL    HW228653   1.837   2.104   8.039  2.4639 -0.7637 -0.0041
 5674SOL     OW28654   1.839   3.368  11.238 -0.4887  0.0658  0.1050
 5674SOL    HW128655   1.769   3.405  11.184 -1.5092  0.1977  1.5256
 5674SOL    HW228656   1.909   3.431  11.222  0.7794 -1.4256 -0.2139
 5675SOL     OW28657   0.892   2.844   3.452  0.7749  0.6678  0.2984
 5675SOL    HW128658   0.838   2.912   3.411 -0.8254 -0.4583  0.5289
 5675SOL    HW228659   0.979   2.883   3.458  1.1212 -0.4427  2.5507
 5676SOL     OW28660   2.295   4.235   4.562  0.3926  0.1890 -0.1595
 5676SOL    HW128661   2.365   4.299   4.574  0.0530  0.6945 -0.9097
 5676SOL    HW228662   2.296   4.229   4.467 -1.0685  2.5958 -0.3132
 5677SOL     OW28663   2.828   0.530   2.936 -0.2509  1.1115  0.1915
 5677SOL    HW128664   2.817   0.570   2.849 -3.4521  1.6218  0.8401
 5677SOL    HW228665   2.857   0.606   2.985  1.8667  0.4358 -0.0340
 5678SOL     OW28666   1.569   0.652   3.946 -0.4069 -0.0202 -0.2253
 5678SOL    HW128667   1.635   0.670   4.012  1.6311 -0.6117 -2.1011
 5678SOL    HW228668   1.541   0.742   3.929 -3.6996 -1.1059 -0.6997
 5679SOL     OW28669   4.002   0.743  15.182  0.4884  0.1885 -0.2952
 5679SOL    HW128670   4.084   0.780  15.215 -0.0657  0.3036  0.9507
 5679SOL    HW228671   4.032   0.718  15.095 -1.1703  1.3943 -1.1971
 5680SOL     OW28672   2.152   3.733   9.255 -0.3756  0.1136 -0.0663
 5680SOL    HW128673   2.083   3.721   9.320  0.0363 -0.1329  0.3269
 5680SOL    HW228674   2.231   3.726   9.309  0.1481 -0.0168 -0.8526
 5681SOL     OW28675   0.606   4.221   2.329 -0.0490  0.2254  0.1775
 5681SOL    HW128676   0.603   4.297   2.387 -0.6698  0.7987 -0.6019
 5681SOL    HW228677   0.701   4.219   2.317 -0.2129 -0.6604 -0.9609
 5682SOL     OW28678   0.322   2.505  15.554 -0.0374  0.0323 -0.4737
 5682SOL    HW128679   0.289   2.415  15.560 -1.8010  0.6846 -0.5254
 5682SOL    HW228680   0.245   2.550  15.588 -1.4911 -0.7510 -2.7639
 5683SOL     OW28681   4.158   4.386   7.047 -0.0210 -0.6207  0.2779
 5683SOL    HW128682   4.066   4.365   7.035 -0.0295 -1.1077  1.1381
 5683SOL    HW228683   4.143   4.455   7.111 -1.2461  0.5869 -1.3449
 5684SOL     OW28684   2.102   1.208   8.427  0.6388 -0.6208 -0.2072
 5684SOL    HW128685   2.106   1.112   8.432  1.0504 -0.4463  3.2287
 5684SOL    HW228686   2.187   1.239   8.457 -0.4422  1.3909  0.7552
 5685SOL     OW28687   0.567   1.336   1.915 -0.1218  0.2832  0.6182
 5685SOL    HW128688   0.503   1.394   1.956 -0.3977 -1.0830  2.0902
 5685SOL    HW228689   0.554   1.367   1.825 -0.7116 -1.2172  0.1785
 5686SOL     OW28690   2.810   2.257   1.808  0.2414  0.4609  0.1154
 5686SOL    HW128691   2.843   2.204   1.881  1.3762 -1.3477 -1.7465
 5686SOL    HW228692   2.752   2.321   1.850 -0.7866 -1.5199  1.7051
 5687SOL     OW28693   3.848   1.063   3.875 -0.4251 -0.3480  0.4995
 5687SOL    HW128694   3.869   1.130   3.810 -1.3459  0.2192  0.7888
 5687SOL    HW228695   3.933   1.061   3.918 -1.3995 -0.8662  2.4094
 5688SOL     OW28696   1.656   4.616   5.427  0.2180  0.4455 -0.3020
 5688SOL    HW128697   1.612   4.533   5.444  1.6242  0.0818  1.5539
 5688SOL    HW228698   1.746   4.586   5.428 -0.1378 -0.5839  0.2596
 5689SOL     OW28699   4.433   0.144  16.144  0.3957  0.3274 -0.2179
 5689SOL    HW128700   4.454   0.157  16.052  0.0787 -1.1884 -0.5020
 5689SOL    HW228701   4.382   0.224  16.160 -3.1753 -1.3630 -3.3048
 5690SOL     OW28702   3.925   1.438   5.810 -0.1259 -0.4412  0.0142
 5690SOL    HW128703   3.929   1.403   5.899  0.2177  0.2665  0.2754
 5690SOL    HW228704   4.018   1.446   5.789  0.4510 -1.1140  2.3086
 5691SOL     OW28705   3.791   2.373   2.272  1.0362 -0.2477  0.1265
 5691SOL    HW128706   3.834   2.355   2.189 -1.3510  2.4210 -1.6877
 5691SOL    HW228707   3.797   2.288   2.316 -1.2755 -0.6156 -0.2328
 5692SOL     OW28708   2.554   2.325   5.711 -0.4899  0.0172 -0.4442
 5692SOL    HW128709   2.560   2.325   5.616 -0.1220 -1.3195 -0.4237
 5692SOL    HW228710   2.565   2.419   5.730 -0.5339 -0.1126  0.2241
 5693SOL     OW28711   1.429   2.499  16.501  0.6740 -0.1729  0.2319
 5693SOL    HW128712   1.496   2.566  16.504 -1.4633  1.9908 -0.6749
 5693SOL    HW228713   1.389   2.516  16.416 -0.7118  0.2258  0.9530
 5694SOL     OW28714   1.014   3.495   6.572 -0.2816 -0.4253  0.5027
 5694SOL    HW128715   0.933   3.494   6.522  1.2026 -2.1661 -1.8693
 5694SOL    HW228716   0.979   3.557   6.636 -1.1665  0.3521 -0.7627
 5695SOL     OW28717   3.012   1.387  15.560  0.6107  0.6202  0.4986
 5695SOL    HW128718   2.971   1.438  15.631 -0.8413 -0.0849  0.1738
 5695SOL    HW228719   3.029   1.458  15.498 -2.5388 -0.3233 -1.4300
 5696SOL     OW28720   0.278   1.757   7.156  0.3185  0.3107  0.2286
 5696SOL    HW128721   0.347   1.778   7.094  0.3609  0.9963  0.5126
 5696SOL    HW228722   0.268   1.662   7.146 -0.1760  0.4500 -0.5263
 5697SOL     OW28723   1.321   4.236   4.450 -0.1269 -0.0751 -0.5195
 5697SOL    HW128724   1.250   4.291   4.483 -0.0046  0.6388 -1.4235
 5697SOL    HW228725   1.377   4.294   4.398  0.6117  0.4720  0.8739
 5698SOL     OW28726   2.103   1.639   3.754  1.0337  0.0390  0.0065
 5698SOL    HW128727   2.064   1.695   3.821  0.5939  0.9166 -0.9774
 5698SOL    HW228728   2.108   1.557   3.803 -0.3984  0.5317  0.9721
 5699SOL     OW28729   3.302   2.420  15.204 -0.3603  0.2475 -0.2688
 5699SOL    HW128730   3.345   2.349  15.252  0.8803 -0.0134 -1.7527
 5699SOL    HW228731   3.337   2.494  15.254  1.8590  0.1928 -1.7450
 5700SOL     OW28732   3.115   4.493   5.858  0.3488 -0.0610  0.3958
 5700SOL    HW128733   3.069   4.421   5.817 -0.3570  0.9372 -0.5801
 5700SOL    HW228734   3.062   4.572   5.850 -1.1310 -0.9982  1.1110
 5701SOL     OW28735   4.516   4.091   5.688  0.0968 -0.0282 -0.5995
 5701SOL    HW128736   4.554   4.166   5.644 -2.4859 -0.4729 -3.5876
 5701SOL    HW228737   4.474   4.040   5.619 -1.4525  0.2968  0.1221
 5702SOL     OW28738   4.222   0.923   1.740 -0.7624 -0.4377 -0.3879
 5702SOL    HW128739   4.144   0.962   1.702 -0.9259  0.1639  0.5528
 5702SOL    HW228740   4.250   0.989   1.804  0.9818 -0.6415 -0.9511
 5703SOL     OW28741   4.103   2.238  12.473 -0.7447 -0.0228 -0.3984
 5703SOL    HW128742   4.161   2.287  12.531 -0.0718 -0.0675 -1.0406
 5703SOL    HW228743   4.048   2.315  12.457  1.7376  1.3041 -2.4024
 5704SOL     OW28744   0.193   0.808   3.439 -0.5061  0.4961  0.5373
 5704SOL    HW128745   0.120   0.793   3.500 -1.7462  0.6825 -0.9039
 5704SOL    HW228746   0.165   0.894   3.410 -0.4143  0.6376  0.8670
 5705SOL     OW28747   4.003   0.691  12.931 -0.3161 -0.4531  0.0707
 5705SOL    HW128748   4.025   0.783  12.920 -0.3176 -0.2948  1.4389
 5705SOL    HW228749   3.946   0.686  12.854  2.5515 -0.8231 -2.0193
 5706SOL     OW28750   2.371   3.152   2.030 -0.3347  0.6577  0.4263
 5706SOL    HW128751   2.396   3.244   2.032  0.1070  0.5407  0.3416
 5706SOL    HW228752   2.428   3.109   1.966 -0.1473  1.6014 -0.0343
 5707SOL     OW28753   1.544   3.305  17.476 -0.1645  0.1824  0.2837
 5707SOL    HW128754   1.474   3.333  17.535 -0.3245 -0.0930  0.2279
 5707SOL    HW228755   1.508   3.234  17.422  1.2149 -0.1895 -0.1377
 5708SOL     OW28756   2.742   0.322   7.806 -0.2477 -0.5112  0.5135
 5708SOL    HW128757   2.806   0.270   7.855 -0.6942 -0.0916  1.5440
 5708SOL    HW228758   2.805   0.366   7.750 -0.3547  0.2425  0.9861
 5709SOL     OW28759   2.558   1.039  14.892  0.1720 -0.1841  0.0031
 5709SOL    HW128760   2.553   1.042  14.796  0.8818  1.7511  0.0244
 5709SOL    HW228761   2.581   1.128  14.916  1.0871 -0.4201 -0.0067
 5710SOL     OW28762   2.044   3.647  17.379 -1.0866 -0.6063  0.4764
 5710SOL    HW128763   1.996   3.565  17.373 -3.5669  0.8712  0.0708
 5710SOL    HW228764   2.001   3.712  17.323  1.6153 -0.3702 -1.3503
 5711SOL     OW28765   1.654   0.771  15.518 -0.0020  0.4216 -0.0280
 5711SOL    HW128766   1.693   0.849  15.558 -2.2839  0.6589  1.7425
 5711SOL    HW228767   1.640   0.723  15.599  1.6242 -0.9561 -0.5675
 5712SOL     OW28768   2.664   2.333   7.290  0.0732  0.4546 -0.3690
 5712SOL    HW128769   2.598   2.314   7.224 -0.6313  2.0303 -0.1213
 5712SOL    HW228770   2.614   2.330   7.371 -0.1876  2.9441 -0.4315
 5713SOL     OW28771   3.273   3.433   2.938  0.4562 -0.6432  0.5566
 5713SOL    HW128772   3.307   3.385   2.863  0.0635  0.7126 -0.4699
 5713SOL    HW228773   3.355   3.460   2.980  0.2895  0.5582  0.0813
 5714SOL     OW28774   2.296   1.182  11.474 -0.0720  0.1593 -0.6501
 5714SOL    HW128775   2.349   1.256  11.444  0.5418 -0.0576 -0.1124
 5714SOL    HW228776   2.269   1.215  11.560  2.3075 -1.9924  0.9425
 5715SOL     OW28777   1.766   0.765   9.450 -0.6775  0.2769  0.3144
 5715SOL    HW128778   1.793   0.826   9.519 -0.5337  1.9781 -1.2478
 5715SOL    HW228779   1.708   0.826   9.404 -1.3539 -0.7327 -0.1861
 5716SOL     OW28780   0.419   1.665   3.524 -0.1669 -0.4279  0.0249
 5716SOL    HW128781   0.340   1.713   3.552  0.1133  0.2777 -0.4010
 5716SOL    HW228782   0.378   1.579   3.510 -2.9828  0.5640  2.2303
 5717SOL     OW28783   0.168   3.700   9.059  0.3241  0.1360  0.1778
 5717SOL    HW128784   0.193   3.784   9.020  1.3431  1.2536  3.2632
 5717SOL    HW228785   0.239   3.637   9.045 -0.5576 -1.5006  2.9510
 5718SOL     OW28786   0.006   0.534  10.151 -0.4258 -0.2167 -0.4389
 5718SOL    HW128787   4.714   0.627  10.159  1.2622  0.3767 -2.3471
 5718SOL    HW228788   0.029   0.526  10.058  1.4999 -1.4052  0.1555
 5719SOL     OW28789   0.155   0.272  11.027  0.0071 -0.6992 -0.0827
 5719SOL    HW128790   0.175   0.180  11.044 -1.5008 -0.9306  0.5361
 5719SOL    HW228791   0.109   0.310  11.103 -0.9955 -0.1061 -0.9765
 5720SOL     OW28792   1.772   4.720   4.050  0.2330  0.2111  0.3084
 5720SOL    HW128793   1.782   0.081   4.075 -1.7154 -0.1297  2.3197
 5720SOL    HW228794   1.704   4.720   3.982 -2.1435 -0.4336  2.6659
 5721SOL     OW28795   2.948   1.015   8.154 -0.2975  0.2819  0.2524
 5721SOL    HW128796   2.983   0.935   8.194 -0.9043 -0.1196 -0.0117
 5721SOL    HW228797   3.024   1.061   8.118 -0.4106  0.3052  0.0441
 5722SOL     OW28798   2.004   3.375  17.370 -0.0011  0.4982 -0.6876
 5722SOL    HW128799   2.035   3.299  17.321  2.0958  0.4150  0.7810
 5722SOL    HW228800   1.922   3.345  17.409 -0.7834  3.9762  0.3378
 5723SOL     OW28801   1.306   4.279  11.961 -0.8774  0.2610 -0.1466
 5723SOL    HW128802   1.362   4.356  11.964  1.6770 -1.7121  1.8826
 5723SOL    HW228803   1.363   4.216  12.004  0.6099 -0.6672 -3.4893
 5724SOL     OW28804   3.238   4.130   6.739  0.0305 -0.7638 -0.0302
 5724SOL    HW128805   3.287   4.177   6.807 -0.7817  1.2897 -0.8589
 5724SOL    HW228806   3.196   4.062   6.792 -0.3212 -0.5163  0.0024
 5725SOL     OW28807   0.456   4.597  10.142 -0.0131  0.1507 -0.3045
 5725SOL    HW128808   0.396   4.573  10.071  0.8411  0.2100 -1.0424
 5725SOL    HW228809   0.529   4.546  10.106 -1.5424 -2.0160 -0.3629
 5726SOL     OW28810   3.329   3.401   6.275  0.4799  0.2263  0.6193
 5726SOL    HW128811   3.260   3.366   6.331 -0.4283 -0.4077 -0.9033
 5726SOL    HW228812   3.377   3.447   6.345 -0.5802 -0.2433  1.6658
 5727SOL     OW28813   4.078   2.829   6.009 -0.2892 -0.0943 -0.2885
 5727SOL    HW128814   4.018   2.812   6.082 -1.0068  0.0770 -0.8363
 5727SOL    HW228815   4.045   2.913   5.978  0.2626 -0.3180 -1.4439
 5728SOL     OW28816   1.056   4.374   6.966 -0.0946 -0.1824 -0.1554
 5728SOL    HW128817   1.091   4.287   6.985 -0.6602 -1.2597 -3.9485
 5728SOL    HW228818   1.007   4.363   6.884  0.0618  1.2043 -0.4356
 5729SOL     OW28819   3.928   2.666   6.917  0.3815 -0.2342 -0.5087
 5729SOL    HW128820   3.865   2.666   6.845  0.8075 -0.8650 -0.8767
 5729SOL    HW228821   3.898   2.584   6.955  2.6079 -0.1329  1.4740
 5730SOL     OW28822   4.607   3.891  11.559 -0.4391 -0.3157  0.8377
 5730SOL    HW128823   4.671   3.898  11.630 -0.3726  2.2293  0.5218
 5730SOL    HW228824   4.620   3.968  11.503  2.5452 -0.5285  1.1992
 5731SOL     OW28825   3.524   1.938  14.146  0.0450 -0.1658 -0.0144
 5731SOL    HW128826   3.591   1.914  14.083 -2.7009 -0.6236 -2.7572
 5731SOL    HW228827   3.514   1.859  14.199  1.4070 -1.1549 -1.2330
 5732SOL     OW28828   2.284   2.588   6.805  0.1951 -0.2915  0.3524
 5732SOL    HW128829   2.242   2.603   6.721  4.2588 -0.0664 -1.6092
 5732SOL    HW228830   2.270   2.667   6.858 -0.1794 -0.2533  0.1960
 5733SOL     OW28831   2.108   2.240   6.367  1.1161  0.1600  0.3470
 5733SOL    HW128832   2.185   2.217   6.314 -0.0785  1.1738 -1.8543
 5733SOL    HW228833   2.103   2.169   6.431  0.5771  0.8052  1.0187
 5734SOL     OW28834   3.375   1.776   2.879 -0.1722  0.1910  0.1617
 5734SOL    HW128835   3.420   1.844   2.830  0.1587  0.0551  0.2826
 5734SOL    HW228836   3.309   1.754   2.812  0.7597 -0.3951 -0.5636
 5735SOL     OW28837   3.223   3.426   4.095 -0.5210  0.4621 -0.3813
 5735SOL    HW128838   3.238   3.480   4.017  0.5328  0.9983  0.1907
 5735SOL    HW228839   3.313   3.412   4.126 -0.2712 -0.2912 -1.4238
 5736SOL     OW28840   3.641   1.388  14.432 -0.0801 -0.3165 -0.0226
 5736SOL    HW128841   3.643   1.297  14.402 -0.5288 -0.1581 -0.5425
 5736SOL    HW228842   3.546   1.391  14.427 -0.0509  0.2515 -0.2647
 5737SOL     OW28843   3.302   1.063  15.642 -0.0194 -0.4246  0.0622
 5737SOL    HW128844   3.233   1.047  15.577  0.1310 -2.0172  0.2932
 5737SOL    HW228845   3.254   1.119  15.703  1.9330  0.0267  1.1687
 5738SOL     OW28846   3.924   0.477   0.807  0.5419  0.4920  0.5750
 5738SOL    HW128847   3.918   0.558   0.857 -2.2171 -0.2088  1.3915
 5738SOL    HW228848   3.889   0.518   0.728 -1.3380 -2.3388 -0.0550
 5739SOL     OW28849   2.057   2.640   1.274  0.9107  0.1988  0.0663
 5739SOL    HW128850   2.120   2.577   1.240  0.3848 -0.5691  0.5306
 5739SOL    HW228851   2.096   2.689   1.346 -0.9966  2.4073 -0.4005
 5740SOL     OW28852   2.006   0.384   1.786 -0.1537  0.6708  0.2120
 5740SOL    HW128853   2.019   0.409   1.694  0.2981 -1.5938 -0.3420
 5740SOL    HW228854   2.089   0.338   1.800 -0.6697  0.2143  1.6842
 5741SOL     OW28855   0.026   2.961   1.537  0.1915  0.1434  0.2092
 5741SOL    HW128856   0.066   2.891   1.485  1.7224  1.2731 -0.1102
 5741SOL    HW228857   0.044   3.042   1.490  2.1756 -0.8668 -0.7588
 5742SOL     OW28858   3.614   4.103   6.085  0.2424  0.1936 -0.3321
 5742SOL    HW128859   3.601   4.009   6.084  2.8560 -0.1872  0.9621
 5742SOL    HW228860   3.560   4.140   6.155  1.0936  0.2877  0.2678
 5743SOL     OW28861   1.661   4.544   6.343 -0.3986 -0.4485 -0.5504
 5743SOL    HW128862   1.592   4.512   6.401  1.2955  0.3390  1.8908
 5743SOL    HW228863   1.712   4.463   6.339  1.0631  0.4725 -0.6483
 5744SOL     OW28864   1.839   2.562  13.111 -0.3725  0.2133 -0.3994
 5744SOL    HW128865   1.749   2.591  13.099 -0.4334 -0.2273 -1.0219
 5744SOL    HW228866   1.867   2.539  13.022 -1.8784 -0.6035 -0.6502
 5745SOL     OW28867   4.134   2.312   5.141  0.1017  0.0568 -0.2605
 5745SOL    HW128868   4.062   2.288   5.198  0.1417  2.3486  0.7374
 5745SOL    HW228869   4.173   2.387   5.184  0.0606 -0.3637  0.5015
 5746SOL     OW28870   0.336   0.753   5.857  0.0238  0.4549  0.2543
 5746SOL    HW128871   0.395   0.799   5.798  1.2846 -0.4068  0.8487
 5746SOL    HW228872   0.331   0.665   5.820  0.4837 -0.9548  3.4948
 5747SOL     OW28873   0.829   2.279   7.495  0.2525  0.9217 -0.0233
 5747SOL    HW128874   0.835   2.216   7.424 -0.9964  0.7138  0.0519
 5747SOL    HW228875   0.746   2.254   7.535 -0.0467  3.3114  0.8608
 5748SOL     OW28876   2.145   2.829   8.080  0.1017 -0.4958 -0.8936
 5748SOL    HW128877   2.160   2.905   8.137  1.8503  0.6691 -2.9359
 5748SOL    HW228878   2.050   2.822   8.093  0.4795 -2.5145  0.8411
 5749SOL     OW28879   0.721   3.850   6.447 -0.7819  0.5761 -0.2054
 5749SOL    HW128880   0.638   3.885   6.416 -0.6647 -1.0891 -2.3969
 5749SOL    HW228881   0.772   3.901   6.384 -1.5812  2.0094  0.3257
 5750SOL     OW28882   1.290   2.665   4.104  0.4259 -0.5328  0.2414
 5750SOL    HW128883   1.301   2.625   4.190  0.0482 -1.1268  0.0105
 5750SOL    HW228884   1.373   2.651   4.059  0.4964 -4.8883  1.7796
 5751SOL     OW28885   2.481   2.038  13.401  0.0870 -0.0016 -0.2383
 5751SOL    HW128886   2.437   2.122  13.411 -0.6679 -0.4103 -0.1031
 5751SOL    HW228887   2.566   2.073  13.429 -1.0093  1.7189  0.8929
 5752SOL     OW28888   1.050   4.149   8.655 -0.4393  0.3980 -0.2909
 5752SOL    HW128889   0.973   4.094   8.667  0.2063 -0.1882  1.1637
 5752SOL    HW228890   1.009   4.220   8.606  0.4096  0.5511 -0.7891
 5753SOL     OW28891   4.385   1.892   5.209  0.1412  0.2865  0.3100
 5753SOL    HW128892   4.317   1.943   5.165 -0.0642 -0.8022 -0.6569
 5753SOL    HW228893   4.431   1.853   5.135 -1.4224  0.7349 -0.8977
 5754SOL     OW28894   0.558   1.571   4.096 -0.2617 -0.0363  0.5117
 5754SOL    HW128895   0.647   1.594   4.071 -1.1089  0.4768 -2.0898
 5754SOL    HW228896   0.516   1.655   4.116  1.7162  0.6129  1.9707
 5755SOL     OW28897   4.564   4.429  10.991  0.3310 -0.5148 -0.4033
 5755SOL    HW128898   4.561   4.356  10.929  1.2554 -2.1621  1.4506
 5755SOL    HW228899   4.586   4.377  11.069  0.0714  0.1691  0.1244
 5756SOL     OW28900   0.291   2.675  15.238 -0.2942  0.1785  0.7104
 5756SOL    HW128901   0.362   2.650  15.179  0.4702 -0.3545  1.8654
 5756SOL    HW228902   0.340   2.683  15.320 -0.8857 -0.2623  1.1117
 5757SOL     OW28903   1.377   0.497   7.620 -0.0338 -0.1000 -0.5492
 5757SOL    HW128904   1.371   0.423   7.680 -0.5221  0.1559 -0.2871
 5757SOL    HW228905   1.336   0.454   7.544 -0.6333 -0.2468 -0.1408
 5758SOL     OW28906   4.295   2.853   4.734 -0.1715  0.1710  0.0556
 5758SOL    HW128907   4.307   2.768   4.693 -0.4906  0.9491 -1.6363
 5758SOL    HW228908   4.355   2.898   4.675 -1.5644  0.0189 -1.4742
 5759SOL     OW28909   3.006   4.608  17.607 -0.4898  0.3312  0.0417
 5759SOL    HW128910   2.964   4.573  17.686 -0.8090  2.2047  0.7009
 5759SOL    HW228911   2.995   4.701  17.626 -0.9310  0.6850 -1.9885
 5760SOL     OW28912   3.935   3.921   4.423 -0.6133 -0.1698 -0.0909
 5760SOL    HW128913   3.856   3.925   4.370 -0.0463  1.7955 -0.7674
 5760SOL    HW228914   3.903   3.933   4.513  2.3538 -1.0982  1.0775
 5761SOL     OW28915   0.748   1.781   1.372 -0.5162  0.1273  0.0172
 5761SOL    HW128916   0.672   1.831   1.343 -0.2056  0.4750 -0.1966
 5761SOL    HW228917   0.728   1.779   1.466  0.6785  2.3125  0.3217
 5762SOL     OW28918   3.845   4.247  16.026  0.0914 -0.3289 -0.0406
 5762SOL    HW128919   3.808   4.281  15.945 -0.3873  2.1603  1.2174
 5762SOL    HW228920   3.930   4.291  16.032 -1.2327  2.1649  0.3849
 5763SOL     OW28921   2.006   1.803  15.328 -0.5143  0.0608  0.2384
 5763SOL    HW128922   2.029   1.862  15.256 -0.5400 -0.4668 -0.2025
 5763SOL    HW228923   1.988   1.726  15.274  1.6196 -0.0893 -0.2849
 5764SOL     OW28924   4.695   3.828  12.625 -0.0654  0.9914 -0.2704
 5764SOL    HW128925   0.045   3.869  12.597  0.3102 -0.4411 -1.2224
 5764SOL    HW228926   4.724   3.780  12.703 -1.7750 -0.3187 -0.4399
 5765SOL     OW28927   3.287   2.806   6.202  0.2912 -0.5484  0.1536
 5765SOL    HW128928   3.257   2.716   6.215  1.6003 -1.2052 -1.4052
 5765SOL    HW228929   3.381   2.790   6.193  0.6316  0.0171  2.5844
 5766SOL     OW28930   0.971   1.522  14.655 -0.1124 -0.2162  0.0814
 5766SOL    HW128931   1.017   1.521  14.571  1.2542  0.3414  0.8194
 5766SOL    HW228932   0.998   1.435  14.686  3.8108  1.0139  0.1897
 5767SOL     OW28933   4.259   3.690   6.066  0.3028  0.1243  0.0893
 5767SOL    HW128934   4.345   3.711   6.101 -0.0463  0.9976  0.4299
 5767SOL    HW228935   4.208   3.683   6.148  0.9378 -0.4875  0.4315
 5768SOL     OW28936   0.365   1.283   5.864 -0.0186 -0.1784 -0.2023
 5768SOL    HW128937   0.297   1.304   5.928 -0.3357 -1.4027 -0.1399
 5768SOL    HW228938   0.333   1.349   5.802  0.9265  1.2377  0.8187
 5769SOL     OW28939   1.366   4.394   6.737 -0.3756  0.4552  0.1604
 5769SOL    HW128940   1.384   4.444   6.817  1.1791  0.3863 -0.1514
 5769SOL    HW228941   1.380   4.449   6.660  1.7041  0.9717  0.9126
 5770SOL     OW28942   2.387   4.282   3.416 -0.6500  0.4772 -0.7026
 5770SOL    HW128943   2.335   4.348   3.462 -0.5416  1.0071 -1.3420
 5770SOL    HW228944   2.468   4.332   3.408  0.3082 -0.7338  1.8100
 5771SOL     OW28945   0.003   2.551   8.206 -0.4835 -0.2409 -0.2591
 5771SOL    HW128946   4.680   2.486   8.161 -1.9652  0.5776  0.3703
 5771SOL    HW228947   0.086   2.505   8.194  0.5689  1.1130  1.8050
 5772SOL     OW28948   0.827   1.639  12.754 -0.3284  0.1798 -0.3892
 5772SOL    HW128949   0.853   1.610  12.667 -1.2327  0.7349 -0.8416
 5772SOL    HW228950   0.873   1.572  12.806 -2.3267 -3.5444 -3.4003
 5773SOL     OW28951   4.646   0.834   4.793 -0.2832  0.7498  0.2321
 5773SOL    HW128952   4.649   0.796   4.705 -1.0223  1.2277  0.0068
 5773SOL    HW228953   4.560   0.874   4.794  0.9704  3.3947  3.6589
 5774SOL     OW28954   4.555   0.763   3.094  0.4178 -0.6681  0.4012
 5774SOL    HW128955   4.590   0.706   3.163 -0.9357 -0.6792  1.0769
 5774SOL    HW228956   4.615   0.837   3.104 -0.5734  0.3226 -1.1300
 5775SOL     OW28957   0.568   3.886   0.621  0.6449  0.0961  0.0603
 5775SOL    HW128958   0.609   3.969   0.598  0.4778  0.7005  1.9376
 5775SOL    HW228959   0.595   3.874   0.712 -0.7646 -0.7193  0.3672
 5776SOL     OW28960   0.562   0.399   0.707 -0.2041 -0.2437  0.1626
 5776SOL    HW128961   0.535   0.414   0.797 -0.1617  0.1898  0.1054
 5776SOL    HW228962   0.476   0.393   0.665  0.5064 -2.2301 -1.0282
 5777SOL     OW28963   1.441   4.212   8.116  0.3159  0.1287 -0.3423
 5777SOL    HW128964   1.428   4.197   8.022 -0.9859 -1.4653  0.0946
 5777SOL    HW228965   1.352   4.187   8.141  0.6754 -1.8079 -0.9500
 5778SOL     OW28966   3.131   2.393   1.267  0.0160 -0.2037  0.0803
 5778SOL    HW128967   3.131   2.350   1.182  0.2397  2.1709 -1.1471
 5778SOL    HW228968   3.118   2.484   1.238 -1.9439 -0.2007  0.9618
 5779SOL     OW28969   3.469   4.188  12.533 -0.1079  0.1980 -0.3204
 5779SOL    HW128970   3.524   4.115  12.504  0.3787  1.2243 -1.9895
 5779SOL    HW228971   3.392   4.157  12.485 -0.0227  0.2900 -0.5187
 5780SOL     OW28972   1.747   4.043   7.782 -0.1647  0.3249 -0.0043
 5780SOL    HW128973   1.817   4.088   7.830  0.0219  2.0149 -1.8712
 5780SOL    HW228974   1.742   3.952   7.810 -0.1521  0.5274  0.6465
 5781SOL     OW28975   0.374   0.278  15.377 -0.5343  0.1121  0.4924
 5781SOL    HW128976   0.291   0.230  15.374 -1.1444  1.1701  0.0718
 5781SOL    HW228977   0.441   0.211  15.368  0.8082  1.6056 -0.6759
 5782SOL     OW28978   1.814   3.171   8.142  1.0384  0.2543 -0.2394
 5782SOL    HW128979   1.746   3.105   8.129  2.1946 -1.6106  3.0093
 5782SOL    HW228980   1.783   3.208   8.225 -0.5675 -0.4490 -0.5321
 5783SOL     OW28981   2.181   3.772  10.804 -0.2407  0.1992 -0.1355
 5783SOL    HW128982   2.214   3.821  10.729  2.4512 -1.2461  0.0972
 5783SOL    HW228983   2.171   3.845  10.865 -1.2314  0.0402 -0.1075
 5784SOL     OW28984   2.439   2.237   3.460 -0.7302 -0.0847  0.0201
 5784SOL    HW128985   2.440   2.205   3.370 -1.4369  0.4211 -0.1652
 5784SOL    HW228986   2.379   2.310   3.449  0.3247  1.1918  2.8060
 5785SOL     OW28987   0.548   3.976   7.207 -0.2324 -0.5519 -0.0758
 5785SOL    HW128988   0.475   4.034   7.229 -1.4343 -1.4047 -1.7291
 5785SOL    HW228989   0.553   3.994   7.113 -0.6017  0.6080  0.1289
 5786SOL     OW28990   0.362   2.639  16.453 -0.7872 -0.5963  0.0875
 5786SOL    HW128991   0.335   2.547  16.450  1.8664 -1.3592  0.2274
 5786SOL    HW228992   0.457   2.634  16.459 -0.7285 -0.1823 -0.3958
 5787SOL     OW28993   0.940   2.224   7.028  0.4007 -0.3704  0.6485
 5787SOL    HW128994   1.029   2.203   7.002  0.2033  0.1315 -0.4340
 5787SOL    HW228995   0.929   2.319   7.026 -0.5921 -0.4672  1.2635
 5788SOL     OW28996   0.719   0.949   2.147  0.1904 -0.2520  0.4141
 5788SOL    HW128997   0.635   0.904   2.150 -0.0267  0.2476  1.9429
 5788SOL    HW228998   0.719   1.008   2.071 -0.5251 -0.5615  0.1721
 5789SOL     OW28999   4.691   0.858   8.686 -0.2455  0.2321 -0.0138
 5789SOL    HW129000   4.646   0.934   8.723  1.1216  0.7800  0.5273
 5789SOL    HW229001   4.628   0.816   8.628  2.6707 -1.7583 -1.7036
 5790SOL     OW29002   4.716   1.164   7.752  0.6396 -0.3357  0.6173
 5790SOL    HW129003   0.064   1.133   7.708 -0.1349  0.4340 -1.2993
 5790SOL    HW229004   4.686   1.083   7.793  2.5210 -0.8255  1.0218
 5791SOL     OW29005   2.473   3.436   5.410 -0.0383 -0.3840 -0.1842
 5791SOL    HW129006   2.473   3.532   5.400 -1.6137 -0.5260 -1.6529
 5791SOL    HW229007   2.382   3.423   5.436  0.0987  0.1700  0.5624
 5792SOL     OW29008   3.150   0.948   7.718 -0.4317 -0.0170 -0.2618
 5792SOL    HW129009   3.183   1.036   7.703 -1.2198  0.2468 -0.4158
 5792SOL    HW229010   3.066   0.959   7.674 -0.3978  0.7609 -0.1273
 5793SOL     OW29011   0.123   3.456   9.952  0.2570 -0.3034 -0.1133
 5793SOL    HW129012   0.117   3.527   9.888 -2.8436 -0.5776 -0.1147
 5793SOL    HW229013   0.131   3.509  10.031 -0.1363  2.4832 -1.9421
 5794SOL     OW29014   4.317   0.566  13.464 -0.0381 -0.1186 -0.1071
 5794SOL    HW129015   4.265   0.615  13.401 -2.5995 -2.0170  0.5427
 5794SOL    HW229016   4.317   0.474  13.439  1.8413 -0.9437  2.9532
 5795SOL     OW29017   0.707   2.854   4.378 -0.0140  0.1021  0.2725
 5795SOL    HW129018   0.753   2.936   4.360  1.8979 -0.4951  2.3959
 5795SOL    HW229019   0.639   2.888   4.437 -0.5386 -1.0668  0.3397
 5796SOL     OW29020   0.384   4.611   9.584 -0.1186  0.2963  0.1367
 5796SOL    HW129021   0.321   4.539   9.572  1.0412  0.0950 -4.8319
 5796SOL    HW229022   0.448   4.560   9.633 -1.4029 -0.0245  1.4788
 5797SOL     OW29023   3.388   0.059   1.891  0.0035 -0.5747 -0.4692
 5797SOL    HW129024   3.408   4.700   1.868 -0.5305 -0.3048 -2.0159
 5797SOL    HW229025   3.294   0.043   1.882  0.1560 -3.0499  2.6471
 5798SOL     OW29026   3.610   2.089   4.512  0.2279 -0.1958  0.4508
 5798SOL    HW129027   3.649   2.131   4.589  0.0338  0.1524  0.3584
 5798SOL    HW229028   3.534   2.148   4.509  1.3583  1.1760 -0.6924
 5799SOL     OW29029   2.078   3.077   6.481  0.4478  0.8701 -0.4124
 5799SOL    HW129030   2.057   3.103   6.391 -0.7177 -2.1086 -1.0079
 5799SOL    HW229031   2.145   3.010   6.467 -1.5469 -1.7709  2.5868
 5800SOL     OW29032   3.354   3.620   4.332 -0.4361  0.3974  0.6430
 5800SOL    HW129033   3.286   3.650   4.393 -1.2503  2.7419 -1.3849
 5800SOL    HW229034   3.340   3.526   4.328  0.7972  0.3135 -1.4198
 5801SOL     OW29035   2.142   0.002  16.412 -0.7413 -0.5339  0.3721
 5801SOL    HW129036   2.165   4.641  16.426 -0.3310 -0.5236 -0.2683
 5801SOL    HW229037   2.224   0.038  16.446 -1.6498  1.2820  0.6541
 5802SOL     OW29038   0.762   4.389   9.552  0.4688  0.2179  0.0167
 5802SOL    HW129039   0.738   4.306   9.511  1.3867  0.2108 -0.4822
 5802SOL    HW229040   0.734   4.443   9.478  0.5874  0.3940  0.0987
 5803SOL     OW29041   1.619   1.210  15.760  0.2930  0.1766  0.2634
 5803SOL    HW129042   1.704   1.183  15.725 -0.7784 -1.2762 -1.1762
 5803SOL    HW229043   1.633   1.305  15.765 -1.1252  0.2489  3.0932
 5804SOL     OW29044   0.981   4.221  12.535  0.2600 -0.2517 -0.7464
 5804SOL    HW129045   0.912   4.259  12.590 -1.0631 -0.2133 -2.4207
 5804SOL    HW229046   1.054   4.213  12.597 -1.9725 -0.0010  1.9272
 5805SOL     OW29047   2.218   0.491  15.101  0.1557  0.0409 -0.9042
 5805SOL    HW129048   2.124   0.509  15.104  0.3403  0.7922  0.5097
 5805SOL    HW229049   2.249   0.578  15.077  2.6255 -0.5145  0.3552
 5806SOL     OW29050   4.053   0.078   3.944 -0.7148 -0.7980 -0.2582
 5806SOL    HW129051   4.114   0.013   3.911 -0.3878 -1.7172  2.1866
 5806SOL    HW229052   4.114   0.126   4.000 -1.9427 -0.0126  0.4043
 5807SOL     OW29053   1.439   0.044   8.770  0.0626  0.4075  0.0944
 5807SOL    HW129054   1.442   0.138   8.752  0.1423  0.3031 -0.4336
 5807SOL    HW229055   1.384   0.037   8.847  0.3077 -0.1050  0.2215
 5808SOL     OW29056   3.339   0.930  13.544  0.4082  0.2354  0.1607
 5808SOL    HW129057   3.420   0.910  13.592 -0.3767 -0.8982  0.9968
 5808SOL    HW229058   3.380   0.942  13.458  2.2521  0.2678  1.0297
 5809SOL     OW29059   3.364   2.521   1.390 -0.4533  0.0970  0.6521
 5809SOL    HW129060   3.430   2.459   1.422 -0.1702 -1.2511 -2.4704
 5809SOL    HW229061   3.291   2.464   1.366 -0.7994  1.4771 -1.5664
 5810SOL     OW29062   0.499   4.329  12.514  0.3497 -0.1371 -0.5244
 5810SOL    HW129063   0.539   4.252  12.555 -1.0923  0.1268  1.4089
 5810SOL    HW229064   0.547   4.322  12.432  2.6209  1.0656  0.7015
 5811SOL     OW29065   3.232   4.436  16.177  0.7563  0.1063 -0.2402
 5811SOL    HW129066   3.200   4.452  16.088  0.1163 -0.7235 -0.1551
 5811SOL    HW229067   3.150   4.410  16.219  0.3593 -1.3600 -1.9002
 5812SOL     OW29068   0.530   2.574  12.354  0.0463 -0.0180 -0.4183
 5812SOL    HW129069   0.526   2.479  12.356 -1.1034  0.0395 -0.2550
 5812SOL    HW229070   0.543   2.596  12.262  2.3448 -2.3372 -0.6332
 5813SOL     OW29071   4.495   2.444   5.300 -0.2311 -0.7677  0.2302
 5813SOL    HW129072   4.514   2.350   5.296 -1.5637 -0.9917 -0.9026
 5813SOL    HW229073   4.403   2.445   5.326 -0.2016  2.3698  0.1348
 5814SOL     OW29074   3.459   1.837   7.727 -0.2713  0.1273 -0.6463
 5814SOL    HW129075   3.440   1.839   7.633 -0.5169 -0.7331 -0.6190
 5814SOL    HW229076   3.372   1.839   7.768  0.3628  0.0244  0.6965
 5815SOL     OW29077   1.836   3.639   9.154  0.2446 -0.1074  0.0708
 5815SOL    HW129078   1.886   3.568   9.195 -0.6999 -0.8052  0.0058
 5815SOL    HW229079   1.898   3.700   9.114  0.9549  2.2098  4.7100
 5816SOL     OW29080   4.665   3.669   8.936  0.1388  0.2781 -0.1045
 5816SOL    HW129081   4.612   3.717   9.000 -2.7885 -0.4374 -1.9674
 5816SOL    HW229082   0.019   3.675   8.979  0.0404 -0.3966  0.1804
 5817SOL     OW29083   4.396   2.572   9.545 -0.2707 -0.5226 -0.3115
 5817SOL    HW129084   4.441   2.524   9.615 -1.0393 -0.6803  0.0778
 5817SOL    HW229085   4.373   2.501   9.485 -1.4575  0.3411 -0.8890
 5818SOL     OW29086   0.206   1.573  15.312  0.4648  0.2716  0.2188
 5818SOL    HW129087   0.170   1.616  15.235  0.7756 -0.6178 -0.4215
 5818SOL    HW229088   0.139   1.505  15.321 -0.1241  0.8653  0.3315
 5819SOL     OW29089   1.551   1.465   9.181 -0.1132  0.3663  0.3741
 5819SOL    HW129090   1.490   1.500   9.116 -1.3163 -2.4681 -0.0214
 5819SOL    HW229091   1.549   1.378   9.142  1.5135  0.6614 -0.3754
 5820SOL     OW29092   3.960   4.342   8.178  0.5457 -0.4477 -0.1385
 5820SOL    HW129093   3.960   4.269   8.116  1.0676 -1.0664  0.5706
 5820SOL    HW229094   4.049   4.376   8.168 -0.4933  1.1123 -3.8654
 5821SOL     OW29095   2.496   2.397   6.847  0.0804  0.0037 -0.2813
 5821SOL    HW129096   2.557   2.453   6.798 -1.5603  0.7650 -1.4495
 5821SOL    HW229097   2.414   2.446   6.852 -0.0646 -0.3221  0.4751
 5822SOL     OW29098   0.051   4.084   7.950  0.4667 -0.3890  0.2205
 5822SOL    HW129099   0.070   4.160   7.896 -2.6779  2.6962  3.4707
 5822SOL    HW229100   4.693   4.105   7.979  0.2096 -1.3622  0.1387
 5823SOL     OW29101   2.761   3.939   7.375  0.6831 -0.6315  0.2095
 5823SOL    HW129102   2.696   3.871   7.362  0.4939 -0.4904  0.4128
 5823SOL    HW229103   2.709   4.019   7.371 -0.1659 -1.1073  1.6139
 5824SOL     OW29104   2.620   1.722   6.309 -0.5594  0.2231  0.0488
 5824SOL    HW129105   2.638   1.712   6.216  0.9945 -0.7779  0.4587
 5824SOL    HW229106   2.613   1.818   6.315  2.1759  0.5803 -2.5467
 5825SOL     OW29107   3.952   1.935   9.273 -0.4302  0.3526 -0.5003
 5825SOL    HW129108   3.957   1.967   9.183  0.3526 -1.5935 -1.1388
 5825SOL    HW229109   3.862   1.964   9.288 -1.4404 -1.4967 -3.0560
 5826SOL     OW29110   4.670   4.320   7.494  0.5382  0.4106  0.2887
 5826SOL    HW129111   4.731   4.285   7.429  0.1309 -1.3700  0.8527
 5826SOL    HW229112   4.673   4.415   7.484 -2.2661  0.3713 -1.0370
 5827SOL     OW29113   3.141   2.047  17.122 -0.4699  0.0160 -0.6071
 5827SOL    HW129114   3.129   2.055  17.216  1.6057 -1.2997 -0.2271
 5827SOL    HW229115   3.235   2.038  17.111 -0.5964  0.4980 -2.0762
 5828SOL     OW29116   4.204   3.195   5.866 -0.2093 -0.2443 -0.4103
 5828SOL    HW129117   4.168   3.284   5.865 -0.2700 -0.2650 -0.1425
 5828SOL    HW229118   4.295   3.213   5.891 -0.1235 -0.9556 -0.2181
 5829SOL     OW29119   4.406   4.109   4.515 -0.4530 -0.0923 -0.6130
 5829SOL    HW129120   4.414   4.056   4.594 -0.4426  1.2262  0.2727
 5829SOL    HW229121   4.400   4.195   4.557  3.9210 -1.1493  2.1885
 5830SOL     OW29122   1.544   0.032   3.295  0.2110  0.0769 -0.0262
 5830SOL    HW129123   1.544   0.120   3.333 -0.3820  0.7904 -1.6427
 5830SOL    HW229124   1.552   0.049   3.201 -1.1543 -1.3667 -0.4092
 5831SOL     OW29125   4.558   3.285   8.495  0.1523  0.1043 -0.1824
 5831SOL    HW129126   4.563   3.269   8.401  2.7936 -1.4798  0.2178
 5831SOL    HW229127   4.464   3.286   8.508  0.2753  0.8309  0.6837
 5832SOL     OW29128   3.888   3.089   2.626 -0.1812 -0.1650 -0.3538
 5832SOL    HW129129   3.963   3.030   2.625 -1.0584 -1.2310 -1.6489
 5832SOL    HW229130   3.931   3.171   2.599  2.3242 -1.1530  0.5706
 5833SOL     OW29131   0.270   3.246   7.411  0.7516  0.3698 -0.3987
 5833SOL    HW129132   0.270   3.340   7.391  0.6927  0.6552  0.9634
 5833SOL    HW229133   0.286   3.251   7.505  0.0166 -1.0958 -0.1859
 5834SOL     OW29134   1.700   3.594   5.424  0.6861 -0.1312  0.0830
 5834SOL    HW129135   1.642   3.651   5.474  0.3804 -0.7095  0.3841
 5834SOL    HW229136   1.641   3.585   5.348 -0.1388  1.2978  0.5555
 5835SOL     OW29137   0.711   0.865   5.851 -0.7378  0.7481  0.2100
 5835SOL    HW129138   0.695   0.806   5.777 -1.4371  1.7083 -0.3905
 5835SOL    HW229139   0.796   0.832   5.880 -1.1899 -0.2056  0.4743
 5836SOL     OW29140   4.201   0.233   8.209 -0.1614 -0.4274 -0.5329
 5836SOL    HW129141   4.173   0.300   8.146  1.2706  1.1324  0.5231
 5836SOL    HW229142   4.284   0.215   8.165  1.2185  2.3060  0.9442
 5837SOL     OW29143   3.394   4.190   6.961 -0.4073  0.0020  0.0626
 5837SOL    HW129144   3.410   4.096   6.961 -0.6280 -0.0359 -0.3369
 5837SOL    HW229145   3.435   4.213   7.044  1.7078 -4.0481  0.1511
 5838SOL     OW29146   3.828   1.579   5.062  0.4187 -0.3846 -0.2652
 5838SOL    HW129147   3.743   1.623   5.058  0.5962  0.0332  0.4063
 5838SOL    HW229148   3.815   1.528   5.141 -1.4937  0.1872 -0.2296
 5839SOL     OW29149   0.564   3.507   0.216  0.9389  0.0072  0.1928
 5839SOL    HW129150   0.627   3.436   0.205 -0.3003 -0.9708 -0.4801
 5839SOL    HW229151   0.515   3.463   0.285  0.0717  0.0124 -0.4165
 5840SOL     OW29152   2.729   1.686  11.430 -0.0911 -0.1003  0.1179
 5840SOL    HW129153   2.637   1.660  11.433 -0.6065  1.5973 -1.2448
 5840SOL    HW229154   2.730   1.777  11.401 -1.6062  0.4100  1.6847
 5841SOL     OW29155   4.209   2.132   2.952 -0.0370  0.2488  0.3788
 5841SOL    HW129156   4.119   2.112   2.980 -0.2865  0.9778  0.1027
 5841SOL    HW229157   4.208   2.121   2.857 -1.4480  2.7598  0.0795
 5842SOL     OW29158   1.733   2.911   0.551  0.3438 -0.1819 -1.0892
 5842SOL    HW129159   1.655   2.888   0.500  0.3292  0.4440 -1.3496
 5842SOL    HW229160   1.790   2.965   0.496  1.8998  1.1959  1.8590
 5843SOL     OW29161   4.707   4.138   2.033  0.0560 -0.3935 -0.1042
 5843SOL    HW129162   0.062   4.146   1.992  0.5147 -1.5040  0.6483
 5843SOL    HW229163   4.707   4.051   2.074  0.5814  0.3892  1.5269
 5844SOL     OW29164   2.376   3.047  12.973 -0.2574  0.1513  0.0141
 5844SOL    HW129165   2.382   2.965  12.925  1.4793  1.1836 -1.5734
 5844SOL    HW229166   2.428   3.029  13.051 -2.5342  0.2111  1.5197
 5845SOL     OW29167   4.322   4.181   8.958 -0.4985 -0.7580 -1.0495
 5845SOL    HW129168   4.416   4.191   8.976 -0.7036 -2.3706  0.8818
 5845SOL    HW229169   4.307   4.244   8.888  0.5433  0.0421 -0.5578
 5846SOL     OW29170   3.288   1.941  12.225  0.4922 -0.2202  0.0959
 5846SOL    HW129171   3.260   1.987  12.304 -0.2850  1.6188 -1.2415
 5846SOL    HW229172   3.329   1.859  12.252 -1.7296 -1.7677 -1.2803
 5847SOL     OW29173   4.266   1.802   6.566 -0.0133 -0.0100  0.2044
 5847SOL    HW129174   4.296   1.866   6.502  2.6916  0.2196  1.7055
 5847SOL    HW229175   4.329   1.732   6.551  1.3358  1.6457 -1.8293
 5848SOL     OW29176   2.235   0.866   2.378 -0.1555  0.4271 -0.0668
 5848SOL    HW129177   2.208   0.783   2.338 -0.6966  1.0772 -1.0252
 5848SOL    HW229178   2.174   0.876   2.452 -0.4951 -1.0955 -0.1413
 5849SOL     OW29179   4.413   1.228   6.760  0.3470  0.3104 -0.4785
 5849SOL    HW129180   4.381   1.318   6.760  1.7698  0.8226  2.2122
 5849SOL    HW229181   4.377   1.196   6.843 -1.7604  0.3164 -1.3907
 5850SOL     OW29182   3.970   1.291   5.134 -0.4066 -0.4707 -0.1405
 5850SOL    HW129183   3.961   1.203   5.171 -1.2933  0.1443  1.1148
 5850SOL    HW229184   3.904   1.332   5.190  1.6348 -1.1366  2.7049
 5851SOL     OW29185   1.238   1.536   3.688 -0.0595 -0.1841 -0.0315
 5851SOL    HW129186   1.307   1.497   3.634  1.0534  1.4444  0.2020
 5851SOL    HW229187   1.167   1.476   3.670 -1.2708  1.5993 -1.2435
 5852SOL     OW29188   2.089   2.653   5.554  0.6705 -0.0251  0.5538
 5852SOL    HW129189   2.073   2.746   5.537 -1.0747 -0.3761  0.3516
 5852SOL    HW229190   2.170   2.629   5.509  0.8892  2.6618 -0.4685
 5853SOL     OW29191   0.942   4.349  13.239  0.0614 -0.4891  0.4609
 5853SOL    HW129192   0.931   4.354  13.333  0.0142  2.1306  0.3201
 5853SOL    HW229193   1.031   4.316  13.227  0.7281  1.2984  0.5949
 5854SOL     OW29194   0.565   2.662   6.154  0.0269 -0.0460  0.0399
 5854SOL    HW129195   0.529   2.751   6.149  0.7242  0.2175 -0.3507
 5854SOL    HW229196   0.590   2.652   6.062 -1.4769 -1.6585 -0.1785
 5855SOL     OW29197   0.769   0.878  11.152  0.1619 -0.4056  0.8952
 5855SOL    HW129198   0.775   0.928  11.233  0.2612 -0.9754  1.2407
 5855SOL    HW229199   0.778   0.790  11.188  1.0108 -0.4691  0.5342
 5856SOL     OW29200   1.566   3.799   1.836 -0.7890  0.1879 -0.1961
 5856SOL    HW129201   1.630   3.757   1.779  0.2385  1.9179 -0.3198
 5856SOL    HW229202   1.513   3.722   1.854  0.0220  0.4248  3.0780
 5857SOL     OW29203   4.664   2.489   0.993 -0.4754 -0.3206 -0.7046
 5857SOL    HW129204   0.012   2.533   0.964  0.5628 -0.4482  1.8862
 5857SOL    HW229205   4.658   2.425   0.922  2.1846 -2.3960  0.9186
 5858SOL     OW29206   4.151   3.506   4.728  0.0140 -0.4128 -0.0490
 5858SOL    HW129207   4.108   3.589   4.708 -1.4301 -0.7903  1.4993
 5858SOL    HW229208   4.156   3.470   4.640  0.7361 -1.1586  0.2959
 5859SOL     OW29209   2.044   0.751   6.371  0.2227  0.1390 -0.3568
 5859SOL    HW129210   2.131   0.712   6.359 -0.2447 -0.8584 -0.4807
 5859SOL    HW229211   1.998   0.692   6.431  0.6275  1.7441  1.5596
 5860SOL     OW29212   1.703   4.297   7.999  0.2407 -0.0392  0.3293
 5860SOL    HW129213   1.721   4.204   7.982 -1.1573 -0.2946  0.2368
 5860SOL    HW229214   1.628   4.281   8.056  0.8967 -3.6828  0.2189
 5861SOL     OW29215   2.381   0.550   7.902 -0.1673 -0.2525 -0.1964
 5861SOL    HW129216   2.349   0.482   7.960 -2.3089  0.7428 -0.2168
 5861SOL    HW229217   2.375   0.630   7.954 -0.3363 -0.6283  0.3545
 5862SOL     OW29218   3.958   1.190   1.867  0.3711 -0.1821 -0.0461
 5862SOL    HW129219   3.925   1.217   1.781  1.4377  2.1279  0.2789
 5862SOL    HW229220   4.040   1.149   1.839  0.4230 -0.9285  1.2068
 5863SOL     OW29221   1.708   1.506   5.327  0.1043  0.1387  0.4131
 5863SOL    HW129222   1.771   1.578   5.314 -0.0784  0.7099  2.7594
 5863SOL    HW229223   1.630   1.553   5.299 -0.1008  0.4159  1.4724
 5864SOL     OW29224   1.224   1.124  15.008  0.4852 -0.0931 -0.1473
 5864SOL    HW129225   1.191   1.104  15.096 -1.4828  0.1583 -0.8294
 5864SOL    HW229226   1.184   1.050  14.963  1.7693  0.3157 -1.9346
 5865SOL     OW29227   1.207   0.253   7.169  0.0561  0.1265 -0.2050
 5865SOL    HW129228   1.136   0.209   7.217 -1.3454 -0.5022 -2.8878
 5865SOL    HW229229   1.152   0.293   7.101 -0.9242 -1.3218 -0.2665
 5866SOL     OW29230   0.774   2.787   5.578 -0.2082  0.5100  0.4719
 5866SOL    HW129231   0.818   2.764   5.496 -1.7139  0.7195 -0.3866
 5866SOL    HW229232   0.683   2.772   5.550  0.8817 -1.1655 -2.1817
 5867SOL     OW29233   4.575   4.591   7.483  0.2112 -0.1756 -0.3916
 5867SOL    HW129234   4.591   4.665   7.542 -1.0884 -1.2549  1.2940
 5867SOL    HW229235   4.567   4.627   7.395  1.4551  0.3288 -0.2940
 5868SOL     OW29236   3.252   4.378  11.902 -0.2598 -0.5288  0.4912
 5868SOL    HW129237   3.310   4.325  11.848  2.9313  2.5667  0.9354
 5868SOL    HW229238   3.308   4.387  11.979 -0.5573 -1.0637  0.7695
 5869SOL     OW29239   2.348   0.187  14.033  0.6771  0.4743 -0.0914
 5869SOL    HW129240   2.373   0.135  13.957  1.1763 -0.5156  0.7450
 5869SOL    HW229241   2.275   0.131  14.058 -0.5564  1.1433 -2.2171
 5870SOL     OW29242   0.962   2.650  13.673  0.6270 -0.3504 -0.1442
 5870SOL    HW129243   1.044   2.666  13.721  0.0995  1.4767  0.1592
 5870SOL    HW229244   0.965   2.714  13.602 -0.4558  2.0546  1.9714
 5871SOL     OW29245   0.397   3.837  11.278  0.1166  0.0209 -0.1453
 5871SOL    HW129246   0.461   3.867  11.213 -0.4037  0.3057 -0.5211
 5871SOL    HW229247   0.372   3.754  11.237  1.5515  0.4786 -1.9803
 5872SOL     OW29248   2.927   4.349  11.777 -0.6587  0.3585  1.2973
 5872SOL    HW129249   2.944   4.262  11.814 -1.9876 -0.7841 -0.7098
 5872SOL    HW229250   3.014   4.386  11.768 -0.4789 -0.0097  1.5429
 5873SOL     OW29251   1.898   0.859   7.412  0.3512  0.1836 -0.6245
 5873SOL    HW129252   1.840   0.802   7.361 -0.8785  0.3253  0.6476
 5873SOL    HW229253   1.837   0.928   7.436  1.1455  0.7044 -0.1232
 5874SOL     OW29254   3.189   3.411   8.446  0.4822 -0.0977 -0.0108
 5874SOL    HW129255   3.253   3.412   8.375 -0.2381  0.0599 -0.6592
 5874SOL    HW229256   3.250   3.399   8.519  0.9488  0.0288 -0.3784
 5875SOL     OW29257   0.704   2.146   2.627  0.1081  0.0423  0.4046
 5875SOL    HW129258   0.771   2.201   2.584 -1.1507  1.4088  0.1700
 5875SOL    HW229259   0.692   2.082   2.557 -0.8617  1.3672 -0.6510
 5876SOL     OW29260   4.150   3.400   2.368 -0.3861  0.3898 -0.7697
 5876SOL    HW129261   4.222   3.378   2.428 -1.0376 -0.2536 -0.2364
 5876SOL    HW229262   4.192   3.454   2.300  1.4626 -0.6493 -0.4615
 5877SOL     OW29263   0.745   3.493   4.349 -0.3709  0.5309 -0.7524
 5877SOL    HW129264   0.723   3.504   4.441 -2.4624 -2.3618 -0.9037
 5877SOL    HW229265   0.689   3.559   4.308 -0.1089  0.3052 -1.4712
 5878SOL     OW29266   1.712   0.984   4.251 -0.2994 -0.2526  0.2773
 5878SOL    HW129267   1.704   1.071   4.289 -3.2591 -0.5225  0.2255
 5878SOL    HW229268   1.805   0.985   4.226 -0.6907  1.1290 -1.0558
 5879SOL     OW29269   4.009   0.850   0.103  0.5379  0.3617  0.0646
 5879SOL    HW129270   3.953   0.866   0.179  1.1663  0.8031  0.4364
 5879SOL    HW229271   4.063   0.929   0.110  0.5370  0.2890  0.9403
 5880SOL     OW29272   3.455   1.534   5.507 -0.2005  0.1939 -0.2451
 5880SOL    HW129273   3.546   1.546   5.480  0.2451 -0.3423  1.0328
 5880SOL    HW229274   3.420   1.623   5.498 -1.1590 -0.0491  1.0368
 5881SOL     OW29275   0.557   1.714  12.726 -0.0329  0.2600  0.0576
 5881SOL    HW129276   0.635   1.669  12.760 -2.9863 -2.2032  3.5868
 5881SOL    HW229277   0.535   1.766  12.804  0.4458 -1.1912  1.1710
 5882SOL     OW29278   3.392   4.498   2.274 -0.1636  0.1195 -0.0809
 5882SOL    HW129279   3.350   4.565   2.220  0.6181  0.2124 -0.5844
 5882SOL    HW229280   3.477   4.500   2.230  0.2381 -0.0119  0.6865
 5883SOL     OW29281   1.958   3.402   4.415  0.6040  0.0579 -0.2854
 5883SOL    HW129282   1.931   3.352   4.338 -0.8913  1.0525 -0.4145
 5883SOL    HW229283   2.040   3.358   4.438  1.4242 -0.2130 -3.7519
 5884SOL     OW29284   3.255   0.312   9.133 -0.3365 -0.2041 -0.5094
 5884SOL    HW129285   3.306   0.233   9.112 -1.3263 -1.3033  1.2730
 5884SOL    HW229286   3.200   0.284   9.205  2.1191 -1.3875  0.9054
 5885SOL     OW29287   1.219   3.478   1.726  0.2325  0.1085  0.1085
 5885SOL    HW129288   1.188   3.558   1.682  2.9839  1.5903  0.8561
 5885SOL    HW229289   1.297   3.507   1.774 -0.3373  1.1300  0.4233
 5886SOL     OW29290   1.639   4.126  17.592  0.1867  0.1747 -0.0589
 5886SOL    HW129291   1.626   4.068  17.517  1.2096 -2.4020  1.7587
 5886SOL    HW229292   1.550   4.125  17.627 -0.1327 -1.7359 -0.9369
 5887SOL     OW29293   4.513   0.664  13.619  0.0025 -0.7412  0.1773
 5887SOL    HW129294   4.441   0.625  13.569 -1.0817 -1.6454  2.4290
 5887SOL    HW229295   4.531   0.587  13.673 -0.3035 -0.8148  0.1746
 5888SOL     OW29296   2.413   0.687   7.035  0.0481 -0.3698 -0.2706
 5888SOL    HW129297   2.467   0.608   7.027  0.0363 -0.2417 -1.6568
 5888SOL    HW229298   2.351   0.672   6.964 -0.5712  1.9688 -0.2088
 5889SOL     OW29299   4.503   0.128  10.109 -0.2975 -0.3763 -0.2631
 5889SOL    HW129300   4.594   0.096  10.109 -0.5568 -1.0946 -1.7010
 5889SOL    HW229301   4.504   0.152  10.202 -0.6554  0.4935 -0.4855
 5890SOL     OW29302   0.545   1.788   9.836 -0.4463  0.2031 -0.5792
 5890SOL    HW129303   0.526   1.780   9.930 -2.5817 -0.4763 -1.0737
 5890SOL    HW229304   0.635   1.756   9.841  0.0361  1.8574  1.4511
 5891SOL     OW29305   3.418   4.320  16.535  0.9524 -0.6317  0.6881
 5891SOL    HW129306   3.406   4.329  16.440 -2.6433  0.7954  1.2772
 5891SOL    HW229307   3.510   4.345  16.543  0.0424  1.7620  3.3126
 5892SOL     OW29308   0.142   4.311   7.842 -0.1905 -0.2409  0.5457
 5892SOL    HW129309   0.176   4.395   7.873 -0.3578  0.4569 -1.1750
 5892SOL    HW229310   0.186   4.305   7.758 -0.8839  2.3621 -0.0097
 5893SOL     OW29311   4.305   2.991   2.477  0.0186 -0.4984  0.4447
 5893SOL    HW129312   4.226   2.958   2.518 -0.4074 -1.9141 -1.5550
 5893SOL    HW229313   4.376   2.961   2.535  1.5486  1.5483 -0.3339
 5894SOL     OW29314   2.159   1.973   6.076 -0.0435 -0.1067 -0.1698
 5894SOL    HW129315   2.142   1.902   6.013 -0.3914 -0.5334  0.4096
 5894SOL    HW229316   2.126   1.923   6.151  1.5516 -0.5816  0.2195
 5895SOL     OW29317   0.021   1.986   6.673 -0.0307  0.2422  0.7350
 5895SOL    HW129318   4.660   1.995   6.697  0.0106  1.7857  0.3232
 5895SOL    HW229319   0.009   1.918   6.606 -0.0224  0.5419  0.4260
 5896SOL     OW29320   4.536   3.977   1.774  0.2395 -0.3829  0.5121
 5896SOL    HW129321   4.521   4.071   1.773  2.4212 -0.0365  0.4196
 5896SOL    HW229322   4.449   3.940   1.756  1.0189 -2.2772  0.6074
 5897SOL     OW29323   4.454   3.187  10.684  0.4281 -0.2072  0.0728
 5897SOL    HW129324   4.413   3.100  10.690  0.7801 -0.3603  0.2421
 5897SOL    HW229325   4.531   3.171  10.739 -0.2027 -2.1592  0.4019
 5898SOL     OW29326   3.319   3.293  16.209 -0.2780 -0.0007  0.2794
 5898SOL    HW129327   3.309   3.232  16.282 -0.7465 -1.3384 -0.9142
 5898SOL    HW229328   3.357   3.242  16.137  0.8054 -0.7089  1.3526
 5899SOL     OW29329   0.858   2.604   2.658  0.0742  0.2637  0.3629
 5899SOL    HW129330   0.891   2.688   2.627  0.3778  0.3121  0.8193
 5899SOL    HW229331   0.901   2.590   2.742 -1.4028 -1.1247  0.8983
 5900SOL     OW29332   3.947   1.656   2.730 -0.3837  0.8256 -0.2592
 5900SOL    HW129333   4.007   1.709   2.784 -0.7144  2.0067 -1.0674
 5900SOL    HW229334   3.986   1.573   2.756  1.3593  1.4648 -0.7917
 5901SOL     OW29335   4.401   1.585   5.669  0.1200 -0.1621  0.1914
 5901SOL    HW129336   4.397   1.665   5.617  0.2837 -0.4186 -0.2144
 5901SOL    HW229337   4.418   1.521   5.600  0.4681  1.8267 -1.5690
 5902SOL     OW29338   4.103   2.655   3.556 -0.4523  0.2682  0.1695
 5902SOL    HW129339   4.121   2.580   3.612 -0.0778  0.0092 -0.2916
 5902SOL    HW229340   4.186   2.696   3.529 -0.7941 -1.5727 -3.7925
 5903SOL     OW29341   2.342   4.729  17.587 -0.1372 -0.0804  0.5976
 5903SOL    HW129342   2.375   4.651  17.633  0.9693 -1.5990 -2.7890
 5903SOL    HW229343   2.345   4.707  17.494  0.2922 -0.1185  0.6162
 5904SOL     OW29344   1.967   2.483  12.879 -0.2792  0.1319 -0.2505
 5904SOL    HW129345   1.989   2.413  12.818  0.3401 -2.3464  2.7682
 5904SOL    HW229346   2.021   2.559  12.858  0.3397 -0.6911 -1.6558
 5905SOL     OW29347   0.768   0.746   6.294  0.3849  0.3889  0.8186
 5905SOL    HW129348   0.839   0.803   6.267  2.0750 -2.5055 -0.9037
 5905SOL    HW229349   0.818   0.688   6.352 -0.3211  0.0140  1.0597
 5906SOL     OW29350   1.915   1.837   7.872 -0.0307  0.1743 -0.3077
 5906SOL    HW129351   1.886   1.928   7.883  1.5050  0.5864  0.3126
 5906SOL    HW229352   2.007   1.851   7.848  0.1660 -1.4087 -0.4637
 5907SOL     OW29353   0.135   1.216  12.468  0.0901 -0.3150  0.3502
 5907SOL    HW129354   0.065   1.158  12.438 -0.9085  1.2583 -0.3277
 5907SOL    HW229355   0.205   1.191  12.408 -0.4389 -1.0589  0.0500
 5908SOL     OW29356   0.899   2.761   6.653 -0.0129 -0.2894  0.0905
 5908SOL    HW129357   0.943   2.834   6.697 -0.2531 -1.0355  1.5907
 5908SOL    HW229358   0.807   2.785   6.662  0.4701  1.1807  1.1908
 5909SOL     OW29359   2.901   3.302   1.258 -0.4962  0.5349 -0.1279
 5909SOL    HW129360   2.849   3.275   1.334  2.1417  0.4575  1.6625
 5909SOL    HW229361   2.841   3.315   1.185  0.7611 -1.3203 -1.4852
 5910SOL     OW29362   3.976   2.625  17.661  0.0027  0.0309  0.7308
 5910SOL    HW129363   3.973   2.549  17.603  3.2475  1.4602 -1.3216
 5910SOL    HW229364   3.884   2.650  17.655  0.5557  1.9364  0.3402
 5911SOL     OW29365   2.946   4.050  12.195  0.7811  0.5264 -0.9797
 5911SOL    HW129366   3.021   4.100  12.163  1.5180 -1.5324 -2.4642
 5911SOL    HW229367   2.902   4.033  12.113  0.7345 -0.3243 -0.7779
 5912SOL     OW29368   2.871   0.797   5.222  0.0805 -0.3613  0.5732
 5912SOL    HW129369   2.789   0.766   5.260 -1.2784  2.8677  0.1911
 5912SOL    HW229370   2.869   0.744   5.142  0.1585  0.0203  0.3205
 5913SOL     OW29371   1.894   4.523  10.844  0.3172  0.2439 -0.5640
 5913SOL    HW129372   1.951   4.454  10.879  1.3880  1.2672 -0.2657
 5913SOL    HW229373   1.890   4.586  10.916  1.5262 -0.2480 -0.0734
 5914SOL     OW29374   3.570   3.750   2.677 -0.2625 -0.4118  0.4088
 5914SOL    HW129375   3.605   3.661   2.669 -3.4310 -1.5835 -0.5703
 5914SOL    HW229376   3.582   3.774   2.585 -1.2464  0.4243  0.4892
 5915SOL     OW29377   0.354   3.881   4.849 -0.4020  0.8740 -0.1712
 5915SOL    HW129378   0.291   3.860   4.919 -1.0292  0.0281 -0.9890
 5915SOL    HW229379   0.309   3.843   4.774 -0.7987 -2.6802  1.8545
 5916SOL     OW29380   1.061   0.333   6.487 -0.0569 -0.0163 -0.3296
 5916SOL    HW129381   1.154   0.312   6.486 -0.0312  0.1294 -1.1484
 5916SOL    HW229382   1.068   0.399   6.555  2.0498 -0.8679  0.2604
 5917SOL     OW29383   3.958   0.663   4.047  0.2243  0.0198 -0.0810
 5917SOL    HW129384   3.940   0.751   4.080 -0.0616 -0.5946  1.3946
 5917SOL    HW229385   3.908   0.672   3.965  3.3479  1.3782 -1.8625
 5918SOL     OW29386   0.708   1.864   3.492 -1.0412  0.0310 -0.7281
 5918SOL    HW129387   0.768   1.896   3.425 -0.4423  0.7421  0.1522
 5918SOL    HW229388   0.772   1.823   3.549 -0.5435  0.9051 -0.6631
 5919SOL     OW29389   3.220   0.282  10.590  0.1635 -0.0019  0.1045
 5919SOL    HW129390   3.169   0.205  10.565 -0.9392  1.1481 -1.1356
 5919SOL    HW229391   3.148   0.336  10.623  0.4465  2.0763 -2.6584
 5920SOL     OW29392   4.602   4.308   5.542 -0.3855 -0.0811  0.5309
 5920SOL    HW129393   4.610   4.272   5.453 -0.7073  3.9596 -1.1418
 5920SOL    HW229394   4.692   4.307   5.576  0.2224 -1.1237 -1.0612
 5921SOL     OW29395   1.416   2.476   0.212  0.1404  0.3422 -0.1011
 5921SOL    HW129396   1.457   2.478   0.125  1.2263  0.2680  0.4135
 5921SOL    HW229397   1.408   2.382   0.230  1.8880  0.5571  1.7509
 5922SOL     OW29398   0.552   2.139   9.106 -0.1672 -0.6426 -0.9382
 5922SOL    HW129399   0.479   2.191   9.139  0.7486 -0.0726  0.1686
 5922SOL    HW229400   0.628   2.195   9.123 -3.1363  2.9498  0.3748
 5923SOL     OW29401   4.647   1.358   0.015 -0.6930  0.3123 -0.4017
 5923SOL    HW129402   4.677   1.274  17.705 -0.9262 -0.4735  1.2630
 5923SOL    HW229403   4.707   1.422  17.703  0.2160 -0.7799 -0.8174
 5924SOL     OW29404   0.648   3.330   3.265 -0.1673  0.5314  0.8601
 5924SOL    HW129405   0.581   3.277   3.221  0.5764 -0.9173  1.4444
 5924SOL    HW229406   0.723   3.317   3.208 -2.4310 -0.4997 -1.8915
 5925SOL     OW29407   1.573   4.155   3.900  0.2862 -0.0631 -0.3562
 5925SOL    HW129408   1.609   4.140   3.987  0.1170  0.2918 -0.2223
 5925SOL    HW229409   1.486   4.178   3.934 -0.0008 -1.9697  0.1833
 5926SOL     OW29410   0.825   0.481  12.441 -0.3504 -0.1741 -0.2081
 5926SOL    HW129411   0.920   0.479  12.454 -0.6626 -1.0990  1.9123
 5926SOL    HW229412   0.785   0.472  12.527  3.6699 -0.6394  1.6127
 5927SOL     OW29413   1.347   0.561  13.862  0.4188 -0.1950 -0.2312
 5927SOL    HW129414   1.275   0.536  13.804  0.3174 -4.4983  1.7701
 5927SOL    HW229415   1.425   0.542  13.810  0.9011  1.4553 -0.1125
 5928SOL     OW29416   3.813   3.015   5.347 -0.8418 -0.1803 -0.1880
 5928SOL    HW129417   3.734   2.965   5.325 -0.3434 -0.1930 -1.9566
 5928SOL    HW229418   3.814   3.013   5.443 -2.4466  1.1983 -0.1367
 5929SOL     OW29419   3.445   2.552   4.150 -0.2387  0.0530 -0.1974
 5929SOL    HW129420   3.488   2.583   4.230 -0.6963 -1.2379  0.5556
 5929SOL    HW229421   3.519   2.530   4.093 -0.5112 -2.6422  0.4732
 5930SOL     OW29422   3.148   0.645   4.380  0.1340 -0.4834 -0.1230
 5930SOL    HW129423   3.131   0.550   4.384 -3.0982  0.0686 -0.5794
 5930SOL    HW229424   3.241   0.656   4.398 -0.2074  0.9429  0.6973
 5931SOL     OW29425   0.813   0.612  14.349 -0.4857  0.1020  0.2655
 5931SOL    HW129426   0.769   0.529  14.368 -0.8348  0.2023 -0.0944
 5931SOL    HW229427   0.872   0.617  14.424  0.0069 -2.6713  0.0565
 5932SOL     OW29428   3.953   0.479   1.176  0.0649 -0.1697 -0.0412
 5932SOL    HW129429   3.948   0.384   1.165  0.4745 -0.2112  0.1209
 5932SOL    HW229430   4.010   0.492   1.251  2.5606 -2.1454 -1.5809
 5933SOL     OW29431   1.162   3.054   5.810 -0.2540 -0.3639 -0.5336
 5933SOL    HW129432   1.070   3.029   5.804  0.0698 -1.3931 -1.1761
 5933SOL    HW229433   1.169   3.133   5.755 -2.8966  1.6537  1.9953
 5934SOL     OW29434   4.209   2.304   3.227 -0.0873  0.2949 -0.2628
 5934SOL    HW129435   4.211   2.388   3.182  0.9871  0.6132  0.3762
 5934SOL    HW229436   4.115   2.300   3.243  0.1434 -1.8760  0.5533
 5935SOL     OW29437   3.727   3.255   4.333  0.0077 -0.2619  0.3505
 5935SOL    HW129438   3.725   3.257   4.429 -0.7439  2.1642  0.2850
 5935SOL    HW229439   3.817   3.225   4.323 -0.3865 -1.6199  0.8197
 5936SOL     OW29440   3.080   1.873  16.912  0.0823 -0.2508  0.4582
 5936SOL    HW129441   3.144   1.831  16.970 -0.3066  0.8331  1.6668
 5936SOL    HW229442   3.066   1.954  16.962  1.6240 -0.0373  0.5583
 5937SOL     OW29443   1.573   1.556   2.444 -0.1417 -0.4767  0.2911
 5937SOL    HW129444   1.500   1.618   2.440 -0.3424 -0.8240 -1.2665
 5937SOL    HW229445   1.535   1.481   2.398 -1.0596  0.4831 -0.5030
 5938SOL     OW29446   1.897   0.152   6.014  0.6678  0.4913  0.3054
 5938SOL    HW129447   1.966   0.085   6.020 -0.4389 -0.3989  2.8250
 5938SOL    HW229448   1.944   0.211   5.954 -1.8627  1.7519 -0.4143
 5939SOL     OW29449   0.885   0.469   1.996  0.4534  0.2168 -0.2517
 5939SOL    HW129450   0.964   0.486   2.048  0.0222 -1.6610  1.0049
 5939SOL    HW229451   0.827   0.519   2.053 -0.4168  0.0216 -0.9652
 5940SOL     OW29452   0.146   3.277  11.593  1.2443 -0.4328 -0.3487
 5940SOL    HW129453   0.216   3.310  11.649 -0.1768 -1.0433  1.7799
 5940SOL    HW229454   0.109   3.363  11.573  0.8561 -0.2472  1.1672
 5941SOL     OW29455   1.154   3.006  12.051 -0.4546  0.2548 -0.1869
 5941SOL    HW129456   1.178   2.919  12.085 -0.4078  0.6092  0.6768
 5941SOL    HW229457   1.173   3.068  12.121  0.1067 -1.1584  0.9077
 5942SOL     OW29458   0.025   2.760   6.015 -0.4401 -0.3222 -0.1142
 5942SOL    HW129459   4.718   2.674   6.030  0.0223 -0.4066  0.6030
 5942SOL    HW229460   4.719   2.778   5.929 -2.4195  0.3421  0.8737
 5943SOL     OW29461   3.530   3.411  15.253 -0.5878 -0.1696  0.5625
 5943SOL    HW129462   3.447   3.451  15.231 -0.0826  0.1429 -0.7681
 5943SOL    HW229463   3.570   3.489  15.292 -1.0260  0.0171  0.6308
 5944SOL     OW29464   0.567   2.110   1.877  0.4327  0.2029  0.1637
 5944SOL    HW129465   0.612   2.190   1.901 -0.7483  0.0682  2.7905
 5944SOL    HW229466   0.643   2.053   1.884  0.8784  0.3723 -3.1218
 5945SOL     OW29467   4.466   2.043   1.603 -0.2136  0.4845 -0.1206
 5945SOL    HW129468   4.383   2.079   1.634 -0.7138 -0.9423  0.1870
 5945SOL    HW229469   4.513   2.027   1.685  1.3085  1.9226 -0.7209
 5946SOL     OW29470   2.703   4.152   3.836 -0.5190 -0.9548 -0.4063
 5946SOL    HW129471   2.728   4.072   3.791  1.4930 -0.3046 -0.4274
 5946SOL    HW229472   2.607   4.147   3.837 -0.5682 -0.3051 -1.0844
 5947SOL     OW29473   1.338   3.778   3.818  0.1806 -0.2164  0.0976
 5947SOL    HW129474   1.342   3.868   3.849 -0.8497  0.6763 -2.2747
 5947SOL    HW229475   1.426   3.764   3.785 -0.0424 -1.7640  0.1517
 5948SOL     OW29476   2.188   2.920   4.922 -0.4647  0.3969  0.1599
 5948SOL    HW129477   2.156   2.847   4.870  0.9394  0.6293 -1.0223
 5948SOL    HW229478   2.113   2.950   4.973 -1.5032 -0.3462 -0.9522
 5949SOL     OW29479   0.777   1.743  16.034 -0.0277  0.2456  0.6457
 5949SOL    HW129480   0.786   1.707  15.946 -0.4951 -0.0504  0.7209
 5949SOL    HW229481   0.840   1.688  16.079  1.4884  0.4260 -1.2573
 5950SOL     OW29482   2.508   1.744   1.908  0.0875 -0.4486 -0.0879
 5950SOL    HW129483   2.499   1.833   1.875  1.3282 -0.8611 -1.5163
 5950SOL    HW229484   2.600   1.741   1.933 -0.3390  0.7796  1.6662
 5951SOL     OW29485   0.079   4.366   3.521  0.8655 -0.1031  0.1072
 5951SOL    HW129486   0.084   4.457   3.548  1.3720 -0.5230  1.4459
 5951SOL    HW229487   0.029   4.358   3.439 -0.4732  3.0934  0.6381
 5952SOL     OW29488   0.171   0.421   9.897  0.3002 -0.2582  0.8084
 5952SOL    HW129489   0.104   0.409   9.829  0.8341 -3.3001  0.8325
 5952SOL    HW229490   0.250   0.439   9.846 -0.4466  1.6086  0.3211
 5953SOL     OW29491   4.148   1.295   3.576 -0.0149  0.2667 -0.0011
 5953SOL    HW129492   4.210   1.265   3.509  0.7815 -1.2851  1.4316
 5953SOL    HW229493   4.203   1.258   3.645  0.4094  1.9319  0.5566
 5954SOL     OW29494   4.099   4.366   9.573  0.1070  0.2299 -0.7278
 5954SOL    HW129495   4.033   4.357   9.642  0.3960  2.2562 -0.1947
 5954SOL    HW229496   4.116   4.273   9.554 -0.6945 -0.1872  0.5865
 5955SOL     OW29497   2.375   3.175   8.274 -0.5419 -0.6768 -0.1272
 5955SOL    HW129498   2.435   3.120   8.323 -2.4035 -0.8244  1.9674
 5955SOL    HW229499   2.336   3.101   8.227 -1.9423  0.0099 -0.0254
 5956SOL     OW29500   3.029   4.395  10.225 -0.2869  0.4653  0.2838
 5956SOL    HW129501   3.089   4.469  10.215  2.5940 -1.9501 -0.1939
 5956SOL    HW229502   3.010   4.397  10.319  1.6004  0.2084  0.6830
 5957SOL     OW29503   1.818   3.631  15.883  0.1677 -0.5847  0.0129
 5957SOL    HW129504   1.824   3.650  15.789 -1.8322 -1.1872 -0.2307
 5957SOL    HW229505   1.812   3.722  15.911 -1.6932 -0.2149 -1.5579
 5958SOL     OW29506   0.225   3.898   3.366  0.7245  0.3015  0.3765
 5958SOL    HW129507   0.138   3.911   3.406  0.1724  2.1441 -1.4347
 5958SOL    HW229508   0.279   3.913   3.443 -0.2497 -0.6707  1.2602
 5959SOL     OW29509   4.338   0.241   8.716  0.0323 -0.1767 -0.7512
 5959SOL    HW129510   4.276   0.240   8.643  0.9335  4.1581 -1.6257
 5959SOL    HW229511   4.373   0.153   8.708  2.1727  0.5343  0.6681
 5960SOL     OW29512   4.301   1.547  14.578 -0.3747  0.8351 -0.0232
 5960SOL    HW129513   4.254   1.578  14.501  1.0835  0.8460 -0.9007
 5960SOL    HW229514   4.361   1.481  14.544 -0.4797  0.1894  1.0166
 5961SOL     OW29515   4.521   1.339   9.713 -0.1144  0.2133  0.5820
 5961SOL    HW129516   4.480   1.350   9.626 -0.2988  1.0132  0.7710
 5961SOL    HW229517   4.588   1.405   9.727  2.5338 -2.0174 -1.6749
 5962SOL     OW29518   4.268   2.786   5.569 -0.6666 -0.0827 -0.5058
 5962SOL    HW129519   4.357   2.764   5.543 -1.4274 -0.1376 -3.0783
 5962SOL    HW229520   4.242   2.830   5.487  0.3636 -1.6138 -1.6534
 5963SOL     OW29521   4.442   0.423  10.205 -0.3542  0.2638 -0.5351
 5963SOL    HW129522   4.437   0.348  10.264  3.3823 -0.7543 -1.5271
 5963SOL    HW229523   4.526   0.464  10.225  0.2704 -0.3540 -1.8708
 5964SOL     OW29524   1.961   4.077   7.224  0.3483  0.1905  0.0413
 5964SOL    HW129525   2.028   4.135   7.259  1.3638 -0.7964 -0.2742
 5964SOL    HW229526   1.973   3.998   7.276 -1.1595  0.9562  1.5389
 5965SOL     OW29527   0.513   0.584   8.328  0.3824 -0.2931  1.0509
 5965SOL    HW129528   0.545   0.544   8.247  2.4481  1.1333  1.1691
 5965SOL    HW229529   0.567   0.662   8.343  1.4826 -1.0131  0.8630
 5966SOL     OW29530   4.239   3.445  15.483  0.5869  0.1596  0.1085
 5966SOL    HW129531   4.282   3.530  15.485 -2.6941  1.8460 -1.1689
 5966SOL    HW229532   4.161   3.469  15.434  1.0400  1.9052  0.2432
 5967SOL     OW29533   1.815   3.559  13.953 -0.1802  0.3637 -0.2513
 5967SOL    HW129534   1.857   3.521  14.031  0.2991  2.9777  0.7598
 5967SOL    HW229535   1.744   3.501  13.927 -2.1468  1.8156  1.7930
 5968SOL     OW29536   3.053   4.646   7.727 -0.1980 -0.0712  0.3318
 5968SOL    HW129537   3.111   4.663   7.653 -1.6996 -0.0629 -0.8253
 5968SOL    HW229538   2.965   4.665   7.697 -0.4032 -1.1424  0.2635
 5969SOL     OW29539   2.265   4.707   5.225  0.4680  0.1777  0.2245
 5969SOL    HW129540   2.337   0.039   5.217 -0.8445  1.2937 -2.8011
 5969SOL    HW229541   2.235   4.730   5.313  0.1629  0.8550 -0.0503
 5970SOL     OW29542   3.543   1.570   0.326  0.2919  0.1106 -0.2455
 5970SOL    HW129543   3.463   1.621   0.324  0.6578  0.7828  1.9246
 5970SOL    HW229544   3.516   1.486   0.291 -2.4367  0.0615  1.9933
 5971SOL     OW29545   1.582   1.357   1.301 -0.1531 -0.0187 -0.4559
 5971SOL    HW129546   1.617   1.357   1.212 -2.9401  3.9340 -1.5506
 5971SOL    HW229547   1.506   1.410   1.276 -1.0870 -0.2365  1.9451
 5972SOL     OW29548   2.621   1.998   2.719  0.1124  0.0149 -0.4402
 5972SOL    HW129549   2.644   1.934   2.652 -0.0319  0.0376 -0.5088
 5972SOL    HW229550   2.705   2.035   2.748 -0.7317  0.6079  1.2802
 5973SOL     OW29551   4.187   4.415   2.818 -0.3434 -0.1235 -0.9929
 5973SOL    HW129552   4.196   4.441   2.910  0.4354 -2.0583 -0.5317
 5973SOL    HW229553   4.259   4.354   2.826  0.0981  0.5501  0.2031
 5974SOL     OW29554   1.305   3.937   1.827  0.0670  0.4386 -0.1311
 5974SOL    HW129555   1.314   4.009   1.764 -2.5207 -0.3044 -1.3051
 5974SOL    HW229556   1.392   3.897   1.818 -0.4772 -0.6581 -0.4681
 5975SOL     OW29557   1.590   3.381  13.969 -0.8280 -0.0217  0.4727
 5975SOL    HW129558   1.505   3.374  13.925 -0.6477  2.4072 -0.2533
 5975SOL    HW229559   1.626   3.293  13.961  0.0834  0.1948  2.3172
 5976SOL     OW29560   4.252   0.768  16.663 -0.2464 -0.1726 -0.3983
 5976SOL    HW129561   4.218   0.705  16.600  0.4883 -1.2011  0.2144
 5976SOL    HW229562   4.202   0.849  16.657  0.6839  0.3795 -0.5932
 5977SOL     OW29563   2.744   1.547   1.568  0.1234  0.5696  0.1753
 5977SOL    HW129564   2.821   1.602   1.560 -0.8627  1.7136 -1.5631
 5977SOL    HW229565   2.778   1.463   1.599  0.2299  0.2210 -0.8892
 5978SOL     OW29566   1.959   2.387   8.402  0.1054  0.2867 -0.3328
 5978SOL    HW129567   1.900   2.370   8.329  0.3234  1.0416 -0.6718
 5978SOL    HW229568   2.011   2.463   8.377  1.8403 -1.2743 -1.4389
 5979SOL     OW29569   0.954   3.470   5.099  0.3066 -0.1395  0.1388
 5979SOL    HW129570   1.024   3.405   5.097 -1.1959 -1.8140  2.7643
 5979SOL    HW229571   0.993   3.550   5.135  0.5226 -0.5794  0.8650
 5980SOL     OW29572   2.069   1.565   8.009 -0.7258 -0.0391  0.4055
 5980SOL    HW129573   2.058   1.478   8.046 -1.2473 -0.3994 -0.6101
 5980SOL    HW229574   2.063   1.616   8.090 -0.6763  0.1337  0.3008
 5981SOL     OW29575   3.022   1.044   2.061  0.6777  0.2255 -0.4950
 5981SOL    HW129576   3.026   1.137   2.084  0.0055 -0.0394  0.6675
 5981SOL    HW229577   3.078   1.043   1.983  0.1571 -0.9401 -0.8521
 5982SOL     OW29578   2.416   4.121   3.872  0.1060  0.6854 -0.9273
 5982SOL    HW129579   2.401   4.108   3.778  1.1917 -0.4237 -0.9442
 5982SOL    HW229580   2.327   4.124   3.907  1.1955 -1.9481  2.0273
 5983SOL     OW29581   0.218   3.834   7.195 -0.4443 -0.2863 -0.1531
 5983SOL    HW129582   0.180   3.761   7.243  0.9122 -1.4457 -0.8372
 5983SOL    HW229583   0.185   3.906   7.248 -1.5560 -0.0850 -1.1205
 5984SOL     OW29584   0.283   0.462   5.491  0.1960 -0.4081  0.5217
 5984SOL    HW129585   0.279   0.558   5.491  0.4949 -0.3927 -0.6982
 5984SOL    HW229586   0.195   0.432   5.467  0.2876 -0.4817  0.2780
 5985SOL     OW29587   0.677   3.192  11.505 -0.2716  0.1412  0.2157
 5985SOL    HW129588   0.607   3.255  11.486 -0.8673 -0.9083 -1.0552
 5985SOL    HW229589   0.711   3.216  11.591  1.3567  0.9379 -0.6638
 5986SOL     OW29590   2.796   1.625   5.602  0.3092  0.7093  0.4722
 5986SOL    HW129591   2.727   1.683   5.634 -0.9546  0.1516 -1.2227
 5986SOL    HW229592   2.788   1.543   5.650  0.7943  0.0544 -0.5695
 5987SOL     OW29593   2.968   1.235  17.096 -0.9574 -0.1793 -0.1459
 5987SOL    HW129594   2.986   1.141  17.090 -0.2365 -0.0174 -0.5550
 5987SOL    HW229595   2.874   1.225  17.084 -1.4698 -0.2079  3.7438
 5988SOL     OW29596   2.222   2.269   2.714  0.0894  0.1297 -0.7065
 5988SOL    HW129597   2.201   2.176   2.714 -2.3942  0.6965 -2.0645
 5988SOL    HW229598   2.304   2.270   2.664 -0.0841 -0.1212 -0.9921
 5989SOL     OW29599   4.001   1.878   5.244  0.1530  0.3208 -0.1249
 5989SOL    HW129600   4.039   1.950   5.193 -1.0345  0.5336 -0.6975
 5989SOL    HW229601   4.004   1.813   5.174  1.3415 -0.3891  0.5690
 5990SOL     OW29602   2.189   0.297   2.036 -0.1835  0.3996  0.3245
 5990SOL    HW129603   2.240   0.227   2.077  1.7228  1.7553  0.2870
 5990SOL    HW229604   2.254   0.347   1.986 -0.1813  0.8696  0.7958
 5991SOL     OW29605   3.751   2.858   3.603  0.5726 -0.5480  0.2313
 5991SOL    HW129606   3.817   2.923   3.629  2.2092 -1.2539 -2.1399
 5991SOL    HW229607   3.751   2.807   3.683 -0.6718  1.7662  1.7111
 5992SOL     OW29608   1.391   2.279   5.331  0.0339 -0.0857  0.1695
 5992SOL    HW129609   1.484   2.302   5.339 -0.5961  2.5379 -0.0646
 5992SOL    HW229610   1.405   2.186   5.315 -0.9236  0.1213 -1.8317
 5993SOL     OW29611   0.029   4.489   5.863 -0.9001  0.7888  0.0943
 5993SOL    HW129612   0.089   4.557   5.894 -1.7074  1.2622  0.6087
 5993SOL    HW229613   0.094   4.427   5.830  0.6711  2.5312 -0.1459
 5994SOL     OW29614   2.480   4.243  16.328 -0.3302 -0.0870  0.0925
 5994SOL    HW129615   2.397   4.222  16.285  0.4262  0.9995 -1.9248
 5994SOL    HW229616   2.533   4.184  16.275 -2.0588  0.5552 -2.3754
 5995SOL     OW29617   3.265   1.827   4.608  0.1792 -0.2314  0.6891
 5995SOL    HW129618   3.243   1.920   4.606 -2.2901 -0.8250  0.9510
 5995SOL    HW229619   3.211   1.787   4.540  0.0351  2.3991 -0.7509
 5996SOL     OW29620   0.478   0.311   5.896  0.0244 -0.8804  1.4128
 5996SOL    HW129621   0.547   0.258   5.855 -0.8626  0.1260 -1.3710
 5996SOL    HW229622   0.541   0.366   5.943  0.8997 -0.7689  0.1238
 5997SOL     OW29623   2.973   3.112   8.703  0.2384 -0.4710  0.5875
 5997SOL    HW129624   2.897   3.084   8.754 -0.7402  1.8065  0.3953
 5997SOL    HW229625   2.988   3.038   8.643  0.8321  1.6915 -1.9411
 5998SOL     OW29626   2.596   0.156   7.357  0.3970 -0.3552  0.4411
 5998SOL    HW129627   2.631   0.229   7.306  0.3781 -0.5102  0.2082
 5998SOL    HW229628   2.605   0.181   7.450  2.5505 -3.5624  1.0913
 5999SOL     OW29629   4.463   2.164  16.307  0.0841 -0.0211 -0.6452
 5999SOL    HW129630   4.522   2.096  16.274 -2.2931 -1.0450 -2.8046
 5999SOL    HW229631   4.390   2.115  16.344  0.0372  0.5102 -0.0365
 6000SOL     OW29632   4.152   4.238   3.284  0.1099  0.0062 -0.3923
 6000SOL    HW129633   4.071   4.255   3.236  0.3757  2.1581 -0.0935
 6000SOL    HW229634   4.140   4.147   3.309 -1.3644  0.1922 -0.4327
 6001SOL     OW29635   2.627   1.636   2.620  0.4737 -0.1522  0.0860
 6001SOL    HW129636   2.594   1.550   2.645  1.4425 -0.6175 -0.2709
 6001SOL    HW229637   2.697   1.634   2.685  1.2862  1.1922 -0.7522
 6002SOL     OW29638   0.576   3.583  16.582  0.0053  0.1180  0.2268
 6002SOL    HW129639   0.523   3.651  16.540 -1.9360 -1.5887 -0.1004
 6002SOL    HW229640   0.645   3.643  16.611 -0.4382  0.3243  0.8627
 6003SOL     OW29641   4.525   3.995  11.906  0.3002  0.0376  0.0263
 6003SOL    HW129642   4.592   3.934  11.877  0.6437  0.5804 -0.3266
 6003SOL    HW229643   4.494   4.040  11.827 -2.6928 -1.4108  0.3883
 6004SOL     OW29644   1.770   3.500   0.288  0.8628  0.2481 -0.2481
 6004SOL    HW129645   1.848   3.549   0.311  0.4728 -0.0027  1.5606
 6004SOL    HW229646   1.797   3.459   0.205 -2.0680 -1.7839 -0.2141
 6005SOL     OW29647   3.355   0.486   2.694  0.0559 -0.0874 -0.2188
 6005SOL    HW129648   3.296   0.481   2.768 -0.3278 -1.0963 -0.5882
 6005SOL    HW229649   3.282   0.475   2.633 -0.1174  0.4324 -0.1009
 6006SOL     OW29650   3.918   4.170   8.877  0.0101 -0.0968 -0.4659
 6006SOL    HW129651   3.861   4.093   8.876  0.7926 -0.6765  0.3138
 6006SOL    HW229652   3.981   4.155   8.948 -0.1660 -0.6951 -0.4336
 6007SOL     OW29653   1.709   1.188   9.511  0.1443 -0.2541  0.0289
 6007SOL    HW129654   1.794   1.200   9.553  0.3607  0.4899 -0.6110
 6007SOL    HW229655   1.744   1.203   9.422  0.0038 -2.2937 -0.3655
 6008SOL     OW29656   1.208   2.202   4.879 -0.4740 -0.4565  0.2100
 6008SOL    HW129657   1.255   2.285   4.884 -0.4490 -0.4374 -0.4422
 6008SOL    HW229658   1.175   2.204   4.789 -0.1724 -0.6997  0.0945
 6009SOL     OW29659   3.357   4.366  14.605  0.1341  0.1896  0.1954
 6009SOL    HW129660   3.358   4.296  14.541 -2.6518  2.7115 -2.5728
 6009SOL    HW229661   3.331   4.439  14.548 -0.4422  0.4931  0.8398
 6010SOL     OW29662   2.655   4.096   5.934 -0.4004  0.5258  0.1669
 6010SOL    HW129663   2.672   4.190   5.947  1.8500 -0.0278  1.1838
 6010SOL    HW229664   2.629   4.063   6.019  1.0840  2.3173  1.3178
 6011SOL     OW29665   0.902   0.702   5.641 -0.1201  0.4384  0.2992
 6011SOL    HW129666   0.996   0.688   5.631  0.2313  2.2395  1.2221
 6011SOL    HW229667   0.875   0.705   5.549  2.4075  1.2685 -0.4108
 6012SOL     OW29668   1.877   0.901   8.348  0.3801  0.1920  0.4405
 6012SOL    HW129669   1.811   0.954   8.392 -1.0276 -1.0821 -0.1366
 6012SOL    HW229670   1.953   0.898   8.407  0.1633  0.7256  0.7475
 6013SOL     OW29671   4.463   0.140  12.751  0.6036  0.0320  0.2747
 6013SOL    HW129672   4.520   0.106  12.820 -0.4667 -0.2139  1.0295
 6013SOL    HW229673   4.389   0.082  12.766 -1.0268  1.7841 -0.9822
 6014SOL     OW29674   2.594   1.517  13.317  0.5709  0.2490  0.4906
 6014SOL    HW129675   2.559   1.584  13.375 -0.4011 -0.3262  0.5648
 6014SOL    HW229676   2.672   1.480  13.358 -0.3939  1.1972  3.1420
 6015SOL     OW29677   1.562   2.650   3.303 -0.1672 -0.0431  0.5132
 6015SOL    HW129678   1.513   2.609   3.232 -0.5221  0.5675  0.3978
 6015SOL    HW229679   1.641   2.597   3.295 -0.6604 -1.0672  2.5252
 6016SOL     OW29680   1.391   4.047   8.659  0.1557  0.0827 -0.2606
 6016SOL    HW129681   1.413   3.980   8.724 -1.1518  0.8482  0.9674
 6016SOL    HW229682   1.474   4.095   8.657  0.9731 -1.2498  0.8094
 6017SOL     OW29683   1.026   1.861   2.906 -0.3190 -0.1503  0.2422
 6017SOL    HW129684   0.979   1.941   2.882 -0.2833  0.0221  0.7338
 6017SOL    HW229685   1.060   1.831   2.822  1.3793  1.2705  0.4246
 6018SOL     OW29686   1.078   1.903  15.280 -0.3808  0.1015 -0.0506
 6018SOL    HW129687   1.161   1.926  15.321 -0.8681 -1.1649  1.6192
 6018SOL    HW229688   1.099   1.908  15.187 -1.9487  2.6905 -0.2632
 6019SOL     OW29689   1.545   4.630   9.481 -0.2076 -0.0706 -0.1071
 6019SOL    HW129690   1.611   4.673   9.427 -1.6881  1.9780 -0.2893
 6019SOL    HW229691   1.470   4.625   9.422 -0.1103 -2.3237 -0.0592
 6020SOL     OW29692   0.796   3.287  17.357  0.3193  0.6345 -0.1674
 6020SOL    HW129693   0.890   3.274  17.362  0.3037 -0.1743 -2.0531
 6020SOL    HW229694   0.763   3.223  17.294 -0.8184 -0.0800  1.1425
 6021SOL     OW29695   3.883   0.780  17.478  0.1357  0.1075 -0.0859
 6021SOL    HW129696   3.788   0.770  17.472  0.5045 -2.2041 -1.9616
 6021SOL    HW229697   3.915   0.768  17.389  0.0792  2.9932 -0.5093
 6022SOL     OW29698   2.720   2.860   5.865 -0.2287 -0.0424  0.0673
 6022SOL    HW129699   2.728   2.807   5.786 -1.8503 -2.2785  1.4129
 6022SOL    HW229700   2.652   2.922   5.839  0.2408  1.0449  1.4160
 6023SOL     OW29701   1.917   4.284   3.694 -0.0546 -0.2806  0.2304
 6023SOL    HW129702   1.853   4.232   3.646 -1.7486 -0.4310  2.6440
 6023SOL    HW229703   1.991   4.235   3.659  1.1923  1.2774  0.6721
 6024SOL     OW29704   2.982   1.822  16.195 -0.6124 -0.3420 -0.3897
 6024SOL    HW129705   2.993   1.816  16.290 -0.3575  2.4483 -0.2472
 6024SOL    HW229706   3.070   1.852  16.172 -0.3308 -0.3983  0.6028
 6025SOL     OW29707   0.735   2.004  16.052  0.2826 -0.4232 -0.3480
 6025SOL    HW129708   0.694   2.028  15.969 -1.4427  0.6147  0.8159
 6025SOL    HW229709   0.738   1.909  16.060 -0.5995 -0.4421 -0.2404
 6026SOL     OW29710   3.585   3.655   8.895  0.6332  0.0725  0.4909
 6026SOL    HW129711   3.668   3.607   8.895 -1.4532 -3.6014 -0.9572
 6026SOL    HW229712   3.553   3.633   8.808 -2.4991 -1.2166  1.9720
 6027SOL     OW29713   0.777   3.403   8.964  0.1664 -0.0206 -0.4539
 6027SOL    HW129714   0.796   3.329   9.021 -0.9957 -1.8706 -2.4529
 6027SOL    HW229715   0.739   3.353   8.892  0.2235  0.2910 -0.7000
 6028SOL     OW29716   4.610   1.356   9.081 -0.4181  0.4879  0.4415
 6028SOL    HW129717   4.633   1.437   9.035  0.6108  0.3909  0.7808
 6028SOL    HW229718   4.699   1.339   9.112 -0.0424  0.2168 -0.7982
 6029SOL     OW29719   1.041   0.029   4.293  0.0667  0.4576 -0.1807
 6029SOL    HW129720   1.075   0.070   4.213 -0.1357  3.2147  1.1234
 6029SOL    HW229721   0.969   4.704   4.268 -0.3794  0.2621  1.5039
 6030SOL     OW29722   1.002   2.547  16.927  0.1884  0.5640 -0.4043
 6030SOL    HW129723   0.907   2.559  16.940 -0.1079 -0.4590 -1.5759
 6030SOL    HW229724   1.030   2.597  16.850 -0.1898 -2.2541 -2.3770
 6031SOL     OW29725   0.894   0.580   2.867  0.0067 -0.4313 -0.4205
 6031SOL    HW129726   0.873   0.637   2.792  2.9581  0.9817 -0.1647
 6031SOL    HW229727   0.839   0.507   2.838 -0.5474 -0.3272  0.3926
 6032SOL     OW29728   1.251   3.523  15.325 -0.4426 -0.4752  0.3610
 6032SOL    HW129729   1.311   3.456  15.292  2.1794  3.4352 -2.8301
 6032SOL    HW229730   1.297   3.607  15.318  0.4471 -1.0299 -0.6373
 6033SOL     OW29731   1.772   3.725  13.203 -0.2248  0.2695  0.4190
 6033SOL    HW129732   1.738   3.640  13.175 -0.7157  0.2674  1.0157
 6033SOL    HW229733   1.843   3.700  13.263 -0.6441 -0.5931  0.5627
 6034SOL     OW29734   3.167   1.714  13.319 -0.4907 -0.3530 -0.4089
 6034SOL    HW129735   3.098   1.656  13.289  0.7850 -1.9497 -0.2380
 6034SOL    HW229736   3.204   1.751  13.238  2.6203 -0.8469  0.7720
 6035SOL     OW29737   3.610   2.395   8.472  0.2832  0.1142  0.2588
 6035SOL    HW129738   3.705   2.405   8.465  0.0817  2.0285  0.2966
 6035SOL    HW229739   3.592   2.311   8.429  1.6403 -0.5472  0.9569
 6036SOL     OW29740   0.128   3.548   7.645  0.0927 -0.3839  0.0831
 6036SOL    HW129741   0.173   3.600   7.712  1.0891 -0.6836 -0.3458
 6036SOL    HW229742   0.038   3.555   7.675  0.9591  1.5334  2.2508
 6037SOL     OW29743   3.737   1.469  15.463  0.1900  0.3673 -0.4017
 6037SOL    HW129744   3.758   1.405  15.394 -2.4069  0.0090 -0.8331
 6037SOL    HW229745   3.642   1.478  15.460  0.2315  0.8819 -0.0503
 6038SOL     OW29746   0.090   4.028   7.339 -0.2492 -0.0359  0.3123
 6038SOL    HW129747   4.728   4.010   7.350 -0.3962 -0.3435 -1.4663
 6038SOL    HW229748   0.090   4.113   7.293  1.4543  0.1906  0.6985
 6039SOL     OW29749   1.558   3.566   0.904 -0.8078 -0.0059  0.2940
 6039SOL    HW129750   1.636   3.600   0.948  0.4063 -0.3307 -1.6169
 6039SOL    HW229751   1.595   3.523   0.827 -1.4456 -0.3617  0.1867
 6040SOL     OW29752   1.843   0.287   7.370 -0.0775 -0.2378  0.1779
 6040SOL    HW129753   1.779   0.285   7.441 -0.8573 -0.0833 -0.5249
 6040SOL    HW229754   1.885   0.371   7.390 -2.2886  0.5886  1.2982
 6041SOL     OW29755   3.049   1.717   7.876  0.1950  0.2998  0.3740
 6041SOL    HW129756   3.105   1.795   7.874 -1.3470  1.3749 -1.3258
 6041SOL    HW229757   3.104   1.645   7.906  0.0648 -0.5421 -1.4194
 6042SOL     OW29758   3.887   2.470   4.974  0.1943  0.3706  0.3712
 6042SOL    HW129759   3.851   2.520   5.046  3.7276  0.8769  1.7842
 6042SOL    HW229760   3.851   2.384   4.995 -2.7097  1.5343  0.2167
 6043SOL     OW29761   1.057   3.328   3.136  0.5422  0.3536 -0.2374
 6043SOL    HW129762   0.986   3.289   3.187  1.0064  1.5923  1.3643
 6043SOL    HW229763   1.123   3.262   3.116 -0.4564 -0.5189 -0.6829
 6044SOL     OW29764   1.216   4.021   7.299 -0.1506 -0.1372 -0.1827
 6044SOL    HW129765   1.122   4.001   7.296 -0.0663 -0.6197  0.4686
 6044SOL    HW229766   1.227   3.985   7.388  2.9152 -0.2419 -0.6204
 6045SOL     OW29767   1.655   1.847   6.498  0.4068  0.2742  0.2683
 6045SOL    HW129768   1.661   1.760   6.538  1.4067  1.2859  2.3460
 6045SOL    HW229769   1.562   1.871   6.501  0.6660  1.0189  2.2473
 6046SOL     OW29770   4.227   2.311   4.255  0.0629  0.3640 -0.3339
 6046SOL    HW129771   4.259   2.390   4.210  1.6217 -1.0529 -1.7009
 6046SOL    HW229772   4.166   2.278   4.189  2.1245 -2.8097 -0.6523
 6047SOL     OW29773   1.335   3.099   4.685  0.3433  0.3424  0.5688
 6047SOL    HW129774   1.430   3.099   4.681  0.3813  0.9663  1.5029
 6047SOL    HW229775   1.321   3.125   4.594 -1.0805 -0.5935  0.5257
 6048SOL     OW29776   4.687   0.264  10.548 -0.4882  0.4635 -0.2114
 6048SOL    HW129777   4.701   0.289  10.639 -2.2953  0.5529  0.0466
 6048SOL    HW229778   0.027   0.319  10.515 -0.1067  0.6254  0.8933
 6049SOL     OW29779   1.790   1.893   2.147 -0.0489  0.1309 -0.3615
 6049SOL    HW129780   1.785   1.846   2.231 -0.5028  0.2040 -0.3482
 6049SOL    HW229781   1.700   1.920   2.133  0.2941  1.9845  0.9808
 6050SOL     OW29782   0.049   1.798   6.156 -0.3522  0.0898 -0.6318
 6050SOL    HW129783   0.062   1.862   6.226  0.8554  1.1500 -1.8125
 6050SOL    HW229784   4.690   1.769   6.166 -0.7064  1.1495 -0.7517
 6051SOL     OW29785   1.100   0.052   5.196  0.6911 -0.1040 -0.3088
 6051SOL    HW129786   1.192   0.040   5.219  0.2458 -1.3449  0.8312
 6051SOL    HW229787   1.099   0.056   5.101  1.4074  1.6224 -0.2536
 6052SOL     OW29788   4.572   4.266   6.535  0.3395 -0.1916 -0.1869
 6052SOL    HW129789   4.642   4.318   6.497  0.5158 -0.3178 -0.0364
 6052SOL    HW229790   4.534   4.229   6.456 -3.2728 -0.0787  1.4560
 6053SOL     OW29791   3.677   3.262   5.665  0.1680 -0.2584 -0.0023
 6053SOL    HW129792   3.646   3.204   5.734  1.0471  1.6051  1.9355
 6053SOL    HW229793   3.769   3.259   5.689 -0.3661 -1.2892  1.9184
 6054SOL     OW29794   1.560   0.079   3.039 -0.1811 -0.2453  0.4169
 6054SOL    HW129795   1.508   0.021   2.983  0.0156 -0.4611  0.4607
 6054SOL    HW229796   1.646   0.058   3.004 -0.4905 -1.6313  0.5025
 6055SOL     OW29797   0.189   4.090   4.088 -0.6499  0.1699 -1.3252
 6055SOL    HW129798   0.224   4.128   4.008  0.8688 -0.9601 -1.1929
 6055SOL    HW229799   0.169   4.001   4.060  0.3551 -0.0363 -1.3885
 6056SOL     OW29800   2.761   2.832   7.001 -0.1147  0.2973  0.6531
 6056SOL    HW129801   2.803   2.758   6.956 -0.6590 -0.0161  0.6601
 6056SOL    HW229802   2.842   2.876   7.027 -0.4798  0.8642  0.8357
 6057SOL     OW29803   1.847   2.040   1.752 -0.1099 -0.5539 -0.0994
 6057SOL    HW129804   1.767   1.994   1.726  0.4274 -0.8690 -1.1891
 6057SOL    HW229805   1.840   2.104   1.682  1.7900 -0.9454 -0.6378
 6058SOL     OW29806   4.604   0.219   2.818  0.6459  0.6006  0.5338
 6058SOL    HW129807   4.539   0.285   2.839 -1.9103 -1.1589 -1.8943
 6058SOL    HW229808   4.589   0.192   2.727 -0.8870 -0.6033  1.1608
 6059SOL     OW29809   2.845   1.316   1.618 -0.2893 -0.5373  0.5316
 6059SOL    HW129810   2.936   1.315   1.589 -0.1916 -0.0924  0.8136
 6059SOL    HW229811   2.837   1.221   1.624  2.4755 -0.9969 -3.5309
 6060SOL     OW29812   1.433   3.868   1.000 -0.1651  0.3767  0.4902
 6060SOL    HW129813   1.406   3.893   1.089  1.2140 -1.6195  1.4565
 6060SOL    HW229814   1.482   3.942   0.965  0.7260  0.9181  2.9124
 6061SOL     OW29815   4.531   0.618  10.892 -1.0328 -0.1855  0.4169
 6061SOL    HW129816   4.519   0.550  10.958 -0.8993 -1.6505 -1.0699
 6061SOL    HW229817   4.610   0.576  10.857  0.8432  1.9949  2.0236
 6062SOL     OW29818   3.993   4.150   5.288 -0.6392  0.2666 -0.2359
 6062SOL    HW129819   3.959   4.098   5.215 -0.2169 -0.6770  0.2342
 6062SOL    HW229820   4.076   4.174   5.247 -0.1512  0.6042  0.9466
 6063SOL     OW29821   4.301   0.202  10.967  0.1974 -0.5189  0.4814
 6063SOL    HW129822   4.268   0.117  10.994  2.2146 -1.3394  0.3732
 6063SOL    HW229823   4.367   0.173  10.903  0.1156  1.2856 -0.4301
 6064SOL     OW29824   4.278   1.246  13.948  0.0483 -0.0512  0.9715
 6064SOL    HW129825   4.288   1.248  13.853 -0.4383 -0.2417  0.9191
 6064SOL    HW229826   4.362   1.289  13.967  1.5976 -1.6512 -2.1252
 6065SOL     OW29827   4.298   1.727   2.031  0.3377 -0.7160  0.0153
 6065SOL    HW129828   4.388   1.737   2.063  0.3772 -1.8368  0.2444
 6065SOL    HW229829   4.246   1.744   2.109 -1.3907 -0.7357 -1.1425
 6066SOL     OW29830   4.400   3.452   1.618  0.4580  0.3742  0.2545
 6066SOL    HW129831   4.384   3.546   1.623 -0.3557  0.1988  1.0412
 6066SOL    HW229832   4.333   3.437   1.552  1.8789 -1.7171 -0.7318
 6067SOL     OW29833   3.332   0.629  16.739 -0.2551  0.3864 -0.1122
 6067SOL    HW129834   3.245   0.665  16.725 -0.1967  0.5499 -0.0519
 6067SOL    HW229835   3.351   0.584  16.656 -0.7129  1.6223 -0.8727
 6068SOL     OW29836   3.995   4.551  17.353  0.0571  0.6502 -0.4852
 6068SOL    HW129837   4.074   4.502  17.334 -0.4970 -0.1210 -0.7876
 6068SOL    HW229838   3.975   4.577  17.263  1.0462  1.2956 -0.5129
 6069SOL     OW29839   0.242   4.362   9.543  0.2257 -0.9734  0.5232
 6069SOL    HW129840   0.148   4.381   9.542  1.1067  3.4140  1.6875
 6069SOL    HW229841   0.245   4.267   9.535  1.4566 -0.7270 -2.0023
 6070SOL     OW29842   2.253   0.037  17.319  0.5187  0.2669  0.3233
 6070SOL    HW129843   2.159   0.037  17.338  0.1135  2.5375 -1.6256
 6070SOL    HW229844   2.243   4.721  17.236 -0.5228  0.1962  0.4844
 6071SOL     OW29845   3.590   3.573   0.730 -0.4060 -0.1374  0.5175
 6071SOL    HW129846   3.539   3.583   0.650  3.5193 -1.5440 -2.1568
 6071SOL    HW229847   3.594   3.479   0.745  2.9898  0.2795  2.1607
 6072SOL     OW29848   1.569   1.529   8.830 -0.4060  0.0632 -0.6029
 6072SOL    HW129849   1.475   1.531   8.810 -0.7240 -1.4748  0.6899
 6072SOL    HW229850   1.566   1.530   8.926 -0.6470 -1.0377 -0.6021
 6073SOL     OW29851   3.193   2.775   2.567 -0.1402  0.3114  0.4174
 6073SOL    HW129852   3.185   2.736   2.480 -1.0130  1.2505  0.0829
 6073SOL    HW229853   3.104   2.761   2.601  0.1454  0.1042  1.0828
 6074SOL     OW29854   3.019   4.105   2.633 -0.2094  0.2478  0.2054
 6074SOL    HW129855   3.053   4.115   2.545  1.8958  0.4788  1.0448
 6074SOL    HW229856   3.044   4.016   2.658 -1.6018  0.1183  1.1196
 6075SOL     OW29857   2.304   2.440  15.676  0.1101 -0.3206  0.6121
 6075SOL    HW129858   2.275   2.350  15.680 -0.6620 -0.1580 -1.4852
 6075SOL    HW229859   2.379   2.448  15.616 -0.2656  0.8689  0.2979
 6076SOL     OW29860   0.234   2.608  14.886 -0.1762 -0.2010 -0.2019
 6076SOL    HW129861   0.255   2.580  14.797  1.2499  0.1785  0.0216
 6076SOL    HW229862   0.315   2.581  14.929  0.2933 -1.4175 -1.8793
 6077SOL     OW29863   0.724   4.271   3.659  0.4514 -1.0804 -0.0940
 6077SOL    HW129864   0.715   4.323   3.580  1.3502 -0.2832  0.3200
 6077SOL    HW229865   0.774   4.200   3.617  2.0808 -0.8783  1.4760
 6078SOL     OW29866   0.618   3.924   2.113  0.0003 -0.0491 -0.0337
 6078SOL    HW129867   0.661   3.843   2.142 -1.1350 -0.3968  0.6823
 6078SOL    HW229868   0.570   3.942   2.194 -1.0122  1.3234 -0.9573
 6079SOL     OW29869   0.695   2.667  10.298 -0.0381  0.8071  0.1050
 6079SOL    HW129870   0.634   2.683  10.227 -0.4348  1.9550  0.7062
 6079SOL    HW229871   0.761   2.614  10.253  1.3033  1.4993  1.2413
 6080SOL     OW29872   0.796   0.262   3.282  0.4279 -0.1844 -0.2418
 6080SOL    HW129873   0.850   0.335   3.253 -1.3132  1.7828  1.4715
 6080SOL    HW229874   0.768   0.290   3.370  0.7988 -3.1702  0.8262
 6081SOL     OW29875   1.815   1.743  15.536  0.1752 -0.1928 -0.4626
 6081SOL    HW129876   1.883   1.775  15.476  1.7229 -0.4778  1.1309
 6081SOL    HW229877   1.876   1.743  15.611  0.4558  0.2112 -0.6916
 6082SOL     OW29878   4.346   0.505   1.818  0.3119  0.1788 -0.0918
 6082SOL    HW129879   4.290   0.576   1.789 -1.6653 -1.0059  0.8243
 6082SOL    HW229880   4.377   0.531   1.904  3.0459 -0.6252 -0.8387
 6083SOL     OW29881   2.320   0.690   5.635  1.3601  0.4964  0.3839
 6083SOL    HW129882   2.305   0.784   5.618 -0.2190  0.6097  2.4381
 6083SOL    HW229883   2.292   0.651   5.552  0.8210  1.7526 -0.0322
 6084SOL     OW29884   1.373   1.057  17.545 -0.2841  0.2809  0.0105
 6084SOL    HW129885   1.408   0.970  17.560 -0.1316  0.6844  2.0001
 6084SOL    HW229886   1.390   1.059  17.451  0.2635 -1.3360  0.0805
 6085SOL     OW29887   2.458   0.827   3.977  0.2717 -0.5730  0.0921
 6085SOL    HW129888   2.419   0.764   3.917 -1.1329  0.2007  0.1854
 6085SOL    HW229889   2.457   0.905   3.923 -1.8846  0.9441  2.3048
 6086SOL     OW29890   2.884   3.520   3.643 -0.5694  0.0003  0.2769
 6086SOL    HW129891   2.961   3.522   3.700 -0.2832 -1.2486 -0.0618
 6086SOL    HW229892   2.931   3.548   3.564 -0.1739 -0.4386  0.3568
 6087SOL     OW29893   0.557   2.572  17.298  0.0873  0.6716 -0.0009
 6087SOL    HW129894   0.595   2.494  17.257  0.3898  1.0545 -0.4447
 6087SOL    HW229895   0.598   2.582  17.384  0.2402 -0.4438  0.0547
 6088SOL     OW29896   1.884   1.734  16.094  0.2257 -0.1171  0.8154
 6088SOL    HW129897   1.801   1.685  16.086  0.1660  0.1988 -0.3674
 6088SOL    HW229898   1.860   1.822  16.122  1.6702 -0.0557  1.8679
 6089SOL     OW29899   0.957   0.269  10.074  0.4032  0.1493  0.5223
 6089SOL    HW129900   0.974   0.239  10.164  0.7165 -1.0253  0.0826
 6089SOL    HW229901   0.983   0.189  10.029 -0.6481 -1.2468  2.3613
 6090SOL     OW29902   1.676   3.386   2.736 -0.0060 -0.2014  0.4168
 6090SOL    HW129903   1.747   3.433   2.692 -1.0938  0.1292 -0.9869
 6090SOL    HW229904   1.662   3.314   2.676  0.4338  1.4495 -1.6704
 6091SOL     OW29905   4.237   1.787   1.758 -0.2795  0.2648  0.3345
 6091SOL    HW129906   4.145   1.793   1.733  0.2329 -0.1036 -1.6336
 6091SOL    HW229907   4.235   1.812   1.851 -0.6623 -0.2707  0.4652
 6092SOL     OW29908   4.185   0.623  12.229 -0.8359 -1.0716 -0.5763
 6092SOL    HW129909   4.165   0.716  12.217 -0.1353 -0.9813 -1.0730
 6092SOL    HW229910   4.098   0.585  12.219 -1.9786  1.4393 -0.0572
 6093SOL     OW29911   4.431   1.035   7.584  0.2828  0.1375  0.2945
 6093SOL    HW129912   4.403   1.005   7.497 -1.8803  1.1084  0.6484
 6093SOL    HW229913   4.370   1.108   7.590  0.4535  0.4448 -1.4813
 6094SOL     OW29914   1.257   0.401   7.389  0.3631 -0.6424 -0.1704
 6094SOL    HW129915   1.271   0.345   7.312  2.8983 -1.9621  1.2484
 6094SOL    HW229916   1.165   0.423   7.373  0.4145 -0.0402  0.3846
 6095SOL     OW29917   0.723   2.922   8.256  0.0402  0.1778 -0.0829
 6095SOL    HW129918   0.691   2.836   8.282 -3.0596  1.5874  0.7437
 6095SOL    HW229919   0.678   2.983   8.314 -1.5358  1.0315 -2.1711
 6096SOL     OW29920   0.363   3.646   6.720  0.3569 -0.0157 -0.1509
 6096SOL    HW129921   0.445   3.693   6.735  1.3768 -0.4594 -4.3445
 6096SOL    HW229922   0.325   3.669   6.804  0.6285 -1.1325  0.2785
 6097SOL     OW29923   0.378   1.581   7.602 -0.0951  0.3004  0.2076
 6097SOL    HW129924   0.309   1.531   7.645 -0.4189  0.6384  0.0823
 6097SOL    HW229925   0.334   1.664   7.620  0.0141  0.8182 -1.8564
 6098SOL     OW29926   1.329   4.388  16.863  0.2136  0.1972  0.1189
 6098SOL    HW129927   1.366   4.452  16.802 -0.2477  0.0256 -0.3391
 6098SOL    HW229928   1.263   4.446  16.900  1.5579  1.6592  0.2316
 6099SOL     OW29929   2.873   0.319   5.953  0.0183  0.3485 -0.1222
 6099SOL    HW129930   2.786   0.350   5.979 -0.0024  0.5870 -0.4742
 6099SOL    HW229931   2.891   0.257   6.024 -1.0339 -0.0323 -0.1932
 6100SOL     OW29932   0.168   0.721   6.619 -0.5753  0.2679 -0.2850
 6100SOL    HW129933   0.145   0.638   6.577 -0.4584 -0.4645  1.0965
 6100SOL    HW229934   0.262   0.721   6.599 -0.1512  1.2368  1.7119
 6101SOL     OW29935   2.646   3.676   8.161  0.1251 -0.2653  0.3266
 6101SOL    HW129936   2.685   3.623   8.091  1.0713 -0.1709  0.7753
 6101SOL    HW229937   2.713   3.665   8.229 -0.5076 -0.7095  0.8734
 6102SOL     OW29938   1.901   3.075   0.397 -0.3398 -0.0413 -0.0686
 6102SOL    HW129939   1.946   3.159   0.405 -1.4853  0.5066  0.6618
 6102SOL    HW229940   1.861   3.092   0.312 -0.1145 -0.8303 -0.3305
 6103SOL     OW29941   0.609   2.602  12.739  0.1389 -0.0506 -0.2923
 6103SOL    HW129942   0.695   2.578  12.773  0.4426 -1.5206 -2.1607
 6103SOL    HW229943   0.575   2.517  12.711  0.1655 -0.0534 -0.3154
 6104SOL     OW29944   1.862   0.126  17.630 -0.1524  0.2012  0.5074
 6104SOL    HW129945   1.811   0.045  17.637  0.5753 -0.4723 -2.0992
 6104SOL    HW229946   1.944   0.101  17.673  0.3385 -0.9386 -1.0682
 6105SOL     OW29947   2.638   1.555   8.862 -0.3631 -0.2261 -0.0745
 6105SOL    HW129948   2.694   1.619   8.819  0.3125 -0.1266  0.9253
 6105SOL    HW229949   2.554   1.580   8.823 -0.3043  1.0399  0.6104
 6106SOL     OW29950   0.607   2.873   0.959 -0.2612 -0.1944  0.2541
 6106SOL    HW129951   0.651   2.930   1.022  2.6751  0.2332 -2.1529
 6106SOL    HW229952   0.607   2.934   0.885 -2.5219 -2.5214 -1.6971
 6107SOL     OW29953   0.013   3.542   4.672  0.3243 -0.5222  0.5106
 6107SOL    HW129954   4.695   3.620   4.649  2.0031 -0.3836 -2.5766
 6107SOL    HW229955   0.096   3.588   4.685  0.9782 -1.3360 -0.7454
 6108SOL     OW29956   0.004   0.758   9.445 -0.2856  0.1491 -0.3829
 6108SOL    HW129957   0.057   0.744   9.523 -0.7803 -1.3555 -0.3113
 6108SOL    HW229958   4.653   0.782   9.489  0.4047  1.2482  0.3113
 6109SOL     OW29959   3.333   0.009   2.167 -0.9609 -0.3457  0.0662
 6109SOL    HW129960   3.354   0.061   2.090 -1.4426  0.6189  0.5760
 6109SOL    HW229961   3.414   0.027   2.214 -1.8832 -0.4230  1.6927
 6110SOL     OW29962   2.037   3.033  12.976  0.0888  0.1889 -0.1341
 6110SOL    HW129963   2.005   2.988  12.898  0.3656  1.2524 -0.8601
 6110SOL    HW229964   2.089   3.106  12.945  0.4399 -0.2119 -0.4864
 6111SOL     OW29965   1.222   3.079  11.785  0.2262 -0.1253  0.4084
 6111SOL    HW129966   1.295   3.020  11.767  0.5416  0.6227 -0.7361
 6111SOL    HW229967   1.182   3.046  11.866 -0.4587  0.8788  0.4768
 6112SOL     OW29968   3.424   2.091   5.077  0.1085  0.5181  0.0637
 6112SOL    HW129969   3.341   2.045   5.088  0.1554  0.8000  1.6609
 6112SOL    HW229970   3.437   2.109   5.170  0.9316  1.4719 -0.2358
 6113SOL     OW29971   2.746   1.124   3.685  0.1648 -0.3075 -0.2891
 6113SOL    HW129972   2.725   1.184   3.756 -0.1324  0.1262 -0.7431
 6113SOL    HW229973   2.659   1.115   3.647  1.1469 -1.0335 -2.3675
 6114SOL     OW29974   3.666   4.201   9.982  0.1407 -0.3075  0.9193
 6114SOL    HW129975   3.707   4.182   9.898  0.2060  0.2617  0.8169
 6114SOL    HW229976   3.663   4.297   9.988 -3.5901 -0.4510  1.4045
 6115SOL     OW29977   3.525   2.428  12.550 -0.5604  0.8318  0.5840
 6115SOL    HW129978   3.514   2.353  12.608  0.1603  0.3369  0.0773
 6115SOL    HW229979   3.451   2.478  12.585  0.1771  2.6095 -0.3600
 6116SOL     OW29980   4.492   1.633   9.627  0.1388 -0.0539  0.3427
 6116SOL    HW129981   4.577   1.644   9.669 -0.7748 -2.3333  2.8436
 6116SOL    HW229982   4.521   1.648   9.537  1.7235  1.2414  1.0784
 6117SOL     OW29983   2.810   2.861   8.341 -0.8789 -0.3977 -0.4850
 6117SOL    HW129984   2.859   2.794   8.293 -2.3020 -1.5952 -0.2730
 6117SOL    HW229985   2.753   2.904   8.277  0.0737  1.8850  0.2068
 6118SOL     OW29986   4.344   0.896   2.230  0.1708 -0.0960 -0.1111
 6118SOL    HW129987   4.295   0.814   2.233 -0.6859  0.3492 -1.6245
 6118SOL    HW229988   4.395   0.874   2.152 -0.1433 -1.2685  0.0085
 6119SOL     OW29989   1.308   2.340   1.981  0.4649  0.0667 -0.4961
 6119SOL    HW129990   1.232   2.295   1.944 -0.5059 -1.2959  3.1517
 6119SOL    HW229991   1.299   2.327   2.076  0.7897  3.3605 -0.0167
 6120SOL     OW29992   1.228   0.694   5.055  0.3204  0.5590  0.3390
 6120SOL    HW129993   1.296   0.660   5.113  0.5192 -0.0364 -0.2399
 6120SOL    HW229994   1.278   0.755   5.000 -0.6896 -0.4075 -1.6457
 6121SOL     OW29995   2.738   4.608  13.214 -0.3552  0.2141 -0.0174
 6121SOL    HW129996   2.672   4.643  13.155 -1.3471 -3.1136 -0.8885
 6121SOL    HW229997   2.722   4.513  13.208 -1.2330  0.1536  3.0065
 6122SOL     OW29998   0.942   3.293   8.443 -0.2558 -0.2287  0.0406
 6122SOL    HW129999   0.983   3.263   8.523  0.0546 -1.5767 -0.6198
 6122SOL    HW230000   0.854   3.257   8.452 -1.7415  3.2947 -0.3921
 6123SOL     OW30001   4.176   1.400   1.952 -0.2330 -0.4825  0.1911
 6123SOL    HW130002   4.100   1.452   1.978  0.4385 -0.3267  1.8590
 6123SOL    HW230003   4.161   1.408   1.858 -1.5152 -1.8779  0.2653
 6124SOL     OW30004   0.189   2.035   3.749  0.7348  0.0974 -0.5886
 6124SOL    HW130005   0.215   2.048   3.840 -0.1111 -3.2418  0.1196
 6124SOL    HW230006   0.111   2.090   3.744  0.3748 -0.4255 -0.6993
 6125SOL     OW30007   3.272   1.133   8.331 -0.1836 -0.1590 -0.6243
 6125SOL    HW130008   3.238   1.105   8.246 -1.5079  0.1522 -0.2036
 6125SOL    HW230009   3.344   1.072   8.346  1.0960  1.9804  1.8808
 6126SOL     OW30010   2.597   2.717   4.239 -0.0358 -0.0661 -0.2101
 6126SOL    HW130011   2.633   2.804   4.252 -0.4483  0.0464  0.1695
 6126SOL    HW230012   2.631   2.670   4.315 -1.9307 -0.7954  0.1977
 6127SOL     OW30013   2.877   2.249   8.274 -0.1493 -0.1460 -0.2816
 6127SOL    HW130014   2.942   2.193   8.317  0.8053  1.1242 -0.0623
 6127SOL    HW230015   2.819   2.274   8.345  1.0381  3.0453 -0.4304
 6128SOL     OW30016   3.709   0.608   0.214  0.3678  0.2101 -0.1329
 6128SOL    HW130017   3.711   0.599   0.119 -1.8015 -2.4189  0.0733
 6128SOL    HW230018   3.799   0.583   0.236  0.6906  2.5441  1.2259
 6129SOL     OW30019   2.252   1.317  13.937 -0.2585 -0.4291  0.4022
 6129SOL    HW130020   2.158   1.320  13.920 -0.3567  1.2401  1.2996
 6129SOL    HW230021   2.284   1.350  13.853 -0.5419 -1.7798 -0.2364
 6130SOL     OW30022   0.397   0.626   7.619  0.7612 -0.3832  0.3221
 6130SOL    HW130023   0.414   0.668   7.535  0.7966 -1.0727 -0.0172
 6130SOL    HW230024   0.366   0.702   7.669  0.4822  0.6636 -1.4379
 6131SOL     OW30025   0.005   1.376   4.616 -0.3001  0.4736  0.0290
 6131SOL    HW130026   4.658   1.423   4.645 -0.3552  0.2194  0.2922
 6131SOL    HW230027   0.076   1.435   4.643 -2.4668  2.2599  1.8135
 6132SOL     OW30028   1.657   3.864   0.630  0.3527  0.0605 -0.1755
 6132SOL    HW130029   1.568   3.891   0.652 -0.4514 -1.7144 -1.2697
 6132SOL    HW230030   1.641   3.800   0.561  1.3571 -0.1664 -0.1933
 6133SOL     OW30031   1.476   1.959   9.723  0.1624 -0.0945  0.2802
 6133SOL    HW130032   1.414   1.984   9.654  1.9021  0.7967 -0.9494
 6133SOL    HW230033   1.539   2.030   9.715 -0.7708  0.6973 -0.1659
 6134SOL     OW30034   4.015   1.639   4.743  0.0185 -0.0308 -0.0374
 6134SOL    HW130035   3.973   1.627   4.658  0.5981  1.3572 -0.5198
 6134SOL    HW230036   4.003   1.550   4.776  2.6115 -0.2876  0.1992
 6135SOL     OW30037   1.134   2.477   1.323 -0.3847 -0.1382 -0.3055
 6135SOL    HW130038   1.046   2.502   1.295 -0.8647  1.0227  2.2129
 6135SOL    HW230039   1.115   2.384   1.329 -1.6624  0.1742  0.4915
 6136SOL     OW30040   1.090   0.255  16.698  0.5904  0.5765  0.3317
 6136SOL    HW130041   1.182   0.254  16.675  0.7572 -0.5620  1.1042
 6136SOL    HW230042   1.065   0.332  16.645  0.9828  1.0542  0.8434
 6137SOL     OW30043   3.504   1.715  12.138 -0.1762 -0.5007  0.7236
 6137SOL    HW130044   3.465   1.638  12.096  1.6972 -0.6404 -0.7320
 6137SOL    HW230045   3.594   1.690  12.122 -0.6228  1.1466 -4.5988
 6138SOL     OW30046   0.186   0.407   6.751 -0.2335  0.0994  0.5507
 6138SOL    HW130047   0.265   0.379   6.705  0.2865 -0.1033  1.5778
 6138SOL    HW230048   0.142   0.463   6.687  0.2784 -0.8654 -0.6522
 6139SOL     OW30049   3.201   3.064   2.855  0.1435 -0.8172  0.6997
 6139SOL    HW130050   3.153   2.988   2.889 -1.1119  0.1785  1.1741
 6139SOL    HW230051   3.186   3.131   2.923 -0.9078  1.0513 -1.3813
 6140SOL     OW30052   2.928   2.077   4.437  0.5331 -0.4200 -0.0524
 6140SOL    HW130053   3.019   2.075   4.407  0.8740  2.4993  0.7851
 6140SOL    HW230054   2.943   2.107   4.527  1.3341  1.6669 -0.8885
 6141SOL     OW30055   4.599   4.237   8.528  0.1482  0.2986 -0.4675
 6141SOL    HW130056   4.595   4.143   8.546  1.2578  0.2717 -0.3738
 6141SOL    HW230057   4.599   4.239   8.432 -4.0422  0.3412 -0.4605
 6142SOL     OW30058   4.326   3.084   8.937 -0.0929 -0.4765  0.6569
 6142SOL    HW130059   4.264   3.115   8.870  3.1872  2.5912 -0.9582
 6142SOL    HW230060   4.275   3.029   8.996  2.3288 -1.3583  1.9286
 6143SOL     OW30061   2.273   0.345   4.916  0.4385 -0.1067  0.0617
 6143SOL    HW130062   2.268   0.440   4.925  0.9323 -0.2091  1.3809
 6143SOL    HW230063   2.290   0.339   4.822  3.0875 -0.3537  0.5489
 6144SOL     OW30064   2.712   0.964   2.559  0.2842  0.3007  0.2800
 6144SOL    HW130065   2.775   0.964   2.487  0.0091  1.6704  0.0398
 6144SOL    HW230066   2.642   0.925   2.506  0.3014 -0.5025  0.8622
 6145SOL     OW30067   1.754   1.019   5.716 -0.5429  0.2716 -0.5520
 6145SOL    HW130068   1.794   1.020   5.803  0.4880 -0.5819 -1.0205
 6145SOL    HW230069   1.663   1.002   5.738 -0.4609  0.7853  0.2059
 6146SOL     OW30070   3.636   1.499   5.849 -0.0025  0.2397 -0.0460
 6146SOL    HW130071   3.585   1.422   5.873  1.6499 -0.0737  2.5649
 6146SOL    HW230072   3.726   1.485   5.879 -0.0706  2.3388  1.1766
 6147SOL     OW30073   2.293   3.804  13.827 -0.6095  0.0251  0.0077
 6147SOL    HW130074   2.211   3.766  13.860 -0.1300 -0.1518  0.9924
 6147SOL    HW230075   2.275   3.898  13.833  0.1268  0.0731  1.6554
 6148SOL     OW30076   0.740   2.572  16.910 -0.1647  0.1987  0.1204
 6148SOL    HW130077   0.672   2.636  16.890 -0.0507  1.0025  2.3866
 6148SOL    HW230078   0.737   2.508  16.838  2.9234  1.4426 -1.1185
 6149SOL     OW30079   3.812   1.635   0.805 -0.2311 -0.6835  0.1228
 6149SOL    HW130080   3.831   1.727   0.819 -0.4066 -0.5862 -0.2637
 6149SOL    HW230081   3.815   1.635   0.709 -2.3847  0.5001  0.0462
 6150SOL     OW30082   0.143   1.791   5.568 -0.9514 -0.4080 -0.7982
 6150SOL    HW130083   0.121   1.787   5.475  1.2662 -1.2716 -1.2742
 6150SOL    HW230084   0.191   1.874   5.572  1.0878 -1.6558  0.5064
 6151SOL     OW30085   0.678   0.263   7.025 -0.0276  0.5519 -0.1763
 6151SOL    HW130086   0.599   0.265   7.078 -0.6108  0.4625 -1.0367
 6151SOL    HW230087   0.700   0.170   7.020  0.0817  0.6191 -1.1046
 6152SOL     OW30088   0.133   2.217   6.568 -0.2026 -0.2616  0.5666
 6152SOL    HW130089   0.213   2.228   6.620  0.0686  1.5339 -0.2141
 6152SOL    HW230090   0.090   2.143   6.611  0.3790  0.1083  1.7888
 6153SOL     OW30091   3.550   1.249   2.427  0.8089  0.5023  0.0310
 6153SOL    HW130092   3.615   1.294   2.372 -1.9429  0.7212 -3.0616
 6153SOL    HW230093   3.571   1.158   2.403 -0.1428  0.7324 -1.7063
 6154SOL     OW30094   2.810   3.247  13.515 -0.0021  0.1981 -0.1220
 6154SOL    HW130095   2.751   3.182  13.478  0.8369 -1.3206  1.2024
 6154SOL    HW230096   2.858   3.282  13.440 -0.2959 -0.3357 -0.5509
 6155SOL     OW30097   1.738   0.726   4.141 -0.6356  0.7424 -0.6475
 6155SOL    HW130098   1.741   0.805   4.194 -2.4844  0.1149  0.3859
 6155SOL    HW230099   1.832   0.709   4.141 -0.6995  0.4204  0.9174
 6156SOL     OW30100   0.691   3.543   9.936  0.2596  0.1376 -0.0896
 6156SOL    HW130101   0.719   3.506  10.020  1.0500  2.4304  0.6448
 6156SOL    HW230102   0.748   3.617   9.916 -0.5275  0.9024  0.4605
 6157SOL     OW30103   4.088   3.698   6.281  0.0410  0.1568 -0.4660
 6157SOL    HW130104   4.130   3.753   6.347  3.6624 -1.2840 -1.5399
 6157SOL    HW230105   4.003   3.741   6.290  0.0216 -0.4118  2.0489
 6158SOL     OW30106   3.765   1.314  13.179  0.1409 -0.4105  0.4095
 6158SOL    HW130107   3.684   1.325  13.228  0.2041  3.0580 -0.3013
 6158SOL    HW230108   3.770   1.220  13.160  0.8544 -0.4015  0.5272
 6159SOL     OW30109   4.073   1.765   5.483 -0.2037  0.2656 -0.1945
 6159SOL    HW130110   4.014   1.691   5.475 -0.1557  0.3913 -1.8504
 6159SOL    HW230111   4.071   1.808   5.398 -0.2511  2.0814  0.7294
 6160SOL     OW30112   0.315   2.216   8.635  0.1787 -0.2444 -0.0313
 6160SOL    HW130113   0.231   2.171   8.636  0.0210  0.0480 -0.0800
 6160SOL    HW230114   0.357   2.172   8.561  3.9417  0.6128  1.6183
 6161SOL     OW30115   0.921   1.027   3.277  0.9767 -0.1561 -1.3091
 6161SOL    HW130116   0.952   0.948   3.320 -1.2069 -1.8241 -2.8040
 6161SOL    HW230117   0.826   1.026   3.291  0.6235  0.0912 -3.6174
 6162SOL     OW30118   3.495   1.667  14.271 -0.1206 -0.4563  0.5729
 6162SOL    HW130119   3.455   1.590  14.312  0.1109 -0.8300  0.0989
 6162SOL    HW230120   3.527   1.615  14.198  0.6416  2.2075 -0.9916
 6163SOL     OW30121   0.362   4.349   9.969  0.1098 -0.4481  0.0288
 6163SOL    HW130122   0.373   4.265   9.926  0.0353  0.3235 -1.4790
 6163SOL    HW230123   0.321   4.399   9.899 -0.5988 -1.6428 -0.4040
 6164SOL     OW30124   2.130   2.886   1.898 -0.3349  0.4668 -0.0649
 6164SOL    HW130125   2.115   2.954   1.832  0.0735  1.1827  0.5858
 6164SOL    HW230126   2.127   2.934   1.980  0.9604  2.3591 -1.1223
 6165SOL     OW30127   1.574   1.859  16.977 -0.5623 -0.0395  0.0326
 6165SOL    HW130128   1.487   1.879  17.011  0.5153  1.7617  1.7933
 6165SOL    HW230129   1.618   1.875  17.061  0.7428  2.2703 -1.0770
 6166SOL     OW30130   2.837   0.907   7.921 -0.0522  0.4295  0.1796
 6166SOL    HW130131   2.896   0.939   7.989 -1.2652  1.1120  0.8862
 6166SOL    HW230132   2.782   0.985   7.919 -0.5140  0.1073  0.2778
 6167SOL     OW30133   3.218   4.603  10.174 -0.8506  0.0914  0.1039
 6167SOL    HW130134   3.196   4.695  10.155 -1.1989  0.0272  0.1903
 6167SOL    HW230135   3.298   4.604  10.226 -1.6511  3.1494  1.2677
 6168SOL     OW30136   4.238   0.581  10.129 -0.3913 -0.5373  0.1199
 6168SOL    HW130137   4.305   0.516  10.153  0.8973  0.1251 -1.6989
 6168SOL    HW230138   4.289   0.657  10.156  0.7249 -2.2422  2.8330
 6169SOL     OW30139   3.770   2.400   0.864 -0.0088 -0.1635  0.0631
 6169SOL    HW130140   3.791   2.371   0.953  0.1335  0.3776  0.2104
 6169SOL    HW230141   3.676   2.412   0.879  0.1908 -0.3279  1.4467
 6170SOL     OW30142   2.134   2.592   7.681  0.0175 -0.1950 -0.2540
 6170SOL    HW130143   2.135   2.687   7.677  0.0145 -0.1852 -0.0508
 6170SOL    HW230144   2.209   2.568   7.735 -0.8590 -0.0715  1.0263
 6171SOL     OW30145   2.029   4.397   5.915  0.0566 -0.4275 -0.1299
 6171SOL    HW130146   2.048   4.366   5.826  0.8409  2.5923 -1.0163
 6171SOL    HW230147   1.976   4.323   5.944  0.0617 -0.3671  0.0297
 6172SOL     OW30148   3.548   3.621   8.638  0.2338 -0.0309 -0.1645
 6172SOL    HW130149   3.631   3.603   8.596  0.3363  2.8208 -1.1866
 6172SOL    HW230150   3.520   3.691   8.579  0.1580  1.6491  1.8688
 6173SOL     OW30151   4.241   3.228  15.646  0.1996  0.6779 -0.2031
 6173SOL    HW130152   4.321   3.178  15.628 -0.6135 -0.4567 -0.7084
 6173SOL    HW230153   4.233   3.283  15.568 -2.9696 -0.7078 -0.8885
 6174SOL     OW30154   4.290   1.895   2.597 -0.4750  0.1213  0.0102
 6174SOL    HW130155   4.354   1.874   2.664 -0.8662 -0.4909  0.1935
 6174SOL    HW230156   4.264   1.807   2.569  0.0440  0.3126 -1.0618
 6175SOL     OW30157   4.498   4.214   6.795  0.1655 -0.0789 -0.0547
 6175SOL    HW130158   4.506   4.247   6.705  1.8837  0.9559  0.4819
 6175SOL    HW230159   4.408   4.183   6.805  0.3178 -0.5591 -0.1624
 6176SOL     OW30160   3.336   1.028   9.241 -0.7584 -0.3089  0.4652
 6176SOL    HW130161   3.265   1.076   9.286 -0.9964 -0.1648 -0.0696
 6176SOL    HW230162   3.398   1.021   9.313  0.2895 -1.1562 -0.5368
 6177SOL     OW30163   2.364   1.755  15.251 -0.0959  0.9726  0.0073
 6177SOL    HW130164   2.430   1.706  15.201 -0.7260 -0.9499  1.0750
 6177SOL    HW230165   2.335   1.694  15.318  0.4892  2.0103  1.2102
 6178SOL     OW30166   3.691   0.306  10.620 -0.4827  0.1598  0.3879
 6178SOL    HW130167   3.735   0.365  10.681  1.0689 -0.3109 -0.2764
 6178SOL    HW230168   3.760   0.301  10.554  0.9778  2.3927  1.7726
 6179SOL     OW30169   2.846   4.712   1.693 -0.3909  0.7122  0.1780
 6179SOL    HW130170   2.909   4.663   1.640 -1.3815  0.2427 -0.5694
 6179SOL    HW230171   2.790   0.029   1.632  1.2884  0.6132 -1.4422
 6180SOL     OW30172   0.647   3.773   8.682 -0.0216 -0.4513  0.3457
 6180SOL    HW130173   0.650   3.742   8.773 -1.8718  2.3007  1.3177
 6180SOL    HW230174   0.554   3.763   8.661 -0.1086 -1.2682  1.1170
 6181SOL     OW30175   1.024   2.251  16.734 -0.1182  0.6822  0.0316
 6181SOL    HW130176   1.072   2.325  16.698 -0.4628  0.1897 -1.4091
 6181SOL    HW230177   1.030   2.184  16.667  1.6727  1.4459 -0.5780
 6182SOL     OW30178   3.259   2.292   6.554  0.3520  0.3685  0.4664
 6182SOL    HW130179   3.308   2.231   6.609 -1.3331 -1.3656  0.0371
 6182SOL    HW230180   3.327   2.333   6.501  0.8925 -0.3389  0.6142
 6183SOL     OW30181   3.076   2.494   2.159 -0.4520  0.4341  0.0572
 6183SOL    HW130182   3.032   2.576   2.181 -1.7680  0.0353 -1.1398
 6183SOL    HW230183   3.055   2.494   2.066 -0.7230 -1.4454  0.1128
 6184SOL     OW30184   0.599   0.634   1.833 -0.0207 -0.2514 -0.1073
 6184SOL    HW130185   0.688   0.648   1.802  0.6531  0.4370  2.1715
 6184SOL    HW230186   0.596   0.540   1.812 -1.9283 -0.1252 -0.3683
 6185SOL     OW30187   0.744   2.405   4.346  0.0166 -0.4357  0.1073
 6185SOL    HW130188   0.789   2.487   4.364  0.7704 -1.2121  1.8082
 6185SOL    HW230189   0.773   2.345   4.415  0.0999 -1.1888 -0.5785
 6186SOL     OW30190   0.132   3.715  13.808 -0.4991  0.4324 -0.5931
 6186SOL    HW130191   0.076   3.787  13.779 -0.1382  0.5002 -1.1212
 6186SOL    HW230192   0.172   3.691  13.724 -0.2022 -2.3653  0.3359
 6187SOL     OW30193   1.811   1.614  17.163 -0.0673  0.0573 -0.0496
 6187SOL    HW130194   1.752   1.541  17.183 -0.6136 -0.0013 -1.8498
 6187SOL    HW230195   1.849   1.624  17.250 -1.1833  0.0927  0.4472
 6188SOL     OW30196   2.362   3.238   9.122  0.0833 -0.1996 -0.3681
 6188SOL    HW130197   2.310   3.158   9.124 -0.6730  0.3319  2.0594
 6188SOL    HW230198   2.305   3.292   9.177  2.0323  2.7289 -1.1789
 6189SOL     OW30199   0.492   2.280   2.771  0.6491  0.3552  0.2239
 6189SOL    HW130200   0.561   2.216   2.758 -2.3569 -2.3800 -2.0206
 6189SOL    HW230201   0.518   2.351   2.713  0.7943 -1.9881 -2.5435
 6190SOL     OW30202   1.835   0.926   6.017  0.2271 -0.3588 -0.2166
 6190SOL    HW130203   1.925   0.947   6.043 -0.9264  1.8395  1.9188
 6190SOL    HW230204   1.819   0.879   6.098 -0.0409  0.0832 -0.0119
 6191SOL     OW30205   0.337   0.106   7.910 -0.1115 -0.2820 -0.1757
 6191SOL    HW130206   0.431   0.124   7.911 -0.4496  1.4167  0.3516
 6191SOL    HW230207   0.325   0.065   7.995 -0.6241 -1.7462 -0.9468
 6192SOL     OW30208   3.685   4.603  17.315 -0.0208 -0.6314 -0.3098
 6192SOL    HW130209   3.605   4.567  17.354  0.7077 -0.9103  0.9506
 6192SOL    HW230210   3.749   4.559  17.371 -1.2655 -0.6072  1.1600
 6193SOL     OW30211   3.767   3.254   2.374  0.1565 -0.1931  0.0043
 6193SOL    HW130212   3.851   3.211   2.390 -0.8506 -1.7171  1.2601
 6193SOL    HW230213   3.790   3.333   2.421 -0.4856  1.5949 -2.6865
 6194SOL     OW30214   1.906   1.815  16.991 -0.0241 -0.0180  0.0338
 6194SOL    HW130215   1.895   1.740  17.050  1.0112  1.2810  1.8626
 6194SOL    HW230216   1.833   1.873  17.013  0.6339  0.8227  0.0118
 6195SOL     OW30217   2.214   3.531   9.941 -0.3571 -0.0877  0.2845
 6195SOL    HW130218   2.260   3.561   9.862 -0.9722  1.3077  0.4641
 6195SOL    HW230219   2.228   3.610   9.992 -1.3565  1.3593 -1.6535
 6196SOL     OW30220   1.235   3.376   8.150  0.5641  0.2952 -0.2385
 6196SOL    HW130221   1.288   3.406   8.076 -2.5731  1.2141 -2.1511
 6196SOL    HW230222   1.266   3.433   8.221  2.1928 -2.5093  1.2789
 6197SOL     OW30223   2.575   3.726  14.440 -0.0710  0.1695  0.3024
 6197SOL    HW130224   2.626   3.728  14.521  2.1595  0.7140 -1.1133
 6197SOL    HW230225   2.540   3.816  14.440  0.0911  0.2307 -0.1257
 6198SOL     OW30226   1.355   2.786   9.069  0.1184 -0.1166 -0.3622
 6198SOL    HW130227   1.401   2.870   9.061  0.6911 -0.5810 -1.8449
 6198SOL    HW230228   1.347   2.781   9.164 -2.4644 -0.4091 -0.6026
 6199SOL     OW30229   1.215   2.782  10.170 -0.4302  0.4056  0.1189
 6199SOL    HW130230   1.285   2.845  10.187 -2.9299  3.0868  0.6034
 6199SOL    HW230231   1.167   2.783  10.252 -4.4738 -1.5402 -2.2170
 6200SOL     OW30232   0.526   1.006   2.920 -0.0384 -0.0435 -0.0240
 6200SOL    HW130233   0.526   0.912   2.904  0.2355 -0.0418 -0.0327
 6200SOL    HW230234   0.498   1.047   2.838 -0.7460 -0.5933 -0.0535
 6201SOL     OW30235   4.148   0.307   2.308  0.6964 -0.7077  0.0125
 6201SOL    HW130236   4.201   0.282   2.233  0.5032 -0.4669 -0.2038
 6201SOL    HW230237   4.180   0.241   2.370  3.0493  1.3150  0.9514
 6202SOL     OW30238   0.875   3.982   2.386 -0.3163 -0.4047  0.4666
 6202SOL    HW130239   0.786   3.946   2.390 -0.3558 -0.4051 -0.3970
 6202SOL    HW230240   0.884   4.061   2.441 -0.7964  1.5076 -2.2147
 6203SOL     OW30241   0.951   1.288   3.791 -0.1341 -0.5588 -0.2011
 6203SOL    HW130242   0.977   1.326   3.875  0.7119  0.4669 -0.9213
 6203SOL    HW230243   0.902   1.208   3.807 -1.1173 -0.4265 -2.6250
 6204SOL     OW30244   1.245   0.376   3.834  0.3249  0.1916  0.2763
 6204SOL    HW130245   1.290   0.446   3.787 -0.0922  0.0737 -0.2958
 6204SOL    HW230246   1.259   0.414   3.921 -1.5638 -0.5022  0.8781
 6205SOL     OW30247   3.311   1.261   9.013  0.5123  0.3011 -0.0923
 6205SOL    HW130248   3.306   1.202   9.088 -0.3078  0.4274 -0.0420
 6205SOL    HW230249   3.222   1.257   8.976  0.2567  0.6747  0.4768
 6206SOL     OW30250   0.288   2.621   6.727 -0.2275 -0.5636  0.5161
 6206SOL    HW130251   0.247   2.656   6.806 -3.4162  0.3221 -1.5247
 6206SOL    HW230252   0.239   2.667   6.660  1.5456  0.3805 -0.1196
 6207SOL     OW30253   4.102   0.012  15.792  0.3995 -0.0593 -0.0791
 6207SOL    HW130254   4.167   4.712  15.854 -0.8666  0.6702  1.6390
 6207SOL    HW230255   4.166   0.029  15.723  1.7298 -0.4165  1.0672
 6208SOL     OW30256   1.864   2.603  10.289 -0.2943 -0.5277 -0.1850
 6208SOL    HW130257   1.853   2.635  10.378  1.1690 -2.1467  0.5744
 6208SOL    HW230258   1.867   2.686  10.241  2.3485 -1.5685 -1.8512
 6209SOL     OW30259   4.389   1.736   3.728 -0.1711  0.4100  0.6645
 6209SOL    HW130260   4.350   1.684   3.658  1.2389  0.1617  0.0634
 6209SOL    HW230261   4.477   1.748   3.691 -0.8512 -0.3082 -1.1551
 6210SOL     OW30262   4.425   0.849   3.976  0.3712 -0.1441  0.2558
 6210SOL    HW130263   4.459   0.917   4.035  0.8045  1.5318 -1.9344
 6210SOL    HW230264   4.368   0.799   4.034 -0.4194 -0.4239 -0.7600
 6211SOL     OW30265   0.532   2.799  13.877 -0.3720  0.2117  0.4361
 6211SOL    HW130266   0.594   2.804  13.804  0.4166  3.4042  1.3201
 6211SOL    HW230267   0.589   2.779  13.951  0.5921  2.6069  0.3185
 6212SOL     OW30268   2.715   0.513   3.478 -0.5685 -0.6244  0.1097
 6212SOL    HW130269   2.655   0.481   3.545 -0.0955 -1.0036  0.3474
 6212SOL    HW230270   2.798   0.534   3.519  0.8474 -1.1524 -2.5170
 6213SOL     OW30271   0.108   2.032   1.455 -0.1159  0.5239 -0.1539
 6213SOL    HW130272   0.201   2.016   1.468 -0.5135 -0.8541  0.9581
 6213SOL    HW230273   0.106   2.127   1.441 -1.0476  0.1760 -2.2904
 6214SOL     OW30274   3.340   1.680  10.444  0.0509 -0.1254 -0.8347
 6214SOL    HW130275   3.278   1.695  10.373 -0.8228  2.3657  0.4456
 6214SOL    HW230276   3.381   1.599  10.415  0.4081 -0.5054  0.7256
 6215SOL     OW30277   3.256   1.819  15.598 -0.1698 -0.9153 -0.0208
 6215SOL    HW130278   3.287   1.730  15.580  3.6816  1.3317 -4.4892
 6215SOL    HW230279   3.168   1.822  15.561 -0.3425  0.6813  0.4939
 6216SOL     OW30280   2.838   1.180   3.327 -0.4441  0.0604  0.1746
 6216SOL    HW130281   2.893   1.102   3.317  0.5787  0.5701  1.8899
 6216SOL    HW230282   2.764   1.147   3.276  0.2028  0.5383 -1.0742
 6217SOL     OW30283   4.158   3.608   3.994 -0.0476  0.1223  0.4915
 6217SOL    HW130284   4.208   3.689   3.984  1.0448 -0.7765 -1.3052
 6217SOL    HW230285   4.074   3.642   4.025 -0.0533  1.3690 -0.9059
 6218SOL     OW30286   4.721   2.024   5.175 -0.9308 -0.3115  0.3914
 6218SOL    HW130287   4.678   2.077   5.242  1.8458 -0.4895  2.3099
 6218SOL    HW230288   4.653   1.963   5.146 -2.6179  1.7091  0.1414
 6219SOL     OW30289   1.471   2.787   6.109 -0.2275  0.2585  0.2571
 6219SOL    HW130290   1.420   2.709   6.089  0.6044 -0.5225  1.1634
 6219SOL    HW230291   1.474   2.790   6.205  0.0660 -2.2193  0.3251
 6220SOL     OW30292   3.185   0.493  12.149 -0.3708  0.4903 -0.1005
 6220SOL    HW130293   3.174   0.587  12.163 -1.3273  0.5477 -1.2541
 6220SOL    HW230294   3.155   0.470  12.236 -0.7340  2.1083  0.2101
 6221SOL     OW30295   2.407   0.191   5.177  0.0288 -0.2483  0.4979
 6221SOL    HW130296   2.450   0.271   5.210  0.7442  0.6131 -2.5476
 6221SOL    HW230297   2.356   0.223   5.103  0.1599  2.5283  1.6018
 6222SOL     OW30298   0.794   3.173   0.378  0.5786  0.1199 -0.2339
 6222SOL    HW130299   0.851   3.113   0.329  2.5169  0.6143  1.4009
 6222SOL    HW230300   0.859   3.218   0.432 -0.2148 -0.1826  0.9582
 6223SOL     OW30301   2.352   4.531   4.331  0.5674  0.2978 -0.4196
 6223SOL    HW130302   2.361   4.595   4.260 -1.0511 -0.2705 -1.1338
 6223SOL    HW230303   2.439   4.529   4.371  0.9341 -1.1399 -1.2519
 6224SOL     OW30304   1.655   2.782   2.149  0.4557 -0.5637  0.1353
 6224SOL    HW130305   1.670   2.865   2.103 -0.9725 -0.5032 -0.2238
 6224SOL    HW230306   1.740   2.776   2.192 -0.4367  0.1044  2.0234
 6225SOL     OW30307   2.944   3.569   3.905  0.4269 -0.4476  0.2254
 6225SOL    HW130308   2.855   3.558   3.872  0.8404  0.6156 -1.2864
 6225SOL    HW230309   2.938   3.542   3.996  2.4532 -0.5325  0.3465
 6226SOL     OW30310   1.918   0.295   8.860  0.2485  0.4808  0.6036
 6226SOL    HW130311   1.949   0.355   8.793 -0.7223 -0.8207 -1.0200
 6226SOL    HW230312   1.841   0.340   8.895 -0.0298  0.5710 -0.1238
 6227SOL     OW30313   3.349   2.148   9.819 -0.4220 -0.0720  0.9019
 6227SOL    HW130314   3.438   2.172   9.843  1.0301 -1.4068 -3.2000
 6227SOL    HW230315   3.350   2.056   9.795 -0.3411  0.3959 -0.8656
 6228SOL     OW30316   2.931   4.107  11.165 -0.0043 -0.0649  0.8387
 6228SOL    HW130317   2.988   4.037  11.133 -0.9646  0.5612 -2.2662
 6228SOL    HW230318   2.962   4.116  11.254  0.8255 -3.0405  0.8629
 6229SOL     OW30319   3.804   3.109   8.630 -0.4649  0.3153  0.0402
 6229SOL    HW130320   3.738   3.156   8.681  1.9237  3.4184  0.2920
 6229SOL    HW230321   3.766   3.115   8.543  0.9901 -1.9786 -0.7504
 6230SOL     OW30322   3.004   4.626  16.101 -0.0459 -0.1982 -0.7423
 6230SOL    HW130323   3.039   4.668  16.023  1.8792 -0.0035  0.2279
 6230SOL    HW230324   2.911   4.628  16.078 -0.7033 -1.6149  1.7490
 6231SOL     OW30325   3.214   4.020   8.365  0.3112  0.1402 -0.0482
 6231SOL    HW130326   3.199   4.111   8.339 -0.4997  0.4460  1.4656
 6231SOL    HW230327   3.283   4.023   8.431  2.1431  1.6805 -2.0416
 6232SOL     OW30328   2.043   0.888   9.134 -0.6068  0.0203  0.0140
 6232SOL    HW130329   1.989   0.849   9.202 -0.3763 -0.6809 -0.1940
 6232SOL    HW230330   1.983   0.892   9.059 -2.1177  1.3103  1.3264
 6233SOL     OW30331   2.842   2.024  10.964  0.1244 -0.1062  0.0591
 6233SOL    HW130332   2.773   2.072  10.918  0.5897 -1.0638 -1.6544
 6233SOL    HW230333   2.864   1.954  10.902  1.6474  0.4185  0.0012
 6234SOL     OW30334   2.794   1.397  12.972  0.5405 -0.4423  0.2197
 6234SOL    HW130335   2.844   1.344  12.910 -2.7537 -0.5236 -2.3658
 6234SOL    HW230336   2.872   1.446  12.997  0.1264 -0.4007  1.4286
 6235SOL     OW30337   1.133   0.071   4.026 -0.7333 -0.2122 -0.4534
 6235SOL    HW130338   1.135   0.063   3.931 -0.2595  2.1999 -0.6644
 6235SOL    HW230339   1.088   0.155   4.035  0.2331  0.2271  0.3451
 6236SOL     OW30340   3.719   0.041   7.881  0.1720  0.3494 -0.4231
 6236SOL    HW130341   3.793   0.093   7.850  1.1506 -1.1358 -0.5372
 6236SOL    HW230342   3.661   0.059   7.807  0.3404 -1.5002 -0.9814
 6237SOL     OW30343   4.326   0.326  13.340  0.0261  0.0437  0.5364
 6237SOL    HW130344   4.242   0.301  13.300  1.6388 -1.8042 -1.6488
 6237SOL    HW230345   4.384   0.289  13.274 -1.7016 -1.4498 -0.1581
 6238SOL     OW30346   1.981   0.229  16.355 -0.2580  0.2083 -0.3389
 6238SOL    HW130347   2.019   0.308  16.392 -0.4051  0.3959 -0.5962
 6238SOL    HW230348   2.048   0.169  16.389 -1.6198 -1.7051 -1.0026
 6239SOL     OW30349   4.022   3.156   2.355 -0.3646  0.0399  0.2442
 6239SOL    HW130350   4.060   3.243   2.347  0.6744 -0.4784 -0.4683
 6239SOL    HW230351   4.092   3.099   2.323 -0.0921  0.8326 -0.5762
 6240SOL     OW30352   4.315   2.696   5.917  0.3300 -0.0504 -0.3152
 6240SOL    HW130353   4.386   2.734   5.970  0.2177 -0.8888  0.4253
 6240SOL    HW230354   4.257   2.769   5.937 -1.1507 -1.0575 -1.0023
 6241SOL     OW30355   3.763   2.583  11.746 -0.0974 -0.5076  0.0426
 6241SOL    HW130356   3.695   2.631  11.794 -0.9491 -3.0192  1.3508
 6241SOL    HW230357   3.760   2.490  11.767 -0.3015 -0.5404 -0.1421
 6242SOL     OW30358   3.325   3.255   8.169  0.0859  0.7160 -0.3326
 6242SOL    HW130359   3.386   3.233   8.098 -0.3521  0.6597 -0.6938
 6242SOL    HW230360   3.380   3.306   8.228 -2.4002  0.7417  1.9764
 6243SOL     OW30361   3.944   4.263   1.984 -0.0220  0.2162 -0.1951
 6243SOL    HW130362   3.986   4.342   2.017  0.3263 -0.3003  0.5850
 6243SOL    HW230363   3.916   4.283   1.895  2.6672  2.5015 -0.5222
 6244SOL     OW30364   0.285   0.521   4.776 -0.2055 -0.2357  0.2677
 6244SOL    HW130365   0.316   0.595   4.723 -2.5321  0.8469  0.4244
 6244SOL    HW230366   0.301   0.560   4.861  1.0419  0.4806 -0.2917
 6245SOL     OW30367   1.587   4.729   3.869  0.0182  0.1926  0.4615
 6245SOL    HW130368   1.559   4.721   3.778  0.9342 -0.0841  0.2055
 6245SOL    HW230369   1.525   0.064   3.901  0.7068  0.0918  1.9893
 6246SOL     OW30370   4.682   3.092   5.462 -0.0489  0.4141  0.9984
 6246SOL    HW130371   4.592   3.084   5.495 -0.9076  0.4573 -1.2936
 6246SOL    HW230372   4.696   3.187   5.457 -1.2404  0.5535  0.1757
 6247SOL     OW30373   1.102   0.512  14.636 -0.1127  0.1607 -0.4899
 6247SOL    HW130374   1.196   0.525  14.648 -0.2311  0.7041 -0.1402
 6247SOL    HW230375   1.104   0.539  14.544  2.1352  1.9079  0.0682
 6248SOL     OW30376   3.362   1.943   8.838 -0.5473 -0.5848  0.7826
 6248SOL    HW130377   3.368   1.895   8.920  1.4897  1.4945  1.8520
 6248SOL    HW230378   3.440   1.997   8.854 -0.9074  0.8499 -2.3004
 6249SOL     OW30379   2.773   3.132   5.693  0.2079 -0.5178 -0.2618
 6249SOL    HW130380   2.763   3.167   5.605  0.4369 -2.7929 -1.1891
 6249SOL    HW230381   2.869   3.134   5.690  0.0663  0.6990 -3.7155
 6250SOL     OW30382   0.098   4.671   2.977  0.1065  0.3352  0.4276
 6250SOL    HW130383   0.024   4.704   3.028 -1.2335 -2.5462  0.3440
 6250SOL    HW230384   0.059   4.597   2.930 -1.6702  0.3349  1.9199
 6251SOL     OW30385   2.867   1.031  12.295 -0.6608 -0.2817  0.4822
 6251SOL    HW130386   2.932   1.102  12.293  0.4312 -1.3497 -1.1867
 6251SOL    HW230387   2.916   0.960  12.336 -1.5443 -0.0394  1.9742
 6252SOL     OW30388   1.144   0.177   8.336 -0.1954 -1.2264  0.0779
 6252SOL    HW130389   1.061   0.217   8.361  0.6786  1.2156 -0.9017
 6252SOL    HW230390   1.169   0.147   8.424 -1.4452  0.5848  1.0525
 6253SOL     OW30391   4.555   4.463   7.902  0.0497  0.4592 -0.0404
 6253SOL    HW130392   4.638   4.428   7.933  0.7537  2.2647  0.0894
 6253SOL    HW230393   4.523   4.543   7.943 -0.8847 -0.1542  0.4486
 6254SOL     OW30394   3.054   3.285  11.893 -0.4666  0.3102  0.1295
 6254SOL    HW130395   3.013   3.370  11.878  2.1592  1.2628 -1.6795
 6254SOL    HW230396   3.024   3.264  11.982 -0.5126  1.1174  0.3061
 6255SOL     OW30397   1.316   3.131   8.239  0.3846 -0.2910 -0.4931
 6255SOL    HW130398   1.300   3.211   8.188  0.5272 -0.0989 -0.2411
 6255SOL    HW230399   1.300   3.065   8.172  1.0921 -0.8291 -0.1264
 6256SOL     OW30400   2.525   0.397  14.921 -0.0242 -0.0645  0.0510
 6256SOL    HW130401   2.506   0.490  14.910 -0.1298 -0.0355  0.4957
 6256SOL    HW230402   2.483   0.364  14.841  0.4242 -0.3801 -0.0550
 6257SOL     OW30403   0.430   1.711  13.495 -0.4721 -0.1183  0.7799
 6257SOL    HW130404   0.347   1.678  13.529  0.5438 -2.8145  0.7307
 6257SOL    HW230405   0.500   1.689  13.557  0.0082  2.3125  1.0831
 6258SOL     OW30406   1.607   2.711   6.768  0.4070 -0.3589 -0.5694
 6258SOL    HW130407   1.594   2.769   6.842 -3.9803  0.0474 -1.6480
 6258SOL    HW230408   1.593   2.772   6.695  0.8791  1.3112  0.7389
 6259SOL     OW30409   3.029   1.854   6.495  0.6085 -0.0396 -0.2624
 6259SOL    HW130410   2.996   1.931   6.449  0.8429 -0.1562 -0.6209
 6259SOL    HW230411   2.977   1.779   6.467  0.1820  0.3155 -0.4251
 6260SOL     OW30412   4.555   1.484   2.567 -0.0651  0.5425 -0.1166
 6260SOL    HW130413   4.502   1.501   2.645  0.2076 -0.2394  0.2345
 6260SOL    HW230414   4.545   1.564   2.515  0.4347  1.0623  0.5984
 6261SOL     OW30415   1.970   2.450  13.807  0.2897 -0.1530 -0.0823
 6261SOL    HW130416   2.026   2.516  13.847 -0.0089 -0.3083  0.5952
 6261SOL    HW230417   2.040   2.406  13.757  0.0636 -0.6149  0.0034
 6262SOL     OW30418   0.132   3.653   1.934 -0.3862  0.0858  0.0048
 6262SOL    HW130419   0.172   3.623   1.852  0.3540 -3.0189  1.5116
 6262SOL    HW230420   0.039   3.667   1.913 -0.9837 -0.2993  2.3874
 6263SOL     OW30421   2.399   4.140   5.296  0.8684  0.3397  0.5278
 6263SOL    HW130422   2.427   4.231   5.285 -1.8590  1.3169  1.7550
 6263SOL    HW230423   2.414   4.113   5.206  0.3659  0.0909  0.5205
 6264SOL     OW30424   3.119   1.063  14.232  0.4572 -0.4512  0.4938
 6264SOL    HW130425   3.172   1.123  14.285  1.5247 -0.6481 -0.3389
 6264SOL    HW230426   3.057   1.121  14.187 -1.1637 -1.5553  1.3381
 6265SOL     OW30427   1.680   3.842   3.452 -0.4560  0.0473  0.5919
 6265SOL    HW130428   1.658   3.918   3.399  0.0380  0.0291  0.3601
 6265SOL    HW230429   1.746   3.874   3.513 -1.2121 -1.4814  2.2053
 6266SOL     OW30430   3.547   2.010   9.533 -0.8492  0.4783 -0.4512
 6266SOL    HW130431   3.500   1.950   9.590  0.6590 -0.8900 -0.6655
 6266SOL    HW230432   3.599   2.062   9.594 -0.9641 -0.2298  0.2531
 6267SOL     OW30433   0.001   0.027   2.020  0.3482  0.7264 -0.2340
 6267SOL    HW130434   4.679   4.704   1.961  0.2505  1.4951 -0.8592
 6267SOL    HW230435   0.064   0.069   1.962 -1.0979  1.7207 -1.1148
 6268SOL     OW30436   0.229   1.923   4.340  0.3731  0.4147  0.8401
 6268SOL    HW130437   0.286   1.975   4.397  2.8899 -0.2398 -1.0970
 6268SOL    HW230438   0.207   1.990   4.276 -2.6069 -0.5324  0.8652
 6269SOL     OW30439   1.242   1.211   1.337 -0.2024  0.3875 -0.1785
 6269SOL    HW130440   1.289   1.291   1.311 -1.7667  1.6854  1.0043
 6269SOL    HW230441   1.254   1.223   1.431  0.2000 -1.1343 -0.0448
 6270SOL     OW30442   2.828   0.970  11.361 -0.2358  0.4810  0.6173
 6270SOL    HW130443   2.896   0.921  11.315 -0.2637  2.2952 -1.4204
 6270SOL    HW230444   2.763   0.985  11.292 -1.6259 -0.2473  1.7721
 6271SOL     OW30445   1.429   0.436   4.033  0.3006  0.4083  0.2730
 6271SOL    HW130446   1.461   0.524   4.013 -0.8478  0.5317 -1.0428
 6271SOL    HW230447   1.508   0.416   4.082  1.1190 -0.9844 -1.5915
 6272SOL     OW30448   4.577   1.585   7.664 -0.1644 -0.2192 -0.4567
 6272SOL    HW130449   4.583   1.511   7.604 -0.4599 -0.9984  0.4751
 6272SOL    HW230450   4.635   1.645   7.617  1.3644 -0.0808  1.6006
 6273SOL     OW30451   4.358   0.942   3.368  0.1968 -0.4317  0.1479
 6273SOL    HW130452   4.268   0.909   3.370  0.9900 -2.5959  0.3693
 6273SOL    HW230453   4.402   0.862   3.339 -1.0653 -0.6475 -1.1208
 6274SOL     OW30454   1.000   1.031   5.617 -0.6036 -0.1905  0.8356
 6274SOL    HW130455   0.977   1.031   5.524 -0.4278  1.2311  0.7905
 6274SOL    HW230456   1.048   0.950   5.630  0.2657  0.0105 -1.0936
 6275SOL     OW30457   4.373   4.495   6.898  0.0314  0.6699 -0.0158
 6275SOL    HW130458   4.317   4.448   6.960 -2.1334  2.2975 -0.7569
 6275SOL    HW230459   4.392   4.428   6.831  2.3570 -0.0226  1.3228
 6276SOL     OW30460   0.358   4.655   6.337 -0.0663 -0.0942 -0.1963
 6276SOL    HW130461   0.421   4.707   6.287  0.2668  0.7570  1.1288
 6276SOL    HW230462   0.314   4.720   6.391  1.2203  0.4298  0.2140
 6277SOL     OW30463   4.181   1.959   4.088 -0.1484 -0.1429 -0.3089
 6277SOL    HW130464   4.241   1.896   4.127 -1.9228 -1.3567  0.4689
 6277SOL    HW230465   4.174   1.917   4.002 -2.8759 -0.5099  0.0952
 6278SOL     OW30466   2.433   3.311   0.546  0.0514  0.0093 -0.4763
 6278SOL    HW130467   2.440   3.355   0.461  0.0228 -0.6494 -0.8204
 6278SOL    HW230468   2.472   3.368   0.612  0.7649  1.3270 -2.0460
 6279SOL     OW30469   4.665   4.032   3.277 -0.5181 -0.3039 -0.2308
 6279SOL    HW130470   4.579   4.072   3.290 -0.9695 -0.8019 -1.6347
 6279SOL    HW230471   4.692   4.009   3.365 -0.0952 -2.6771 -0.9957
 6280SOL     OW30472   1.727   0.763  11.690  0.4263 -0.2851 -0.4243
 6280SOL    HW130473   1.793   0.832  11.676  1.5446 -1.6374 -1.9071
 6280SOL    HW230474   1.691   0.752  11.602 -2.2246  2.1118  0.3740
 6281SOL     OW30475   4.698   4.085  11.388  0.2436  0.1860  0.2224
 6281SOL    HW130476   4.667   4.175  11.378 -1.5205 -0.4587 -0.1536
 6281SOL    HW230477   0.059   4.106  11.370 -0.5805  2.5502 -1.1931
 6282SOL     OW30478   1.236   3.394  11.398 -0.0700 -0.7890  0.5916
 6282SOL    HW130479   1.317   3.429  11.360  0.1453  0.0477  1.8302
 6282SOL    HW230480   1.196   3.362  11.317 -1.1658 -0.5099  1.0147
 6283SOL     OW30481   1.469   0.831   8.500 -0.1395  0.0465  0.8945
 6283SOL    HW130482   1.395   0.786   8.458 -0.1683  1.2331 -0.3284
 6283SOL    HW230483   1.538   0.768   8.480 -0.6981 -0.0456 -0.7978
 6284SOL     OW30484   0.113   0.013   7.082  0.5526  0.2323  0.2548
 6284SOL    HW130485   0.188   0.026   7.140 -0.7834 -0.7719  2.2010
 6284SOL    HW230486   0.110   0.104   7.051  1.7700 -0.1646 -1.0583
 6285SOL     OW30487   1.691   3.579   7.670  0.6983 -0.4357  0.3580
 6285SOL    HW130488   1.691   3.537   7.584 -1.3973  0.3060  0.0141
 6285SOL    HW230489   1.734   3.661   7.649  2.4368 -1.6856 -0.9742
 6286SOL     OW30490   1.346   3.147   4.409 -0.4475 -0.5497 -0.0583
 6286SOL    HW130491   1.415   3.206   4.377 -0.8081  0.5355  1.1585
 6286SOL    HW230492   1.364   3.069   4.357 -0.7429 -0.9692  0.4717
 6287SOL     OW30493   1.197   2.207   9.691  0.0986  0.5757  0.4076
 6287SOL    HW130494   1.186   2.124   9.736 -0.2453 -0.2875 -1.2682
 6287SOL    HW230495   1.240   2.185   9.608 -1.0676 -0.7891  0.1719
 6288SOL     OW30496   2.375   1.595   6.433  0.1400  0.6649 -0.3462
 6288SOL    HW130497   2.347   1.608   6.342 -1.4733 -2.0896 -0.2453
 6288SOL    HW230498   2.470   1.602   6.425  0.1180  1.4737  0.0967
 6289SOL     OW30499   3.868   0.407   3.285  0.7405  0.1092 -0.2231
 6289SOL    HW130500   3.802   0.453   3.233  0.6958 -0.0338 -0.2904
 6289SOL    HW230501   3.812   0.368   3.351  1.8210  0.1445  0.7212
 6290SOL     OW30502   1.800   2.317   4.455 -0.9687  0.2073  0.0849
 6290SOL    HW130503   1.844   2.236   4.426  1.5211  0.7466  2.3213
 6290SOL    HW230504   1.750   2.290   4.532 -1.1775  3.5684  1.1322
 6291SOL     OW30505   4.326   0.199   4.978 -0.0369  0.2081 -0.3375
 6291SOL    HW130506   4.306   0.208   5.071  1.2045  1.2684 -0.1695
 6291SOL    HW230507   4.301   0.282   4.937 -1.0528  0.3093  0.4855
 6292SOL     OW30508   3.502   0.858   6.533  0.1801  0.5786 -0.7210
 6292SOL    HW130509   3.417   0.901   6.540  0.2812  0.6199  0.2784
 6292SOL    HW230510   3.491   0.788   6.469 -0.1063  0.6851 -0.7849
 6293SOL     OW30511   3.263   2.163   4.122 -0.2211  0.6919  0.0284
 6293SOL    HW130512   3.281   2.115   4.041 -0.6907  1.3057 -0.4370
 6293SOL    HW230513   3.262   2.254   4.093  1.0190  0.5952 -0.3363
 6294SOL     OW30514   2.566   2.399   8.103  0.0255  0.1263  0.0847
 6294SOL    HW130515   2.636   2.390   8.039 -0.1893 -0.9369 -0.0066
 6294SOL    HW230516   2.550   2.493   8.107 -0.1100  0.1009  0.1447
 6295SOL     OW30517   3.924   4.036   4.668 -0.2149 -0.1771  0.1762
 6295SOL    HW130518   4.007   4.040   4.716  0.6662  1.0129 -1.4403
 6295SOL    HW230519   3.866   4.096   4.715  0.4075 -0.3808  1.2068
 6296SOL     OW30520   3.911   0.510   5.158  0.1497  0.0982  0.2953
 6296SOL    HW130521   3.923   0.446   5.228  0.6089 -1.1996 -0.9698
 6296SOL    HW230522   3.981   0.572   5.178  2.0766 -1.8032 -0.5053
 6297SOL     OW30523   3.961   3.115   1.075  0.1462 -0.0514 -0.4433
 6297SOL    HW130524   3.952   3.040   1.134 -1.2941 -1.0591 -1.9151
 6297SOL    HW230525   3.883   3.099   1.021 -0.6905  0.4604  0.6225
 6298SOL     OW30526   0.981   3.911   7.435 -0.2484  0.2491 -0.2971
 6298SOL    HW130527   0.895   3.877   7.462 -0.5390  1.7121  0.6495
 6298SOL    HW230528   1.026   3.903   7.519 -2.0704  2.1947  0.8970
 6299SOL     OW30529   3.443   1.823   1.349 -0.1919 -0.1515  0.5695
 6299SOL    HW130530   3.406   1.737   1.328  0.5202 -0.4434  0.5095
 6299SOL    HW230531   3.377   1.859   1.408  0.1929 -1.3098  1.7155
 6300SOL     OW30532   1.581   3.783   3.742 -0.4417 -0.4848  0.5946
 6300SOL    HW130533   1.574   3.715   3.675  0.8377 -0.0241  0.0013
 6300SOL    HW230534   1.655   3.751   3.793 -0.0085 -0.4208  0.0036
 6301SOL     OW30535   2.591   0.759   5.244 -0.4172  0.0140  0.1771
 6301SOL    HW130536   2.611   0.701   5.171 -0.6543  1.9076 -1.4034
 6301SOL    HW230537   2.525   0.817   5.206 -0.4996  0.0991  0.4465
 6302SOL     OW30538   2.960   2.618  10.401  0.3335 -0.1238  0.8738
 6302SOL    HW130539   2.999   2.665  10.475  1.9970  0.4784 -0.3651
 6302SOL    HW230540   3.008   2.639  10.321  0.5758 -1.0164  0.7878
 6303SOL     OW30541   1.817   0.366   2.820  0.1493  0.0339  0.4255
 6303SOL    HW130542   1.879   0.300   2.789  1.2900  0.3812  1.9823
 6303SOL    HW230543   1.872   0.439   2.850  0.8038  0.0147 -0.7302
 6304SOL     OW30544   3.247   0.194   5.259 -0.5635  0.4372  0.0987
 6304SOL    HW130545   3.304   0.243   5.319  0.8595  0.0239 -0.9172
 6304SOL    HW230546   3.297   0.113   5.247 -2.4379 -0.8565  1.0184
 6305SOL     OW30547   4.258   0.446  14.951  0.0937  0.2291  0.2275
 6305SOL    HW130548   4.190   0.394  14.994  0.2913  0.9483  1.4170
 6305SOL    HW230549   4.301   0.377  14.900 -0.2022 -0.4755  0.9370
 6306SOL     OW30550   0.620   3.521   4.596  0.2929  0.4621  0.0487
 6306SOL    HW130551   0.579   3.514   4.682 -2.5566  1.0142 -1.2768
 6306SOL    HW230552   0.537   3.533   4.550  0.9429 -0.9602 -1.5130
 6307SOL     OW30553   2.421   0.968   7.947 -0.1336 -0.7117 -0.2195
 6307SOL    HW130554   2.379   1.008   7.872  0.4083  0.6505  0.2014
 6307SOL    HW230555   2.500   1.022   7.955 -1.3219  1.2782 -2.1561
 6308SOL     OW30556   1.778   1.097   2.307 -0.0782  0.5895  0.0661
 6308SOL    HW130557   1.682   1.091   2.308  0.0486 -2.0568 -1.3380
 6308SOL    HW230558   1.795   1.158   2.378 -0.0007  0.8273 -0.1557
 6309SOL     OW30559   3.453   4.709  10.300 -0.7220 -0.2753  0.4370
 6309SOL    HW130560   3.515   4.718  10.228 -0.5899  0.4951  0.6537
 6309SOL    HW230561   3.465   0.062  10.342 -4.0759  0.1775  0.4861
 6310SOL     OW30562   1.283   3.246   8.747 -0.3604  0.1589 -0.1806
 6310SOL    HW130563   1.326   3.317   8.795  2.4319 -2.1448  0.7723
 6310SOL    HW230564   1.353   3.221   8.687  0.7896  0.4878  1.0196
 6311SOL     OW30565   2.236   1.795   2.107 -0.6393  0.0294  0.5449
 6311SOL    HW130566   2.257   1.706   2.079  0.8064 -0.1527  2.2230
 6311SOL    HW230567   2.191   1.777   2.189  1.4430 -0.4758  1.5695
 6312SOL     OW30568   1.553   2.436   6.786  0.6220 -0.3127 -0.2656
 6312SOL    HW130569   1.554   2.389   6.703 -0.6899  0.2541 -0.6012
 6312SOL    HW230570   1.566   2.527   6.759 -2.2690 -0.2463 -1.4989
 6313SOL     OW30571   1.087   1.550  12.575 -0.2840  0.6998 -0.1090
 6313SOL    HW130572   1.067   1.523  12.485 -2.2067 -1.0922  0.8578
 6313SOL    HW230573   1.072   1.644  12.560 -0.0887  1.1105  2.2365
 6314SOL     OW30574   3.137   4.108   4.535 -0.3319 -0.3482 -0.4586
 6314SOL    HW130575   3.171   4.162   4.463  0.9745  0.1041  0.4953
 6314SOL    HW230576   3.096   4.177   4.587  0.0389  0.4778 -1.2480
 6315SOL     OW30577   2.868   4.344   8.263 -0.1856  0.7859 -0.2830
 6315SOL    HW130578   2.898   4.435   8.265  1.6721  0.2027 -1.7050
 6315SOL    HW230579   2.777   4.365   8.286  0.2607  3.1457 -0.6216
 6316SOL     OW30580   4.195   0.630   2.296  0.0566  0.2927 -0.0472
 6316SOL    HW130581   4.164   0.561   2.355  2.5565 -0.1498  0.7708
 6316SOL    HW230582   4.118   0.684   2.316  1.5385  3.1440 -1.9737
 6317SOL     OW30583   1.961   1.053   2.099  0.6141 -0.0824 -0.4119
 6317SOL    HW130584   1.898   1.095   2.158  0.2902 -1.3541  0.1438
 6317SOL    HW230585   1.951   0.974   2.151  3.2698 -2.4422 -3.4711
 6318SOL     OW30586   1.806   2.265  14.789  0.3973 -0.1966 -0.2783
 6318SOL    HW130587   1.761   2.343  14.758 -1.2295 -0.9515  0.1704
 6318SOL    HW230588   1.789   2.207  14.715  0.6761  0.5313 -0.9112
 6319SOL     OW30589   0.694   4.126   0.701 -0.5607  0.8385 -0.0163
 6319SOL    HW130590   0.669   4.144   0.792 -1.1337 -1.8124  0.3456
 6319SOL    HW230591   0.779   4.084   0.711  0.2476  1.8850 -2.3790
 6320SOL     OW30592   0.302   2.004   3.513  0.3452 -0.4775  0.2001
 6320SOL    HW130593   0.248   2.026   3.589 -1.1536 -0.5445 -0.8404
 6320SOL    HW230594   0.241   1.954   3.459  0.2761  0.4793 -0.6045
 6321SOL     OW30595   4.670   3.641   1.694  0.0590 -0.2808  0.4082
 6321SOL    HW130596   4.580   3.671   1.677 -0.4036 -1.5372  0.6596
 6321SOL    HW230597   4.703   3.722   1.732  1.0838 -1.6956  2.4956
 6322SOL     OW30598   2.543   2.721   8.371 -0.4678 -0.4306  0.2294
 6322SOL    HW130599   2.573   2.811   8.379  1.6963 -1.1470  0.1885
 6322SOL    HW230600   2.483   2.730   8.296 -1.8916 -0.8495  1.3195
 6323SOL     OW30601   0.066   1.449   2.659  0.0160 -0.2898 -0.0182
 6323SOL    HW130602   4.710   1.450   2.620  0.1267 -2.3334 -0.2829
 6323SOL    HW230603   0.106   1.522   2.613 -1.2022 -0.3520 -1.1924
 6324SOL     OW30604   1.025   4.006   3.272 -0.1747  0.4741  0.0733
 6324SOL    HW130605   1.067   3.942   3.329 -0.5328 -0.5083 -0.7781
 6324SOL    HW230606   1.047   4.085   3.321  0.6570 -1.0186  2.1296
 6325SOL     OW30607   1.605   1.998   8.712 -0.0914  0.3369  0.4499
 6325SOL    HW130608   1.511   1.993   8.727  0.1608  0.7205  2.1263
 6325SOL    HW230609   1.630   1.906   8.703 -1.9014 -0.1879  0.7369
 6326SOL     OW30610   3.642   1.161  14.308  0.1792 -0.2573  0.3537
 6326SOL    HW130611   3.721   1.147  14.257  1.4933  0.7953  2.1007
 6326SOL    HW230612   3.641   1.078  14.356  0.4926  0.0603  0.9148
 6327SOL     OW30613   3.430   2.478   4.763  0.0062  0.5074 -0.6096
 6327SOL    HW130614   3.359   2.540   4.748 -0.8301 -0.0524  0.9858
 6327SOL    HW230615   3.417   2.417   4.690  1.4178  0.3499 -0.7276
 6328SOL     OW30616   1.845   2.161   7.681  0.1685 -0.5869 -0.0262
 6328SOL    HW130617   1.876   2.251   7.682 -1.3188 -0.0687 -0.6625
 6328SOL    HW230618   1.818   2.141   7.771  1.5901  1.4441  0.8499
 6329SOL     OW30619   2.452   2.979   0.769  0.0203  0.1977 -0.4783
 6329SOL    HW130620   2.453   2.995   0.864  0.4982 -1.9995 -0.1164
 6329SOL    HW230621   2.518   3.043   0.743 -1.2728  1.3757 -0.8458
 6330SOL     OW30622   3.173   2.117  11.140  0.6031 -0.7946 -0.1668
 6330SOL    HW130623   3.094   2.113  11.194  0.1864  1.1503 -0.6466
 6330SOL    HW230624   3.143   2.126  11.050 -1.4885  3.5356  0.9592
 6331SOL     OW30625   0.605   3.779  14.577 -0.5647  0.1135 -0.2110
 6331SOL    HW130626   0.582   3.823  14.659  0.5429  0.9564 -0.3446
 6331SOL    HW230627   0.563   3.834  14.511  0.0691  1.7687  0.7598
 6332SOL     OW30628   4.663   3.129  10.877 -0.5637  0.5523  0.1996
 6332SOL    HW130629   0.006   3.077  10.846 -0.4305  0.9732 -0.1748
 6332SOL    HW230630   4.688   3.154  10.966  0.4058 -2.0756  0.6705
 6333SOL     OW30631   2.733   0.447   2.486 -1.0054 -0.6552  0.5963
 6333SOL    HW130632   2.769   0.518   2.538 -0.3544 -0.8229  0.3739
 6333SOL    HW230633   2.799   0.457   2.418 -0.6214  0.9624  1.2131
 6334SOL     OW30634   0.015   4.661   5.503 -0.6205  0.2907  0.1484
 6334SOL    HW130635   0.063   4.579   5.519 -0.9432 -0.2472 -1.6265
 6334SOL    HW230636   4.727   4.640   5.412 -2.8411  2.8152  0.0487
 6335SOL     OW30637   2.237   2.470   5.158  0.0666 -0.5042 -0.3703
 6335SOL    HW130638   2.149   2.442   5.182 -0.5021 -0.3104 -2.2838
 6335SOL    HW230639   2.272   2.478   5.248  0.5312 -1.3443 -0.4738
 6336SOL     OW30640   2.580   2.049   2.439  0.0950 -0.0901 -0.3858
 6336SOL    HW130641   2.560   1.974   2.383  1.7770 -2.0091  1.5726
 6336SOL    HW230642   2.660   2.082   2.400  0.5308 -1.2115 -0.4550
 6337SOL     OW30643   0.108   3.969  16.392 -0.1567  0.9186 -0.6307
 6337SOL    HW130644   0.013   3.981  16.389 -0.2966  0.0118  0.0015
 6337SOL    HW230645   0.118   3.924  16.308  0.2925 -0.6550  0.2639
 6338SOL     OW30646   2.725   0.732  15.057 -0.4166  0.0774 -0.1924
 6338SOL    HW130647   2.652   0.713  14.998 -1.1681 -2.2792  1.5187
 6338SOL    HW230648   2.807   0.709  15.013  1.4732  3.5466  1.5328
 6339SOL     OW30649   0.250   3.113   4.487 -0.0515  0.0062  0.3793
 6339SOL    HW130650   0.236   3.192   4.435 -1.6548  0.3572  1.3540
 6339SOL    HW230651   0.167   3.066   4.486 -0.0411  0.0853 -3.3872
 6340SOL     OW30652   0.567   3.479   7.979  0.1778 -0.0553  0.3112
 6340SOL    HW130653   0.566   3.480   8.074 -3.0547 -1.6466  0.2852
 6340SOL    HW230654   0.655   3.449   7.958  0.8160  1.1598  1.2573
 6341SOL     OW30655   1.479   0.788  17.568  0.0287 -0.8144  0.1422
 6341SOL    HW130656   1.412   0.725  17.544 -1.9751  0.8356  1.4060
 6341SOL    HW230657   1.558   0.748  17.532 -0.3223 -1.0507 -0.3620
 6342SOL     OW30658   3.952   2.648   8.833  0.0988  0.3171  0.7187
 6342SOL    HW130659   3.975   2.573   8.888  0.1197 -0.0139  0.2582
 6342SOL    HW230660   3.914   2.705   8.900  0.0265  3.2007 -1.7430
 6343SOL     OW30661   2.849   1.506   3.933 -0.1055 -0.2592 -0.2437
 6343SOL    HW130662   2.815   1.417   3.939 -0.1748 -0.0360  2.6390
 6343SOL    HW230663   2.845   1.521   3.839  0.9848 -1.8150 -0.5502
 6344SOL     OW30664   0.845   4.303  17.260 -0.4502  0.0052  0.2678
 6344SOL    HW130665   0.768   4.247  17.273 -0.4286 -0.1468 -0.2712
 6344SOL    HW230666   0.819   4.388  17.297 -1.0981 -0.2864  0.4822
 6345SOL     OW30667   1.996   0.681  13.968  0.0117 -0.0876  0.3222
 6345SOL    HW130668   2.077   0.657  13.923  0.8729 -0.3959  2.0322
 6345SOL    HW230669   1.930   0.629  13.922 -0.0416 -2.7560  3.4149
 6346SOL     OW30670   1.762   0.337   1.907 -0.6818 -0.1278  0.6560
 6346SOL    HW130671   1.838   0.354   1.852 -0.7066 -2.9648 -0.2266
 6346SOL    HW230672   1.752   0.242   1.910 -1.4314 -0.0538  0.1812
 6347SOL     OW30673   4.491   1.142   3.987 -0.1313  0.1527 -0.4917
 6347SOL    HW130674   4.404   1.104   3.975 -1.0586  2.5858 -1.5168
 6347SOL    HW230675   4.486   1.238   3.989 -2.8123  0.0164 -0.4845
 6348SOL     OW30676   3.353   2.807   0.944 -0.5617 -0.0550 -0.3758
 6348SOL    HW130677   3.372   2.763   1.027  2.8101  0.7339 -0.7372
 6348SOL    HW230678   3.314   2.890   0.971  0.3179 -0.3765  1.9114
 6349SOL     OW30679   3.389   3.814   9.022 -0.5574  0.5614 -0.2797
 6349SOL    HW130680   3.314   3.755   9.033 -0.6873  0.9511  0.9162
 6349SOL    HW230681   3.456   3.759   8.982 -0.1540  0.3416  0.6831
 6350SOL     OW30682   0.510   3.666   5.336 -0.6839  0.1604  1.1185
 6350SOL    HW130683   0.483   3.749   5.296  0.6304 -0.3713 -0.8245
 6350SOL    HW230684   0.443   3.605   5.307  1.4108 -0.8334 -1.6337
 6351SOL     OW30685   4.144   3.493   5.870  0.2506 -0.0063  0.4003
 6351SOL    HW130686   4.166   3.562   5.933  0.4814  1.5975 -1.4103
 6351SOL    HW230687   4.178   3.524   5.785 -1.6782  2.2329  0.4083
 6352SOL     OW30688   0.243   0.870  17.281 -0.2753 -0.2110 -0.3718
 6352SOL    HW130689   0.200   0.924  17.348  1.9966  0.6378  0.4050
 6352SOL    HW230690   0.332   0.867  17.318 -0.7548 -1.5601  0.6813
 6353SOL     OW30691   2.795   3.494   4.819  0.4969  0.2375  0.3071
 6353SOL    HW130692   2.805   3.444   4.738  1.5836  2.4600 -0.9482
 6353SOL    HW230693   2.740   3.431   4.865  2.4416 -1.3932  0.4127
 6354SOL     OW30694   3.583   2.879   9.258  0.6652 -0.2500  0.4114
 6354SOL    HW130695   3.548   2.833   9.335 -0.3451  0.5571  0.4299
 6354SOL    HW230696   3.522   2.836   9.199  1.6727 -0.0735 -0.7570
 6355SOL     OW30697   1.929   1.200  13.584 -0.5172  0.0000  0.1876
 6355SOL    HW130698   1.882   1.165  13.508  0.8725 -2.2909  0.3921
 6355SOL    HW230699   1.903   1.138  13.653  0.7675  1.1903  1.7367
 6356SOL     OW30700   3.124   3.654   6.918 -0.3732 -0.4922  0.0250
 6356SOL    HW130701   3.150   3.743   6.939 -1.7019  0.1441 -1.0137
 6356SOL    HW230702   3.211   3.621   6.897 -0.3577  0.7417 -1.8241
 6357SOL     OW30703   4.552   3.078  17.053 -0.3885  0.0018  0.1742
 6357SOL    HW130704   4.485   3.118  16.998 -0.7930 -0.1126  0.5759
 6357SOL    HW230705   4.624   3.140  17.050  0.1630 -0.8156 -3.1556
 6358SOL     OW30706   0.992   3.409  11.549 -0.7210 -0.0361  0.2233
 6358SOL    HW130707   0.966   3.319  11.572 -1.8471  0.1948 -0.1341
 6358SOL    HW230708   1.076   3.385  11.510 -1.0387 -1.2945  0.3056
 6359SOL     OW30709   3.466   1.001   8.106 -0.3254  0.1716  0.5817
 6359SOL    HW130710   3.516   1.074   8.070  0.9940 -1.8299 -1.6097
 6359SOL    HW230711   3.441   0.963   8.023 -0.6756  1.8463 -0.0785
 6360SOL     OW30712   1.513   2.275   6.543 -0.2952 -0.5974  0.0249
 6360SOL    HW130713   1.555   2.211   6.486 -0.3320 -1.0482  0.5166
 6360SOL    HW230714   1.557   2.359   6.529  1.4605 -1.6516 -0.6833
 6361SOL     OW30715   4.704   3.371  17.550 -0.0516 -0.2061  0.3158
 6361SOL    HW130716   4.640   3.415  17.606 -0.8426 -1.0136  0.0457
 6361SOL    HW230717   0.018   3.445  17.510 -1.7286  0.7450  0.1543
 6362SOL     OW30718   1.765   0.684  14.862  0.4285 -0.1319  0.3952
 6362SOL    HW130719   1.806   0.769  14.849 -0.3358  0.2095  0.2579
 6362SOL    HW230720   1.823   0.648  14.930  1.3314 -0.5393 -0.5971
 6363SOL     OW30721   2.822   2.600   5.890 -0.2466  0.2944 -0.4879
 6363SOL    HW130722   2.796   2.677   5.940  2.0832 -0.3644  1.7057
 6363SOL    HW230723   2.785   2.535   5.949  0.3601  0.3717 -0.0296
 6364SOL     OW30724   3.827   3.055   5.058 -0.1505 -0.8700  0.3198
 6364SOL    HW130725   3.779   2.989   5.108 -0.7516 -0.7401 -0.0812
 6364SOL    HW230726   3.912   3.055   5.101  0.9037  0.2431 -1.7548
 6365SOL     OW30727   4.295   1.839  13.525  0.0510 -0.1773  0.2415
 6365SOL    HW130728   4.266   1.769  13.583 -0.5914 -0.3014 -0.2265
 6365SOL    HW230729   4.268   1.801  13.441 -1.1258  1.5738 -0.1755
 6366SOL     OW30730   3.452   4.076   0.409  0.0801 -0.3040 -0.2520
 6366SOL    HW130731   3.398   4.154   0.418  0.6719 -0.0846  1.2998
 6366SOL    HW230732   3.492   4.093   0.323 -0.2881 -0.0206 -0.3677
 6367SOL     OW30733   0.808   1.679   9.908  0.2387 -0.3945  0.6383
 6367SOL    HW130734   0.822   1.655   9.817 -0.1885 -0.6370  0.6362
 6367SOL    HW230735   0.896   1.706   9.932  0.8354 -0.2852 -1.7023
 6368SOL     OW30736   1.393   1.978   5.381 -0.0328 -0.6549  0.2645
 6368SOL    HW130737   1.369   1.955   5.291 -0.7277 -1.2012  0.5885
 6368SOL    HW230738   1.433   1.896   5.409  2.2362  1.1545  2.3149
 6369SOL     OW30739   3.655   4.107   9.707 -0.1722 -0.9159  0.3283
 6369SOL    HW130740   3.574   4.063   9.731 -0.9766  0.8103  0.7318
 6369SOL    HW230741   3.633   4.200   9.712  1.6621 -0.4086 -1.0878
 6370SOL     OW30742   4.430   4.348   4.644 -0.2277  0.2797  0.5266
 6370SOL    HW130743   4.497   4.383   4.703  1.8671 -2.6692 -0.0936
 6370SOL    HW230744   4.426   4.413   4.573  0.1969 -0.8609 -0.5484
 6371SOL     OW30745   2.478   3.858   6.945  0.1614  0.0678 -0.2947
 6371SOL    HW130746   2.448   3.793   6.881 -2.2709 -1.6582  2.5967
 6371SOL    HW230747   2.449   3.820   7.028 -1.8222 -0.6338 -1.2949
 6372SOL     OW30748   0.459   0.209   2.093  0.1020  0.1673 -0.0013
 6372SOL    HW130749   0.407   0.248   2.163 -1.0667 -3.0681  0.9303
 6372SOL    HW230750   0.549   0.214   2.124 -0.4873  0.4560  1.6628
 6373SOL     OW30751   0.663   4.584   2.047  0.4781  0.0030 -0.2619
 6373SOL    HW130752   0.680   4.524   1.974 -1.1757 -1.1334  0.2817
 6373SOL    HW230753   0.744   4.581   2.099  0.2309  1.2193  0.1754
 6374SOL     OW30754   2.062   0.328   5.839 -0.7197  0.1270 -0.2871
 6374SOL    HW130755   1.988   0.372   5.796 -1.2313 -2.1215 -1.7320
 6374SOL    HW230756   2.109   0.409   5.860  0.1210 -0.0851 -1.3879
 6375SOL     OW30757   4.013   0.165   4.626  0.1826  0.0141 -0.3062
 6375SOL    HW130758   3.987   0.170   4.718 -1.9358 -1.8564 -0.8046
 6375SOL    HW230759   3.998   0.073   4.603 -1.6074  0.0029  0.9531
 6376SOL     OW30760   3.767   1.290   3.178 -0.1429 -0.1239 -0.1490
 6376SOL    HW130761   3.688   1.317   3.226 -0.3266  1.4495 -1.3424
 6376SOL    HW230762   3.737   1.199   3.169 -1.9404  0.4643 -0.0914
 6377SOL     OW30763   2.895   2.930   6.055  0.1447  0.0034 -0.3461
 6377SOL    HW130764   2.847   2.915   5.974  4.5699 -0.3797 -2.9278
 6377SOL    HW230765   2.821   2.936   6.115 -1.3027  1.3141 -2.2933
 6378SOL     OW30766   2.891   2.062   2.815 -0.8809  0.1233 -0.1651
 6378SOL    HW130767   2.906   1.989   2.876  0.2427  1.0029  0.6065
 6378SOL    HW230768   2.848   2.117   2.880  0.9346  1.0149  0.2680
 6379SOL     OW30769   2.185   4.321   8.297 -0.2926  0.1572  0.7846
 6379SOL    HW130770   2.221   4.371   8.371  0.1897  0.2013  0.5225
 6379SOL    HW230771   2.244   4.246   8.291  0.3168  0.8211 -1.7749
 6380SOL     OW30772   0.850   4.162  10.784 -0.0155  0.2050  0.1424
 6380SOL    HW130773   0.790   4.182  10.856 -1.1764  2.6789 -1.5079
 6380SOL    HW230774   0.911   4.236  10.779  0.9494 -0.6282 -0.5153
 6381SOL     OW30775   1.599   1.341   1.998 -0.4701 -0.1631 -0.1016
 6381SOL    HW130776   1.668   1.365   1.936 -2.0707  1.5536 -1.2346
 6381SOL    HW230777   1.525   1.372   1.946 -0.1391 -0.1819 -0.5801
 6382SOL     OW30778   1.647   0.560  13.344 -0.0605 -0.2704 -0.1708
 6382SOL    HW130779   1.674   0.635  13.397 -0.9147  0.0123 -0.1468
 6382SOL    HW230780   1.717   0.561  13.277  0.4395 -2.4905  0.3067
 6383SOL     OW30781   0.109   0.970  13.125  0.5687 -0.0060  0.0375
 6383SOL    HW130782   0.201   0.991  13.106  0.6444  0.5856  1.0226
 6383SOL    HW230783   0.090   1.029  13.198  0.8434  0.2396 -0.0868
 6384SOL     OW30784   0.250   3.730   7.805 -0.1639 -0.7031 -0.2171
 6384SOL    HW130785   0.338   3.756   7.832 -0.9569  1.4742  0.2790
 6384SOL    HW230786   0.208   3.813   7.782  0.6583 -0.1079  0.4408
 6385SOL     OW30787   4.723   3.811   5.924 -0.2230  0.2232  0.1311
 6385SOL    HW130788   0.027   3.748   5.987 -1.0830  1.9890  2.3929
 6385SOL    HW230789   0.039   3.786   5.845  2.7550 -0.5602  2.1398
 6386SOL     OW30790   3.313   0.802   8.889  0.4958  0.1445 -0.4768
 6386SOL    HW130791   3.230   0.817   8.935  1.3556  1.4708  0.6676
 6386SOL    HW230792   3.367   0.775   8.964 -0.4928  1.3523  0.6763
 6387SOL     OW30793   0.352   3.462   3.723  0.1674  0.4032  0.1078
 6387SOL    HW130794   0.342   3.550   3.759  0.5645  0.0983  0.9504
 6387SOL    HW230795   0.399   3.482   3.642 -0.9026  0.6715 -0.4544
 6388SOL     OW30796   1.280   1.486   6.018  0.1055  0.3467  0.5725
 6388SOL    HW130797   1.235   1.402   6.019 -2.2108  1.6149  1.2725
 6388SOL    HW230798   1.223   1.541   6.071 -0.3694  1.7674 -1.4102
 6389SOL     OW30799   1.788   0.334   4.718  0.3007  0.0203 -0.0561
 6389SOL    HW130800   1.716   0.273   4.732  0.2113  0.0198 -0.5465
 6389SOL    HW230801   1.770   0.363   4.629 -0.5994 -2.4225 -0.6724
 6390SOL     OW30802   3.883   0.773  11.942 -0.0579 -0.1707 -0.0460
 6390SOL    HW130803   3.953   0.835  11.960  0.7024 -1.0643  0.0912
 6390SOL    HW230804   3.926   0.697  11.902 -0.5949 -1.3784  1.6793
 6391SOL     OW30805   2.059   1.573   7.358  0.1992 -0.4158  0.1831
 6391SOL    HW130806   2.017   1.493   7.326  0.2536 -0.0023 -0.9328
 6391SOL    HW230807   1.984   1.629   7.379  1.8390  2.2391 -1.1097
 6392SOL     OW30808   1.172   3.227   3.958 -0.0246  0.0777 -0.3823
 6392SOL    HW130809   1.112   3.195   4.024  0.1671  0.1111 -0.1903
 6392SOL    HW230810   1.146   3.319   3.962  0.9355  0.3640 -0.7677
 6393SOL     OW30811   3.051   0.710   5.616 -0.0917  0.3308 -0.3256
 6393SOL    HW130812   3.118   0.642   5.627  0.7378  1.0968 -0.7312
 6393SOL    HW230813   3.038   0.695   5.522  2.6681 -1.0411 -0.4854
 6394SOL     OW30814   3.210   2.694   2.326 -0.1788  0.6296 -0.5462
 6394SOL    HW130815   3.162   2.611   2.331 -2.1471  1.9437  2.2690
 6394SOL    HW230816   3.286   2.678   2.270  1.2423  0.8333  1.3621
 6395SOL     OW30817   2.327   2.484   2.453 -0.1615  0.5210 -0.1639
 6395SOL    HW130818   2.293   2.402   2.418  0.5891  0.7886 -1.5150
 6395SOL    HW230819   2.397   2.452   2.511  0.2799  2.1819  0.2450
 6396SOL     OW30820   4.471   1.724   8.024 -0.4449  0.4849  0.2096
 6396SOL    HW130821   4.393   1.708   7.971  0.1185 -2.2155  0.2021
 6396SOL    HW230822   4.490   1.637   8.060 -0.9222 -0.6624 -2.3035
 6397SOL     OW30823   1.817   3.829  17.679  0.1875  0.1619 -0.2373
 6397SOL    HW130824   1.804   3.767   0.027  2.8715 -0.4552 -0.2772
 6397SOL    HW230825   1.903   3.865  17.703  1.8954 -3.7483 -0.3061
 6398SOL     OW30826   1.516   1.554   6.192 -0.3547 -0.4974 -0.1409
 6398SOL    HW130827   1.456   1.553   6.118  0.0868 -0.8094 -0.4897
 6398SOL    HW230828   1.491   1.476   6.241 -1.7539  1.0146  1.5678
 6399SOL     OW30829   1.618   3.004   5.841  0.4070 -0.2245  0.5764
 6399SOL    HW130830   1.671   3.059   5.899 -2.0588  0.8366  1.7902
 6399SOL    HW230831   1.572   2.947   5.902  1.2420 -0.1520  1.2676
 6400SOL     OW30832   0.478   2.194   5.118 -0.1460 -0.2760 -1.2570
 6400SOL    HW130833   0.444   2.105   5.119  2.2044 -1.1276  0.7070
 6400SOL    HW230834   0.398   2.247   5.116 -0.0616 -0.0978  0.1524
 6401SOL     OW30835   0.363   2.142   9.538 -0.2924  0.5008  0.1248
 6401SOL    HW130836   0.379   2.077   9.470 -0.4273  1.1435 -0.5144
 6401SOL    HW230837   0.431   2.134   9.604 -1.3314 -2.7249  0.8223
 6402SOL     OW30838   1.916   3.917   0.605 -0.3210  0.3646  0.5879
 6402SOL    HW130839   1.822   3.908   0.590 -0.7882  2.3654  2.3966
 6402SOL    HW230840   1.922   3.854   0.676 -1.4704 -0.9809 -0.5132
 6403SOL     OW30841   2.035   1.118   5.443 -0.7141  0.2215 -0.3280
 6403SOL    HW130842   1.969   1.186   5.430 -0.1199  1.3103  2.2536
 6403SOL    HW230843   2.107   1.155   5.391  1.8332 -0.2855  2.8254
 6404SOL     OW30844   3.100   4.629   7.148 -0.3587 -0.3602 -0.4293
 6404SOL    HW130845   3.023   4.605   7.199 -0.1854  0.1435  0.0753
 6404SOL    HW230846   3.126   4.555   7.094 -0.7799 -0.8559  0.0511
 6405SOL     OW30847   0.280   0.638   6.973  0.2985 -0.3388  0.4176
 6405SOL    HW130848   0.337   0.595   6.910  0.9554 -0.4436  1.0862
 6405SOL    HW230849   0.335   0.708   7.007 -0.0636  0.5463 -0.8183
 6406SOL     OW30850   1.333   3.052   6.297 -0.1686  0.0060  0.0740
 6406SOL    HW130851   1.379   3.058   6.214 -1.0521 -0.7684 -0.4781
 6406SOL    HW230852   1.280   2.972   6.289 -1.0264  0.4733  1.0897
 6407SOL     OW30853   2.630   0.040   9.280  0.1923 -0.0503  0.4411
 6407SOL    HW130854   2.717   0.079   9.274  0.1280 -0.3111 -1.9719
 6407SOL    HW230855   2.643   4.690   9.231 -2.9584  0.4885 -1.2055
 6408SOL     OW30856   3.848   2.977   9.056 -0.5281 -0.3827 -0.2019
 6408SOL    HW130857   3.808   2.890   9.054 -0.0232 -0.7091  3.2051
 6408SOL    HW230858   3.775   3.034   9.036  0.3229  0.9847  0.5708
 6409SOL     OW30859   2.254   0.259   1.748  0.3068 -0.3202 -0.2005
 6409SOL    HW130860   2.228   0.233   1.659 -0.7698 -1.0759  0.3380
 6409SOL    HW230861   2.262   0.170   1.782  0.3324 -0.5066 -0.6945
 6410SOL     OW30862   2.897   2.828  15.527 -0.0845 -0.1695  0.3983
 6410SOL    HW130863   2.867   2.742  15.498 -2.6230  0.5420  0.8818
 6410SOL    HW230864   2.990   2.808  15.521 -0.2339 -0.7114 -0.1697
 6411SOL     OW30865   1.016   1.495   5.797 -0.4116 -0.1077 -0.0516
 6411SOL    HW130866   1.031   1.406   5.828  0.3557  0.8603  2.3533
 6411SOL    HW230867   1.003   1.550   5.874 -0.2775 -2.3987  1.5931
 6412SOL     OW30868   0.872   4.229  16.792 -0.4493  0.2343 -0.4373
 6412SOL    HW130869   0.809   4.206  16.860 -3.2861 -0.2147 -3.2297
 6412SOL    HW230870   0.945   4.259  16.846 -1.5680 -1.5311  2.0617
 6413SOL     OW30871   4.037   1.773  10.902  0.6104  0.4630 -0.0507
 6413SOL    HW130872   3.985   1.837  10.952  2.5801  2.5263 -0.6226
 6413SOL    HW230873   3.994   1.772  10.817 -0.0460  0.8800  0.2729
 6414SOL     OW30874   4.515   0.400  12.836 -0.2039 -0.2068  0.4389
 6414SOL    HW130875   4.589   0.378  12.893 -0.8076  0.3074  1.4270
 6414SOL    HW230876   4.489   0.312  12.810 -2.1627  0.1486  1.1768
 6415SOL     OW30877   0.917   4.297   8.070 -0.4638 -0.5193 -0.5399
 6415SOL    HW130878   0.979   4.364   8.042  0.5647 -0.9362  0.7651
 6415SOL    HW230879   0.967   4.225   8.107  0.3391  0.0524 -0.5244
 6416SOL     OW30880   1.788   2.557   2.645 -0.0749  0.2136  0.0293
 6416SOL    HW130881   1.834   2.473   2.648  0.1572  0.3424  0.0977
 6416SOL    HW230882   1.854   2.624   2.665 -2.0077  2.6752 -1.7881
 6417SOL     OW30883   4.681   4.353   2.205 -0.0467  0.1029 -0.0208
 6417SOL    HW130884   4.685   4.288   2.135  0.0412 -1.6166  1.5793
 6417SOL    HW230885   0.029   4.406   2.194 -1.0512  1.5442 -0.2304
 6418SOL     OW30886   0.857   1.119   4.833 -0.1849 -0.3378 -0.2729
 6418SOL    HW130887   0.934   1.174   4.852  0.0150  0.0300 -2.1981
 6418SOL    HW230888   0.837   1.139   4.742  1.3314 -1.0075 -0.7580
 6419SOL     OW30889   0.641   1.326  10.854 -0.2804  0.5279 -0.0373
 6419SOL    HW130890   0.570   1.339  10.791  1.4689  0.8836 -1.9090
 6419SOL    HW230891   0.599   1.318  10.940 -0.0251  0.3516  0.0694
 6420SOL     OW30892   3.546   3.214   7.642 -0.7473  0.2966 -0.3181
 6420SOL    HW130893   3.567   3.266   7.565 -0.3085  1.3073  0.4843
 6420SOL    HW230894   3.569   3.127   7.609 -0.6151  0.6324 -1.0956
 6421SOL     OW30895   0.617   4.392   1.844 -0.2183  0.0443 -0.5341
 6421SOL    HW130896   0.531   4.426   1.870  0.3651  0.2356  1.1321
 6421SOL    HW230897   0.618   4.302   1.874  0.2768  0.6356  1.2447
 6422SOL     OW30898   0.107   3.309   5.644 -0.8311 -0.2330  0.0920
 6422SOL    HW130899   0.156   3.360   5.579 -2.9702  0.9565 -0.6042
 6422SOL    HW230900   0.095   3.372   5.715 -0.2830 -0.5279  0.4394
 6423SOL     OW30901   0.437   4.582   5.470  0.3549  0.2315 -0.3722
 6423SOL    HW130902   0.523   4.620   5.451 -0.7800  2.2587 -1.4786
 6423SOL    HW230903   0.463   4.493   5.496  1.5916  0.3919 -1.0746
 6424SOL     OW30904   1.723   4.151   7.115  0.1703  0.2801  0.7905
 6424SOL    HW130905   1.809   4.129   7.151 -0.2961 -2.1791  0.4001
 6424SOL    HW230906   1.668   4.086   7.158 -0.3006 -0.4025 -0.8677
 6425SOL     OW30907   2.111   0.072   0.024  0.1490 -0.5275 -0.0557
 6425SOL    HW130908   2.169   0.106   0.091 -1.7822  1.6620  0.4926
 6425SOL    HW230909   2.176   0.042  17.685  1.4130  1.7272  0.1719
 6426SOL     OW30910   3.837   1.820   7.520  0.1116  0.4059 -0.5490
 6426SOL    HW130911   3.806   1.736   7.553  0.1215  1.7500  2.9209
 6426SOL    HW230912   3.906   1.825   7.587  0.9422  0.4238 -1.3999
 6427SOL     OW30913   2.507   3.756  11.048  0.0990 -0.6754  0.3416
 6427SOL    HW130914   2.420   3.783  11.078  0.2807  0.6793 -0.3313
 6427SOL    HW230915   2.507   3.660  11.041 -0.8668 -0.7095  0.7879
 6428SOL     OW30916   3.323   2.359  17.166 -0.4654  0.5445  0.0075
 6428SOL    HW130917   3.322   2.405  17.249 -0.5964  2.1140 -0.8569
 6428SOL    HW230918   3.357   2.426  17.107  1.3059  0.0694  0.4906
 6429SOL     OW30919   3.635   3.252   4.953  0.1049  0.3068  0.3524
 6429SOL    HW130920   3.690   3.174   4.955  0.7083  0.7470  0.7272
 6429SOL    HW230921   3.646   3.298   5.036 -0.2163 -1.2245  1.2431
 6430SOL     OW30922   3.121   1.542   2.228  0.2535 -0.3435 -0.2279
 6430SOL    HW130923   3.058   1.593   2.176  0.7276 -0.2122 -0.6712
 6430SOL    HW230924   3.066   1.495   2.290  0.2477  0.8290  0.6679
 6431SOL     OW30925   1.658   2.558   7.176  0.1038 -0.0249 -0.3867
 6431SOL    HW130926   1.680   2.562   7.082  0.3827 -0.1530 -0.3265
 6431SOL    HW230927   1.599   2.484   7.170 -0.8485  0.5761  1.6920
 6432SOL     OW30928   0.893   4.561   5.816  0.0564 -0.5630  0.0349
 6432SOL    HW130929   0.812   4.551   5.767  0.3239  2.2843 -0.9983
 6432SOL    HW230930   0.951   4.597   5.748 -0.8047  0.8353  0.0356
 6433SOL     OW30931   2.518   3.019   8.413 -0.2836 -0.2060  0.9815
 6433SOL    HW130932   2.461   2.990   8.485 -1.8273 -0.4191 -0.3176
 6433SOL    HW230933   2.590   3.072   8.445 -0.9002  0.9178  0.4920
 6434SOL     OW30934   3.552   1.171   4.297  0.2047  0.0496 -0.1311
 6434SOL    HW130935   3.524   1.260   4.314 -0.7313 -0.4088  0.7161
 6434SOL    HW230936   3.552   1.186   4.202 -0.3935  1.4555  0.0969
 6435SOL     OW30937   0.449   4.437   0.044 -0.2460  0.1111  0.1870
 6435SOL    HW130938   0.537   4.441   0.006  0.2644 -1.0135  1.2275
 6435SOL    HW230939   0.463   4.510   0.104  1.4987  0.0874 -0.1812
 6436SOL     OW30940   4.594   2.823   3.916 -0.1220  0.2437 -0.0929
 6436SOL    HW130941   4.679   2.802   3.955  0.2173  1.8175  0.0035
 6436SOL    HW230942   4.567   2.733   3.898  1.3637 -0.6197  1.9406
 6437SOL     OW30943   4.198   2.593   6.467 -0.1946  0.0633  0.0060
 6437SOL    HW130944   4.150   2.569   6.546  1.7595 -3.1209  0.2261
 6437SOL    HW230945   4.126   2.593   6.404 -1.5156 -0.1693  1.5283
 6438SOL     OW30946   0.631   4.499   5.764 -0.6253  0.3221  0.2372
 6438SOL    HW130947   0.608   4.523   5.854  1.8119  1.2461  0.6139
 6438SOL    HW230948   0.603   4.408   5.765 -1.2329  0.5009 -0.9514
 6439SOL     OW30949   3.217   1.155  13.626  0.1753 -0.0983 -0.3092
 6439SOL    HW130950   3.270   1.211  13.569 -1.3845 -0.0487 -1.7129
 6439SOL    HW230951   3.269   1.075  13.619 -0.8308 -0.6133 -1.8544
 6440SOL     OW30952   3.220   2.545   3.542  0.0735 -0.0163  0.8066
 6440SOL    HW130953   3.249   2.531   3.452 -4.1171 -0.4648 -0.4456
 6440SOL    HW230954   3.297   2.520   3.594 -0.5690 -1.3219  1.1369
 6441SOL     OW30955   0.356   2.617  14.322  0.7758  0.6322 -0.3086
 6441SOL    HW130956   0.375   2.690  14.381 -1.6925  0.0691  1.1910
 6441SOL    HW230957   0.423   2.555  14.352 -1.5920 -0.7672  2.0871
 6442SOL     OW30958   0.707   3.410   5.585 -0.0734  0.6390  0.6322
 6442SOL    HW130959   0.623   3.418   5.539 -0.0518 -2.5933  0.0201
 6442SOL    HW230960   0.742   3.326   5.555 -0.6776  0.1241  1.3686
 6443SOL     OW30961   3.788   3.728   2.141  0.0691 -0.0529  0.3880
 6443SOL    HW130962   3.826   3.643   2.162  2.4668  1.3541  1.8006
 6443SOL    HW230963   3.820   3.739   2.052 -0.5026  1.3139  0.3545
 6444SOL     OW30964   0.581   2.097   7.884  0.4562  0.2164  0.5024
 6444SOL    HW130965   0.623   2.046   7.953 -1.0976 -1.3960  0.2641
 6444SOL    HW230966   0.557   2.028   7.822  0.2778  1.7450 -1.1453
 6445SOL     OW30967   3.852   4.387   9.750  0.2690  0.3165 -0.0678
 6445SOL    HW130968   3.829   4.477   9.730  0.4190  0.4076  0.1778
 6445SOL    HW230969   3.899   4.400   9.832  2.4295 -1.6544 -0.9840
 6446SOL     OW30970   4.214   3.792  15.233 -0.5895 -0.0567  0.0839
 6446SOL    HW130971   4.140   3.848  15.212 -1.1826 -2.6236 -4.8751
 6446SOL    HW230972   4.254   3.774  15.147  0.3525  0.9328  0.3231
 6447SOL     OW30973   2.997   1.876  13.662 -0.2552  0.2060  0.4470
 6447SOL    HW130974   3.033   1.954  13.705 -2.0648  1.0111  0.4954
 6447SOL    HW230975   3.013   1.813  13.732 -1.2753 -0.5278  0.0134
 6448SOL     OW30976   3.976   4.025   1.069 -0.2734  0.2557  0.6692
 6448SOL    HW130977   3.987   4.075   0.988 -0.5082 -0.9515 -0.1071
 6448SOL    HW230978   3.882   4.034   1.088 -0.1840 -0.6264  1.5180
 6449SOL     OW30979   4.366   2.458   7.106 -0.4068 -0.3088 -0.2428
 6449SOL    HW130980   4.453   2.495   7.090  0.0382 -0.7042  1.2442
 6449SOL    HW230981   4.383   2.365   7.124 -2.9514 -0.9223 -0.9370
 6450SOL     OW30982   4.692   3.956   3.027 -0.1260 -0.1936 -0.8167
 6450SOL    HW130983   4.680   3.985   3.118 -1.3430 -0.2651 -0.9569
 6450SOL    HW230984   0.027   4.014   2.991  0.7264 -0.5327  0.1984
 6451SOL     OW30985   4.210   0.411   5.595  0.3783  0.3921 -0.1765
 6451SOL    HW130986   4.237   0.438   5.683 -1.9035  2.7712 -0.1946
 6451SOL    HW230987   4.276   0.441   5.533  1.1765 -0.2121  0.3756
 6452SOL     OW30988   0.683   0.802   7.635  0.1073 -0.5075 -0.0037
 6452SOL    HW130989   0.648   0.717   7.605 -0.2814  0.3472 -1.9974
 6452SOL    HW230990   0.774   0.782   7.653 -0.8136 -3.8903  0.9680
 6453SOL     OW30991   1.829   2.165   5.276  0.5334  0.2853  0.4615
 6453SOL    HW130992   1.770   2.171   5.201  0.3037 -1.3216  0.5170
 6453SOL    HW230993   1.772   2.127   5.344 -0.3549  0.2204 -0.3304
 6454SOL     OW30994   1.581   2.404   7.625  0.6508  0.0165  0.3943
 6454SOL    HW130995   1.551   2.490   7.655  2.7632  0.4262  1.2980
 6454SOL    HW230996   1.600   2.355   7.704 -0.7785 -2.9496 -1.1194
 6455SOL     OW30997   0.926   4.691   6.409 -0.5559 -0.4256  0.1340
 6455SOL    HW130998   0.878   0.043   6.404 -1.5530 -1.1202 -2.0993
 6455SOL    HW230999   0.875   4.622   6.452 -1.7498  1.3037  1.4862
 6456SOL     OW31000   3.339   3.231   6.074  0.5172 -0.4073 -0.0334
 6456SOL    HW131001   3.256   3.195   6.107 -0.0136  0.2369 -0.6613
 6456SOL    HW231002   3.356   3.289   6.148 -1.0120 -0.7730  0.6092
 6457SOL     OW31003   0.055   0.046   9.259  0.0434  0.5537  0.4435
 6457SOL    HW131004   0.057   0.088   9.345 -1.2908 -1.4167  1.4428
 6457SOL    HW231005   0.135   4.724   9.268 -0.5018 -0.6995 -2.0110
 6458SOL     OW31006   0.791   2.381   6.513 -0.1588  0.0092 -0.2658
 6458SOL    HW131007   0.798   2.336   6.429  0.5361  0.8403 -0.6626
 6458SOL    HW231008   0.702   2.414   6.506  0.6713  2.6378  1.3905
 6459SOL     OW31009   1.508   2.677   7.389  0.2315 -0.2695 -0.0984
 6459SOL    HW131010   1.562   2.712   7.318 -0.9699  0.2187 -0.7704
 6459SOL    HW231011   1.510   2.584   7.364 -2.1483 -0.1144 -0.8776
 6460SOL     OW31012   1.342   0.361   6.887 -0.2703 -0.5270  0.1629
 6460SOL    HW131013   1.434   0.384   6.900 -0.4018  0.7506 -1.2001
 6460SOL    HW231014   1.348   0.318   6.801 -2.0185  1.6588 -1.0560
 6461SOL     OW31015   3.312   1.719   0.314  0.2974  0.0969 -0.2338
 6461SOL    HW131016   3.250   1.787   0.290  0.4620  0.5205  0.5266
 6461SOL    HW231017   3.250   1.646   0.303 -0.1646 -0.0986  3.6544
 6462SOL     OW31018   0.231   2.460   5.667  0.5946 -0.1755 -0.2228
 6462SOL    HW131019   0.271   2.540   5.701 -0.0730 -0.2529  0.7243
 6462SOL    HW231020   0.244   2.465   5.572  1.3422  1.0118 -0.0567
 6463SOL     OW31021   2.054   0.795   4.551 -0.7899 -0.3538 -0.2781
 6463SOL    HW131022   2.014   0.715   4.516 -2.6679  1.3616 -2.0587
 6463SOL    HW231023   2.103   0.745   4.616 -1.9943  0.9511  1.6136
 6464SOL     OW31024   1.695   2.924   5.218  0.0953  0.2306  0.4444
 6464SOL    HW131025   1.689   3.019   5.207 -0.5780 -0.0220 -1.4435
 6464SOL    HW231026   1.672   2.885   5.133  0.0218 -0.4018  0.7575
 6465SOL     OW31027   3.268   0.735   4.813  0.1128 -0.4901 -0.0089
 6465SOL    HW131028   3.362   0.747   4.820  0.2199 -1.9954  1.1373
 6465SOL    HW231029   3.241   0.810   4.760  0.3693  0.0185  0.5730
 6466SOL     OW31030   1.916   2.875  12.764  0.0530 -0.2892  0.2437
 6466SOL    HW131031   1.979   2.817  12.808 -0.1364  0.1142  1.0469
 6466SOL    HW231032   1.832   2.834  12.784  0.4287 -0.8110  0.7605
 6467SOL     OW31033   4.061   1.477   9.714 -0.1760 -0.1501  0.6606
 6467SOL    HW131034   4.133   1.473   9.650  1.1323 -2.1911  2.2488
 6467SOL    HW231035   4.111   1.464   9.794 -0.8097 -2.1487  0.7285
 6468SOL     OW31036   1.102   1.290   4.887  0.5893  0.0992  0.0097
 6468SOL    HW131037   1.185   1.338   4.898 -0.1416  0.9984  1.6123
 6468SOL    HW231038   1.108   1.218   4.949 -1.6747  0.0969  0.2239
 6469SOL     OW31039   3.534   2.679   8.250 -0.2480  0.8058 -0.6679
 6469SOL    HW131040   3.563   2.654   8.338  0.0353  0.1706 -0.9434
 6469SOL    HW231041   3.608   2.721   8.209  1.0023  0.5278  1.2841
 6470SOL     OW31042   0.761   3.659  17.630  0.1594 -0.0868  1.1992
 6470SOL    HW131043   0.814   3.613  17.565  0.2922  0.5117  0.8838
 6470SOL    HW231044   0.679   3.612  17.616  0.2599  0.1094 -0.0172
 6471SOL     OW31045   1.153   0.341   6.195 -0.2069 -0.0351  0.2656
 6471SOL    HW131046   1.090   0.279   6.231 -0.4430  0.1095  0.1029
 6471SOL    HW231047   1.134   0.344   6.102  2.0796 -0.8573 -0.2378
 6472SOL     OW31048   1.562   3.091   1.409  0.1170 -0.2838 -0.2765
 6472SOL    HW131049   1.479   3.133   1.430  0.9665  0.4493  1.5796
 6472SOL    HW231050   1.556   3.088   1.313 -1.3888 -0.0187 -0.1883
 6473SOL     OW31051   2.602   3.242   5.866 -0.1193  0.1121  0.1062
 6473SOL    HW131052   2.635   3.270   5.952 -1.2696 -0.9646  0.9036
 6473SOL    HW231053   2.673   3.210   5.812  0.0660  0.5764  0.0770
 6474SOL     OW31054   2.430   3.700   5.404 -0.3041  0.2029  0.2499
 6474SOL    HW131055   2.347   3.716   5.360 -0.4651  2.3776  1.3896
 6474SOL    HW231056   2.438   3.785   5.447 -0.9985  1.5132 -2.2156
 6475SOL     OW31057   1.188   3.812   3.383 -0.2707  0.2522 -0.1294
 6475SOL    HW131058   1.271   3.847   3.351 -0.8451  1.3448 -0.4211
 6475SOL    HW231059   1.170   3.726   3.346 -2.1375  1.3876 -1.8517
 6476SOL     OW31060   4.474   0.638  15.032 -0.0006  0.3940  0.2450
 6476SOL    HW131061   4.534   0.565  15.016  0.3092  0.7433 -0.1918
 6476SOL    HW231062   4.394   0.590  15.012  0.0549  0.2225  0.4421
 6477SOL     OW31063   2.631   3.423  14.355 -0.1566 -0.1740  0.1634
 6477SOL    HW131064   2.724   3.412  14.374  0.0368  1.6264  0.2692
 6477SOL    HW231065   2.649   3.477  14.278 -0.1805  0.7408  0.7995
 6478SOL     OW31066   1.954   1.233  11.321  0.0893 -0.0600 -0.3390
 6478SOL    HW131067   1.998   1.232  11.406 -0.0559 -1.7572 -0.2890
 6478SOL    HW231068   1.862   1.211  11.334  0.5662 -1.1194  1.1996
 6479SOL     OW31069   0.086   3.939  13.518  0.2048 -0.0519  0.1542
 6479SOL    HW131070   0.039   3.963  13.597  1.9864  0.4706  1.0510
 6479SOL    HW231071   0.090   4.030  13.488  2.5191 -0.8635 -2.0929
 6480SOL     OW31072   0.016   2.335   5.540  0.0150 -0.2587 -0.1975
 6480SOL    HW131073   0.082   2.267   5.536 -1.4842 -1.7565  0.4316
 6480SOL    HW231074   0.071   2.403   5.579  0.9685 -0.9431 -0.3567
 6481SOL     OW31075   0.613   4.675   3.029 -0.0904 -0.4560 -0.2247
 6481SOL    HW131076   0.691   4.620   3.043  1.5274  2.4111  1.9741
 6481SOL    HW231077   0.660   0.026   3.039  1.0724 -1.3128  1.5366
 6482SOL     OW31078   1.516   0.529   3.675  0.4665  0.0989 -0.5226
 6482SOL    HW131079   1.526   0.593   3.746 -0.2099 -1.6526  1.1353
 6482SOL    HW231080   1.593   0.547   3.621  1.3650 -1.2849  0.3271
 6483SOL     OW31081   0.029   1.907  10.991  0.1206 -0.2312  0.2221
 6483SOL    HW131082   0.082   1.887  11.068  0.6929 -0.6549 -0.2800
 6483SOL    HW231083   0.020   1.824  10.945 -1.9698  1.2485 -2.0200
 6484SOL     OW31084   1.878   2.804   8.179  0.1697  0.5167  0.3837
 6484SOL    HW131085   1.843   2.855   8.252 -2.0725  1.4424 -1.3337
 6484SOL    HW231086   1.880   2.714   8.210  0.4291  0.8413  1.3319
 6485SOL     OW31087   1.946   1.809   6.900 -0.7076  0.0007  0.2832
 6485SOL    HW131088   1.868   1.784   6.951 -1.9031  2.3132 -0.3985
 6485SOL    HW231089   1.934   1.903   6.890 -0.3513  0.1652  1.4031
 6486SOL     OW31090   2.011   2.292   3.464 -0.0830 -0.0354  0.2481
 6486SOL    HW131091   2.053   2.374   3.439 -1.2116  0.3199 -0.5158
 6486SOL    HW231092   1.963   2.321   3.541 -2.4102 -1.4481 -0.6574
 6487SOL     OW31093   1.084   0.024   3.529  0.1851  0.2542  0.2537
 6487SOL    HW131094   1.164   4.714   3.496 -0.1153 -1.0625  1.1518
 6487SOL    HW231095   1.112   0.103   3.573  0.5907 -0.9202  2.0986
 6488SOL     OW31096   3.935   4.072   2.409  0.1783 -0.1955  0.6093
 6488SOL    HW131097   3.872   4.075   2.481 -0.0287  1.7364  0.3470
 6488SOL    HW231098   3.909   4.150   2.361  0.2845 -0.4068  0.2084
 6489SOL     OW31099   1.012   1.703   5.009  0.0786 -0.1263  0.2132
 6489SOL    HW131100   0.974   1.625   4.968  0.7443 -0.5248  0.3604
 6489SOL    HW231101   0.984   1.774   4.951  1.2734 -0.3004 -0.5824
 6490SOL     OW31102   0.587   0.174   7.863 -0.1214 -0.5634  0.2217
 6490SOL    HW131103   0.629   0.191   7.947 -0.1192 -0.6387  0.2358
 6490SOL    HW231104   0.576   0.262   7.826 -1.0597 -0.9225 -0.3716
 6491SOL     OW31105   1.760   3.121   9.969 -0.2002 -0.0554 -0.1637
 6491SOL    HW131106   1.772   3.208   9.930  2.2956 -0.4320 -0.2461
 6491SOL    HW231107   1.666   3.112   9.986 -0.0451 -1.8238 -0.2429
 6492SOL     OW31108   3.487   3.655  10.676 -1.1392 -0.6204 -0.3971
 6492SOL    HW131109   3.464   3.711  10.750  3.4601  1.0604 -0.2234
 6492SOL    HW231110   3.577   3.633  10.702 -1.1741  0.8535  1.0022
 6493SOL     OW31111   4.173   3.189   4.509 -0.6192  0.1995  0.6503
 6493SOL    HW131112   4.169   3.098   4.538  1.4204  0.5785  2.1688
 6493SOL    HW231113   4.177   3.173   4.415  0.8582 -1.1810  0.9473
 6494SOL     OW31114   1.997   1.936   5.163 -0.2471 -0.0937 -0.0389
 6494SOL    HW131115   1.928   1.983   5.211  0.2630  0.5938  0.0359
 6494SOL    HW231116   2.076   1.980   5.196  0.4956 -1.3138 -0.2054
 6495SOL     OW31117   1.833   2.023   6.620 -0.0326 -0.5978 -0.0275
 6495SOL    HW131118   1.776   1.962   6.574 -1.7259  0.2151  0.9931
 6495SOL    HW231119   1.806   2.101   6.571  2.6520  0.8232  0.7072
 6496SOL     OW31120   0.199   2.186   6.063  0.1758  0.2408  0.6899
 6496SOL    HW131121   0.185   2.209   6.154  2.0029  1.3965  0.6754
 6496SOL    HW231122   0.294   2.183   6.068  0.0681 -1.2258  1.7438
 6497SOL     OW31123   3.685   1.813  14.409 -0.4186  0.5293 -0.7354
 6497SOL    HW131124   3.609   1.777  14.363 -0.8289 -0.7322  0.9385
 6497SOL    HW231125   3.655   1.827  14.499 -1.2632  1.1620 -1.1084
 6498SOL     OW31126   0.847   0.203   9.671  0.0851 -0.0197 -0.3618
 6498SOL    HW131127   0.855   0.115   9.709  1.1753  1.3945  2.6897
 6498SOL    HW231128   0.771   0.193   9.614  0.7059  1.5340 -1.4644
 6499SOL     OW31129   0.370   3.496  14.831 -0.4225 -1.1454 -0.2498
 6499SOL    HW131130   0.341   3.451  14.910 -3.0045 -3.1442 -2.3264
 6499SOL    HW231131   0.284   3.518  14.796 -1.0616 -0.6942  1.6192
 6500SOL     OW31132   1.066   1.300   9.851 -0.6217  0.2006  0.3328
 6500SOL    HW131133   1.141   1.251   9.817  0.2660  0.7403  1.4887
 6500SOL    HW231134   1.112   1.351   9.918  0.5260  1.1851 -1.1930
 6501SOL     OW31135   4.379   3.645   7.436 -0.1695  0.1529 -0.5173
 6501SOL    HW131136   4.301   3.625   7.489 -0.4198  1.8197 -0.2406
 6501SOL    HW231137   4.373   3.740   7.426  0.6949  0.4194  1.4195
 6502SOL     OW31138   4.409   2.784   7.681 -0.5811 -0.0274 -0.1423
 6502SOL    HW131139   4.403   2.879   7.686 -0.4457 -0.1281  2.0640
 6502SOL    HW231140   4.461   2.783   7.601 -0.2972 -3.4062  0.0648
 6503SOL     OW31141   4.614   2.617   8.746  0.4457 -0.1253 -0.0198
 6503SOL    HW131142   4.587   2.534   8.786 -0.2217  0.5166  0.8711
 6503SOL    HW231143   4.701   2.595   8.712 -0.3956 -2.3776 -0.7033
 6504SOL     OW31144   0.894   2.927  11.938 -0.3661 -0.2162 -0.2502
 6504SOL    HW131145   0.949   2.990  11.985 -0.4049 -1.6137  1.6645
 6504SOL    HW231146   0.957   2.882  11.883 -0.0506 -0.2931  0.1729
 6505SOL     OW31147   4.709   1.475   3.464 -0.3125  0.5450  0.6637
 6505SOL    HW131148   4.619   1.475   3.497 -0.9757  1.4222 -1.1337
 6505SOL    HW231149   0.031   1.469   3.543  1.6201 -1.9327 -0.8275
 6506SOL     OW31150   0.339   2.468  17.702  0.6016 -0.2419  0.1086
 6506SOL    HW131151   0.300   2.552  17.678 -1.3974 -1.3667 -0.5725
 6506SOL    HW231152   0.302   2.423  17.625 -1.3743  0.7957  0.4571
 6507SOL     OW31153   1.032   3.721   7.958  0.8096 -0.2082  0.0467
 6507SOL    HW131154   1.121   3.721   7.993  0.7268  1.6124  0.2464
 6507SOL    HW231155   0.986   3.724   8.042 -0.7719 -1.4312 -0.7894
 6508SOL     OW31156   0.470   0.633   9.849 -0.0361  0.0917 -0.4668
 6508SOL    HW131157   0.534   0.668   9.787  1.1801 -1.4537 -0.0996
 6508SOL    HW231158   0.517   0.556   9.881 -0.6189 -0.3790 -0.7459
 6509SOL     OW31159   0.751   1.481   6.052  0.1995  0.4218 -0.0268
 6509SOL    HW131160   0.744   1.387   6.039  2.6422  0.4313 -1.4688
 6509SOL    HW231161   0.666   1.500   6.012 -0.8145 -2.1553  0.9233
 6510SOL     OW31162   2.384   0.311   6.440  0.0148 -0.2051 -0.1708
 6510SOL    HW131163   2.318   0.242   6.439 -0.2590  0.1239 -3.3985
 6510SOL    HW231164   2.414   0.309   6.531 -2.1052  2.0940  0.5648
 6511SOL     OW31165   1.450   1.890   4.532 -0.8481 -0.1833 -0.5074
 6511SOL    HW131166   1.387   1.894   4.603 -0.6225 -0.9288 -0.2643
 6511SOL    HW231167   1.417   1.959   4.475 -2.7988  1.2285  2.3267
 6512SOL     OW31168   3.557   3.524   7.594 -0.0435  0.3231  0.3904
 6512SOL    HW131169   3.541   3.616   7.614  1.0057  0.4700  0.5968
 6512SOL    HW231170   3.473   3.499   7.557 -1.1342  1.9750  1.7919
 6513SOL     OW31171   4.598   2.984   3.665  0.5413  0.0421  0.4645
 6513SOL    HW131172   4.601   2.961   3.758 -1.9192  0.2167  0.5938
 6513SOL    HW231173   4.604   3.080   3.668 -4.7469  0.4753 -3.1181
 6514SOL     OW31174   4.688   3.167   6.172 -0.2563 -0.1002  0.3871
 6514SOL    HW131175   4.715   3.079   6.198  0.7851  0.2839  0.5740
 6514SOL    HW231176   4.716   3.220   6.246  0.8589  0.6996 -0.6122
 6515SOL     OW31177   3.023   4.560  17.003 -0.3513 -0.1791 -0.2986
 6515SOL    HW131178   3.077   4.601  16.935  0.3489 -2.6890 -1.2838
 6515SOL    HW231179   3.046   4.599  17.087 -1.0696 -1.8022  0.6413
 6516SOL     OW31180   4.349   3.097   6.534  0.0694 -0.6025  0.0394
 6516SOL    HW131181   4.398   3.025   6.495  0.7308  1.2136 -2.4443
 6516SOL    HW231182   4.354   3.091   6.630 -1.9748 -0.5754  0.1549
 6517SOL     OW31183   0.226   2.850   5.411 -0.8995 -0.3027 -0.7198
 6517SOL    HW131184   0.218   2.945   5.417  1.1468 -0.1836 -0.0035
 6517SOL    HW231185   0.158   2.830   5.476  0.1518  0.0535  0.4873
 6518SOL     OW31186   1.490   0.192   9.611 -0.0709 -0.1614 -0.3989
 6518SOL    HW131187   1.575   0.155   9.633 -0.4608 -0.6188  0.3534
 6518SOL    HW231188   1.441   0.139   9.675  0.1435  1.5438  1.1845
 6519SOL     OW31189   2.483   0.704  14.881 -0.6193  0.4309  0.9389
 6519SOL    HW131190   2.408   0.710  14.821 -1.3221  2.4220  1.9846
 6519SOL    HW231191   2.450   0.730  14.967  1.4014 -0.2488  1.9115
 6520SOL     OW31192   3.072   0.832   9.049 -0.2205 -0.0565  0.2635
 6520SOL    HW131193   2.981   0.818   9.022 -0.6194  0.8305  1.1937
 6520SOL    HW231194   3.057   0.925   9.061  1.8676  0.4374 -0.9479
 6521SOL     OW31195   1.339   3.810   4.585  0.0971  0.3211  0.0939
 6521SOL    HW131196   1.388   3.837   4.662  1.4828  3.4804 -1.9193
 6521SOL    HW231197   1.341   3.714   4.584  2.7561  0.3685  0.2199
 6522SOL     OW31198   1.620   1.818   7.553  0.0086 -0.5018  0.2507
 6522SOL    HW131199   1.570   1.751   7.506  1.1277 -1.6524  0.7047
 6522SOL    HW231200   1.575   1.821   7.638 -0.1426  0.1839  0.1399
 6523SOL     OW31201   1.002   4.076   5.535  0.4134 -0.3729 -0.2807
 6523SOL    HW131202   1.018   3.986   5.506 -3.6982 -1.1455 -0.0948
 6523SOL    HW231203   1.077   4.123   5.499 -1.2967  1.3782 -1.5995
 6524SOL     OW31204   3.954   3.758   5.161  0.6604  0.3114  0.1178
 6524SOL    HW131205   3.896   3.690   5.126 -1.5153  0.9601  2.5005
 6524SOL    HW231206   3.931   3.770   5.253  2.9643 -0.5918  0.8059
 6525SOL     OW31207   1.854   0.374   3.358 -0.5062  0.0703 -0.1115
 6525SOL    HW131208   1.928   0.382   3.297 -1.4529  0.7486 -1.1722
 6525SOL    HW231209   1.796   0.441   3.321  2.5933  3.7716  1.7912
 6526SOL     OW31210   3.705   4.433   5.110 -0.1789 -0.2710 -0.3171
 6526SOL    HW131211   3.751   4.502   5.157  0.6313  0.2272 -1.8617
 6526SOL    HW231212   3.757   4.355   5.127  1.4574  0.5772 -1.4685
 6527SOL     OW31213   2.759   4.141   4.473  0.6851  0.5450 -0.2943
 6527SOL    HW131214   2.698   4.109   4.539 -0.7363 -1.1040 -2.4155
 6527SOL    HW231215   2.777   4.224   4.516 -0.8948  2.1806 -2.8304
 6528SOL     OW31216   2.939   0.542   2.018 -0.3824  0.5933  0.3833
 6528SOL    HW131217   2.887   0.539   1.938  0.3783  0.4215 -0.0996
 6528SOL    HW231218   3.022   0.497   2.005  0.2647  1.8049  0.3607
 6529SOL     OW31219   4.276   1.137   1.938 -0.0716 -0.5118  0.4394
 6529SOL    HW131220   4.240   1.225   1.944 -0.2930 -0.6351  0.9154
 6529SOL    HW231221   4.318   1.135   2.024  0.2018 -1.1611  0.2929
 6530SOL     OW31222   2.381   4.678  14.415 -0.2457  0.0765 -0.5621
 6530SOL    HW131223   2.322   4.647  14.345 -1.3606 -0.6211  0.6986
 6530SOL    HW231224   2.445   4.607  14.425 -1.9773 -1.7488 -2.3104
 6531SOL     OW31225   3.763   1.028   2.016  0.3014 -0.5851  0.4935
 6531SOL    HW131226   3.742   1.022   2.110 -1.1496 -0.4916  0.1794
 6531SOL    HW231227   3.776   1.122   2.001 -2.0784  0.0541  2.3855
 6532SOL     OW31228   2.472   4.088   2.222 -0.1632  0.3042  0.1177
 6532SOL    HW131229   2.383   4.106   2.192 -0.3577  1.3227  1.3281
 6532SOL    HW231230   2.492   4.160   2.282 -1.2931  2.2618 -1.8375
 6533SOL     OW31231   0.970   2.657   1.981 -0.7558  0.0496  0.2461
 6533SOL    HW131232   0.998   2.597   1.912 -4.1358  0.0889 -1.1880
 6533SOL    HW231233   1.051   2.654   2.032  0.8624  1.2759 -2.2243
 6534SOL     OW31234   0.567   2.295   7.579 -0.4023 -0.3170 -0.0044
 6534SOL    HW131235   0.530   2.365   7.632  2.8335  1.3954 -0.0147
 6534SOL    HW231236   0.507   2.223   7.597 -0.0333 -0.3436  1.1166
 6535SOL     OW31237   2.905   2.579   4.190 -0.1324 -0.5704  0.0688
 6535SOL    HW131238   2.891   2.486   4.171 -3.5686  0.0933 -0.5805
 6535SOL    HW231239   2.911   2.572   4.285  0.0890  0.2774  0.1149
 6536SOL     OW31240   0.894   2.255  15.923 -0.6547  1.6571 -0.0492
 6536SOL    HW131241   0.897   2.348  15.942 -0.7357  1.7181 -0.3360
 6536SOL    HW231242   0.904   2.208  16.006 -1.4182  0.2308 -0.7644
 6537SOL     OW31243   3.082   3.190   1.499  0.1322 -0.1571 -0.3473
 6537SOL    HW131244   3.044   3.167   1.415  3.4259 -1.4021 -1.5114
 6537SOL    HW231245   3.162   3.242   1.491  0.4684 -0.6194  0.0161
 6538SOL     OW31246   4.150   1.973   2.122  0.4713 -0.2704 -0.3601
 6538SOL    HW131247   4.115   1.885   2.134  0.9220 -0.4282 -0.2121
 6538SOL    HW231248   4.077   2.011   2.072  0.7399  0.8184  0.0779
 6539SOL     OW31249   3.721   2.701   6.765 -0.2343  0.5766 -0.2654
 6539SOL    HW131250   3.704   2.792   6.741  2.5893  0.5958 -2.1761
 6539SOL    HW231251   3.643   2.647   6.754 -0.2893  0.4477  0.7307
 6540SOL     OW31252   2.878   1.836   1.587 -0.5208  0.4860 -0.1711
 6540SOL    HW131253   2.817   1.907   1.606  0.3296  0.7776  1.4229
 6540SOL    HW231254   2.904   1.853   1.496  0.1745 -2.6984 -0.5647
 6541SOL     OW31255   2.112   1.650   2.890 -0.0636  0.2731 -0.3285
 6541SOL    HW131256   2.103   1.701   2.971  1.0730 -0.3347  0.1953
 6541SOL    HW231257   2.195   1.602   2.897 -0.6997 -0.9203 -0.9539
 6542SOL     OW31258   2.863   3.488   6.235 -0.5071  0.2952  0.2196
 6542SOL    HW131259   2.912   3.570   6.224 -1.7605  1.0647  0.4026
 6542SOL    HW231260   2.919   3.423   6.192 -2.2042  0.7573 -2.6619
 6543SOL     OW31261   1.658   2.519   3.578 -0.4010  0.1952 -0.1380
 6543SOL    HW131262   1.744   2.482   3.601  1.2004  2.7902 -1.9813
 6543SOL    HW231263   1.604   2.440   3.583  1.3249 -0.9636  0.3675
 6544SOL     OW31264   4.139   1.134   0.022  0.3017  0.3830 -0.3861
 6544SOL    HW131265   4.096   1.132  17.661  3.0562  0.5355 -1.7610
 6544SOL    HW231266   4.114   1.219   0.057  2.4673  0.2246  1.5521
 6545SOL     OW31267   0.090   3.022  10.087 -0.0100 -0.4379 -0.1525
 6545SOL    HW131268   0.037   3.050  10.161  0.6086 -0.8794  0.4580
 6545SOL    HW231269   0.063   3.084  10.019  2.0130  0.0266 -0.5529
 6546SOL     OW31270   4.150   1.469  15.767  0.1638 -0.3495 -0.1850
 6546SOL    HW131271   4.137   1.405  15.697  2.6356 -0.3474 -0.6184
 6546SOL    HW231272   4.125   1.546  15.714 -0.0303 -1.0295 -1.0909
 6547SOL     OW31273   0.965   2.574   5.906  0.1347  0.5394 -0.2174
 6547SOL    HW131274   0.927   2.634   5.970 -0.3206  0.8453 -0.7750
 6547SOL    HW231275   0.980   2.633   5.832 -0.0640  1.4366  0.4706
 6548SOL     OW31276   0.692   0.022   2.733 -0.5421  0.7135 -0.3759
 6548SOL    HW131277   0.706   4.660   2.749 -1.8604  1.0929  2.9944
 6548SOL    HW231278   0.764   0.054   2.679 -0.8704  0.3911 -1.0065
 6549SOL     OW31279   0.446   3.190   7.199 -0.0082  0.0039  0.0806
 6549SOL    HW131280   0.405   3.266   7.158 -1.2449  0.5509  2.3467
 6549SOL    HW231281   0.381   3.165   7.265 -0.2368  2.5938  0.8044
 6550SOL     OW31282   2.459   3.814  17.393  0.1393  0.1970  0.2037
 6550SOL    HW131283   2.390   3.824  17.327 -1.2671  0.8767  1.7797
 6550SOL    HW231284   2.538   3.832  17.343  0.7033  3.3142  2.2501
 6551SOL     OW31285   4.082   1.079   3.976  0.0665  0.0402 -0.3145
 6551SOL    HW131286   4.122   1.040   3.899 -1.8981 -0.6421 -0.9908
 6551SOL    HW231287   4.125   1.164   3.986 -1.5612  0.9795 -1.2455
 6552SOL     OW31288   4.673   0.053  13.894  0.4529  0.5902  0.5269
 6552SOL    HW131289   4.643   4.708  13.845 -0.3771  1.5170 -0.4072
 6552SOL    HW231290   4.589   0.078  13.934 -0.2474  0.4711 -0.8810
 6553SOL     OW31291   0.538   2.159   5.767 -0.1829  0.5647  0.1829
 6553SOL    HW131292   0.627   2.126   5.775 -0.0531  1.2387  1.5090
 6553SOL    HW231293   0.536   2.188   5.676  0.8569 -1.0982 -0.3758
 6554SOL     OW31294   3.353   0.998   3.928  0.1581  0.2992 -0.0931
 6554SOL    HW131295   3.339   0.957   3.843 -0.5138  0.9128 -0.2716
 6554SOL    HW231296   3.314   1.083   3.907  1.2724  1.6344  3.1836
 6555SOL     OW31297   2.068   2.163  14.937 -0.3678 -0.3959  0.3271
 6555SOL    HW131298   1.985   2.192  14.899 -0.6509 -2.7537 -0.8600
 6555SOL    HW231299   2.117   2.133  14.861  0.9281  1.9337  0.2382
 6556SOL     OW31300   3.851   1.038   2.881  0.5805  0.0204  0.5639
 6556SOL    HW131301   3.784   0.978   2.914  0.6924 -0.4023  0.0330
 6556SOL    HW231302   3.799   1.118   2.883  0.3628 -0.1665  2.1374
 6557SOL     OW31303   2.232   3.844   7.939 -0.6596 -0.2899 -0.4789
 6557SOL    HW131304   2.237   3.934   7.906 -0.4051  0.6677  2.1783
 6557SOL    HW231305   2.325   3.825   7.927 -0.4884 -0.0572  0.5159
 6558SOL     OW31306   1.712   1.040   7.477  0.3767  0.5867  0.4377
 6558SOL    HW131307   1.712   1.131   7.449  2.3657  1.3240  2.8854
 6558SOL    HW231308   1.647   1.045   7.548 -1.3568 -1.5907 -0.9803
 6559SOL     OW31309   2.937   3.625   4.260  0.5654  0.3766  0.3434
 6559SOL    HW131310   2.897   3.679   4.327 -0.1556 -0.7040  0.7855
 6559SOL    HW231311   3.012   3.682   4.242  0.7621  0.6827  2.1177
 6560SOL     OW31312   0.732   1.204   7.050  0.8600 -0.1280  0.3210
 6560SOL    HW131313   0.719   1.292   7.086  0.1115  0.4091 -1.2948
 6560SOL    HW231314   0.684   1.225   6.970 -1.5764 -1.1541  1.4789
 6561SOL     OW31315   0.994   2.684   7.356 -0.4473  0.3985  0.0844
 6561SOL    HW131316   1.009   2.778   7.360  2.5546 -0.1290  0.7087
 6561SOL    HW231317   1.077   2.654   7.392  0.0666  2.8003  0.9057
 6562SOL     OW31318   2.808   1.957  11.247  0.0339  0.7171 -0.4206
 6562SOL    HW131319   2.809   1.983  11.155 -1.2539  0.7247 -0.4252
 6562SOL    HW231320   2.891   1.909  11.251  1.4561  3.2888  1.2148
 6563SOL     OW31321   1.351   2.539   6.090  0.2433  0.1773  0.4824
 6563SOL    HW131322   1.281   2.575   6.145 -0.3101  0.1299 -0.1912
 6563SOL    HW231323   1.361   2.456   6.137 -0.7166 -0.9994 -1.4179
 6564SOL     OW31324   3.049   2.638   1.151 -0.2910  0.4636 -0.1766
 6564SOL    HW131325   3.027   2.643   1.058  0.0005  1.1927 -0.2035
 6564SOL    HW231326   2.976   2.686   1.190  0.5423  1.3699  0.2819
 6565SOL     OW31327   2.326   2.647   7.380 -0.3609  0.1879 -0.3870
 6565SOL    HW131328   2.415   2.617   7.359 -0.4016 -0.6667  0.6495
 6565SOL    HW231329   2.342   2.660   7.473 -0.5694 -1.2264 -0.1515
 6566SOL     OW31330   3.050   2.491   5.356 -0.2217 -0.5635 -0.0149
 6566SOL    HW131331   3.012   2.502   5.444  0.2830  0.8253  0.0401
 6566SOL    HW231332   3.036   2.583   5.330  1.5392 -0.3064 -0.0225
 6567SOL     OW31333   1.850   0.008   6.825 -0.0964  0.6506 -0.3637
 6567SOL    HW131334   1.873   4.721   6.734 -0.8005 -1.5777 -0.0724
 6567SOL    HW231335   1.776   0.067   6.812 -0.7390  0.0775  0.6826
 6568SOL     OW31336   1.757   3.180   0.203  0.4398 -0.0492  0.5755
 6568SOL    HW131337   1.818   3.219   0.140  0.7413  0.5613  1.2392
 6568SOL    HW231338   1.712   3.259   0.234 -1.2480 -2.8518  5.2470
 6569SOL     OW31339   4.578   2.720   3.548 -0.0588 -0.0380  0.1123
 6569SOL    HW131340   4.521   2.765   3.486 -1.2619  0.4618  1.5738
 6569SOL    HW231341   4.583   2.787   3.617 -1.7009 -0.3082  0.4929
 6570SOL     OW31342   2.949   4.600   7.978 -0.0343 -0.0641  0.6625
 6570SOL    HW131343   3.024   4.657   7.963  1.2617 -1.4850  1.7542
 6570SOL    HW231344   2.893   4.609   7.901  0.6146  0.6929  0.2816
 6571SOL     OW31345   0.819   1.588   3.495 -0.4757 -0.7613 -0.3455
 6571SOL    HW131346   0.735   1.599   3.452 -0.9154 -1.7945  0.2461
 6571SOL    HW231347   0.877   1.608   3.421 -2.6289  1.4994 -1.3933
 6572SOL     OW31348   2.775   2.980   9.194  0.3215 -0.4128 -0.2028
 6572SOL    HW131349   2.716   2.925   9.141 -1.5342  1.2863  0.1112
 6572SOL    HW231350   2.746   2.946   9.278  1.0196 -1.0484 -0.2177
 6573SOL     OW31351   2.985   1.976   7.657  0.2287 -0.0598 -0.8235
 6573SOL    HW131352   2.976   1.880   7.654  0.8580 -0.1169 -0.8516
 6573SOL    HW231353   3.045   1.994   7.730 -2.8896 -0.4670  1.8532
 6574SOL     OW31354   2.076   3.690   6.848  0.8178 -0.4208  0.1175
 6574SOL    HW131355   1.998   3.645   6.878 -0.4657  1.7818  0.1097
 6574SOL    HW231356   2.140   3.629   6.884  0.8628 -0.7396 -0.4987
 6575SOL     OW31357   2.921   1.420   8.265  0.6263 -0.4994 -0.2337
 6575SOL    HW131358   2.909   1.410   8.359 -1.2892 -0.5545 -0.4784
 6575SOL    HW231359   3.007   1.459   8.249 -0.2330  1.8013  0.7489
 6576SOL     OW31360   3.348   1.949   2.436 -0.4456  0.1483 -0.2140
 6576SOL    HW131361   3.278   1.894   2.400 -0.8256  0.5228 -0.0576
 6576SOL    HW231362   3.309   2.036   2.449  1.0141  0.5103  1.7010
 6577SOL     OW31363   0.127   2.528   8.641  0.0973  0.0806  0.0673
 6577SOL    HW131364   0.196   2.481   8.687  0.0579  1.8594  1.9200
 6577SOL    HW231365   0.124   2.475   8.561  0.0613 -0.3409  0.3489
 6578SOL     OW31366   1.771   1.476   4.104 -0.1553 -0.5976 -0.2989
 6578SOL    HW131367   1.683   1.507   4.085  0.7282  2.0388 -0.0360
 6578SOL    HW231368   1.775   1.511   4.193 -0.6642  1.0119 -0.9047
 6579SOL     OW31369   2.625   1.652   3.005 -0.2856 -0.9796  0.0624
 6579SOL    HW131370   2.606   1.560   3.024 -4.3133 -0.3764 -1.2044
 6579SOL    HW231371   2.681   1.650   2.927 -0.8530  0.2323 -0.3766
 6580SOL     OW31372   3.443   0.088   4.884  0.1335 -0.2300 -0.3977
 6580SOL    HW131373   3.400   0.129   4.809  0.2302  1.8273  0.6654
 6580SOL    HW231374   3.443   0.155   4.952  0.0726 -0.6216 -0.0128
 6581SOL     OW31375   3.499   1.088   2.669  0.1037 -0.3479  0.1261
 6581SOL    HW131376   3.524   1.137   2.591  1.3039 -0.5362  0.3836
 6581SOL    HW231377   3.415   1.054   2.638 -0.0117 -0.1257  0.2001
 6582SOL     OW31378   3.434   2.437   7.629  0.0736  0.7192 -0.3402
 6582SOL    HW131379   3.374   2.433   7.555  0.4988 -0.4613 -0.6301
 6582SOL    HW231380   3.435   2.348   7.664  0.3633  0.5101 -0.8653
 6583SOL     OW31381   0.892   2.482  10.132  0.0015  0.1762  0.1244
 6583SOL    HW131382   0.986   2.469  10.125  0.0749 -0.1135  1.5122
 6583SOL    HW231383   0.880   2.513  10.043  2.0960 -3.1239 -1.2761
 6584SOL     OW31384   4.049   3.911  15.561  0.5798  0.8134 -0.2171
 6584SOL    HW131385   4.095   3.984  15.604  0.8791  0.1021  0.6817
 6584SOL    HW231386   4.052   3.941  15.470 -1.4907  1.9595  0.0905
 6585SOL     OW31387   4.388   1.358  16.148 -1.0507  0.1025  0.4132
 6585SOL    HW131388   4.426   1.432  16.100 -1.6567  0.2432  0.1561
 6585SOL    HW231389   4.423   1.273  16.123 -1.9981 -0.1480 -0.0503
 6586SOL     OW31390   4.137   2.116   6.802 -0.3880  0.4142 -0.1773
 6586SOL    HW131391   4.153   2.183   6.869  0.8357 -0.5263  0.4625
 6586SOL    HW231392   4.224   2.080   6.784 -0.1314  0.1658  1.5615
 6587SOL     OW31393   2.993   2.414  15.716  0.1800 -0.3901 -0.1595
 6587SOL    HW131394   2.977   2.501  15.755  0.1709  0.5368 -2.2409
 6587SOL    HW231395   2.904   2.390  15.689 -0.6385 -0.3803  2.4800
 6588SOL     OW31396   3.970   4.346   4.525  0.5039  0.2460  0.1572
 6588SOL    HW131397   3.889   4.299   4.548 -0.4978  0.8855 -2.0378
 6588SOL    HW231398   4.035   4.276   4.526  0.4720  0.1874 -2.0825
 6589SOL     OW31399   1.264   3.431   6.340  0.2758 -0.1684  0.5037
 6589SOL    HW131400   1.193   3.415   6.402 -0.7071 -1.6865 -1.0095
 6589SOL    HW231401   1.293   3.519   6.363  0.2503  0.0944 -0.4866
 6590SOL     OW31402   2.871   3.431   8.136 -0.3479  0.0009  0.0553
 6590SOL    HW131403   2.896   3.432   8.229  0.4187 -0.9180 -0.1390
 6590SOL    HW231404   2.934   3.370   8.097 -0.0294  1.8062 -2.2508
 6591SOL     OW31405   1.247   1.499  11.544 -0.3418 -0.9505  0.0456
 6591SOL    HW131406   1.203   1.576  11.581  0.9175 -0.6748  0.9747
 6591SOL    HW231407   1.336   1.535  11.546 -1.7584  2.5067  1.0021
 6592SOL     OW31408   0.889   3.769  12.091  0.5291  0.8494 -0.3018
 6592SOL    HW131409   0.819   3.832  12.076 -0.9848 -0.9943 -0.9347
 6592SOL    HW231410   0.916   3.754  12.001  1.7745 -1.0285  0.3813
 6593SOL     OW31411   3.918   1.989   2.006  0.0876 -0.3531 -0.1147
 6593SOL    HW131412   3.878   2.015   1.924 -1.3103 -0.4431  0.5441
 6593SOL    HW231413   3.838   1.959   2.049  0.6416 -0.1168  1.0905
 6594SOL     OW31414   4.692   0.890   6.716 -0.8795  0.2466  0.6372
 6594SOL    HW131415   4.658   0.827   6.779 -1.1443  0.8211  1.0661
 6594SOL    HW231416   0.027   0.836   6.672  0.2946  2.5239 -0.4014
 6595SOL     OW31417   4.262   3.331   4.052  0.1375  0.5950 -0.3928
 6595SOL    HW131418   4.204   3.407   4.045 -2.1329 -0.9389  1.6872
 6595SOL    HW231419   4.256   3.293   3.964 -1.0422  0.0063 -0.0614
 6596SOL     OW31420   2.475   0.996   1.724 -0.4073  0.0391 -0.0427
 6596SOL    HW131421   2.440   1.085   1.720  0.2270  0.2786 -0.3430
 6596SOL    HW231422   2.438   0.957   1.645 -1.3792  1.0806 -0.0908
 6597SOL     OW31423   0.175   0.470   2.710 -0.3149  0.0791  0.2510
 6597SOL    HW131424   0.128   0.450   2.630 -3.1073 -0.8778  2.1280
 6597SOL    HW231425   0.124   0.541   2.749  0.0160 -0.0545  0.9386
 6598SOL     OW31426   1.548   3.871   8.796 -0.2012 -0.4520  0.4309
 6598SOL    HW131427   1.639   3.846   8.784 -0.4220 -0.8817 -0.3432
 6598SOL    HW231428   1.564   3.950   8.848  0.8325  0.8595 -1.8961
 6599SOL     OW31429   2.434   0.762   8.135  0.4058 -0.0538 -0.0370
 6599SOL    HW131430   2.529   0.751   8.137  0.4327  0.4365  1.0446
 6599SOL    HW231431   2.423   0.819   8.059  0.9953  0.8382  0.5587
 6600SOL     OW31432   2.433   2.355   8.527  0.1229 -0.3779  0.0272
 6600SOL    HW131433   2.384   2.397   8.599 -0.7459 -0.1180 -0.7124
 6600SOL    HW231434   2.400   2.394   8.446  0.4571  2.0774  1.0509
 6601SOL     OW31435   0.127   0.795   9.692  0.3016 -0.1360 -0.0245
 6601SOL    HW131436   0.108   0.889   9.694  1.6039  0.1320 -0.3857
 6601SOL    HW231437   0.219   0.794   9.719  0.5249 -0.5724 -0.8026
 6602SOL     OW31438   2.888   2.325   3.983 -0.5129 -0.2626  0.1002
 6602SOL    HW131439   2.965   2.350   3.933 -0.2828 -0.7119  0.2275
 6602SOL    HW231440   2.815   2.337   3.921 -1.3511 -1.6177  0.7987
 6603SOL     OW31441   4.594   1.003  17.227  0.1654  0.1877  0.0751
 6603SOL    HW131442   4.656   1.051  17.282 -1.3171 -0.2381  2.1225
 6603SOL    HW231443   4.630   1.029  17.142 -0.9350  0.5154 -0.2924
 6604SOL     OW31444   1.447   4.274  12.845  0.2391 -0.0386  0.1820
 6604SOL    HW131445   1.468   4.366  12.830  0.3556  0.0717  0.9922
 6604SOL    HW231446   1.451   4.266  12.941 -0.7111  0.9791  0.3035
 6605SOL     OW31447   2.619   3.731   7.695  0.2904  0.3518 -0.2095
 6605SOL    HW131448   2.622   3.637   7.680 -1.7045  0.3407 -0.6508
 6605SOL    HW231449   2.701   3.755   7.738 -0.9639  1.8161  1.3820
 6606SOL     OW31450   0.296   0.291  13.989 -0.1931  0.5203 -0.4110
 6606SOL    HW131451   0.317   0.201  14.014  2.9901  1.1431 -0.8921
 6606SOL    HW231452   0.247   0.273  13.909 -1.0708  0.1088  0.2199
 6607SOL     OW31453   1.808   4.163   3.418  0.2114  0.1896 -0.3544
 6607SOL    HW131454   1.845   4.241   3.377  1.7306 -0.4215 -0.1627
 6607SOL    HW231455   1.884   4.136   3.470  2.9708  0.9377 -4.0507
 6608SOL     OW31456   1.218   4.492   4.002 -0.1137 -0.5460 -0.4551
 6608SOL    HW131457   1.180   4.576   4.030  0.7303  0.4789 -2.3568
 6608SOL    HW231458   1.159   4.480   3.928  0.9374  1.6255 -1.6382
 6609SOL     OW31459   3.511   1.516  10.256  0.0531  0.7097  0.0355
 6609SOL    HW131460   3.482   1.473  10.337  0.5891 -0.1238 -0.2148
 6609SOL    HW231461   3.600   1.480  10.258 -0.1958  0.0805  0.1115
 6610SOL     OW31462   4.405   1.337   8.352 -0.0595 -0.2809 -0.1808
 6610SOL    HW131463   4.499   1.352   8.367 -0.0576  1.0824 -1.5483
 6610SOL    HW231464   4.379   1.342   8.444  0.3121 -1.2591 -0.0207
 6611SOL     OW31465   0.669   3.202   8.435 -0.1187  0.1253 -0.3681
 6611SOL    HW131466   0.611   3.272   8.466 -1.3584 -0.8310 -0.4978
 6611SOL    HW231467   0.623   3.122   8.461  1.9772 -0.4499  1.5550
 6612SOL     OW31468   4.437   2.218   3.942 -0.2011  0.1095  0.1464
 6612SOL    HW131469   4.373   2.236   4.011 -0.2120  1.7303 -0.3023
 6612SOL    HW231470   4.388   2.192   3.864  0.6347 -1.0136 -0.0158
 6613SOL     OW31471   1.461   3.549   2.748 -0.0764  1.1567  0.7578
 6613SOL    HW131472   1.393   3.514   2.805  0.7112 -0.9742  0.3784
 6613SOL    HW231473   1.525   3.479   2.735 -1.5731 -0.5951  2.9985
 6614SOL     OW31474   2.346   0.752   2.901  0.2381 -0.0273  0.2537
 6614SOL    HW131475   2.402   0.680   2.928  1.4507  1.0314  0.5928
 6614SOL    HW231476   2.408   0.825   2.891  0.2603  0.0884  1.1530
 6615SOL     OW31477   0.488   2.277   5.511 -0.0735 -0.1004 -0.2031
 6615SOL    HW131478   0.504   2.356   5.563  1.0063 -0.4655  0.0148
 6615SOL    HW231479   0.553   2.278   5.441 -0.3632 -1.0534 -0.4824
 6616SOL     OW31480   0.032   0.703   7.302  0.0692 -0.6619  0.0661
 6616SOL    HW131481   0.027   0.761   7.226 -1.7707 -2.2072 -0.9965
 6616SOL    HW231482   4.680   0.734   7.338  0.7455  1.7509 -0.4613
 6617SOL     OW31483   0.283   3.285   8.228 -0.3168  0.2483 -0.2605
 6617SOL    HW131484   0.302   3.356   8.289 -2.7162 -1.4440  2.4585
 6617SOL    HW231485   0.280   3.201   8.274  0.9041 -0.1809 -0.9725
 6618SOL     OW31486   1.681   2.960   7.471 -0.2895  0.1086 -0.2575
 6618SOL    HW131487   1.694   2.872   7.506 -1.5797  0.0285  0.0042
 6618SOL    HW231488   1.682   2.943   7.377  1.7759 -0.9657 -0.0227
 6619SOL     OW31489   1.952   2.776   2.656  0.1464  0.1218 -0.3713
 6619SOL    HW131490   2.040   2.738   2.667  0.3633  0.9715  0.9511
 6619SOL    HW231491   1.951   2.824   2.574  1.7768  1.5213  0.4039
 6620SOL     OW31492   3.122   1.396   3.066  0.0265  0.3126 -0.7325
 6620SOL    HW131493   3.029   1.406   3.088  0.1547 -1.1509  0.5053
 6620SOL    HW231494   3.165   1.456   3.126 -3.3506 -0.1010  2.1182
 6621SOL     OW31495   3.141   2.729   8.954  0.3063  0.8143 -0.0031
 6621SOL    HW131496   3.166   2.821   8.964  3.7916 -0.0504 -0.8024
 6621SOL    HW231497   3.053   2.733   8.991  0.6397 -1.7224  1.0628
 6622SOL     OW31498   2.195   2.492   5.784 -0.3882  0.3504 -0.3785
 6622SOL    HW131499   2.283   2.529   5.777 -0.1909  0.2442  1.4399
 6622SOL    HW231500   2.150   2.560   5.733 -1.3696  2.2242  2.9113
 6623SOL     OW31501   2.352   3.553   8.559  0.7460 -0.3428 -0.2951
 6623SOL    HW131502   2.325   3.491   8.492 -1.5034 -1.0732  1.3042
 6623SOL    HW231503   2.397   3.487   8.611 -0.8191 -0.2278  1.1838
 6624SOL     OW31504   4.517   3.323   2.278  0.2538 -0.4178  0.5132
 6624SOL    HW131505   4.467   3.265   2.222  1.7009 -0.6149 -0.5809
 6624SOL    HW231506   4.557   3.374   2.207 -1.4119  0.1676 -0.0001
 6625SOL     OW31507   1.838   3.796   8.813 -0.7116  0.0958  0.0443
 6625SOL    HW131508   1.866   3.880   8.778  1.0602  0.1331  1.5417
 6625SOL    HW231509   1.889   3.792   8.894 -1.6600 -1.5600  0.5565
 6626SOL     OW31510   1.398   1.443   7.654  0.2413  0.2553  0.4651
 6626SOL    HW131511   1.412   1.526   7.700 -0.1613  0.1941  0.6999
 6626SOL    HW231512   1.377   1.385   7.727 -0.4266 -2.6285 -2.0105
 6627SOL     OW31513   4.620   0.249  15.889 -0.2846 -0.1321  0.3872
 6627SOL    HW131514   4.699   0.296  15.915  0.7699 -0.1270 -2.7723
 6627SOL    HW231515   4.585   0.295  15.813  0.0412 -1.8344 -0.7825
 6628SOL     OW31516   2.327   3.841  15.183  0.5589  0.0196  0.2257
 6628SOL    HW131517   2.236   3.813  15.192  0.9189 -1.1937  0.1394
 6628SOL    HW231518   2.333   3.936  15.177  0.1665  0.0920  0.9636
 6629SOL     OW31519   0.329   2.834  11.963 -0.4135 -0.5698 -0.5072
 6629SOL    HW131520   0.340   2.916  11.915 -0.7875 -0.9615 -1.2602
 6629SOL    HW231521   0.240   2.849  11.995 -1.1027 -1.0975 -2.2163
 6630SOL     OW31522   1.203   1.575   8.579 -0.3551  0.3392  0.3007
 6630SOL    HW131523   1.260   1.515   8.530 -0.0946  0.0025  1.0170
 6630SOL    HW231524   1.190   1.519   8.656  1.9468  1.3119  1.3873
 6631SOL     OW31525   2.726   2.123   8.787 -0.5316 -0.8749  0.3016
 6631SOL    HW131526   2.756   2.058   8.724  1.1743  1.1928 -1.0294
 6631SOL    HW231527   2.781   2.107   8.864  2.1016  1.4596 -1.1097
 6632SOL     OW31528   1.735   2.273   6.922  0.2473  0.1960  0.5213
 6632SOL    HW131529   1.643   2.286   6.901  0.3376 -1.4908 -0.9111
 6632SOL    HW231530   1.757   2.365   6.936 -0.8942  0.7049 -1.0512
 6633SOL     OW31531   3.982   4.371  17.032 -0.4394  0.1754 -1.0102
 6633SOL    HW131532   4.009   4.459  17.056 -0.9802 -0.1799  0.8919
 6633SOL    HW231533   3.894   4.392  17.000  0.7058  1.3816 -3.3884
 6634SOL     OW31534   3.633   0.444   3.839  0.5023  0.2859  0.1707
 6634SOL    HW131535   3.662   0.438   3.748  0.0769  0.8081  0.0011
 6634SOL    HW231536   3.706   0.391   3.870 -0.0135  0.3670  1.5187
 6635SOL     OW31537   1.077   2.000   5.255 -0.4221  0.4519 -0.8177
 6635SOL    HW131538   1.043   2.062   5.320  2.6258 -1.6557  2.8037
 6635SOL    HW231539   1.060   1.915   5.297 -0.6670  1.3782  0.9519
 6636SOL     OW31540   4.332   2.016   4.481  0.5348 -0.4679  0.0080
 6636SOL    HW131541   4.322   1.921   4.467 -1.8339 -0.0651 -1.0311
 6636SOL    HW231542   4.242   2.033   4.509  0.1177 -2.8347  0.1380
 6637SOL     OW31543   3.699   4.304  15.792 -0.2408  0.4299  0.3132
 6637SOL    HW131544   3.644   4.380  15.812  1.3625  1.2098  1.7475
 6637SOL    HW231545   3.651   4.276  15.713  1.1601  0.1517 -0.4374
 6638SOL     OW31546   0.476   1.424   5.550  0.0694 -0.3403  0.2597
 6638SOL    HW131547   0.540   1.494   5.563 -0.1690  0.0634 -0.7754
 6638SOL    HW231548   0.533   1.347   5.549  0.2824 -0.1861  0.4626
 6639SOL     OW31549   3.967   1.538  17.169  0.1988  0.1918  0.8194
 6639SOL    HW131550   3.937   1.475  17.103 -0.1725  1.9724 -0.7042
 6639SOL    HW231551   3.969   1.617  17.115  1.3399 -0.4095 -0.0203
 6640SOL     OW31552   0.931   2.817  14.424  0.2088  0.5655  0.2017
 6640SOL    HW131553   0.882   2.846  14.502 -0.4045 -1.7023  0.6647
 6640SOL    HW231554   0.934   2.895  14.369  0.6595  0.5856  0.2533
 6641SOL     OW31555   2.086   4.333   5.212  0.4855 -0.1974  0.4272
 6641SOL    HW131556   1.998   4.362   5.235  0.2387  0.8809 -1.9142
 6641SOL    HW231557   2.119   4.403   5.156  1.3689 -0.0704  1.0960
 6642SOL     OW31558   4.113   0.602   4.488  0.1367 -0.1627 -0.1297
 6642SOL    HW131559   4.111   0.521   4.437  0.6048 -0.2492 -0.0151
 6642SOL    HW231560   4.053   0.569   4.555  1.3322  3.1024  2.5554
 6643SOL     OW31561   0.642   3.627   8.931 -0.4584  0.3450 -0.3684
 6643SOL    HW131562   0.695   3.548   8.945 -0.7861  0.1008 -0.5088
 6643SOL    HW231563   0.642   3.653   9.023  1.9533 -0.5247 -0.1270
 6644SOL     OW31564   2.508   4.506   0.463 -0.2634  0.1650 -0.7319
 6644SOL    HW131565   2.415   4.485   0.472 -0.1481  0.3575  0.8974
 6644SOL    HW231566   2.507   4.553   0.380 -0.9108 -0.3799 -1.0326
 6645SOL     OW31567   3.897   3.056  12.797  0.3268  0.2612 -0.2941
 6645SOL    HW131568   3.959   2.989  12.826  0.3830  0.8988  1.0856
 6645SOL    HW231569   3.868   3.023  12.712  2.1396 -0.0164 -0.8148
 6646SOL     OW31570   3.134   4.134   3.636 -0.4307  0.2384 -0.6769
 6646SOL    HW131571   3.116   4.196   3.707  1.6087  0.3933 -0.3113
 6646SOL    HW231572   3.226   4.123   3.657 -0.8624  0.1601  1.2024
 6647SOL     OW31573   2.546   4.300  11.684 -0.3460 -0.8120 -0.0465
 6647SOL    HW131574   2.488   4.341  11.747  0.3846  1.2260 -0.6886
 6647SOL    HW231575   2.502   4.314  11.600  1.6587  0.4140 -0.8978
 6648SOL     OW31576   2.296   1.450   7.084 -0.2731  0.2559  0.2791
 6648SOL    HW131577   2.318   1.466   7.175  0.7416 -0.1872  0.1127
 6648SOL    HW231578   2.291   1.538   7.046 -0.6863 -0.3116 -0.9994
 6649SOL     OW31579   2.496   0.845   6.605 -0.3203  0.1220  0.0858
 6649SOL    HW131580   2.465   0.757   6.624  3.0930 -1.3087 -0.8966
 6649SOL    HW231581   2.426   0.891   6.650  0.0840  0.0481  0.7894
 6650SOL     OW31582   3.263   0.522   8.005 -0.3270  0.1614 -0.2461
 6650SOL    HW131583   3.239   0.596   7.949 -3.0373 -0.4293  0.1315
 6650SOL    HW231584   3.205   0.544   8.077  0.7008 -0.9233  0.9103
 6651SOL     OW31585   4.395   0.365   3.583  0.3579  0.6493  0.2617
 6651SOL    HW131586   4.470   0.340   3.637  0.3927  0.2532  0.0283
 6651SOL    HW231587   4.349   0.427   3.639 -0.3719  0.6470 -0.3386
 6652SOL     OW31588   1.227   2.096   7.588 -0.2910 -0.4153  0.5192
 6652SOL    HW131589   1.149   2.150   7.603 -0.3759  0.2802 -2.3851
 6652SOL    HW231590   1.282   2.114   7.664  0.7886  0.1145 -0.3892
 6653SOL     OW31591   3.985   1.204  13.677 -0.1873  0.0014  0.0814
 6653SOL    HW131592   3.937   1.145  13.619  0.9347  0.3820 -1.2232
 6653SOL    HW231593   3.925   1.278  13.679  1.4295  1.3167 -0.2902
 6654SOL     OW31594   1.517   0.489  16.698 -0.9604  0.1264 -0.0331
 6654SOL    HW131595   1.450   0.544  16.739 -0.5132  0.3530  0.3973
 6654SOL    HW231596   1.575   0.469  16.771 -0.6714 -1.7871 -0.7960
 6655SOL     OW31597   0.260   4.629  14.175  0.2970  0.3335 -0.2811
 6655SOL    HW131598   0.223   4.600  14.258  0.4857 -0.9243 -0.6359
 6655SOL    HW231599   0.285   4.542  14.143  1.9106  0.4132  0.7330
 6656SOL     OW31600   0.946   1.660   8.242  0.2508  0.0081 -0.4671
 6656SOL    HW131601   1.036   1.627   8.251 -0.1897 -0.4133  2.6194
 6656SOL    HW231602   0.924   1.641   8.151  1.2649  3.4430 -1.4208
 6657SOL     OW31603   0.380   0.769  10.532  0.2286 -0.3911  0.5226
 6657SOL    HW131604   0.446   0.836  10.517 -0.4091  0.4169  1.3021
 6657SOL    HW231605   0.356   0.733  10.447 -2.4349  1.3411  0.5363
 6658SOL     OW31606   3.330   4.210   2.659  0.1091 -0.2137 -0.6957
 6658SOL    HW131607   3.259   4.233   2.718 -0.5602 -1.8832 -0.8554
 6658SOL    HW231608   3.304   4.129   2.616  1.1287 -0.4175 -0.9313
 6659SOL     OW31609   4.522   2.749   4.246  0.0939 -0.1539  0.3577
 6659SOL    HW131610   4.516   2.653   4.248 -0.2154 -0.0881  2.7124
 6659SOL    HW231611   4.432   2.777   4.263 -0.3345 -1.4656  0.2916
 6660SOL     OW31612   3.804   1.191  16.333  0.0170 -0.1722  0.1463
 6660SOL    HW131613   3.785   1.236  16.415 -0.0128  3.9555 -2.1465
 6660SOL    HW231614   3.844   1.255  16.275 -2.5442  2.5269  1.3824
 6661SOL     OW31615   1.712   0.988   7.189 -0.3645 -0.1526  0.5986
 6661SOL    HW131616   1.735   1.020   7.276 -1.7001  0.4549  0.7277
 6661SOL    HW231617   1.650   0.917   7.206 -1.5671  0.5942 -0.6773
 6662SOL     OW31618   0.316   0.212   4.311  0.7943 -0.2613  0.2595
 6662SOL    HW131619   0.390   0.271   4.301  1.1715 -0.7397  0.2368
 6662SOL    HW231620   0.299   0.216   4.405 -0.8594 -0.1474 -0.0451
 6663SOL     OW31621   3.053   2.816   6.396  0.7198  0.6269  0.4289
 6663SOL    HW131622   3.103   2.875   6.339 -0.5227  1.9616  0.7287
 6663SOL    HW231623   3.122   2.758   6.429 -2.2900 -2.7851  0.7171
 6664SOL     OW31624   4.159   4.039   9.317  0.3225 -0.1347  0.1704
 6664SOL    HW131625   4.131   4.077   9.234 -0.6547  0.2544  0.6792
 6664SOL    HW231626   4.104   4.089   9.378  0.0755 -0.4241  0.1880
 6665SOL     OW31627   3.200   4.307   8.342 -0.4503  0.3691  0.3904
 6665SOL    HW131628   3.213   4.402   8.337 -0.9731  0.3006 -2.6272
 6665SOL    HW231629   3.135   4.282   8.276  0.2564  0.2660 -0.2628
 6666SOL     OW31630   3.335   2.982   1.602  0.3795  0.3246 -0.1262
 6666SOL    HW131631   3.333   3.073   1.572  0.2313 -0.5746 -2.7877
 6666SOL    HW231632   3.423   2.968   1.565  0.8466  0.5308  0.8926
 6667SOL     OW31633   4.034   0.756   7.900 -0.2589  0.4412  0.2140
 6667SOL    HW131634   4.048   0.668   7.865  2.5045  1.5035 -1.3599
 6667SOL    HW231635   4.086   0.816   7.847 -2.5322  2.8794  0.7886
 6668SOL     OW31636   2.330   3.015   0.234 -0.1659  0.0917 -0.5077
 6668SOL    HW131637   2.291   2.940   0.279 -0.3482  1.2575  1.2457
 6668SOL    HW231638   2.354   2.962   0.158 -1.7249 -1.5528  0.1492
 6669SOL     OW31639   0.232   4.108   6.368 -0.3921  0.2987 -0.1042
 6669SOL    HW131640   0.257   4.198   6.388  0.4663 -0.2436  1.3139
 6669SOL    HW231641   0.160   4.129   6.309 -0.3259  1.9460  0.3982
 6670SOL     OW31642   2.126   0.317   4.175  0.3174  0.1082  0.2759
 6670SOL    HW131643   2.213   0.347   4.200 -0.5629 -0.1167  3.6195
 6670SOL    HW231644   2.103   0.278   4.260 -0.3912 -0.8248 -0.3412
 6671SOL     OW31645   3.381   4.071   4.716  0.1092 -0.0457  0.3440
 6671SOL    HW131646   3.461   4.031   4.749 -0.6580 -1.7466  0.1347
 6671SOL    HW231647   3.340   3.998   4.668  1.6315  0.4217 -1.6687
 6672SOL     OW31648   3.199   2.211  10.037 -0.2383 -0.2832  0.0318
 6672SOL    HW131649   3.232   2.158  10.109 -0.9843  0.3606  0.8582
 6672SOL    HW231650   3.257   2.191   9.964 -0.3521 -1.6453  0.3163
 6673SOL     OW31651   0.454   4.291   6.085 -0.2763  0.0246  0.0290
 6673SOL    HW131652   0.534   4.262   6.128  0.1254 -0.8201 -1.2721
 6673SOL    HW231653   0.402   4.304   6.164 -0.0615 -1.7803  0.4746
 6674SOL     OW31654   0.974   4.243  13.514 -0.3492 -0.0883  0.0421
 6674SOL    HW131655   1.058   4.259  13.557 -0.2730 -2.7472  0.8252
 6674SOL    HW231656   0.949   4.156  13.542 -0.5161  0.1317  0.5747
 6675SOL     OW31657   1.267   1.389   6.732  0.3331  0.1959 -0.0804
 6675SOL    HW131658   1.359   1.382   6.709  0.1591 -0.1831 -0.6674
 6675SOL    HW231659   1.226   1.472   6.707  1.5452  1.6849  2.9013
 6676SOL     OW31660   1.821   3.369   8.757 -0.6030 -0.0476  0.2081
 6676SOL    HW131661   1.763   3.409   8.822  1.4097  1.0988  1.2933
 6676SOL    HW231662   1.891   3.434   8.755 -0.7552  0.1439  0.9483
 6677SOL     OW31663   2.640   2.509   9.072  0.4094 -0.3448 -0.5888
 6677SOL    HW131664   2.565   2.465   9.113 -0.4674  0.7117 -1.0649
 6677SOL    HW231665   2.617   2.519   8.980 -0.8547  2.0358 -0.0110
 6678SOL     OW31666   0.377   1.503   2.041  0.1910  0.2258 -0.0739
 6678SOL    HW131667   0.352   1.569   2.105  2.2736  0.8121  0.1285
 6678SOL    HW231668   0.317   1.523   1.969  0.4268 -1.5006 -0.7528
 6679SOL     OW31669   0.045   2.676   7.494 -0.0454 -0.5962 -0.0227
 6679SOL    HW131670   0.095   2.685   7.575 -0.0952  0.6513 -0.1285
 6679SOL    HW231671   0.066   2.754   7.442 -1.0592 -0.1117  0.3045
 6680SOL     OW31672   3.150   0.553  10.125 -0.1922 -0.0569  0.2060
 6680SOL    HW131673   3.059   0.547  10.095 -0.8003 -0.9099  2.2472
 6680SOL    HW231674   3.138   0.620  10.192 -1.1456 -0.5026  0.4905
 6681SOL     OW31675   4.295   2.655  16.369  0.6276 -0.3959  0.5571
 6681SOL    HW131676   4.313   2.748  16.384  0.1339 -0.1454 -0.4078
 6681SOL    HW231677   4.330   2.612  16.447  0.9599 -1.3477 -0.1254
 6682SOL     OW31678   0.025   1.850  10.652  0.6978 -0.3292 -0.1638
 6682SOL    HW131679   4.721   1.932  10.686 -2.1649 -1.5584 -0.1546
 6682SOL    HW231680   0.114   1.870  10.623  0.3148 -1.1176 -1.8605
 6683SOL     OW31681   1.346   0.972   1.359  0.1863  0.1290 -0.1679
 6683SOL    HW131682   1.299   0.977   1.442  1.0935 -1.5495  0.4653
 6683SOL    HW231683   1.311   1.054   1.326  0.8099  1.1156  1.5941
 6684SOL     OW31684   2.800   1.212  10.967 -0.2987 -0.0277  0.2744
 6684SOL    HW131685   2.777   1.278  11.033 -3.4070 -0.3275 -0.5457
 6684SOL    HW231686   2.793   1.130  11.017  1.9127 -1.0726 -1.1300
 6685SOL     OW31687   2.461   1.657   9.556  0.1038 -0.1342 -0.0231
 6685SOL    HW131688   2.514   1.737   9.549 -2.9621  2.1769  2.7409
 6685SOL    HW231689   2.377   1.680   9.516  0.2844 -0.0151 -0.3305
 6686SOL     OW31690   2.351   2.830   5.270 -0.2007 -0.0875  0.0895
 6686SOL    HW131691   2.417   2.886   5.311 -0.2362 -0.2359  0.3504
 6686SOL    HW231692   2.267   2.872   5.286 -0.8230 -0.4491 -2.3277
 6687SOL     OW31693   0.624   0.574   6.044 -0.0765 -0.4003  0.3919
 6687SOL    HW131694   0.658   0.574   5.955  1.4725  0.8154  0.9940
 6687SOL    HW231695   0.690   0.619   6.096  0.5109 -0.1594 -0.5592
 6688SOL     OW31696   2.029   1.193   2.855  0.6557 -0.2907 -0.3642
 6688SOL    HW131697   1.984   1.142   2.923  3.5163 -1.3861  0.7109
 6688SOL    HW231698   1.968   1.266   2.848  1.0587  0.3302  2.4276
 6689SOL     OW31699   4.632   0.094   3.706  0.6206  0.1198 -0.1489
 6689SOL    HW131700   4.691   0.039   3.654  0.1960 -1.8575  1.4205
 6689SOL    HW231701   4.690   0.169   3.723 -0.7488  1.3784 -1.0803
 6690SOL     OW31702   2.456   2.962   4.949  0.7850  0.3336  0.2737
 6690SOL    HW131703   2.367   2.974   4.916  0.2948 -1.3316  1.0386
 6690SOL    HW231704   2.437   2.944   5.041  1.4138 -1.8463 -0.0366
 6691SOL     OW31705   1.921   0.689   7.109 -0.2681  0.3195  0.4399
 6691SOL    HW131706   1.903   0.680   7.015 -0.2611 -0.3681  0.5101
 6691SOL    HW231707   2.009   0.724   7.114  1.2847 -3.4927 -0.4639
 6692SOL     OW31708   0.695   0.845   3.416 -0.4405  0.2666 -0.2196
 6692SOL    HW131709   0.687   0.778   3.349 -0.6602  0.0781 -0.0050
 6692SOL    HW231710   0.606   0.836   3.451  0.3476  0.0789  1.7742
 6693SOL     OW31711   4.501   0.152  10.794 -0.4395 -0.3272 -0.0270
 6693SOL    HW131712   4.563   0.222  10.814 -0.7683  0.8973 -3.2163
 6693SOL    HW231713   4.549   0.077  10.829 -1.4859 -0.9819 -0.0017
 6694SOL     OW31714   3.751   0.478   2.993  0.3301 -0.3374  0.0984
 6694SOL    HW131715   3.831   0.440   2.957  1.4358  0.0901  2.0906
 6694SOL    HW231716   3.691   0.404   3.004 -0.1184  0.0314  0.1929
 6695SOL     OW31717   2.932   4.477  10.509  0.0483 -0.9048  0.2662
 6695SOL    HW131718   2.991   4.451  10.579  1.1232  1.2871  0.2035
 6695SOL    HW231719   2.960   4.568  10.500  0.7396 -1.4463 -3.0811
 6696SOL     OW31720   0.374   0.247   6.356 -0.3372 -0.2562 -0.0409
 6696SOL    HW131721   0.376   0.217   6.265 -0.3798 -2.4392  0.6689
 6696SOL    HW231722   0.362   0.340   6.341 -1.6617 -0.3482  0.4469
 6697SOL     OW31723   0.536   1.377   3.213  0.4881  0.0910  0.4540
 6697SOL    HW131724   0.600   1.337   3.154  0.4435 -0.8126  1.0094
 6697SOL    HW231725   0.586   1.454   3.239  1.5938 -0.4046 -0.1718
 6698SOL     OW31726   2.042   2.142   8.527 -0.0553  0.5805 -0.4472
 6698SOL    HW131727   2.016   2.226   8.490 -2.0774  0.3388  0.4557
 6698SOL    HW231728   1.955   2.104   8.537  0.2016 -0.4132 -1.9786
 6699SOL     OW31729   0.457   0.319   6.625  0.3534 -0.4558  0.4318
 6699SOL    HW131730   0.439   0.286   6.537 -2.8685 -1.2599  1.4051
 6699SOL    HW231731   0.539   0.275   6.651  0.8049  1.1427  1.6995
 6700SOL     OW31732   0.614   1.606   7.480  0.2706 -0.1037 -0.3459
 6700SOL    HW131733   0.525   1.575   7.498  0.4170 -0.8961 -1.0096
 6700SOL    HW231734   0.604   1.669   7.408  1.8158 -0.1138 -0.5636
 6701SOL     OW31735   0.149   0.617  17.071  0.4891 -0.3846  1.0459
 6701SOL    HW131736   0.183   0.689  17.018  0.8101 -0.8355  0.6422
 6701SOL    HW231737   0.119   0.657  17.153  1.5292  0.0002  1.2412
 6702SOL     OW31738   1.150   4.706  16.114  0.3681 -0.3290  0.2957
 6702SOL    HW131739   1.203   0.039  16.162  1.5160 -0.9699 -0.1208
 6702SOL    HW231740   1.071   4.707  16.168 -0.3759  1.7058 -0.8400
 6703SOL     OW31741   4.415   1.482   2.240  0.0568  0.4328  0.5086
 6703SOL    HW131742   4.451   1.468   2.153 -1.3952 -0.2616  0.0067
 6703SOL    HW231743   4.325   1.454   2.224  0.7372 -0.8993 -1.0032
 6704SOL     OW31744   2.412   0.879   1.957  0.0222 -0.4749  0.0342
 6704SOL    HW131745   2.440   0.896   1.867 -1.5083 -0.0170 -0.3602
 6704SOL    HW231746   2.319   0.881   1.934 -0.5032  2.9509  2.4761
 6705SOL     OW31747   4.364   2.388   1.073  0.3994 -0.0975 -0.7926
 6705SOL    HW131748   4.378   2.459   1.011 -1.2505  0.1691 -0.8594
 6705SOL    HW231749   4.401   2.430   1.150 -2.7847 -1.7055  1.6493
 6706SOL     OW31750   0.578   1.401  12.886  0.6076  0.5423  0.4947
 6706SOL    HW131751   0.489   1.378  12.913  0.1499  1.1897 -0.4431
 6706SOL    HW231752   0.613   1.450  12.960  1.4698 -0.4147  0.7168
 6707SOL     OW31753   0.136   4.458  10.641 -0.1421  0.3034  0.0907
 6707SOL    HW131754   0.090   4.525  10.592 -0.2979 -1.3456 -2.0143
 6707SOL    HW231755   0.215   4.428  10.597 -0.3568 -0.9853  0.5636
 6708SOL     OW31756   0.569   0.343   8.507  0.9359 -0.4936  1.4113
 6708SOL    HW131757   0.530   0.399   8.440  3.6289  0.7400  0.8860
 6708SOL    HW231758   0.575   0.259   8.460 -2.1123  1.7919 -3.0870
 6709SOL     OW31759   2.886   3.304  14.740 -0.5072  0.6930  0.1495
 6709SOL    HW131760   2.858   3.384  14.784  1.3868  2.1395 -1.2917
 6709SOL    HW231761   2.806   3.254  14.728  0.3898 -0.3360 -1.4934
 6710SOL     OW31762   3.464   1.286   6.387  0.2589  0.1589  0.7142
 6710SOL    HW131763   3.437   1.263   6.298  0.3270 -1.2966  1.0530
 6710SOL    HW231764   3.384   1.324   6.423 -0.4192 -1.1010  0.5619
 6711SOL     OW31765   1.660   0.096   5.870  0.5567 -0.3039  0.2216
 6711SOL    HW131766   1.699   0.012   5.844 -0.1821  0.0320 -2.0176
 6711SOL    HW231767   1.731   0.121   5.928  0.3063 -2.5430  1.4947
 6712SOL     OW31768   3.404   1.320  12.900  0.3948 -0.2738 -0.0749
 6712SOL    HW131769   3.310   1.329  12.912  0.6322 -0.4576  1.9747
 6712SOL    HW231770   3.429   1.411  12.912  0.5984 -0.3904  0.3858
 6713SOL     OW31771   0.602   3.173  14.505 -0.2497  0.3773  0.7773
 6713SOL    HW131772   0.552   3.230  14.563  1.2458  1.9593  0.5353
 6713SOL    HW231773   0.664   3.237  14.470  1.4844 -2.8360 -2.0276
 6714SOL     OW31774   1.089   0.036   2.765  0.3845 -0.7338  0.0501
 6714SOL    HW131775   1.175   0.072   2.743  0.6912  0.9614  3.8562
 6714SOL    HW231776   1.039   0.067   2.689 -1.4697  1.0188  1.9709
 6715SOL     OW31777   4.312   1.517   6.798 -0.1629 -0.1238 -0.8609
 6715SOL    HW131778   4.250   1.572   6.847  0.8947 -0.5266  0.9311
 6715SOL    HW231779   4.316   1.549   6.707  0.8871 -0.4577 -0.9290
 6716SOL     OW31780   0.681   0.760  13.999  0.0366 -0.4367  0.0528
 6716SOL    HW131781   0.591   0.772  13.971 -0.2294  0.6191  1.3312
 6716SOL    HW231782   0.680   0.780  14.093 -0.5031  1.2319 -0.3053
 6717SOL     OW31783   0.956   4.140   9.308  0.0492 -0.1804  0.0733
 6717SOL    HW131784   0.969   4.232   9.331  0.8993 -0.2899  0.0234
 6717SOL    HW231785   0.937   4.143   9.214  0.0476  1.1427  0.1191
 6718SOL     OW31786   4.559   4.144  12.137 -0.2708 -0.0226 -0.0257
 6718SOL    HW131787   4.478   4.112  12.177 -0.0091 -0.7198 -0.0470
 6718SOL    HW231788   4.572   4.091  12.058 -1.5732 -1.9705  1.0769
 6719SOL     OW31789   4.450   1.102   6.286  0.1917  0.3358 -0.0218
 6719SOL    HW131790   4.457   1.197   6.299  3.2936  0.1932 -0.7035
 6719SOL    HW231791   4.472   1.077   6.376 -0.9381 -1.0755 -0.1538
 6720SOL     OW31792   0.850   1.905  12.830 -0.2758 -0.0299 -0.3319
 6720SOL    HW131793   0.860   1.812  12.810  0.5796  0.4507 -2.1266
 6720SOL    HW231794   0.757   1.907  12.854  0.1527  0.9369  1.2676
 6721SOL     OW31795   2.540   2.760  17.230  0.0159 -0.1805 -0.1904
 6721SOL    HW131796   2.464   2.770  17.172 -0.2680  1.2620  0.4507
 6721SOL    HW231797   2.605   2.805  17.176 -0.0700 -0.4927 -0.5622
 6722SOL     OW31798   4.628   0.968   7.927  0.2300  0.3642  0.3345
 6722SOL    HW131799   4.556   1.007   7.977  1.8237  0.7843  2.3150
 6722SOL    HW231800   4.697   0.945   7.990 -0.2271 -0.4087  0.5463
 6723SOL     OW31801   4.679   2.072   6.139  0.3117 -0.0792  0.1425
 6723SOL    HW131802   4.627   2.054   6.061 -0.5561  1.2373  0.4230
 6723SOL    HW231803   0.017   2.120   6.095  0.0723 -0.6297 -0.8290
 6724SOL     OW31804   0.159   2.714   1.879  0.2057 -0.5178  0.0176
 6724SOL    HW131805   0.131   2.801   1.909  1.3925  0.0005 -0.4021
 6724SOL    HW231806   0.101   2.714   1.802  1.6904 -0.8507 -1.0864
 6725SOL     OW31807   0.483   4.601  16.562 -0.5442 -0.1925 -0.1077
 6725SOL    HW131808   0.404   4.592  16.615 -0.0698  0.3666  0.6854
 6725SOL    HW231809   0.448   4.565  16.480  1.5007 -0.2625 -0.9456
 6726SOL     OW31810   0.148   3.551  11.684 -0.4469 -0.2755  0.1506
 6726SOL    HW131811   0.155   3.616  11.615  2.9881 -1.7444 -0.8807
 6726SOL    HW231812   0.208   3.582  11.751 -0.4795  1.2564 -0.5296
 6727SOL     OW31813   0.129   0.018  15.989  0.9886  0.5489 -0.2906
 6727SOL    HW131814   0.063   4.722  16.054  1.6283 -2.2324 -0.7833
 6727SOL    HW231815   0.070   0.024  15.914 -0.1697 -1.0313  0.4822
 6728SOL     OW31816   3.628   1.381   9.315  0.3564  0.3852  0.2192
 6728SOL    HW131817   3.559   1.379   9.382 -0.0063  3.4551 -0.0633
 6728SOL    HW231818   3.659   1.295   9.343  2.3627  0.8191 -0.7192
 6729SOL     OW31819   4.161   0.646   5.212 -0.3288  0.4990 -0.8389
 6729SOL    HW131820   4.217   0.598   5.273 -0.0398  3.0647  0.8916
 6729SOL    HW231821   4.216   0.706   5.160  0.9750  0.5449  0.5866
 6730SOL     OW31822   0.964   1.460  15.400 -0.1435  0.5049 -0.6081
 6730SOL    HW131823   0.970   1.365  15.396  0.1325  0.5235 -0.6473
 6730SOL    HW231824   0.869   1.469  15.404  0.0791  2.5351  0.2568
 6731SOL     OW31825   3.006   3.521  16.229 -0.2378  0.1222  0.2579
 6731SOL    HW131826   2.964   3.511  16.314 -0.7180 -0.8546 -0.1027
 6731SOL    HW231827   2.964   3.598  16.191  3.2095  2.6919  1.5565
 6732SOL     OW31828   2.884   4.139  17.289  0.2189 -0.6964  0.1535
 6732SOL    HW131829   2.912   4.149  17.381 -1.1747 -3.3307  0.8588
 6732SOL    HW231830   2.890   4.227  17.253  1.5430 -0.1116  1.7830
 6733SOL     OW31831   2.795   2.988   3.479  0.1403  0.0118  0.1742
 6733SOL    HW131832   2.813   2.973   3.572  0.7109 -0.6574 -0.0451
 6733SOL    HW231833   2.885   2.964   3.457 -1.2939 -1.9179 -3.5019
 6734SOL     OW31834   2.414   2.498  11.457  0.3131  0.6868 -0.3680
 6734SOL    HW131835   2.402   2.435  11.386  1.5563  1.6519 -1.4335
 6734SOL    HW231836   2.459   2.438  11.516  3.1143  1.8719 -1.3120
 6735SOL     OW31837   2.055   1.740   1.807  0.5949 -0.5727  0.4151
 6735SOL    HW131838   2.121   1.796   1.850  0.0569 -0.8912  1.6670
 6735SOL    HW231839   2.097   1.656   1.790 -1.2554 -1.5774  0.8114
 6736SOL     OW31840   0.862   1.607  13.959  0.0590 -0.9122 -0.1077
 6736SOL    HW131841   0.811   1.647  14.029 -0.0492  0.5329 -0.9915
 6736SOL    HW231842   0.802   1.583  13.888  0.7303 -0.3280 -0.8859
 6737SOL     OW31843   2.106   3.070   3.771  0.2960 -0.1184  0.1698
 6737SOL    HW131844   2.183   3.125   3.782  0.2869  0.0899 -0.7975
 6737SOL    HW231845   2.040   3.117   3.822 -2.5752 -1.8680 -1.8546
 6738SOL     OW31846   0.274   2.607   8.889  0.6268  0.0480  0.0956
 6738SOL    HW131847   0.343   2.576   8.830  2.5923  1.8553  1.4490
 6738SOL    HW231848   0.259   2.528   8.941  0.9117  0.0383  0.1666
 6739SOL     OW31849   2.247   1.989  15.184 -0.3418 -0.5019 -0.0115
 6739SOL    HW131850   2.292   1.912  15.218  1.4029  0.4658 -0.1252
 6739SOL    HW231851   2.292   2.009  15.102  1.1465 -3.9150 -0.0038
 6740SOL     OW31852   2.215   1.603   9.171 -0.1551  0.2096  0.1884
 6740SOL    HW131853   2.232   1.511   9.192 -1.5856 -0.2060 -0.4942
 6740SOL    HW231854   2.274   1.609   9.096  2.3675 -1.6086  2.0239
 6741SOL     OW31855   0.640   1.814   9.148  0.2055  0.4576  0.0898
 6741SOL    HW131856   0.599   1.891   9.109  1.9135  0.7927 -1.0459
 6741SOL    HW231857   0.646   1.774   9.062 -3.4274  0.8229 -0.3500
 6742SOL     OW31858   0.055   4.409   2.856  0.0833  0.0620  0.3716
 6742SOL    HW131859   0.124   4.344   2.845 -0.6502 -0.7083  0.3174
 6742SOL    HW231860   4.722   4.379   2.791 -0.9164  2.5074  0.2470
 6743SOL     OW31861   1.979   2.801   3.762 -0.3861  0.2387 -0.1896
 6743SOL    HW131862   2.012   2.888   3.743 -1.0784  0.4598 -0.3743
 6743SOL    HW231863   1.928   2.811   3.843 -3.7237  1.6760 -2.5024
 6744SOL     OW31864   3.280   0.734  12.902  0.1264  0.0638  0.1935
 6744SOL    HW131865   3.371   0.705  12.914  0.8727  3.1162  2.2568
 6744SOL    HW231866   3.234   0.668  12.953  1.4342 -1.6408 -0.8530
 6745SOL     OW31867   0.733   3.508   6.125 -0.1637 -0.3732 -0.1178
 6745SOL    HW131868   0.824   3.490   6.145  0.3689  2.3658 -0.0518
 6745SOL    HW231869   0.702   3.509   6.215  1.1760 -0.0204  0.3350
 6746SOL     OW31870   0.776   4.477   6.545 -0.2193 -0.4349 -0.1986
 6746SOL    HW131871   0.684   4.474   6.574 -0.0110  1.5321  0.6755
 6746SOL    HW231872   0.814   4.416   6.608  2.3118  1.6252  0.2762
 6747SOL     OW31873   3.830   3.418  17.392  0.3842 -0.2184  0.2080
 6747SOL    HW131874   3.736   3.438  17.397  0.1736 -1.1355 -0.1257
 6747SOL    HW231875   3.850   3.430  17.484 -0.4587  0.6993  0.2768
 6748SOL     OW31876   4.354   0.907   7.355 -0.4128  0.3454  0.1384
 6748SOL    HW131877   4.364   0.924   7.261 -0.6537  0.3932  0.1196
 6748SOL    HW231878   4.416   0.836   7.370  0.8574  1.4043 -0.1711
 6749SOL     OW31879   4.447   3.831   6.524  0.0266 -0.2926  0.3122
 6749SOL    HW131880   4.445   3.922   6.495  0.1274 -0.1551  0.7342
 6749SOL    HW231881   4.467   3.783   6.444  0.3978  0.7825 -0.2407
 6750SOL     OW31882   1.931   3.447   6.387  0.2465  0.6272 -0.1810
 6750SOL    HW131883   2.001   3.455   6.452  1.1015 -1.6048 -0.8356
 6750SOL    HW231884   1.980   3.447   6.306  0.7517  0.4657  0.1258
 6751SOL     OW31885   1.591   3.637   4.585  0.2848 -0.2418 -0.1626
 6751SOL    HW131886   1.590   3.731   4.603  0.4521  0.4500 -3.8758
 6751SOL    HW231887   1.680   3.611   4.608  0.4742 -1.4346 -2.2197
 6752SOL     OW31888   2.954   0.799   6.450  0.2157  0.2599  0.1479
 6752SOL    HW131889   2.949   0.793   6.355 -1.3568 -0.5252  0.2744
 6752SOL    HW231890   2.911   0.718   6.479  0.7173  0.2912  0.9991
 6753SOL     OW31891   1.203   4.258  13.122  0.0943  0.5069  0.5960
 6753SOL    HW131892   1.276   4.196  13.128 -1.4010 -1.3112 -0.1088
 6753SOL    HW231893   1.145   4.196  13.078  0.8466  0.1281  0.1392
 6754SOL     OW31894   2.283   2.057   9.493  0.4658  0.3086  0.2699
 6754SOL    HW131895   2.203   2.065   9.546  0.0759 -1.5427 -0.0138
 6754SOL    HW231896   2.262   1.998   9.421  2.5373  1.5430 -1.3338
 6755SOL     OW31897   0.276   0.617   2.246 -0.3113 -0.0840 -0.3483
 6755SOL    HW131898   0.327   0.668   2.308 -1.1367  0.2395  0.0538
 6755SOL    HW231899   0.327   0.636   2.167 -1.7346 -1.7013 -1.6589
 6756SOL     OW31900   2.017   1.839   4.861  0.1629 -0.2071 -0.0510
 6756SOL    HW131901   2.020   1.893   4.941 -0.9261  1.0713 -0.8732
 6756SOL    HW231902   1.964   1.762   4.879  0.7295 -1.2285 -2.6838
 6757SOL     OW31903   4.010   2.465   4.375  0.3865 -0.5264 -0.7129
 6757SOL    HW131904   4.081   2.410   4.342 -1.0168 -3.2025  0.6788
 6757SOL    HW231905   3.935   2.406   4.367 -1.7846  2.2036 -0.4776
 6758SOL     OW31906   1.198   1.898   9.485  0.0665 -0.6785 -0.0557
 6758SOL    HW131907   1.124   1.905   9.546 -0.8374  2.9965 -1.5990
 6758SOL    HW231908   1.223   1.808   9.508 -0.1907 -0.4366  1.2007
 6759SOL     OW31909   1.716   0.367   5.360  0.0731 -0.2663  0.4751
 6759SOL    HW131910   1.707   0.397   5.451 -1.7440 -1.4837  0.6876
 6759SOL    HW231911   1.689   0.275   5.367 -1.9000  0.3613  0.8255
 6760SOL     OW31912   3.087   2.674   7.148  0.4968 -0.3177 -0.5402
 6760SOL    HW131913   3.162   2.733   7.159  0.5214 -0.5142  0.2991
 6760SOL    HW231914   3.044   2.684   7.233  2.0008  2.0280 -0.0646
 6761SOL     OW31915   3.812   0.087   1.910  0.2290 -0.1710 -0.2195
 6761SOL    HW131916   3.851   0.158   1.860 -0.6660 -0.4297 -1.2881
 6761SOL    HW231917   3.762   0.045   1.840  1.2592  0.5278 -1.3732
 6762SOL     OW31918   1.479   3.817   9.460 -0.1218 -0.1423  0.6598
 6762SOL    HW131919   1.482   3.732   9.415 -0.3484  0.1301  0.1422
 6762SOL    HW231920   1.544   3.782   9.522 -0.8611 -1.4179  0.7169
 6763SOL     OW31921   0.250   4.627   8.713 -0.1804  0.3112 -0.1443
 6763SOL    HW131922   0.193   4.634   8.790  1.2716  0.7572  0.8951
 6763SOL    HW231923   0.191   4.649   8.641 -0.0984  2.1107  0.3338
 6764SOL     OW31924   2.722   4.360  11.274 -0.1908  0.5054  0.1376
 6764SOL    HW131925   2.716   4.293  11.343  1.1094  0.2924  0.0549
 6764SOL    HW231926   2.780   4.313  11.214  2.0800  0.7819  2.1186
 6765SOL     OW31927   2.594   4.054   6.737 -0.2892 -0.1341 -0.1359
 6765SOL    HW131928   2.522   4.084   6.682  0.0835  1.8955  0.4627
 6765SOL    HW231929   2.557   4.040   6.824  1.5912 -1.9641  0.3778
 6766SOL     OW31930   1.464   3.465   5.806  0.1551 -0.2342  0.0273
 6766SOL    HW131931   1.390   3.505   5.851 -0.1299  0.2290 -0.8619
 6766SOL    HW231932   1.419   3.455   5.722  1.3352  0.9064 -0.7477
 6767SOL     OW31933   0.484   3.704   9.553 -0.6502  0.2019  0.2633
 6767SOL    HW131934   0.578   3.686   9.544 -1.3975 -3.6829  0.3882
 6767SOL    HW231935   0.469   3.647   9.628 -3.5417  0.4492 -0.1449
 6768SOL     OW31936   3.744   4.298  13.284 -0.0249 -0.6598 -0.4536
 6768SOL    HW131937   3.809   4.254  13.339  0.5404  0.8683  0.1107
 6768SOL    HW231938   3.680   4.327  13.349  1.0090 -1.4968  0.9487
 6769SOL     OW31939   0.263   3.293   0.370  0.1312 -0.3451 -0.1302
 6769SOL    HW131940   0.329   3.232   0.402 -1.9273 -1.7708  1.4462
 6769SOL    HW231941   0.284   3.281   0.277  1.5694 -2.3575  0.4690
 6770SOL     OW31942   4.475   3.465  10.637  0.2639 -0.0859  0.1467
 6770SOL    HW131943   4.490   3.373  10.659  1.2539  0.0424 -0.0004
 6770SOL    HW231944   4.439   3.495  10.720 -1.7488  4.5922 -2.3872
 6771SOL     OW31945   3.965   1.294   7.391 -0.3414 -0.5667 -0.1251
 6771SOL    HW131946   4.031   1.227   7.372  1.0215  1.0673 -1.1448
 6771SOL    HW231947   3.909   1.249   7.454 -1.4793 -0.4753 -1.0791
 6772SOL     OW31948   3.166   0.249  14.044 -0.5118  0.2891  0.1204
 6772SOL    HW131949   3.222   0.326  14.057  1.8780 -1.1641 -1.5629
 6772SOL    HW231950   3.141   0.236  14.135  0.9964 -1.3445  0.2840
 6773SOL     OW31951   2.254   2.495   9.030 -0.0458  0.2156  0.0898
 6773SOL    HW131952   2.318   2.444   9.079  0.4836  1.5330  0.7543
 6773SOL    HW231953   2.284   2.585   9.043 -1.6915  0.3959  2.5410
 6774SOL     OW31954   3.349   1.748   9.525 -0.2051 -1.1905  0.0518
 6774SOL    HW131955   3.281   1.681   9.514  0.5062 -1.7634 -0.8541
 6774SOL    HW231956   3.288   1.814   9.558 -0.9589 -1.7451 -0.2352
 6775SOL     OW31957   1.888   3.425  14.230 -0.1047 -0.2292 -0.6153
 6775SOL    HW131958   1.838   3.371  14.290 -0.3821  0.5187 -0.1755
 6775SOL    HW231959   1.849   3.510  14.252  0.1825 -0.2581 -0.0168
 6776SOL     OW31960   3.657   1.033   3.154  0.3397 -0.0974 -0.8469
 6776SOL    HW131961   3.688   0.958   3.204 -0.4199 -0.4263 -0.8723
 6776SOL    HW231962   3.568   1.046   3.187  0.8466  0.2154  0.4070
 6777SOL     OW31963   3.866   3.608   7.302 -0.1459 -0.5332  0.1606
 6777SOL    HW131964   3.926   3.535   7.289 -1.4546 -1.0554 -2.9534
 6777SOL    HW231965   3.864   3.633   7.395  1.3578  0.9040 -0.1857
 6778SOL     OW31966   2.833   0.015   8.326  0.2218  0.5162 -0.3938
 6778SOL    HW131967   2.840   0.109   8.343  0.9075  1.1309 -3.9647
 6778SOL    HW231968   2.745   0.009   8.364 -0.9407 -0.8435 -3.2675
 6779SOL     OW31969   3.803   2.200   4.720 -0.8008 -0.2729 -0.6558
 6779SOL    HW131970   3.890   2.175   4.751 -0.2212 -0.3437 -2.3514
 6779SOL    HW231971   3.747   2.158   4.786  0.3477  0.2811  0.6759
 6780SOL     OW31972   2.627   2.638   8.019 -0.0518 -0.2170  0.9198
 6780SOL    HW131973   2.643   2.694   7.943  0.6923 -0.5177  0.8536
 6780SOL    HW231974   2.718   2.623   8.046  0.3472  2.2703  0.9797
 6781SOL     OW31975   0.941   4.110   9.775 -0.3044 -0.4391  0.1573
 6781SOL    HW131976   0.948   4.040   9.710 -0.4668  0.5445 -0.9161
 6781SOL    HW231977   0.961   4.195   9.736  1.4184 -1.1174 -0.4292
 6782SOL     OW31978   1.610   2.126   2.264 -0.5280 -0.0241 -0.6471
 6782SOL    HW131979   1.599   2.078   2.182  1.7348 -1.2293 -0.2508
 6782SOL    HW231980   1.701   2.151   2.251 -0.4511  0.2950  0.4927
 6783SOL     OW31981   1.438   0.691  11.696 -0.3452 -0.1139 -0.3791
 6783SOL    HW131982   1.492   0.705  11.619 -0.9040 -2.6765 -1.2446
 6783SOL    HW231983   1.362   0.653  11.651 -0.4083 -2.5544  1.7597
 6784SOL     OW31984   4.054   2.822   1.158  0.2597 -0.0587  0.0506
 6784SOL    HW131985   4.137   2.849   1.198  0.4298 -0.3248 -0.1176
 6784SOL    HW231986   4.042   2.738   1.202 -3.9439 -0.6743 -2.2402
 6785SOL     OW31987   4.059   0.667  13.653 -0.0197 -0.0906 -0.2167
 6785SOL    HW131988   4.142   0.621  13.640  0.7190  1.6224 -1.4559
 6785SOL    HW231989   4.083   0.717  13.731 -1.9515  0.6610 -0.1215
 6786SOL     OW31990   1.605   3.828   6.472  0.1247  0.0674  0.7887
 6786SOL    HW131991   1.692   3.848   6.506  0.1429  0.1498  0.6930
 6786SOL    HW231992   1.556   3.901   6.507 -2.1015 -1.1036  0.0794
 6787SOL     OW31993   0.260   2.564   6.044  0.3683  0.5159 -0.2825
 6787SOL    HW131994   0.173   2.526   6.054  0.9598 -0.7188  0.1078
 6787SOL    HW231995   0.262   2.646   6.095  0.9234  0.8439 -0.8355
 6788SOL     OW31996   2.155   3.045   7.274  0.6167  0.1163 -0.0502
 6788SOL    HW131997   2.216   2.974   7.255  1.3742  1.0643 -1.0872
 6788SOL    HW231998   2.079   2.996   7.241 -0.1551  0.3416  1.3749
 6789SOL     OW31999   4.241   4.398  15.794  0.3057 -0.1740 -0.1325
 6789SOL    HW132000   4.207   4.438  15.715  0.7663  0.9073  0.2186
 6789SOL    HW232001   4.335   4.412  15.797  0.5986 -1.7489 -2.1740
 6790SOL     OW32002   1.945   0.345  11.407  0.0922  0.5973 -0.3793
 6790SOL    HW132003   1.995   0.320  11.485  1.6364 -2.2976 -2.2904
 6790SOL    HW232004   1.858   0.310  11.424  0.5881 -0.3177  0.2336
 6791SOL     OW32005   0.657   2.272  13.431  0.4891 -0.0810  0.2799
 6791SOL    HW132006   0.606   2.278  13.350 -0.7590 -0.2654  1.0464
 6791SOL    HW232007   0.586   2.260  13.494  1.7268 -1.5424  1.3956
 6792SOL     OW32008   3.890   3.284   4.055  0.4589 -0.2998 -0.1686
 6792SOL    HW132009   3.806   3.240   4.065  0.0701  0.1826 -1.2350
 6792SOL    HW232010   3.936   3.228   3.992  0.7358  1.1560 -1.2677
 6793SOL     OW32011   0.502   4.647  12.319 -0.1300  0.7410 -0.3878
 6793SOL    HW132012   0.597   4.656  12.327 -0.4025  1.2318  2.4193
 6793SOL    HW232013   0.470   4.641  12.409  0.5799 -1.3819 -0.2799
 6794SOL     OW32014   4.226   2.708   8.425  0.5764 -0.2725  0.2455
 6794SOL    HW132015   4.280   2.783   8.452 -1.9045  1.4217  0.4589
 6794SOL    HW232016   4.208   2.664   8.508 -2.1646  1.2340  0.4403
 6795SOL     OW32017   2.161   3.712   2.185 -0.5518  0.2330 -0.4340
 6795SOL    HW132018   2.212   3.681   2.259  0.0858 -0.7665 -1.3037
 6795SOL    HW232019   2.224   3.708   2.113  1.6219 -1.1572  1.5791
 6796SOL     OW32020   3.112   0.980   1.423 -0.1921  0.2495 -0.8462
 6796SOL    HW132021   3.146   0.901   1.465  0.2796  1.1896  0.5452
 6796SOL    HW232022   3.180   1.044   1.446 -2.0994  1.3833  1.6292
 6797SOL     OW32023   3.104   3.686   3.169 -0.5882  0.2527  0.1243
 6797SOL    HW132024   3.120   3.758   3.108  0.6582 -0.1410 -0.0211
 6797SOL    HW232025   3.187   3.698   3.216 -0.9707  2.9458  0.1003
 6798SOL     OW32026   1.204   4.180   6.685 -0.4885 -0.1417  0.2261
 6798SOL    HW132027   1.213   4.102   6.739  1.0684  0.0517  0.2619
 6798SOL    HW232028   1.269   4.245   6.713  0.2022 -0.6950 -0.1008
 6799SOL     OW32029   0.252   4.210   2.541  0.2503  0.0901 -0.3086
 6799SOL    HW132030   0.334   4.218   2.589  1.1704  1.3185 -2.0821
 6799SOL    HW232031   0.252   4.286   2.482 -0.8670  2.8566  3.2973
 6800SOL     OW32032   0.365   3.996   3.093  0.3780 -0.1685 -0.3951
 6800SOL    HW132033   0.287   3.949   3.123  1.0855 -0.3266  1.1583
 6800SOL    HW232034   0.430   3.929   3.112 -0.4804 -1.2082 -1.1101
 6801SOL     OW32035   1.984   1.261  11.054 -0.1883  0.1342 -0.0891
 6801SOL    HW132036   1.920   1.326  11.026  0.9670  1.7299  1.0459
 6801SOL    HW232037   1.987   1.262  11.150  2.3694  1.0342 -0.1908
 6802SOL     OW32038   2.564   2.397   4.978  0.2970  0.6410 -0.0543
 6802SOL    HW132039   2.546   2.466   5.041 -0.7729  0.8306 -0.5659
 6802SOL    HW232040   2.576   2.320   5.034  1.7735  0.7095 -0.2847
 6803SOL     OW32041   0.828   1.430   7.796  0.1189  0.1758  0.1089
 6803SOL    HW132042   0.916   1.463   7.782 -0.9269  3.2270  0.9038
 6803SOL    HW232043   0.775   1.507   7.778 -0.4548  0.0536  1.2585
 6804SOL     OW32044   0.041   0.488   6.516  0.1377 -0.4417  0.1519
 6804SOL    HW132045   0.013   0.523   6.431  0.3722 -0.4272  0.0816
 6804SOL    HW232046   4.689   0.487   6.565  0.2516  0.4502  0.3557
 6805SOL     OW32047   1.930   0.674   6.791 -0.6523  0.3779 -0.6053
 6805SOL    HW132048   1.950   0.614   6.719 -1.5352 -1.0951  0.3878
 6805SOL    HW232049   1.837   0.655   6.806 -0.0796 -2.6820 -0.9842
 6806SOL     OW32050   1.232   3.781   9.578 -0.0372 -0.6180  0.0430
 6806SOL    HW132051   1.179   3.848   9.535  1.6527  0.8735  0.2718
 6806SOL    HW232052   1.306   3.795   9.518  0.8862 -2.0062  0.8492
 6807SOL     OW32053   4.067   1.434   2.846  0.0198  0.5014 -0.7612
 6807SOL    HW132054   4.054   1.409   2.938 -2.5145 -1.0285 -1.5413
 6807SOL    HW232055   4.071   1.347   2.808  0.0431 -0.6355  1.8307
 6808SOL     OW32056   2.526   2.859  11.772 -0.1922 -0.0161 -0.0252
 6808SOL    HW132057   2.466   2.785  11.788 -0.3904  0.9144  3.6364
 6808SOL    HW232058   2.558   2.867  11.862  0.0953 -0.7424 -0.0652
 6809SOL     OW32059   1.372   2.161   7.882  0.1586 -0.1130 -0.0236
 6809SOL    HW132060   1.298   2.217   7.907 -1.1906 -1.5238 -0.8861
 6809SOL    HW232061   1.338   2.072   7.885  0.9019 -0.4520 -1.7479
 6810SOL     OW32062   0.195   2.509   2.767 -0.3435 -0.0467 -0.0604
 6810SOL    HW132063   0.128   2.574   2.785 -0.4063 -0.0838 -0.1585
 6810SOL    HW232064   0.248   2.541   2.694 -1.3111 -2.1100 -1.6761
 6811SOL     OW32065   0.401   2.840   1.451 -0.0969 -0.4852  0.0134
 6811SOL    HW132066   0.314   2.802   1.449 -1.4303  2.7692 -2.4201
 6811SOL    HW232067   0.440   2.827   1.538 -1.1982  2.0615  0.8843
 6812SOL     OW32068   0.580   0.471   3.022  0.1939  0.4513 -0.4191
 6812SOL    HW132069   0.501   0.517   2.995 -0.4003  0.6452  1.6642
 6812SOL    HW232070   0.638   0.464   2.946 -1.7128 -2.0488 -1.6117
 6813SOL     OW32071   2.484   2.060   3.670 -0.1813 -0.4294 -0.5569
 6813SOL    HW132072   2.407   2.070   3.725 -0.1809 -2.3138 -0.2359
 6813SOL    HW232073   2.464   2.131   3.609  0.0332  0.1933  0.0950
 6814SOL     OW32074   0.891   0.837   3.798 -0.3815 -0.2729  0.1646
 6814SOL    HW132075   0.872   0.910   3.739 -1.0492 -0.7328 -0.1933
 6814SOL    HW232076   0.907   0.764   3.738 -0.8559 -0.5575  0.3899
 6815SOL     OW32077   4.413   1.141   0.983 -0.6420  0.3774 -0.3162
 6815SOL    HW132078   4.449   1.147   1.072 -1.3940  1.6038 -0.0865
 6815SOL    HW232079   4.390   1.232   0.963  3.7606  1.2113 -1.7114
 6816SOL     OW32080   4.557   2.257   1.425  0.1468  0.3621 -0.4097
 6816SOL    HW132081   4.535   2.185   1.484  1.2331  0.6815  0.3758
 6816SOL    HW232082   4.485   2.241   1.364  0.2803 -1.3441 -0.1203
 6817SOL     OW32083   2.881   2.547   9.193  0.3783  0.1036 -0.2939
 6817SOL    HW132084   2.909   2.600   9.118  0.2296  0.0776 -0.3681
 6817SOL    HW232085   2.789   2.532   9.172  0.4301 -1.4620  0.5964
 6818SOL     OW32086   4.719   2.616  17.453 -0.0422  0.0287 -0.2737
 6818SOL    HW132087   4.632   2.657  17.453 -0.2543 -0.4231  0.4491
 6818SOL    HW232088   4.713   2.559  17.530 -0.2270 -0.3479 -0.5695
 6819SOL     OW32089   3.157   4.232   2.866  0.1580 -0.2659  0.1378
 6819SOL    HW132090   3.225   4.199   2.926  0.2731  0.4630  0.4099
 6819SOL    HW232091   3.167   4.325   2.886 -0.5958  0.1936 -1.6584
 6820SOL     OW32092   3.776   0.012   4.344  0.3410 -0.0088  0.7134
 6820SOL    HW132093   3.819   4.661   4.321  0.4843 -0.4875  2.6956
 6820SOL    HW232094   3.803   0.033   4.433 -1.6690  1.9633  0.8532
 6821SOL     OW32095   3.655   3.421   9.200  0.0130 -0.7292  0.2935
 6821SOL    HW132096   3.601   3.469   9.263 -1.7156 -0.0611 -1.6718
 6821SOL    HW232097   3.713   3.494   9.177 -0.0864 -0.7512 -0.0320
 6822SOL     OW32098   0.663   0.857   6.720 -0.2047 -0.4327 -0.1737
 6822SOL    HW132099   0.754   0.859   6.751 -0.9127 -1.5732  1.9553
 6822SOL    HW232100   0.653   0.762   6.717  0.0128 -0.4126 -1.8242
 6823SOL     OW32101   0.718   1.488   4.496  0.6701 -0.5146  0.2442
 6823SOL    HW132102   0.757   1.514   4.579 -1.2948  0.3370  0.8899
 6823SOL    HW232103   0.733   1.565   4.440 -3.3502  0.5776  0.7095
 6824SOL     OW32104   3.653   1.559   4.292  0.0143 -0.0809  0.3577
 6824SOL    HW132105   3.714   1.499   4.335 -0.1728 -0.5307 -0.0143
 6824SOL    HW232106   3.705   1.637   4.273 -0.5284 -0.0468 -0.9448
 6825SOL     OW32107   3.632   3.272   8.748  0.4912 -0.0611 -0.2750
 6825SOL    HW132108   3.653   3.365   8.762 -0.9247  0.4349 -1.4613
 6825SOL    HW232109   3.540   3.271   8.722  0.3693  2.6356  0.0680
 6826SOL     OW32110   3.867   1.207  16.606 -0.4712 -0.3850 -0.5207
 6826SOL    HW132111   3.925   1.131  16.598 -0.8394 -0.9798  2.2855
 6826SOL    HW232112   3.923   1.267  16.656 -1.2344 -0.2614  0.1945
 6827SOL     OW32113   4.237   2.198   8.959  0.0021 -0.1612  0.2244
 6827SOL    HW132114   4.197   2.188   9.046 -1.4373 -1.0021 -0.5356
 6827SOL    HW232115   4.303   2.129   8.955  0.0886  0.0566 -2.0740
 6828SOL     OW32116   3.900   4.556   6.124 -0.6456  0.1150 -0.1558
 6828SOL    HW132117   3.817   4.579   6.082  0.2012 -1.1910 -2.5381
 6828SOL    HW232118   3.878   4.596   6.209  0.1454 -3.4481  1.6904
 6829SOL     OW32119   3.033   3.103   2.628 -0.0216  0.0100  0.1449
 6829SOL    HW132120   3.077   3.075   2.708  1.6301 -1.2374 -1.2058
 6829SOL    HW232121   2.948   3.061   2.642 -0.8854  1.8973  0.5583
 6830SOL     OW32122   4.406   2.984   2.014  0.0499 -0.6541 -0.3655
 6830SOL    HW132123   4.362   3.063   2.047  1.0607 -0.5979  0.8472
 6830SOL    HW232124   4.465   2.971   2.088  0.1397  2.8483  0.1703
 6831SOL     OW32125   3.589   2.523  11.494 -0.0278  0.0506 -0.2379
 6831SOL    HW132126   3.629   2.436  11.490  0.2292  0.1708 -0.3268
 6831SOL    HW232127   3.628   2.564  11.572 -1.0598  0.3391  0.1257
 6832SOL     OW32128   3.771   0.426   7.937 -0.1186  0.0844 -0.7827
 6832SOL    HW132129   3.786   0.475   7.855 -0.3513  0.3110 -0.6911
 6832SOL    HW232130   3.676   0.439   7.941 -0.1616 -0.2752 -0.6694
 6833SOL     OW32131   2.885   4.299  16.583  0.3250 -0.6358  0.2198
 6833SOL    HW132132   2.859   4.329  16.670  0.7248  0.2979  0.0130
 6833SOL    HW232133   2.980   4.285  16.588  0.4071 -0.1282  0.1110
 6834SOL     OW32134   1.251   3.145   6.044  0.4865  0.1287  0.1479
 6834SOL    HW132135   1.248   3.095   5.962 -0.2978 -0.8304  0.7653
 6834SOL    HW232136   1.173   3.105   6.082  0.1488  0.7807  0.1290
 6835SOL     OW32137   1.021   2.095   1.525  0.3539  0.0779 -0.4772
 6835SOL    HW132138   1.038   2.001   1.517 -2.7819 -0.3704 -1.5905
 6835SOL    HW232139   1.016   2.128   1.435 -2.7161 -1.3019 -0.8150
 6836SOL     OW32140   0.701   3.447   6.848  0.4000 -0.6797  0.3172
 6836SOL    HW132141   0.629   3.483   6.901  0.0441  0.8154 -1.1976
 6836SOL    HW232142   0.740   3.395   6.918 -0.6240  0.5180  1.7895
 6837SOL     OW32143   2.719   1.206  17.022  0.0037  0.1963 -0.2971
 6837SOL    HW132144   2.673   1.186  16.940  0.8212 -1.8332 -0.2498
 6837SOL    HW232145   2.641   1.216  17.077  1.8530  3.1873  1.7962
 6838SOL     OW32146   0.321   1.433   2.410 -0.2646 -0.0158  0.3185
 6838SOL    HW132147   0.300   1.362   2.470 -2.7997  1.1126  0.7412
 6838SOL    HW232148   0.283   1.514   2.445 -0.6989  0.8433 -2.1760
 6839SOL     OW32149   1.835   3.485   8.495  0.0821  0.7623 -0.4524
 6839SOL    HW132150   1.891   3.559   8.519 -1.8725  2.3226 -0.6713
 6839SOL    HW232151   1.807   3.460   8.584 -0.5751  1.9451 -0.3233
 6840SOL     OW32152   3.538   1.659   3.943  0.4676 -0.5125  0.4622
 6840SOL    HW132153   3.538   1.724   3.872  2.9299 -1.7731 -0.6865
 6840SOL    HW232154   3.620   1.683   3.985 -0.9070 -0.1824  2.9548
 6841SOL     OW32155   3.717   0.276   4.872 -0.0900  0.5634 -0.0471
 6841SOL    HW132156   3.808   0.288   4.897 -0.1446 -0.9819  0.8713
 6841SOL    HW232157   3.673   0.350   4.913 -3.2823 -2.2878  1.6780
 6842SOL     OW32158   0.931   3.305   2.461 -0.1015 -0.6303  0.7691
 6842SOL    HW132159   0.878   3.341   2.531  0.3776  2.0892 -0.2542
 6842SOL    HW232160   1.014   3.302   2.509  0.3305 -0.8668  0.0232
 6843SOL     OW32161   0.043   4.027   8.730 -0.2300  0.0932 -0.2664
 6843SOL    HW132162   0.027   3.937   8.702 -1.1562  0.9221 -2.4223
 6843SOL    HW232163   0.130   4.039   8.690 -0.6466  1.2857 -0.8086
 6844SOL     OW32164   4.130   0.568   6.534  0.5875  0.2022 -0.1482
 6844SOL    HW132165   4.121   0.567   6.439 -0.3105  2.2057 -0.0804
 6844SOL    HW232166   4.037   0.577   6.555  0.8331 -0.5050  1.2621
 6845SOL     OW32167   1.559   3.225   2.980  0.7650  0.1351  0.0646
 6845SOL    HW132168   1.608   3.251   2.902  3.7237  0.0465  1.8880
 6845SOL    HW232169   1.521   3.143   2.949  1.1477  0.2502 -0.6951
 6846SOL     OW32170   0.099   2.266   6.316 -0.1965 -0.3943  0.1661
 6846SOL    HW132171   0.166   2.329   6.343 -0.5444 -0.3914  1.0320
 6846SOL    HW232172   0.094   2.229   6.404  0.7912  0.4617  0.5839
 6847SOL     OW32173   0.009   0.143   8.028 -0.6428  0.4792  0.4784
 6847SOL    HW132174   0.037   0.122   7.939 -0.3157 -3.2723  1.4870
 6847SOL    HW232175   0.034   0.236   8.026 -0.2723  0.4187  2.8079
 6848SOL     OW32176   4.054   3.427   7.299 -0.4102 -0.6583 -0.3244
 6848SOL    HW132177   4.134   3.476   7.282  1.0934 -2.6332  1.0248
 6848SOL    HW232178   4.064   3.348   7.246 -0.5554  0.2120 -1.6338
 6849SOL     OW32179   4.638   1.668  17.643  0.2362  0.3684  0.8163
 6849SOL    HW132180   4.712   1.607  17.639 -0.2801 -0.1880 -0.1645
 6849SOL    HW232181   4.588   1.646  17.565 -0.8612  0.0623  1.6094
 6850SOL     OW32182   1.414   2.450   4.546 -0.3107  0.3868  0.8024
 6850SOL    HW132183   1.340   2.510   4.533  0.2363  1.0715  0.8286
 6850SOL    HW232184   1.490   2.507   4.560 -0.3929  0.6396  0.1898
 6851SOL     OW32185   2.569   3.378  10.606 -0.0090 -0.0627 -0.3464
 6851SOL    HW132186   2.579   3.310  10.672  0.9292 -1.3081 -1.7834
 6851SOL    HW232187   2.595   3.330  10.528 -2.2039 -2.3771  0.3634
 6852SOL     OW32188   3.871   3.163   7.893  0.3036 -0.0009  0.1550
 6852SOL    HW132189   3.892   3.150   7.801 -0.7031  2.3883 -0.4187
 6852SOL    HW232190   3.900   3.252   7.914  0.6120  0.0609 -0.5582
 6853SOL     OW32191   0.273   1.737   2.761 -0.1273 -0.5851  0.2608
 6853SOL    HW132192   0.232   1.685   2.830  0.4657  1.6360  2.3048
 6853SOL    HW232193   0.279   1.824   2.802  0.2820  0.2789 -1.6533
 6854SOL     OW32194   1.853   2.553  17.026  0.2195 -0.2724  0.5001
 6854SOL    HW132195   1.936   2.526  16.986  0.3587  1.8489 -0.6409
 6854SOL    HW232196   1.871   2.647  17.025  0.6532 -0.3718 -1.7122
 6855SOL     OW32197   0.740   4.274  10.237 -0.0319 -0.5495 -0.1930
 6855SOL    HW132198   0.733   4.183  10.268  0.0312 -0.6780 -0.5574
 6855SOL    HW232199   0.762   4.249  10.148  1.9999 -0.9697  0.4277
 6856SOL     OW32200   2.118   2.023   6.552  0.0901  0.1832 -0.4473
 6856SOL    HW132201   2.166   1.941   6.561 -0.1948 -0.1802 -2.1490
 6856SOL    HW232202   2.031   1.992   6.574  0.3084 -0.8087 -0.9613
 6857SOL     OW32203   3.631   2.962   7.531  0.2983  0.6334 -0.5386
 6857SOL    HW132204   3.576   2.902   7.581  1.9615  1.6099  2.4766
 6857SOL    HW232205   3.625   2.925   7.443  0.5176 -2.1728  0.6276
 6858SOL     OW32206   4.406   1.068   8.099  0.1544  0.0506 -0.2655
 6858SOL    HW132207   4.318   1.053   8.065 -0.2316  2.3654 -0.2964
 6858SOL    HW232208   4.403   1.044   8.192  1.1549  1.0428  0.0262
 6859SOL     OW32209   4.142   0.442   4.017 -0.6288 -0.1721  0.4918
 6859SOL    HW132210   4.074   0.510   4.023 -0.6072 -0.0587 -0.6074
 6859SOL    HW232211   4.189   0.479   3.943 -1.5139  0.1115  0.0729
 6860SOL     OW32212   4.032   1.645   2.007  0.0331 -0.4005  0.0213
 6860SOL    HW132213   4.026   1.671   1.915 -1.3955 -0.7302  0.0170
 6860SOL    HW232214   4.124   1.668   2.020 -1.0108  3.6554  0.2593
 6861SOL     OW32215   4.551   3.861   8.267 -0.8933  0.3159  0.1096
 6861SOL    HW132216   4.523   3.907   8.346  0.3353 -0.0451  0.7562
 6861SOL    HW232217   4.637   3.895   8.241  0.0718 -2.1982  0.0165
 6862SOL     OW32218   2.978   3.893  13.337 -0.7735  0.1732 -0.9572
 6862SOL    HW132219   3.010   3.923  13.251 -0.4457 -1.1341 -1.2989
 6862SOL    HW232220   3.064   3.874  13.374 -0.3628  0.9605 -1.4814
 6863SOL     OW32221   1.627   1.758  15.839  0.0787 -0.0143  0.1163
 6863SOL    HW132222   1.539   1.795  15.833 -0.1028 -0.3579  0.7373
 6863SOL    HW232223   1.682   1.837  15.844 -0.0260  0.1004 -0.5448
 6864SOL     OW32224   3.121   4.233   3.901  0.2870  0.0829 -0.1490
 6864SOL    HW132225   3.139   4.322   3.874  0.2828 -0.2286 -1.1676
 6864SOL    HW232226   3.038   4.244   3.949  1.3054 -0.7967  1.8368
 6865SOL     OW32227   1.297   0.824   7.484  0.5182  0.6665 -0.2152
 6865SOL    HW132228   1.298   0.891   7.552  1.2335  2.1611 -1.6915
 6865SOL    HW232229   1.377   0.775   7.505  0.8081 -0.7078 -4.4781
 6866SOL     OW32230   0.211   1.513   5.913  0.4155  0.8911  0.4765
 6866SOL    HW132231   0.139   1.480   5.966  0.3895 -0.6845 -0.5615
 6866SOL    HW232232   0.193   1.608   5.915  0.4348  0.9067 -0.0425
 6867SOL     OW32233   3.470   0.771  15.467  0.0401  0.2992  0.4181
 6867SOL    HW132234   3.378   0.747  15.456  0.7263 -1.8424 -0.6632
 6867SOL    HW232235   3.462   0.837  15.536  4.8182  1.1406  0.1418
 6868SOL     OW32236   4.051   2.690   5.348  0.7998  0.4881 -0.0032
 6868SOL    HW132237   4.060   2.785   5.353 -1.2032  0.7288 -0.8855
 6868SOL    HW232238   3.970   2.676   5.298 -0.5204 -0.2786  2.3406
 6869SOL     OW32239   3.642   1.613   1.080  0.0605  0.0192 -0.3310
 6869SOL    HW132240   3.561   1.568   1.103  1.2973 -1.9822  0.1147
 6869SOL    HW232241   3.689   1.549   1.026  1.1323 -1.0204  1.8701
 6870SOL     OW32242   2.894   2.156  10.622 -0.4764  0.4907 -0.1996
 6870SOL    HW132243   2.886   2.252  10.617  0.6506  0.6543  1.2022
 6870SOL    HW232244   2.827   2.133  10.687 -0.0962 -1.4841 -0.5057
 6871SOL     OW32245   3.841   0.706   1.753  0.2159 -0.1094 -0.6921
 6871SOL    HW132246   3.897   0.628   1.762  1.3808  1.0201  1.7376
 6871SOL    HW232247   3.905   0.764   1.713  1.9173 -0.8199  0.9797
 6872SOL     OW32248   3.823   1.243   9.096 -0.3725 -0.1343  0.2347
 6872SOL    HW132249   3.806   1.303   9.168  0.4773 -0.0488  0.3712
 6872SOL    HW232250   3.859   1.166   9.139 -1.9417 -0.8534  0.2654
 6873SOL     OW32251   1.114   2.462   8.715 -0.9176  0.0609  0.0409
 6873SOL    HW132252   1.152   2.484   8.630  1.4760  0.3432  1.1725
 6873SOL    HW232253   1.187   2.483   8.773 -0.1252  0.0570 -0.9462
 6874SOL     OW32254   0.655   4.042   8.038 -0.4558  0.0029  0.0359
 6874SOL    HW132255   0.705   4.076   7.964 -1.1241 -0.1895 -0.5103
 6874SOL    HW232256   0.633   4.125   8.081 -0.9458 -0.6678  1.0858
 6875SOL     OW32257   2.373   2.220  14.730  0.8797  0.1215 -0.2294
 6875SOL    HW132258   2.289   2.174  14.728  0.9805 -0.0956  0.8321
 6875SOL    HW232259   2.358   2.289  14.664  1.1319  0.5822  0.1994
 6876SOL     OW32260   2.268   1.317   8.771 -0.3324  0.5234 -0.0216
 6876SOL    HW132261   2.202   1.382   8.796  0.5445  0.8994  1.3332
 6876SOL    HW232262   2.292   1.348   8.683  2.1113 -0.5825  0.2495
 6877SOL     OW32263   3.963   2.855   2.084  0.1083 -0.8372  0.1299
 6877SOL    HW132264   3.894   2.896   2.136 -0.2568 -0.8119 -0.3695
 6877SOL    HW232265   4.028   2.828   2.149  0.1625 -0.1195  0.3744
 6878SOL     OW32266   3.123   3.042  17.327  0.0036  0.4990  0.0136
 6878SOL    HW132267   3.174   3.049  17.246  0.9777  0.1501  0.5923
 6878SOL    HW232268   3.033   3.049  17.297 -0.6359  1.7341  2.2360
 6879SOL     OW32269   4.327   3.715  15.468  0.0056  0.3157  0.1679
 6879SOL    HW132270   4.270   3.734  15.393 -0.4273  1.5016  0.7945
 6879SOL    HW232271   4.358   3.805  15.484  0.5446  0.6459 -2.7388
 6880SOL     OW32272   1.049   1.160  10.194  0.1906  0.6922 -0.3788
 6880SOL    HW132273   0.986   1.157  10.122 -0.7321  1.1142  0.4134
 6880SOL    HW232274   1.063   1.253  10.209  2.1461  0.4439 -0.6877
 6881SOL     OW32275   1.353   3.671   7.769  0.4172  0.1522  0.1976
 6881SOL    HW132276   1.317   3.588   7.737  0.3294 -0.6669  2.4121
 6881SOL    HW232277   1.393   3.707   7.689  0.7676  1.7709  1.1070
 6882SOL     OW32278   0.977   0.775   5.925  0.4994 -0.6859 -0.3188
 6882SOL    HW132279   0.988   0.748   5.834 -0.5179 -1.9301 -0.0829
 6882SOL    HW232280   1.056   0.825   5.943  0.0574  0.0906 -0.5540
 6883SOL     OW32281   0.739   2.136   2.162 -0.2161  0.0357  0.8150
 6883SOL    HW132282   0.702   2.224   2.166 -2.6389 -0.9562 -0.0714
 6883SOL    HW232283   0.829   2.146   2.195  0.2448  1.7494 -0.9874
 6884SOL     OW32284   2.023   0.541   2.919 -0.3031 -0.0386 -0.0872
 6884SOL    HW132285   2.065   0.623   2.947 -1.0043  0.0062  0.8238
 6884SOL    HW232286   2.074   0.519   2.841  3.1686 -1.1593  2.4971
 6885SOL     OW32287   0.496   1.051   0.287 -0.3530 -0.3699 -0.2318
 6885SOL    HW132288   0.538   1.099   0.359 -0.6429  0.9558 -0.9423
 6885SOL    HW232289   0.472   1.135   0.247  0.4662 -0.8677 -1.7542
 6886SOL     OW32290   0.798   2.112   7.265 -0.2387 -0.2054  0.1302
 6886SOL    HW132291   0.803   2.131   7.171  3.0306 -0.3250  0.3080
 6886SOL    HW232292   0.702   2.106   7.261 -0.3239  0.7275  0.6478
 6887SOL     OW32293   1.795   1.772   5.456  0.1128 -0.2265  0.2469
 6887SOL    HW132294   1.816   1.849   5.509 -0.4481  0.6042 -0.7597
 6887SOL    HW232295   1.739   1.733   5.524  1.9423 -0.7500  1.4652
 6888SOL     OW32296   2.198   2.331   6.073  0.0057  0.2277  0.3689
 6888SOL    HW132297   2.106   2.324   6.049 -0.2303 -0.3567  1.4640
 6888SOL    HW232298   2.243   2.300   5.994 -0.2896 -0.7596  0.5921
 6889SOL     OW32299   0.265   2.371   1.230  0.4564  0.1968  0.0264
 6889SOL    HW132300   0.223   2.299   1.184  1.8889 -1.6909  1.7049
 6889SOL    HW232301   0.189   2.426   1.250  0.0599  0.3014 -1.7508
 6890SOL     OW32302   4.334   1.002  17.393 -0.3633  0.4103  0.0336
 6890SOL    HW132303   4.263   0.952  17.434 -1.4949  0.6541 -1.6318
 6890SOL    HW232304   4.367   0.943  17.326  0.3272  1.2382 -0.3470
 6891SOL     OW32305   0.540   2.062   7.141 -0.0943  0.3559 -0.1345
 6891SOL    HW132306   0.554   1.980   7.094  0.3707  3.2345 -5.0214
 6891SOL    HW232307   0.452   2.082   7.111 -1.0374  0.4263  2.6765
 6892SOL     OW32308   2.588   1.227   8.815 -0.2764 -0.0889  0.4170
 6892SOL    HW132309   2.611   1.319   8.827 -1.5064  0.3869 -0.8270
 6892SOL    HW232310   2.498   1.226   8.783 -0.2219  0.8676  0.2409
 6893SOL     OW32311   4.596   1.042   0.240  0.6910  0.1017  0.1514
 6893SOL    HW132312   4.540   1.074   0.169  0.3565 -2.3066 -0.6942
 6893SOL    HW232313   4.575   1.113   0.300  0.3383  1.1544 -1.2060
 6894SOL     OW32314   0.156   2.170   2.040 -0.1310 -0.2568 -0.3317
 6894SOL    HW132315   0.118   2.256   2.059 -1.8614 -0.9962 -0.4716
 6894SOL    HW232316   0.245   2.184   2.075 -0.3895 -0.4592  0.4090
 6895SOL     OW32317   4.617   3.294  13.009 -0.2913 -0.5230  0.0631
 6895SOL    HW132318   4.590   3.237  12.937 -1.8860 -0.8176  0.9110
 6895SOL    HW232319   4.539   3.349  13.012  0.2356  0.2431 -0.1247
 6896SOL     OW32320   1.540   3.112   8.688  0.1645 -0.1582 -0.5674
 6896SOL    HW132321   1.468   3.049   8.699 -0.0668  0.4069  1.2500
 6896SOL    HW232322   1.508   3.165   8.615 -1.9760 -0.5715  0.0740
 6897SOL     OW32323   3.492   2.783   3.513  0.6029 -0.1261 -0.1858
 6897SOL    HW132324   3.523   2.709   3.460 -0.0085  0.0849 -0.8417
 6897SOL    HW232325   3.575   2.825   3.535  0.7498 -0.6590  0.2892
 6898SOL     OW32326   2.805   1.465   1.888 -0.0017 -0.0265  0.6542
 6898SOL    HW132327   2.876   1.483   1.827  2.4085 -0.1901  3.4161
 6898SOL    HW232328   2.743   1.430   1.824 -0.0583  0.9854  0.1468
 6899SOL     OW32329   0.164   3.055   5.642  0.1662  0.0327  0.4760
 6899SOL    HW132330   0.089   3.041   5.585  1.8334  0.0269 -1.7196
 6899SOL    HW232331   0.158   3.151   5.651 -1.7524 -0.0178 -0.3399
 6900SOL     OW32332   0.972   2.784   7.682 -0.2014  0.3703  0.1035
 6900SOL    HW132333   0.914   2.818   7.613 -0.0144 -0.0298 -0.2512
 6900SOL    HW232334   0.978   2.692   7.657  1.1063  1.1236 -2.3166
 6901SOL     OW32335   2.027   4.639   6.379 -0.0358 -0.5586 -0.4048
 6901SOL    HW132336   2.045   4.546   6.393  3.5324 -0.1797 -2.4148
 6901SOL    HW232337   2.002   4.649   6.287  0.3652 -1.8571 -0.6519
 6902SOL     OW32338   1.528   0.605  16.199  0.6043 -0.1628  0.2653
 6902SOL    HW132339   1.541   0.669  16.130 -1.2356  1.0239  1.0071
 6902SOL    HW232340   1.614   0.563  16.203  1.5245  1.7430  0.2789
 6903SOL     OW32341   1.968   1.555   5.713  0.0768 -0.6143 -0.1340
 6903SOL    HW132342   1.875   1.575   5.702 -0.1634 -1.9487 -0.5566
 6903SOL    HW232343   2.011   1.625   5.665  0.6170 -0.7214  0.1987
 6904SOL     OW32344   3.177   4.575  13.658  0.2184 -0.4893  0.2346
 6904SOL    HW132345   3.165   4.641  13.726 -0.4991 -1.3373  0.9360
 6904SOL    HW232346   3.151   4.615  13.575 -1.5217  0.7580  1.3675
 6905SOL     OW32347   3.110   2.760   0.051 -0.1556 -0.7022  0.1587
 6905SOL    HW132348   3.197   2.724   0.034 -0.7978 -2.0764 -0.2273
 6905SOL    HW232349   3.103   2.752   0.146  0.9803 -2.4646  0.0888
 6906SOL     OW32350   0.750   2.338  16.301 -0.0130  0.4925 -0.0742
 6906SOL    HW132351   0.697   2.270  16.343  0.8738  0.2080  0.5824
 6906SOL    HW232352   0.830   2.288  16.285 -0.7629 -1.2598  1.6555
 6907SOL     OW32353   2.826   4.089   8.114  0.5165 -0.0899 -0.0381
 6907SOL    HW132354   2.792   4.135   8.191  2.2540  1.6138 -0.3033
 6907SOL    HW232355   2.887   4.155   8.082 -0.9885  0.9188 -0.8268
 6908SOL     OW32356   2.729   2.771   5.577 -0.6059 -0.2396 -0.3787
 6908SOL    HW132357   2.793   2.702   5.561 -1.6552 -1.6478  1.4370
 6908SOL    HW232358   2.746   2.832   5.505 -0.9999  0.7884  0.3871
 6909SOL     OW32359   0.757   1.883  16.362 -0.8886  0.0958 -0.1680
 6909SOL    HW132360   0.779   1.889  16.269  0.3752  0.3256  0.1461
 6909SOL    HW232361   0.842   1.866  16.403 -0.6210  0.2554 -0.6444
 6910SOL     OW32362   4.543   1.702   2.397  0.2436  0.1238  0.2355
 6910SOL    HW132363   4.532   1.797   2.396 -1.0659 -0.0281  0.4401
 6910SOL    HW232364   4.491   1.664   2.326  3.9301  0.2959 -2.5973
 6911SOL     OW32365   3.166   0.529   2.952 -0.5348 -0.5387 -0.0724
 6911SOL    HW132366   3.180   0.528   3.047  0.4269 -2.6079 -0.2297
 6911SOL    HW232367   3.072   0.512   2.944 -0.0193 -2.3173 -2.2430
 6912SOL     OW32368   0.282   4.463   5.263  0.0506  0.0968 -0.7622
 6912SOL    HW132369   0.347   4.521   5.223  1.0158 -1.7970 -1.9323
 6912SOL    HW232370   0.308   4.485   5.352 -2.2608 -1.5540  0.2994
 6913SOL     OW32371   0.142   1.242   6.046  0.4272  0.3613 -0.1754
 6913SOL    HW132372   0.091   1.310   6.091 -0.2223 -0.1785 -0.0936
 6913SOL    HW232373   0.083   1.190   5.992 -1.3572  3.4058 -1.1770
 6914SOL     OW32374   2.849   0.344   6.345  0.2947 -0.2470  0.3124
 6914SOL    HW132375   2.866   0.409   6.413  0.2118  0.9765 -0.8560
 6914SOL    HW232376   2.919   0.359   6.282 -0.4031 -1.9870 -0.8677
 6915SOL     OW32377   0.708   1.238   1.353 -0.3715 -0.0165  0.6468
 6915SOL    HW132378   0.727   1.319   1.401 -0.5002 -0.4524  1.4223
 6915SOL    HW232379   0.614   1.251   1.342 -0.6265  0.0169  2.9321
 6916SOL     OW32380   2.521   0.686   8.463  0.1782  0.0854  0.3056
 6916SOL    HW132381   2.585   0.651   8.402 -1.0191  1.4996 -1.7620
 6916SOL    HW232382   2.536   0.651   8.551 -1.1053 -1.0855  0.0604
 6917SOL     OW32383   2.403   3.324   2.682  0.1304 -0.3648  0.9075
 6917SOL    HW132384   2.428   3.252   2.740 -4.0795 -1.4138  1.4063
 6917SOL    HW232385   2.340   3.374   2.735  1.0756  2.0418 -0.2576
 6918SOL     OW32386   4.184   2.113   8.688 -0.6583  0.2017 -0.3212
 6918SOL    HW132387   4.191   2.021   8.712  0.6328 -0.3213 -2.7269
 6918SOL    HW232388   4.190   2.158   8.773 -0.4016 -0.6651  0.1141
 6919SOL     OW32389   0.928   0.912   2.707  0.1505  0.4038  0.5010
 6919SOL    HW132390   0.987   0.906   2.783  1.6251  0.0883 -0.6773
 6919SOL    HW232391   0.990   0.907   2.635 -1.0656  0.5133 -0.5529
 6920SOL     OW32392   3.624   1.590   6.920  0.2556  0.2490  0.2780
 6920SOL    HW132393   3.711   1.550   6.924  0.5454  0.9787  1.1086
 6920SOL    HW232394   3.621   1.619   6.829  0.9112  1.7380  0.7361
 6921SOL     OW32395   2.872   0.465   4.536  0.1966 -0.1610 -0.4432
 6921SOL    HW132396   2.959   0.443   4.503  0.0702  0.1114 -0.9617
 6921SOL    HW232397   2.859   0.389   4.593 -1.2262 -1.2002 -2.1447
 6922SOL     OW32398   1.009   2.522   2.965  0.1063 -0.0117 -0.1149
 6922SOL    HW132399   0.994   2.430   2.987 -0.0738 -0.2918 -1.3924
 6922SOL    HW232400   1.018   2.557   3.053 -0.4064 -0.7215  0.2147
 6923SOL     OW32401   3.845   2.259  17.149  0.2741  0.2316 -0.0796
 6923SOL    HW132402   3.830   2.272  17.055  1.3420  0.6840 -0.1917
 6923SOL    HW232403   3.898   2.180  17.139  0.4321  0.5492 -1.8872
 6924SOL     OW32404   0.320   0.743  14.309 -0.0300 -0.1913 -0.1139
 6924SOL    HW132405   0.303   0.696  14.228 -0.6103  0.3378 -0.3092
 6924SOL    HW232406   0.258   0.815  14.299  1.1948  0.5552 -2.3066
 6925SOL     OW32407   3.361   1.535   3.784  0.1874  0.1761 -0.0849
 6925SOL    HW132408   3.308   1.615   3.779 -0.7388 -0.4754 -0.5675
 6925SOL    HW232409   3.429   1.559   3.847  0.7193  2.4984 -1.5411
 6926SOL     OW32410   2.293   1.766   8.032 -0.2055 -0.3653  0.3412
 6926SOL    HW132411   2.250   1.814   7.961  1.6489  1.5810  0.5230
 6926SOL    HW232412   2.232   1.753   8.104 -2.8273 -0.0658 -1.8394
 6927SOL     OW32413   4.702   1.887   9.076 -0.2938 -0.2015 -0.0872
 6927SOL    HW132414   4.674   1.977   9.061  2.1946  0.3359 -1.5085
 6927SOL    HW232415   0.060   1.905   9.047  0.4706 -0.3594  2.1301
 6928SOL     OW32416   3.535   1.453   8.941  0.4222 -0.0847  0.0048
 6928SOL    HW132417   3.479   1.384   8.977 -0.4522 -0.0098 -1.1997
 6928SOL    HW232418   3.556   1.508   9.016 -0.1028  1.2106 -0.7868
 6929SOL     OW32419   3.165   3.633   7.657 -0.5957  0.0994  0.3220
 6929SOL    HW132420   3.105   3.591   7.719 -1.4383 -1.4147 -1.5084
 6929SOL    HW232421   3.106   3.694   7.613 -1.6567 -0.0461  1.5742
 6930SOL     OW32422   2.451   3.379   3.582  0.0151  0.3504  0.2728
 6930SOL    HW132423   2.540   3.383   3.547 -0.4344  0.5572 -0.8547
 6930SOL    HW232424   2.404   3.413   3.506  0.8254  1.6838  0.3583
 6931SOL     OW32425   3.099   4.343   2.188  0.2237 -0.0034 -0.0275
 6931SOL    HW132426   3.161   4.318   2.119 -1.6431  0.9817 -2.0861
 6931SOL    HW232427   3.031   4.376   2.130 -0.4094  0.2391  0.8571
 6932SOL     OW32428   1.302   3.058   5.201  0.2259 -0.1361  0.2417
 6932SOL    HW132429   1.313   3.022   5.113  0.7705 -0.5814  0.4950
 6932SOL    HW232430   1.207   3.054   5.201  0.2264  0.0051 -2.1760
 6933SOL     OW32431   3.034   1.388   8.666 -0.0691 -0.6979  0.2362
 6933SOL    HW132432   3.021   1.322   8.598 -0.4914  0.9089 -1.2389
 6933SOL    HW232433   3.022   1.469   8.615 -2.4609 -0.9402  0.4185
 6934SOL     OW32434   3.414   2.502   3.743 -0.1997 -0.8061  0.1032
 6934SOL    HW132435   3.445   2.591   3.760 -0.4216 -0.2549 -2.3678
 6934SOL    HW232436   3.494   2.473   3.700 -1.0610  0.3958 -2.2888
 6935SOL     OW32437   1.955   4.239   2.427 -0.0485 -0.7919 -0.5854
 6935SOL    HW132438   1.946   4.195   2.512  1.4330  1.0672  0.5291
 6935SOL    HW232439   1.923   4.168   2.371  2.0325 -0.8758 -1.6972
 6936SOL     OW32440   2.354   0.941   9.011 -0.4710  0.7711 -0.3101
 6936SOL    HW132441   2.287   0.979   8.954  1.1861  0.3828 -2.5010
 6936SOL    HW232442   2.392   1.014   9.060 -1.1333  1.1290 -0.3304
 6937SOL     OW32443   1.513   3.800   7.223  0.6248 -0.0888  0.2944
 6937SOL    HW132444   1.601   3.789   7.190 -0.1966  0.0049 -1.9110
 6937SOL    HW232445   1.505   3.894   7.239 -3.3200 -0.5324  1.0069
 6938SOL     OW32446   1.166   4.718   9.357 -0.8365 -0.1050 -0.5592
 6938SOL    HW132447   1.147   0.070   9.399  1.4000 -0.8071  1.8455
 6938SOL    HW232448   1.138   0.008   9.268  1.4352  1.5272 -0.8547
 6939SOL     OW32449   1.275   1.134   9.760 -0.3455  0.2057 -0.6173
 6939SOL    HW132450   1.309   1.116   9.848  3.0451  2.3848 -1.4946
 6939SOL    HW232451   1.236   1.052   9.732  3.1578 -1.2683 -1.2254
 6940SOL     OW32452   2.901   4.095  15.546  0.7605  0.2718 -0.3436
 6940SOL    HW132453   2.963   4.024  15.561 -0.8821 -1.0219  0.3342
 6940SOL    HW232454   2.898   4.110  15.452 -2.4468  2.0852  0.0454
 6941SOL     OW32455   4.069   4.371   2.574  0.0412 -0.3973 -0.1264
 6941SOL    HW132456   4.002   4.311   2.608 -1.6939  2.1217  0.8735
 6941SOL    HW232457   4.117   4.380   2.656  1.6571  1.3591 -1.2753
 6942SOL     OW32458   2.730   2.063  17.584  0.2757  0.7002 -0.1274
 6942SOL    HW132459   2.695   2.152  17.578 -1.4589 -0.1906 -3.1303
 6942SOL    HW232460   2.752   2.047  17.492 -1.1549 -3.8591  0.3162
 6943SOL     OW32461   1.575   1.990   2.042 -0.8240 -0.0860 -0.1946
 6943SOL    HW132462   1.511   1.919   2.030 -1.8661  0.9304 -0.7038
 6943SOL    HW232463   1.573   2.045   1.963  1.1804 -0.5696 -0.5717
 6944SOL     OW32464   1.269   4.717   7.348  0.1242  0.0545 -0.0553
 6944SOL    HW132465   1.250   0.044   7.274 -0.1273 -0.4254 -0.3708
 6944SOL    HW232466   1.354   0.017   7.377 -0.5215  0.9796  0.8622
 6945SOL     OW32467   4.379   4.576   5.264 -0.1557 -0.1843 -0.1330
 6945SOL    HW132468   4.309   4.629   5.300  1.7316  0.7633  2.1795
 6945SOL    HW232469   4.464   4.612   5.291  1.5131 -2.0260 -2.9077
 6946SOL     OW32470   2.733   1.533  11.061  0.1939 -0.3229 -0.2027
 6946SOL    HW132471   2.689   1.610  11.024  0.6828  1.1635  2.2622
 6946SOL    HW232472   2.824   1.543  11.034 -0.2691  0.8286 -1.3816
 6947SOL     OW32473   4.714   1.661   1.730 -0.3698  0.6273 -0.0619
 6947SOL    HW132474   4.619   1.652   1.723 -0.2144 -1.2687  0.2883
 6947SOL    HW232475   4.729   1.707   1.648  2.4140  0.5079  0.3894
 6948SOL     OW32476   0.071   1.791   8.304  0.3715 -0.4984 -0.2726
 6948SOL    HW132477   0.103   1.705   8.278  0.4704  0.1314 -2.2416
 6948SOL    HW232478   0.023   1.776   8.386  0.6228 -2.0812 -0.4217
 6949SOL     OW32479   4.679   1.200   8.735  0.6680  0.0556 -0.5829
 6949SOL    HW132480   4.671   1.160   8.649  1.2997  0.1180 -0.6728
 6949SOL    HW232481   4.606   1.261   8.738  0.5608 -0.1405  0.9934
 6950SOL     OW32482   3.523   1.607   8.111 -0.2068 -0.2621 -0.1800
 6950SOL    HW132483   3.548   1.588   8.020 -1.0931 -0.0387 -0.4662
 6950SOL    HW232484   3.610   1.592   8.148 -0.3354  0.3618  0.3601
 6951SOL     OW32485   0.350   2.166   7.729  0.4988 -0.3176 -0.3971
 6951SOL    HW132486   0.418   2.146   7.793  0.7231  4.1616  0.7051
 6951SOL    HW232487   0.301   2.233   7.776  1.3587  0.6211 -0.8415
 6952SOL     OW32488   0.079   2.816   3.042  0.2177  0.4849  0.3579
 6952SOL    HW132489   0.094   2.725   3.017  0.3781  0.7945 -0.6636
 6952SOL    HW232490   0.052   2.849   2.956 -0.9634 -0.9338  0.1948
 6953SOL     OW32491   1.551   4.077   4.165 -0.6275 -0.5021  0.5096
 6953SOL    HW132492   1.559   4.104   4.257  1.3499 -2.1733  0.8326
 6953SOL    HW232493   1.470   4.029   4.155 -1.3720  0.6975  0.7281
 6954SOL     OW32494   0.235   3.794   2.316  0.8081 -0.2476 -1.1095
 6954SOL    HW132495   0.235   3.700   2.299  1.1172 -0.0902 -1.9661
 6954SOL    HW232496   0.237   3.830   2.227 -1.1995  1.4423 -0.4759
 6955SOL     OW32497   3.827   3.810   6.266  0.5466  0.5105 -0.3992
 6955SOL    HW132498   3.769   3.811   6.190 -1.6671  1.9173  1.2941
 6955SOL    HW232499   3.762   3.822   6.335  2.1295 -1.5080  1.4418
 6956SOL     OW32500   0.196   4.434   8.452  0.2605  0.0901 -0.3085
 6956SOL    HW132501   0.160   4.519   8.476 -0.8349  0.2055 -2.2900
 6956SOL    HW232502   0.179   4.384   8.531 -1.5765  1.2942  0.0493
 6957SOL     OW32503   1.217   1.319  13.993 -0.4555  0.0547 -0.2629
 6957SOL    HW132504   1.123   1.313  13.979 -0.4945 -0.0774  0.0701
 6957SOL    HW232505   1.235   1.384  13.925 -0.5477  1.5574  1.1675
 6958SOL     OW32506   4.139   2.275   0.960  0.4269  0.5821  0.5207
 6958SOL    HW132507   4.104   2.361   0.982  0.1326  1.0836 -1.9546
 6958SOL    HW232508   4.231   2.284   0.985  0.8098 -3.1485  0.3981
 6959SOL     OW32509   2.632   0.808   9.450  1.1526  0.7565 -0.1878
 6959SOL    HW132510   2.579   0.809   9.371 -0.5253 -0.7324  0.9300
 6959SOL    HW232511   2.562   0.850   9.500  0.4764 -1.4929  0.7581
 6960SOL     OW32512   0.380   2.987  11.156  0.2709  0.1274 -0.2969
 6960SOL    HW132513   0.443   2.916  11.165  1.5875  1.3312  0.0856
 6960SOL    HW232514   0.305   2.940  11.191  1.3208 -1.2302  0.1377
 6961SOL     OW32515   4.632   2.716  16.368 -1.0168  0.4442  0.2749
 6961SOL    HW132516   4.657   2.784  16.306  0.3676  0.1881  0.5480
 6961SOL    HW232517   4.720   2.681  16.381 -1.6492 -1.1435  0.1563
 6962SOL     OW32518   3.758   3.700  14.106 -0.4644 -0.3229 -0.0793
 6962SOL    HW132519   3.762   3.794  14.090 -0.9916 -0.1340  0.8713
 6962SOL    HW232520   3.679   3.680  14.057  0.7736 -0.3834 -2.0265
 6963SOL     OW32521   1.147   3.996   9.426 -0.1799 -0.1515 -0.1189
 6963SOL    HW132522   1.225   4.044   9.398 -0.2894  0.3833  0.5038
 6963SOL    HW232523   1.072   4.041   9.386  0.6528  0.6824 -0.7527
 6964SOL     OW32524   0.546   2.512   5.634 -0.2406 -0.5740 -0.1602
 6964SOL    HW132525   0.527   2.591   5.585  0.1307  0.3073  1.1064
 6964SOL    HW232526   0.483   2.530   5.704 -2.5934 -0.8935 -2.2294
 6965SOL     OW32527   2.743   4.630  16.075 -0.3982 -0.3872 -0.0839
 6965SOL    HW132528   2.718   4.552  16.125 -0.4369  0.1672  0.7582
 6965SOL    HW232529   2.663   4.682  16.084 -1.6858 -2.8219  2.3323
 6966SOL     OW32530   2.538   1.916  17.712 -0.1366 -0.1679  0.3738
 6966SOL    HW132531   2.521   1.878  17.626 -0.3862 -0.2108  0.4401
 6966SOL    HW232532   2.623   1.956  17.696 -1.7839  3.1432 -0.1633
 6967SOL     OW32533   1.280   0.997   6.843 -0.2001 -0.1555 -0.6570
 6967SOL    HW132534   1.293   1.056   6.917  0.7683 -0.0979 -0.8722
 6967SOL    HW232535   1.245   1.053   6.773 -2.3015 -1.1532 -0.4002
 6968SOL     OW32536   3.210   2.784   8.386 -0.3045  0.6922  1.0285
 6968SOL    HW132537   3.196   2.695   8.419 -1.2312  0.6088  0.4046
 6968SOL    HW232538   3.219   2.773   8.292 -1.9718 -0.3518  1.0001
 6969SOL     OW32539   0.896   2.657   6.221  0.2403 -0.3377 -0.2973
 6969SOL    HW132540   0.920   2.733   6.274 -1.9823 -0.2477  0.5838
 6969SOL    HW232541   0.826   2.622   6.275  2.0615 -0.1650  2.1802
 6970SOL     OW32542   1.427   0.630   4.278 -0.8295 -0.3106 -0.0034
 6970SOL    HW132543   1.467   0.712   4.247 -1.0758 -1.2734 -2.8676
 6970SOL    HW232544   1.409   0.656   4.369  2.7037  2.7048 -0.1453
 6971SOL     OW32545   0.883   2.154   8.428  0.4114 -0.2361 -0.3311
 6971SOL    HW132546   0.821   2.141   8.500 -0.1352 -0.7499 -0.8902
 6971SOL    HW232547   0.928   2.071   8.445 -1.2763 -1.1166 -0.1206
 6972SOL     OW32548   1.419   1.286   7.873 -0.0210  0.1180  0.3278
 6972SOL    HW132549   1.512   1.288   7.896  0.5855 -0.1281 -2.1682
 6972SOL    HW232550   1.390   1.292   7.965 -1.1025 -1.4819  0.0822
 6973SOL     OW32551   3.546   2.539  17.483 -0.1595 -0.2251  0.2203
 6973SOL    HW132552   3.607   2.524  17.411  1.7012 -1.3255  1.9915
 6973SOL    HW232553   3.459   2.540  17.445  0.0341 -0.5697 -0.2330
 6974SOL     OW32554   2.922   2.597   4.852 -0.5089 -0.2716  0.0041
 6974SOL    HW132555   3.011   2.570   4.874 -0.2679  0.6752  0.1756
 6974SOL    HW232556   2.875   2.514   4.861 -0.3609 -0.5164 -1.5561
 6975SOL     OW32557   2.027   0.847   7.838  0.4301 -0.0569  0.1023
 6975SOL    HW132558   2.075   0.929   7.830  1.6711 -0.8274 -0.5010
 6975SOL    HW232559   1.938   0.880   7.822 -0.5684 -0.9920  3.7672
 6976SOL     OW32560   0.667   0.094  12.907 -0.1511  0.0915 -0.1284
 6976SOL    HW132561   0.722   0.018  12.924  0.7499  0.6858 -0.4341
 6976SOL    HW232562   0.618   0.066  12.830 -1.6172 -1.8147  1.4862
 6977SOL     OW32563   1.066   2.328   0.252 -0.1630  0.4527  0.1488
 6977SOL    HW132564   1.121   2.305   0.177 -0.4693  2.4739 -0.6987
 6977SOL    HW232565   0.979   2.331   0.211 -0.3198 -0.1300  0.4352
 6978SOL     OW32566   3.721   1.995  14.841  0.2173 -0.0584  0.3404
 6978SOL    HW132567   3.756   1.907  14.826  0.3470 -0.3976  2.6551
 6978SOL    HW232568   3.679   2.004  14.755 -0.1874 -1.2303  0.4100
 6979SOL     OW32569   3.716   2.457   9.503  0.8759 -0.3468  0.3678
 6979SOL    HW132570   3.625   2.487   9.509  0.9419  0.0199 -0.3487
 6979SOL    HW232571   3.753   2.529   9.554 -1.5057  0.1933  1.3493
 6980SOL     OW32572   3.055   4.061   3.293  0.1070  0.0527  0.2012
 6980SOL    HW132573   3.137   4.110   3.283 -0.3060  0.4003 -1.4555
 6980SOL    HW232574   3.068   4.007   3.371  1.9551 -1.8330 -1.4240
 6981SOL     OW32575   0.779   4.229   9.968  0.4950 -0.4460  0.2811
 6981SOL    HW132576   0.746   4.139   9.974 -0.5602 -0.2901 -3.1247
 6981SOL    HW232577   0.831   4.228   9.888 -1.9054 -0.4757 -1.2745
 6982SOL     OW32578   2.205   2.106   4.193 -0.7854  0.2307  0.3718
 6982SOL    HW132579   2.156   2.181   4.229  0.9197  0.6628  1.7646
 6982SOL    HW232580   2.149   2.078   4.120  0.7977 -0.0006 -0.7354
 6983SOL     OW32581   2.403   3.609   6.834  0.5527  0.1958 -0.4210
 6983SOL    HW132582   2.365   3.554   6.902 -0.8710  2.0597  0.2884
 6983SOL    HW232583   2.486   3.564   6.820  0.8297  0.0264  1.8330
 6984SOL     OW32584   3.109   4.715   4.270 -0.1560 -0.0621 -0.3472
 6984SOL    HW132585   3.102   4.710   4.365  2.2008  0.4295 -0.1638
 6984SOL    HW232586   3.158   0.066   4.272 -1.8802  0.9539  0.1445
 6985SOL     OW32587   2.281   1.495   3.196 -0.5756 -0.8274 -0.1243
 6985SOL    HW132588   2.214   1.545   3.241 -1.1406  0.0718 -2.0088
 6985SOL    HW232589   2.224   1.436   3.147 -0.5680 -0.9103 -0.0353
 6986SOL     OW32590   4.622   2.876   5.776 -0.7455 -0.1275 -0.1451
 6986SOL    HW132591   4.537   2.911   5.751  0.2611  1.5301 -1.2532
 6986SOL    HW232592   4.658   2.948   5.828 -0.9780 -1.5356  1.9432
 6987SOL     OW32593   0.832   0.963   5.098  0.6854 -0.4547  0.3572
 6987SOL    HW132594   0.843   1.010   5.015 -2.2992 -0.6271 -0.1370
 6987SOL    HW232595   0.828   0.872   5.068  1.8537 -0.4789  0.2817
 6988SOL     OW32596   0.204   3.655   9.759 -0.1596  0.5221 -0.3846
 6988SOL    HW132597   0.296   3.663   9.783 -0.2840 -0.6095  0.4456
 6988SOL    HW232598   0.185   3.749   9.749 -0.2437  0.5636  0.1893
 6989SOL     OW32599   3.695   2.768   3.839 -0.4143 -0.5517 -0.1609
 6989SOL    HW132600   3.600   2.770   3.848 -0.2855  0.8134  0.9618
 6989SOL    HW232601   3.729   2.711   3.907 -0.0929 -0.2470 -0.0597
 6990SOL     OW32602   2.205   1.192   4.131 -0.2560 -0.7366  0.2642
 6990SOL    HW132603   2.136   1.144   4.086 -1.1510  0.9751 -0.2039
 6990SOL    HW232604   2.155   1.264   4.169  1.0818  0.4824 -0.2671
 6991SOL     OW32605   2.612   0.150   7.621 -0.3169 -0.0338  0.0688
 6991SOL    HW132606   2.517   0.149   7.631 -0.3492  0.3767 -0.1741
 6991SOL    HW232607   2.630   0.236   7.658 -2.3274  0.1958  0.4717
 6992SOL     OW32608   0.161   2.153   4.209  0.0839 -0.3737 -0.3492
 6992SOL    HW132609   0.116   2.115   4.134  0.2801 -0.1149 -0.6007
 6992SOL    HW232610   0.095   2.216   4.238 -0.8770 -1.6853  0.2569
 6993SOL     OW32611   3.481   3.544   1.554  0.2661  0.0029  0.0751
 6993SOL    HW132612   3.440   3.559   1.639 -0.2374  0.5208 -0.2611
 6993SOL    HW232613   3.448   3.621   1.506 -2.2079 -1.3181 -0.3792
 6994SOL     OW32614   3.940   4.239  15.666  0.3668  0.3321 -0.1394
 6994SOL    HW132615   3.880   4.256  15.739  0.7031  0.4564  0.1131
 6994SOL    HW232616   3.876   4.233  15.595 -0.3036 -0.6704  0.5587
 6995SOL     OW32617   2.205   1.413  15.627  0.1585  0.1297 -0.3305
 6995SOL    HW132618   2.125   1.454  15.661 -1.5253 -1.8281 -1.9375
 6995SOL    HW232619   2.234   1.486  15.572  0.9179 -0.3927 -0.6154
 6996SOL     OW32620   2.985   2.186   5.980  0.6340  0.2664  1.0342
 6996SOL    HW132621   3.066   2.236   5.987 -0.5350  1.9939  2.2968
 6996SOL    HW232622   2.970   2.164   6.072 -1.0197  2.2935  1.2690
 6997SOL     OW32623   4.107   3.519   3.748 -0.5609  0.6085  0.0637
 6997SOL    HW132624   4.198   3.491   3.734 -0.7072 -0.3496  1.0641
 6997SOL    HW232625   4.110   3.572   3.827  1.7234  2.0879 -1.0304
 6998SOL     OW32626   2.586   4.428   8.262 -0.2585  0.4577  0.1322
 6998SOL    HW132627   2.495   4.401   8.276  0.2541  0.3259  3.2812
 6998SOL    HW232628   2.588   4.523   8.271  0.6259  0.3312  1.3280
 6999SOL     OW32629   4.256   3.479   3.179  0.3521  0.5365  0.3589
 6999SOL    HW132630   4.192   3.408   3.185 -0.3506  1.2814  1.5229
 6999SOL    HW232631   4.315   3.453   3.250  4.4770  0.9357 -2.8451
 7000SOL     OW32632   1.371   4.565   6.525 -0.1244  0.5732 -0.0051
 7000SOL    HW132633   1.434   4.636   6.535 -0.1908  0.5941  0.2708
 7000SOL    HW232634   1.286   4.604   6.509 -0.9802 -0.6169  1.6244
 7001SOL     OW32635   2.072   1.968  16.518  0.0484 -0.3773 -0.4142
 7001SOL    HW132636   1.985   1.943  16.486 -1.1421  1.2186  1.5421
 7001SOL    HW232637   2.111   1.997  16.435  2.2452  0.2188  0.8380
 7002SOL     OW32638   2.566   1.274  13.603 -0.2599  0.4175  0.3236
 7002SOL    HW132639   2.592   1.184  13.622 -0.7942  0.3064  0.5130
 7002SOL    HW232640   2.525   1.262  13.517 -0.2112  2.0757  0.0597
 7003SOL     OW32641   1.306   2.881   3.885 -0.0584  0.0036  0.1308
 7003SOL    HW132642   1.391   2.906   3.921 -0.7141  0.4020  1.4143
 7003SOL    HW232643   1.264   2.878   3.971  2.3320 -1.6107  1.2202
 7004SOL     OW32644   1.907   2.493   2.098 -0.1382 -0.4657 -0.2002
 7004SOL    HW132645   1.914   2.456   2.010 -2.5797 -1.7902  0.1720
 7004SOL    HW232646   1.883   2.415   2.148  2.2047 -2.2105 -1.7915
 7005SOL     OW32647   2.862   0.059  13.358 -0.1558  0.3642 -0.5416
 7005SOL    HW132648   2.784   0.063  13.414  0.6093 -1.2303  0.6379
 7005SOL    HW232649   2.825   0.001  13.292 -2.6014 -3.7723  4.4306
 7006SOL     OW32650   0.339   0.991  10.741  0.0065 -0.2730  0.2847
 7006SOL    HW132651   0.414   0.934  10.728  0.6544  0.2752  1.6072
 7006SOL    HW232652   0.345   1.007  10.835  2.2860  2.0891 -0.2392
 7007SOL     OW32653   3.642   3.852   2.442  0.0814  0.1460  0.5087
 7007SOL    HW132654   3.676   3.910   2.374 -0.7760 -1.1745 -1.0277
 7007SOL    HW232655   3.665   3.767   2.406  0.9430  0.3048  0.6877
 7008SOL     OW32656   4.259   0.131  14.225 -0.4261  0.2037 -0.6969
 7008SOL    HW132657   4.191   0.159  14.285  1.3839 -0.1524  1.5020
 7008SOL    HW232658   4.294   0.211  14.187  0.9890  1.1058  2.5625
 7009SOL     OW32659   1.682   4.442   3.772 -0.3497 -0.5840 -0.1992
 7009SOL    HW132660   1.644   4.396   3.847 -0.5537 -1.0411 -0.5839
 7009SOL    HW232661   1.765   4.395   3.763  0.3917  0.3416  1.7077
 7010SOL     OW32662   3.797   0.627   2.005 -0.0642 -0.4212  0.8100
 7010SOL    HW132663   3.886   0.593   1.997 -1.0058 -2.3180 -1.6752
 7010SOL    HW232664   3.803   0.703   1.948 -0.5874  0.7323  2.2890
 7011SOL     OW32665   0.156   0.156  13.292 -0.4264 -0.1553  0.3033
 7011SOL    HW132666   0.102   0.189  13.364  0.5919  3.6089 -0.6407
 7011SOL    HW232667   0.232   0.215  13.284  0.5262 -1.7435 -2.1513
 7012SOL     OW32668   2.673   1.511   6.668 -0.8345  0.0796  0.0968
 7012SOL    HW132669   2.636   1.597   6.685  0.7143  0.5004  1.2634
 7012SOL    HW232670   2.598   1.458   6.697 -0.3208 -1.7450 -1.9079
 7013SOL     OW32671   0.051   2.213   9.633  0.1118  0.7746  0.5167
 7013SOL    HW132672   0.066   2.228   9.727  0.6064 -2.1635  0.9134
 7013SOL    HW232673   0.139   2.182   9.615 -0.5512 -1.1696  0.6854
 7014SOL     OW32674   0.575   4.682   4.630 -0.0202 -0.1312  0.1846
 7014SOL    HW132675   0.513   4.614   4.603 -0.6532  0.9654 -1.1139
 7014SOL    HW232676   0.559   0.031   4.580  2.8506  0.2224 -0.1679
 7015SOL     OW32677   2.945   4.157  15.210  0.1984  0.5355  0.0036
 7015SOL    HW132678   2.987   4.071  15.203 -0.0020  0.3039  1.6974
 7015SOL    HW232679   2.853   4.136  15.192  0.3989 -0.4313  0.0949
 7016SOL     OW32680   4.400   3.488   8.647  0.3570  0.1281  0.3653
 7016SOL    HW132681   4.414   3.547   8.573  1.1417 -0.0897  0.3429
 7016SOL    HW232682   4.450   3.411   8.621 -0.0356 -0.2138  0.6248
 7017SOL     OW32683   0.346   0.355  12.327  0.4605  0.1997 -0.1432
 7017SOL    HW132684   0.303   0.340  12.243  1.2955 -1.2113 -0.3206
 7017SOL    HW232685   0.392   0.274  12.349 -2.2951 -1.5984 -1.0527
 7018SOL     OW32686   1.536   3.149   7.913  0.3737 -0.3325  0.0659
 7018SOL    HW132687   1.576   3.089   7.976  0.4680 -0.2743  0.0610
 7018SOL    HW232688   1.515   3.082   7.848 -1.7775 -0.2406  0.6658
 7019SOL     OW32689   3.078   1.874   1.748 -0.0952  0.5559  0.0880
 7019SOL    HW132690   3.146   1.869   1.681 -0.2324 -0.5364  0.0375
 7019SOL    HW232691   2.999   1.867   1.694  0.2722  1.7941 -0.6273
 7020SOL     OW32692   2.960   1.327   6.875  0.2544 -0.3657 -0.4842
 7020SOL    HW132693   3.033   1.389   6.873 -0.3181  0.3720  1.1008
 7020SOL    HW232694   2.996   1.246   6.910 -0.1387 -0.0836  0.5789
 7021SOL     OW32695   0.525   2.640  15.708 -1.0205  0.2442 -0.1542
 7021SOL    HW132696   0.476   2.577  15.654 -0.2795  0.0860 -0.6383
 7021SOL    HW232697   0.578   2.589  15.769  0.8922  2.8791  0.3485
 7022SOL     OW32698   2.815   0.884   0.827 -0.0129 -0.0911 -0.3048
 7022SOL    HW132699   2.862   0.878   0.910  0.0005 -1.1381 -0.3862
 7022SOL    HW232700   2.819   0.789   0.815 -1.2909 -0.5991  3.1313
 7023SOL     OW32701   3.752   1.994   5.365 -0.0098  0.0242  0.0083
 7023SOL    HW132702   3.662   1.964   5.352  0.3878 -1.4066  0.5897
 7023SOL    HW232703   3.775   1.939   5.440  1.1598  2.7906  1.6707
 7024SOL     OW32704   0.359   0.642   4.557 -0.3535 -0.5029  0.2961
 7024SOL    HW132705   0.307   0.701   4.502  2.6636 -0.5191 -2.5983
 7024SOL    HW232706   0.446   0.666   4.524 -0.2783 -0.2120  0.7155
 7025SOL     OW32707   4.056   0.560   7.247  0.0080  0.4702 -0.0956
 7025SOL    HW132708   4.025   0.558   7.337 -1.4266 -0.1858 -0.6022
 7025SOL    HW232709   4.149   0.543   7.261  0.2895  2.9176  1.0585
 7026SOL     OW32710   4.632   4.680   4.817 -0.3342 -0.2252 -0.2279
 7026SOL    HW132711   4.537   4.687   4.827 -0.3458  0.6944 -0.9249
 7026SOL    HW232712   4.671   0.002   4.886 -3.0894  2.4855 -0.7668
 7027SOL     OW32713   3.122   2.951   2.211  0.1333  0.1774  0.9860
 7027SOL    HW132714   3.139   2.933   2.118 -0.0020 -1.6311  1.3254
 7027SOL    HW232715   3.142   2.869   2.255  1.7012  0.6195  1.1260
 7028SOL     OW32716   1.478   4.023   3.666  0.8192 -0.2866 -0.1585
 7028SOL    HW132717   1.479   4.065   3.751 -0.5489 -1.0365  0.2358
 7028SOL    HW232718   1.508   3.934   3.684  1.3556 -0.0207  0.2589
 7029SOL     OW32719   4.295   2.729  16.052 -0.6457 -0.0468 -0.0498
 7029SOL    HW132720   4.246   2.739  15.970 -1.4912 -1.4943  0.2881
 7029SOL    HW232721   4.329   2.818  16.066 -1.1075  0.1868 -0.4376
 7030SOL     OW32722   0.037   2.104  11.431  0.0033 -0.1842  0.8971
 7030SOL    HW132723   4.693   2.086  11.375  2.2016 -0.1247 -2.0514
 7030SOL    HW232724   0.005   2.176  11.484  1.9292  0.6622  0.9301
 7031SOL     OW32725   0.581   2.322  15.623 -0.4093  0.1168  0.3091
 7031SOL    HW132726   0.525   2.340  15.699 -0.7488  0.1266  0.0587
 7031SOL    HW232727   0.664   2.346  15.664 -1.2115  1.7956  0.9500
 7032SOL     OW32728   1.526   4.270  15.276  0.4655  0.5687  0.1371
 7032SOL    HW132729   1.495   4.222  15.199  1.6029 -1.6911  1.0830
 7032SOL    HW232730   1.440   4.293  15.310 -0.8012 -2.2551 -1.2163
 7033SOL     OW32731   3.067   2.369   3.724 -0.0413 -0.0138  0.3745
 7033SOL    HW132732   3.100   2.442   3.671 -0.6185  0.6752  0.9499
 7033SOL    HW232733   2.973   2.352   3.711  0.1922 -1.1663  0.2333
 7034SOL     OW32734   0.682   3.996   1.311 -0.0325  0.3473 -0.2301
 7034SOL    HW132735   0.623   3.930   1.277  0.0510  0.2197 -0.1300
 7034SOL    HW232736   0.740   3.944   1.367 -1.0078 -1.5842 -1.0437
 7035SOL     OW32737   3.828   1.324   9.594 -0.1919  0.0951  0.3497
 7035SOL    HW132738   3.921   1.322   9.614  0.0541 -1.4309 -0.9628
 7035SOL    HW232739   3.795   1.402   9.638 -0.5696  0.0575  0.1387
 7036SOL     OW32740   3.688   2.580   1.380 -0.2947 -0.0756 -0.2411
 7036SOL    HW132741   3.607   2.531   1.390  0.9172 -1.6413  2.0190
 7036SOL    HW232742   3.678   2.654   1.440  0.2398 -1.0210  1.0320
 7037SOL     OW32743   4.505   2.935   2.270  0.1921  0.1275  0.1854
 7037SOL    HW132744   4.578   2.964   2.326  0.0409  1.2880 -0.2140
 7037SOL    HW232745   4.433   2.976   2.318 -1.0041 -0.3533 -1.2171
 7038SOL     OW32746   3.781   1.142   9.399 -0.1143 -0.3306  0.0483
 7038SOL    HW132747   3.797   1.212   9.462 -0.3377 -2.3297  2.3370
 7038SOL    HW232748   3.788   1.070   9.462 -0.5321  0.0968  0.5868
 7039SOL     OW32749   3.522   0.603   7.979  0.3131 -0.3021  0.4368
 7039SOL    HW132750   3.544   0.581   8.069  1.8286  1.0360  0.4028
 7039SOL    HW232751   3.433   0.571   7.992  1.3523 -3.2114  0.3267
 7040SOL     OW32752   4.056   1.148   5.483 -0.4027  0.1822 -0.0912
 7040SOL    HW132753   4.094   1.236   5.481 -0.3124  0.1232 -1.2013
 7040SOL    HW232754   3.974   1.154   5.532  0.8180  0.5044  1.8825
 7041SOL     OW32755   3.741   3.032   6.303  0.6861 -0.1097  0.0934
 7041SOL    HW132756   3.772   3.122   6.305 -1.2281  0.5744 -1.2428
 7041SOL    HW232757   3.823   2.985   6.318  0.1153 -0.7919  1.1460
 7042SOL     OW32758   3.678   3.512   5.916  0.2536  0.4906  0.0447
 7042SOL    HW132759   3.695   3.557   5.999  1.8328  1.5751 -0.8379
 7042SOL    HW232760   3.585   3.533   5.911  0.2060 -0.5248 -2.8310
 7043SOL     OW32761   0.589   3.982   9.502 -0.5941 -0.5747 -0.0666
 7043SOL    HW132762   0.639   4.049   9.456 -2.7815  1.2063  0.1921
 7043SOL    HW232763   0.611   3.899   9.460  1.5161 -1.2051  2.2628
 7044SOL     OW32764   0.337   2.992   2.584 -0.6383 -0.0100 -0.6603
 7044SOL    HW132765   0.271   2.978   2.516 -0.4768  1.1272 -1.0547
 7044SOL    HW232766   0.342   3.086   2.565  1.0174  0.3691  1.7453
 7045SOL     OW32767   0.182   1.576  16.722 -0.1574  0.1471  0.0310
 7045SOL    HW132768   0.124   1.632  16.773  0.9791  0.7582  0.6323
 7045SOL    HW232769   0.127   1.563  16.644  0.3214  1.6911 -0.5472
 7046SOL     OW32770   4.527   0.084   2.215  0.2902  0.1739  0.2077
 7046SOL    HW132771   4.581   0.070   2.138 -0.7811 -0.1584 -0.4854
 7046SOL    HW232772   4.571   0.159   2.255 -3.1746  1.4912  1.5914
 7047SOL     OW32773   0.929   1.031   5.350  0.1966  0.2162  0.6954
 7047SOL    HW132774   0.878   1.110   5.369 -1.1300 -0.5932  0.4952
 7047SOL    HW232775   0.921   1.024   5.255 -0.4044 -0.4388  0.7897
 7048SOL     OW32776   1.815   4.674   3.162 -0.1259  0.4037  0.0352
 7048SOL    HW132777   1.778   4.726   3.234 -1.6291 -2.2016  1.1256
 7048SOL    HW232778   1.890   4.729   3.139 -0.1249 -0.0997 -1.1093
 7049SOL     OW32779   4.230   4.368   4.274  0.4517  0.4260  0.3141
 7049SOL    HW132780   4.276   4.418   4.342  0.8857 -0.1592  0.4502
 7049SOL    HW232781   4.194   4.290   4.317 -2.0354  1.2163 -0.3012
 7050SOL     OW32782   2.002   1.326  12.368  0.6048  0.6001 -0.1282
 7050SOL    HW132783   1.915   1.298  12.340  1.5736 -2.6984  0.1337
 7050SOL    HW232784   2.043   1.243  12.392 -0.8083  0.0168  0.2391
 7051SOL     OW32785   3.902   4.192   2.701  0.1580 -0.2275  0.5503
 7051SOL    HW132786   3.929   4.108   2.739 -0.3954 -1.1707 -1.1695
 7051SOL    HW232787   3.809   4.173   2.687  0.6195  0.3115 -3.1970
 7052SOL     OW32788   4.225   4.236  12.086  0.1752  0.3765 -0.0382
 7052SOL    HW132789   4.272   4.296  12.028  0.7063 -0.6402 -0.6542
 7052SOL    HW232790   4.148   4.221  12.032 -0.7884  0.0133  1.4444
 7053SOL     OW32791   0.986   4.637   6.084 -0.4547 -0.0350  0.0663
 7053SOL    HW132792   0.960   4.613   5.995  1.8264 -0.9067 -0.3545
 7053SOL    HW232793   1.044   4.565   6.109  0.2112  0.0144 -1.3014
 7054SOL     OW32794   2.773   2.813  12.882  0.4853 -0.4042 -0.2961
 7054SOL    HW132795   2.788   2.907  12.870  1.4492 -0.5282 -0.0703
 7054SOL    HW232796   2.759   2.806  12.976 -1.6414  1.2146 -0.4629
 7055SOL     OW32797   1.768   3.041   8.839  0.3333  0.1866  0.5171
 7055SOL    HW132798   1.832   3.089   8.787  0.4211 -0.1807  0.2863
 7055SOL    HW232799   1.696   3.083   8.791  1.3675  0.5467 -0.7084
 7056SOL     OW32800   0.906   2.900   1.845 -0.4679  0.0441  0.2486
 7056SOL    HW132801   0.989   2.929   1.806  0.0295  1.3308  2.2067
 7056SOL    HW232802   0.937   2.832   1.905  0.7803 -0.1954 -0.6805
 7057SOL     OW32803   0.832   2.043   1.939  0.3793 -0.8081 -0.0718
 7057SOL    HW132804   0.811   2.072   2.027 -0.8754  1.2730 -1.0486
 7057SOL    HW232805   0.848   2.121   1.885  1.3574  0.1785  1.6168
 7058SOL     OW32806   2.570   3.685   6.515 -0.3912  0.2940  0.6587
 7058SOL    HW132807   2.553   3.618   6.582 -0.3168  1.2099  1.6033
 7058SOL    HW232808   2.521   3.642   6.445 -0.8158  0.6427  0.7474
 7059SOL     OW32809   2.102   1.566   3.402  0.6881  0.4098 -0.1454
 7059SOL    HW132810   2.075   1.508   3.474  1.2543  1.2753  0.7638
 7059SOL    HW232811   2.043   1.641   3.395 -0.7870 -1.0240 -3.0847
 7060SOL     OW32812   1.116   1.130   9.233  0.4524  0.2086  0.3576
 7060SOL    HW132813   1.174   1.054   9.226  0.4784  0.6104 -3.3850
 7060SOL    HW232814   1.182   1.191   9.267 -0.1045  1.9255 -1.6700
 7061SOL     OW32815   3.568   0.432   3.359 -0.0944  0.0171  0.3485
 7061SOL    HW132816   3.486   0.459   3.317  1.0558  4.6274  1.0651
 7061SOL    HW232817   3.562   0.337   3.354 -1.3479  0.2325 -2.5001
 7062SOL     OW32818   2.023   1.024   3.119 -0.4348  0.1753  0.3022
 7062SOL    HW132819   2.025   1.011   3.214 -0.5163 -0.7611  0.1736
 7062SOL    HW232820   2.012   1.119   3.115 -1.1126  0.0695 -0.3689
 7063SOL     OW32821   1.758   4.145   0.768  0.0585 -0.0018  0.0168
 7063SOL    HW132822   1.797   4.079   0.711  2.4187  0.9314  0.5535
 7063SOL    HW232823   1.777   4.224   0.717  0.0838 -0.9687 -1.4979
 7064SOL     OW32824   0.729   1.506   2.581 -0.1358  0.4253  0.0053
 7064SOL    HW132825   0.738   1.411   2.572  3.3656  0.8629 -1.1587
 7064SOL    HW232826   0.723   1.510   2.677 -0.0601  1.2138 -0.0253
 7065SOL     OW32827   2.616   1.606   2.171  0.4324  0.4235  0.0260
 7065SOL    HW132828   2.642   1.539   2.108  0.8106  1.3854 -0.8456
 7065SOL    HW232829   2.573   1.555   2.240 -0.0480 -0.0568 -0.6374
 7066SOL     OW32830   0.293   3.402   7.104 -0.8056 -0.5069  0.2991
 7066SOL    HW132831   0.202   3.432   7.100 -0.5995  0.3125  1.7592
 7066SOL    HW232832   0.323   3.450   7.181  1.1445  0.8322 -1.2924
 7067SOL     OW32833   3.898   2.611   3.176 -0.1992  0.5001  0.3226
 7067SOL    HW132834   3.918   2.704   3.178 -0.8338  0.6561 -0.7352
 7067SOL    HW232835   3.953   2.587   3.101 -0.3690 -2.2319  1.0699
 7068SOL     OW32836   4.316   3.622   1.879 -0.0364 -0.7482  0.2686
 7068SOL    HW132837   4.300   3.580   1.964 -1.3252 -0.5638  0.1289
 7068SOL    HW232838   4.273   3.563   1.817 -1.1735 -2.6308  2.8131
 7069SOL     OW32839   0.841   3.120   3.698  0.0172 -0.1177  0.1240
 7069SOL    HW132840   0.893   3.076   3.765 -0.9428 -1.6504 -0.1330
 7069SOL    HW232841   0.825   3.043   3.643 -1.6943 -0.2126  0.7403
 7070SOL     OW32842   0.529   2.014   8.235 -0.6242  0.4440 -0.3218
 7070SOL    HW132843   0.467   1.942   8.224 -1.0637  1.0550 -1.8319
 7070SOL    HW232844   0.512   2.035   8.327  0.8721  0.0522  0.0471
 7071SOL     OW32845   3.542   1.118  13.057 -0.5623  0.0867 -0.4395
 7071SOL    HW132846   3.633   1.096  13.034 -0.4757  0.7412 -0.7093
 7071SOL    HW232847   3.512   1.185  12.996 -1.2956  0.5045  0.3826
 7072SOL     OW32848   2.917   4.405   2.676 -0.8308 -0.3385 -0.2083
 7072SOL    HW132849   2.994   4.455   2.703 -0.0722 -2.8931  2.2214
 7072SOL    HW232850   2.951   4.412   2.587 -1.2413  0.3517 -0.3144
 7073SOL     OW32851   0.290   4.653   1.643  1.1040  0.2306 -0.1639
 7073SOL    HW132852   0.233   4.720   1.604 -3.1969 -1.8471  2.5146
 7073SOL    HW232853   0.339   4.629   1.565  1.1769  2.9997 -0.9612
 7074SOL     OW32854   3.036   1.973  13.942  0.8328 -0.0696 -0.0839
 7074SOL    HW132855   3.034   2.069  13.942  1.7580 -0.0503  2.3278
 7074SOL    HW232856   3.106   1.955  14.004 -1.1091 -0.3474  2.0194
 7075SOL     OW32857   4.051   0.726   0.443  0.3354 -0.0078  0.4127
 7075SOL    HW132858   4.029   0.661   0.376 -0.9132  3.1376 -2.2782
 7075SOL    HW232859   3.974   0.710   0.498 -1.0019 -0.5496 -1.5819
 7076SOL     OW32860   2.281   2.509   9.890  0.3762  0.1167  0.0176
 7076SOL    HW132861   2.337   2.436   9.918  0.9179 -0.0252 -1.4538
 7076SOL    HW232862   2.297   2.572   9.960  0.3311  2.1193 -1.8148
 7077SOL     OW32863   0.023   4.343   4.509  0.4422  0.2528  0.0028
 7077SOL    HW132864   0.085   4.321   4.579 -0.0113 -0.2339  0.2511
 7077SOL    HW232865   0.000   4.434   4.524  1.3304  0.4137  0.3804
 7078SOL     OW32866   3.172   2.796   1.705  0.0265  0.5852  0.0513
 7078SOL    HW132867   3.226   2.717   1.696 -1.3794 -0.3641 -0.1367
 7078SOL    HW232868   3.207   2.866   1.649 -0.5243  1.9957  1.4925
 7079SOL     OW32869   4.003   4.601   3.732  0.0672  0.1347  0.2223
 7079SOL    HW132870   3.961   4.552   3.802 -1.9082  0.1440 -0.9861
 7079SOL    HW232871   4.041   4.536   3.673  0.1590  0.8747 -0.5384
 7080SOL     OW32872   1.320   1.807  16.733  0.7631  0.1377  0.1550
 7080SOL    HW132873   1.244   1.830  16.787  0.5009  0.8698 -0.5297
 7080SOL    HW232874   1.355   1.892  16.705 -0.6863 -0.2744 -2.9121
 7081SOL     OW32875   3.901   1.798   7.782 -0.1152 -0.5747 -0.0148
 7081SOL    HW132876   3.995   1.780   7.774 -0.3416 -1.7769 -0.0045
 7081SOL    HW232877   3.897   1.885   7.822  0.0899 -0.6159  0.0944
 7082SOL     OW32878   3.091   2.977   8.064 -0.0496 -0.3321  0.0437
 7082SOL    HW132879   3.166   2.941   8.113 -0.0906  1.3388  1.3502
 7082SOL    HW232880   3.106   3.071   8.059  0.7107 -0.4124  0.6901
 7083SOL     OW32881   2.369   1.581   2.852  0.6196  0.0182  0.0478
 7083SOL    HW132882   2.425   1.561   2.927 -0.5915  2.0509  1.4877
 7083SOL    HW232883   2.409   1.522   2.789  1.2911  0.2822  0.2266
 7084SOL     OW32884   0.361   0.218   5.394 -0.7045  0.2457  0.0785
 7084SOL    HW132885   0.355   0.305   5.435  1.6069 -0.1018  1.1680
 7084SOL    HW232886   0.354   0.167   5.475  3.6103 -0.3317  0.0679
 7085SOL     OW32887   1.422   4.000  12.369 -0.0568  0.4198  0.1060
 7085SOL    HW132888   1.367   3.955  12.306  1.5047 -0.8331 -0.3613
 7085SOL    HW232889   1.395   4.091  12.357 -0.2382  0.3886  0.2826
 7086SOL     OW32890   4.012   1.971   5.684  0.6993  0.1203 -0.2847
 7086SOL    HW132891   4.024   1.903   5.618 -0.7860  0.0548 -0.4949
 7086SOL    HW232892   4.099   2.011   5.685 -0.5221  2.7242  0.5256
 7087SOL     OW32893   4.427   1.454   3.574 -0.6898  0.0676 -0.1691
 7087SOL    HW132894   4.398   1.382   3.519 -1.0989 -0.7237  1.0922
 7087SOL    HW232895   4.368   1.524   3.543  0.2738  0.9705  0.0670
 7088SOL     OW32896   3.494   0.048   6.829 -0.2951  0.1870 -0.3714
 7088SOL    HW132897   3.548   4.724   6.772 -3.5174 -1.2367 -2.0144
 7088SOL    HW232898   3.403   0.029   6.805 -0.6542  2.3871 -0.8023
 7089SOL     OW32899   0.227   4.445   2.395 -0.2580  0.2836 -0.1862
 7089SOL    HW132900   0.178   4.498   2.332  1.6873  2.0819 -0.1625
 7089SOL    HW232901   0.200   4.487   2.477 -0.9016 -0.5721  0.0454
 7090SOL     OW32902   2.121   1.906   0.092  0.7283  0.3145 -0.0952
 7090SOL    HW132903   2.037   1.862   0.100  1.2850 -0.4902  1.3130
 7090SOL    HW232904   2.179   1.832   0.106  1.7225  1.6659  3.1833
 7091SOL     OW32905   0.738   3.920   4.264 -0.1504  0.6786 -0.4098
 7091SOL    HW132906   0.814   3.892   4.214 -1.0784 -1.1580 -0.7952
 7091SOL    HW232907   0.754   3.883   4.350  2.4083 -1.4671 -1.8077
 7092SOL     OW32908   0.959   3.107  11.184  0.4835 -0.3786 -0.1023
 7092SOL    HW132909   0.891   3.167  11.156 -0.3881 -0.5563  1.6303
 7092SOL    HW232910   1.038   3.161  11.189  0.2153 -0.0411  0.3854
 7093SOL     OW32911   0.919   2.850  14.768  0.0445 -0.0057 -0.1519
 7093SOL    HW132912   0.922   2.940  14.735 -0.0219  0.3316  0.7749
 7093SOL    HW232913   1.000   2.807  14.740 -0.0666 -0.8552  0.8600
 7094SOL     OW32914   2.758   2.948  13.951  0.0869  0.7930 -0.1388
 7094SOL    HW132915   2.684   2.997  13.917 -0.8087 -1.1262 -0.9806
 7094SOL    HW232916   2.718   2.897  14.023 -2.4717 -1.1890 -2.9668
 7095SOL     OW32917   0.615   1.901   3.025 -0.5471  0.1871 -0.0052
 7095SOL    HW132918   0.555   1.827   3.017  1.0371 -0.6929 -3.8372
 7095SOL    HW232919   0.659   1.880   2.943  0.1134 -1.8385  0.8710
 7096SOL     OW32920   2.812   2.738  10.165 -0.7249  0.2090 -0.6395
 7096SOL    HW132921   2.776   2.652  10.186  0.6968 -0.0156  0.9357
 7096SOL    HW232922   2.762   2.758  10.086 -1.2934 -2.9100 -1.0636
 7097SOL     OW32923   0.045   1.508   5.072  0.5798 -0.0621  0.5220
 7097SOL    HW132924   0.049   1.413   5.068 -3.1773 -0.1993  0.1041
 7097SOL    HW232925   4.727   1.522   5.153 -0.3821 -0.5973  0.0301
 7098SOL     OW32926   3.583   1.163   6.049 -0.0170  0.2865  0.2493
 7098SOL    HW132927   3.508   1.130   6.098  0.0920 -1.1456 -0.5239
 7098SOL    HW232928   3.600   1.093   5.985  0.4306 -0.4334  1.1599
 7099SOL     OW32929   1.210   2.068   2.553 -0.2250  0.0610  0.8507
 7099SOL    HW132930   1.127   2.042   2.513 -0.8850 -0.4260  2.5271
 7099SOL    HW232931   1.196   2.163   2.556  0.4722  0.1291  1.7517
 7100SOL     OW32932   1.354   1.475   1.240  0.0364  0.5174  0.0371
 7100SOL    HW132933   1.292   1.491   1.169 -0.0558 -2.1499 -0.4820
 7100SOL    HW232934   1.334   1.550   1.296  0.5496  1.4005 -0.9533
 7101SOL     OW32935   3.713   1.370   2.255 -0.2382  0.0549 -0.1217
 7101SOL    HW132936   3.790   1.322   2.222  1.4244  3.5369 -1.3182
 7101SOL    HW232937   3.766   1.450   2.259 -0.3366  0.1384 -0.4326
 7102SOL     OW32938   0.442   0.788   3.531  0.2214  0.1203 -0.6471
 7102SOL    HW132939   0.362   0.787   3.479  0.0661 -1.3997 -0.3811
 7102SOL    HW232940   0.402   0.779   3.618  2.6200  1.3326  0.5870
 7103SOL     OW32941   2.423   2.177  15.842 -0.2927  0.1115  0.8459
 7103SOL    HW132942   2.377   2.197  15.760  3.5053 -1.0449 -1.5653
 7103SOL    HW232943   2.357   2.130  15.892 -1.8317 -0.0458 -1.3354
 7104SOL     OW32944   0.807   0.249   1.699  0.2151  0.2195  0.2616
 7104SOL    HW132945   0.854   0.300   1.634  1.5739  1.1451  1.9801
 7104SOL    HW232946   0.785   0.170   1.649  0.4585 -1.0555  2.1676
 7105SOL     OW32947   1.822   1.687   2.334  0.4360  0.2074 -0.0201
 7105SOL    HW132948   1.774   1.675   2.416  1.0218 -0.6140  0.2029
 7105SOL    HW232949   1.827   1.595   2.306  1.7917 -0.1644  1.4320
 7106SOL     OW32950   0.350   4.075   4.538  0.2358 -0.0975 -0.0991
 7106SOL    HW132951   0.327   4.019   4.464  0.6640 -2.0272  1.2231
 7106SOL    HW232952   0.445   4.069   4.528  0.4767 -0.8205  2.5809
 7107SOL     OW32953   4.228   3.672   5.119  0.3913 -0.0704  0.0709
 7107SOL    HW132954   4.218   3.594   5.065  1.7716  0.1447 -0.4737
 7107SOL    HW232955   4.135   3.693   5.128  0.3166 -1.2362  2.0051
 7108SOL     OW32956   3.037   4.253  10.010 -0.2732  0.3089  0.6020
 7108SOL    HW132957   3.035   4.287  10.099  0.0655 -2.4684  1.6646
 7108SOL    HW232958   3.091   4.317   9.963 -0.2351  0.8879  1.4412
 7109SOL     OW32959   0.071   2.606   3.447 -0.5070  0.3585 -0.2715
 7109SOL    HW132960   4.720   2.619   3.494  0.3012  1.3638  0.8511
 7109SOL    HW232961   0.134   2.653   3.501 -1.3717 -0.9306  1.8676
 7110SOL     OW32962   1.241   0.418   4.270 -0.5161  0.1366  0.1686
 7110SOL    HW132963   1.294   0.495   4.248 -0.3176  0.2225  0.9349
 7110SOL    HW232964   1.302   0.377   4.331 -0.4392  1.9732  1.3295
 7111SOL     OW32965   1.504   4.144  12.099 -0.4256 -0.0414 -0.3573
 7111SOL    HW132966   1.540   4.064  12.138 -0.9678 -0.4469 -0.6877
 7111SOL    HW232967   1.583   4.198  12.095 -1.7105  1.9058  0.9000
 7112SOL     OW32968   3.055   2.554  12.966 -0.6286  0.1787 -0.1114
 7112SOL    HW132969   2.970   2.522  12.937  0.7635 -1.0602 -2.8341
 7112SOL    HW232970   3.095   2.477  13.006 -1.3213 -0.1524 -0.0694
 7113SOL     OW32971   4.029   0.306  15.031  0.2566 -0.1561 -0.6796
 7113SOL    HW132972   3.942   0.333  15.059  1.6356  2.2092  1.3308
 7113SOL    HW232973   4.022   0.210  15.027  3.8901 -0.4464 -0.4238
 7114SOL     OW32974   2.821   1.383   8.014 -0.3686 -0.2433  0.1337
 7114SOL    HW132975   2.803   1.476   8.028  0.3646 -0.0128 -0.4735
 7114SOL    HW232976   2.856   1.364   8.101 -1.5723 -3.0970  0.0043
 7115SOL     OW32977   1.948   4.004   1.968 -0.4671 -0.3522 -0.1328
 7115SOL    HW132978   1.859   4.009   2.003 -0.3192  0.2260  0.1558
 7115SOL    HW232979   2.001   4.053   2.031  0.4572  0.8662 -1.8454
 7116SOL     OW32980   4.450   3.532   4.491 -0.3476 -0.4047 -0.3552
 7116SOL    HW132981   4.365   3.492   4.471  0.2878 -1.7057 -0.4315
 7116SOL    HW232982   4.509   3.493   4.427  1.1335 -0.2189  0.9150
 7117SOL     OW32983   4.325   3.652   9.557  0.1449  0.4615 -0.0940
 7117SOL    HW132984   4.282   3.601   9.488  0.8269 -0.6863  0.3318
 7117SOL    HW232985   4.269   3.730   9.551  0.7367  0.8270 -1.0246
 7118SOL     OW32986   4.600   1.643   4.650  0.1443  0.5218 -0.1329
 7118SOL    HW132987   4.556   1.721   4.683 -0.0196 -0.4565  1.9121
 7118SOL    HW232988   4.689   1.667   4.675 -0.0064  0.6966  0.2252
 7119SOL     OW32989   3.218   1.925   5.065  0.0708 -0.1796  0.0288
 7119SOL    HW132990   3.176   1.890   4.987  0.6627  1.0506 -0.8424
 7119SOL    HW232991   3.197   1.861   5.134  0.1865  0.3186  0.5265
 7120SOL     OW32992   1.756   1.912   1.426  0.5029  0.4521 -0.0775
 7120SOL    HW132993   1.835   1.881   1.471  0.6342 -0.8263 -1.2012
 7120SOL    HW232994   1.688   1.909   1.493 -1.0901 -2.7379 -1.8296
 7121SOL     OW32995   1.081   2.657   6.827 -0.0669  0.2562  0.3347
 7121SOL    HW132996   1.027   2.691   6.756 -0.7804  1.3970  1.4093
 7121SOL    HW232997   1.064   2.566   6.804 -1.6142 -0.2297  3.3576
 7122SOL     OW32998   1.090   0.012   9.733 -0.0432 -0.1479  0.5574
 7122SOL    HW132999   1.162   4.680   9.728 -0.3517 -0.3410 -1.3437
 7122SOL    HW233000   1.017   4.698   9.691 -1.3364  1.7768  0.7369
 7123SOL     OW33001   2.699   2.513  11.777  0.1071  0.0512 -0.1669
 7123SOL    HW133002   2.773   2.466  11.815  1.2649  0.6640 -1.7003
 7123SOL    HW233003   2.732   2.602  11.793  2.1009 -1.0070  1.6336
 7124SOL     OW33004   4.418   1.625   9.344  0.2346 -0.2253  0.5584
 7124SOL    HW133005   4.353   1.683   9.303 -1.7082 -2.4869  0.4069
 7124SOL    HW233006   4.495   1.682   9.334  1.3507 -1.6502  1.1713
 7125SOL     OW33007   2.955   1.103   5.527 -0.0133  0.2038 -0.0813
 7125SOL    HW133008   2.966   1.050   5.606  1.4531  1.0370  0.2628
 7125SOL    HW233009   2.860   1.085   5.525 -0.4358  2.5839 -0.6958
 7126SOL     OW33010   1.779   2.681   0.332 -0.2576  0.5575  0.2785
 7126SOL    HW133011   1.741   2.611   0.279 -0.2409  0.5513  0.2747
 7126SOL    HW233012   1.701   2.715   0.376 -0.8471 -1.5422  0.8160
 7127SOL     OW33013   2.507   0.658   4.800  0.1978 -0.1932  0.1565
 7127SOL    HW133014   2.453   0.640   4.723 -0.4743 -0.0174  0.5835
 7127SOL    HW233015   2.596   0.648   4.765 -0.2265  0.7111 -1.1829
 7128SOL     OW33016   3.823   0.900  14.453 -0.7707 -0.5819  0.1580
 7128SOL    HW133017   3.900   0.851  14.483 -1.5988 -1.1869  1.2729
 7128SOL    HW233018   3.867   0.977  14.416  0.4838 -0.6189  1.5570
 7129SOL     OW33019   2.639   2.523  10.061  0.3086  0.4896  0.2811
 7129SOL    HW133020   2.654   2.599  10.004 -0.0822  0.7918  0.5832
 7129SOL    HW233021   2.633   2.459   9.989 -1.4750  1.3890 -0.3896
 7130SOL     OW33022   2.179   0.764   2.647  0.1483 -0.2624  0.2125
 7130SOL    HW133023   2.205   0.693   2.706 -0.6702 -0.1271  0.7251
 7130SOL    HW233024   2.114   0.812   2.699 -1.0496 -2.8238  1.0712
 7131SOL     OW33025   1.076   3.899   6.300  0.6660 -0.4862  0.2050
 7131SOL    HW133026   1.021   3.858   6.233 -0.7606  0.8604  0.5514
 7131SOL    HW233027   1.099   3.984   6.261 -3.5421  0.6973  0.2425
 7132SOL     OW33028   0.212   0.879   1.823 -0.1351 -0.0609  0.3645
 7132SOL    HW133029   0.198   0.830   1.904 -1.0364  0.1203  0.3102
 7132SOL    HW233030   0.122   0.898   1.797 -0.4719  0.4762  1.9486
 7133SOL     OW33031   1.197   4.113  17.079  0.1658 -0.4546  0.1936
 7133SOL    HW133032   1.273   4.151  17.035 -0.2580 -1.0154 -1.0233
 7133SOL    HW233033   1.140   4.189  17.090 -1.6162 -1.8033  0.4277
 7134SOL     OW33034   1.488   1.299  13.049 -0.0259  0.6372  0.1477
 7134SOL    HW133035   1.559   1.246  13.014  0.1920  1.3820 -0.5672
 7134SOL    HW233036   1.533   1.383  13.040  0.8246  0.0257 -1.3337
 7135SOL     OW33037   1.823   4.608   2.634 -0.2372  0.3334 -0.7143
 7135SOL    HW133038   1.785   4.552   2.567  1.6532 -1.9021  0.1004
 7135SOL    HW233039   1.887   4.547   2.671  0.8219  0.4394 -2.3530
 7136SOL     OW33040   0.437   1.385  10.678 -0.4167  0.3266  0.0257
 7136SOL    HW133041   0.376   1.388  10.752  1.3036  0.5462  1.4380
 7136SOL    HW233042   0.416   1.468  10.635 -3.0729  0.6024  1.8039
 7137SOL     OW33043   2.142   1.987  11.785  0.1183 -0.8332 -0.0259
 7137SOL    HW133044   2.194   2.067  11.778  2.1879 -1.9897  2.0258
 7137SOL    HW233045   2.212   1.921  11.783  0.0644 -0.9747  2.5361
 7138SOL     OW33046   0.127   0.564   7.525  0.2038  0.0799  0.1516
 7138SOL    HW133047   0.111   0.624   7.453 -0.7006 -0.0636  0.2340
 7138SOL    HW233048   0.222   0.559   7.538 -0.2647 -1.8191  2.8549
 7139SOL     OW33049   4.361   0.369   2.682  0.0710  0.1843 -0.0253
 7139SOL    HW133050   4.331   0.441   2.738 -0.9938 -0.2412 -0.0502
 7139SOL    HW233051   4.281   0.316   2.680 -1.1812  2.0535  0.2366
 7140SOL     OW33052   0.635   2.852   1.936  0.0957 -0.4290  0.4511
 7140SOL    HW133053   0.723   2.877   1.908  0.0482 -0.3713  0.3532
 7140SOL    HW233054   0.651   2.802   2.016  1.2730 -0.9480 -0.0982
 7141SOL     OW33055   1.075   2.965   4.368  0.0824  0.0263  0.8885
 7141SOL    HW133056   1.166   2.987   4.346 -0.5837 -0.1415 -2.1280
 7141SOL    HW233057   1.069   2.962   4.463  0.0710 -1.0873  0.8572
 7142SOL     OW33058   2.101   2.364  14.692  0.2169  0.2288 -0.2093
 7142SOL    HW133059   2.074   2.385  14.781 -0.0831 -1.9571  0.2175
 7142SOL    HW233060   2.175   2.423  14.682  1.4266 -1.2647 -0.0607
 7143SOL     OW33061   1.727   2.548   2.935 -0.3090  0.0905 -0.7693
 7143SOL    HW133062   1.742   2.542   2.841 -0.2837 -0.7730 -0.7091
 7143SOL    HW233063   1.642   2.591   2.944  0.4855  1.6628 -0.9422
 7144SOL     OW33064   3.990   3.353   3.200  0.0170 -0.0058  0.1499
 7144SOL    HW133065   4.015   3.261   3.187  0.0449 -0.1149  1.0207
 7144SOL    HW233066   3.916   3.347   3.260  0.1237  1.1366  0.3832
 7145SOL     OW33067   0.438   2.492   2.127  0.0395  0.2566  0.0088
 7145SOL    HW133068   0.484   2.497   2.044  4.2037 -0.4447  2.3086
 7145SOL    HW233069   0.382   2.414   2.122 -1.9726  1.6406  0.7707
 7146SOL     OW33070   4.020   1.500  16.465  0.4489  0.1666  0.1843
 7146SOL    HW133071   4.110   1.486  16.494  0.0498 -0.2035  1.2487
 7146SOL    HW233072   4.011   1.428  16.403  3.3969  0.5296 -0.6545
 7147SOL     OW33073   4.437   1.583   1.737  0.6255  0.5257  0.3000
 7147SOL    HW133074   4.376   1.654   1.756 -0.6564 -0.2493 -0.9790
 7147SOL    HW233075   4.381   1.506   1.728  0.9523  0.4243 -0.8760
 7148SOL     OW33076   3.650   1.003  12.321 -0.1405  0.1302 -0.4448
 7148SOL    HW133077   3.568   1.028  12.364  1.1562  0.6238  1.7489
 7148SOL    HW233078   3.632   0.914  12.290 -1.3644  0.5995 -1.1063
 7149SOL     OW33079   0.087   1.737   4.851  0.3559  0.4766  0.5532
 7149SOL    HW133080   0.162   1.777   4.808 -2.1044  0.5990 -3.5826
 7149SOL    HW233081   0.111   1.730   4.943  1.9136  0.3273  0.1366
 7150SOL     OW33082   0.526   0.561   7.330 -0.0373 -0.4563  0.1548
 7150SOL    HW133083   0.462   0.630   7.348  1.8819  1.5281 -0.5721
 7150SOL    HW233084   0.602   0.610   7.363 -1.0880 -0.1659  2.1686
 7151SOL     OW33085   0.335   2.885   6.623  0.2305 -0.1093  0.1899
 7151SOL    HW133086   0.343   2.880   6.718  0.3455 -2.4055  0.0555
 7151SOL    HW233087   0.364   2.975   6.612  1.3090 -0.0996  3.0600
 7152SOL     OW33088   0.937   1.215   6.879  0.1425 -0.5312  0.4909
 7152SOL    HW133089   1.026   1.230   6.911  0.1463  0.1987  0.1523
 7152SOL    HW233090   0.896   1.230   6.964  0.4107 -0.8909  0.6806
 7153SOL     OW33091   2.491   1.762   4.983 -0.1265  0.6194  0.2455
 7153SOL    HW133092   2.454   1.851   4.978  0.2500  0.8132  0.8871
 7153SOL    HW233093   2.413   1.708   4.994 -1.1250  1.9946  0.0120
 7154SOL     OW33094   4.170   1.506   3.769  0.2950 -0.1839 -0.2861
 7154SOL    HW133095   4.236   1.444   3.799  1.1259  1.1210  0.6035
 7154SOL    HW233096   4.169   1.486   3.675  3.1172 -0.3758 -0.2644
 7155SOL     OW33097   3.672   1.987   1.564  0.6626 -0.0781  0.2154
 7155SOL    HW133098   3.597   2.038   1.534  1.0538 -0.1113 -0.8390
 7155SOL    HW233099   3.661   1.897   1.533  1.5357 -0.8620  2.1864
 7156SOL     OW33100   1.853   2.285   3.979  0.3938 -0.7928  0.2146
 7156SOL    HW133101   1.873   2.339   4.055 -1.4999  0.7156 -0.3514
 7156SOL    HW233102   1.764   2.261   4.005  0.4481 -0.9602  0.2453
 7157SOL     OW33103   2.673   1.928   4.545  0.1299  0.2354 -0.0081
 7157SOL    HW133104   2.650   2.019   4.567 -0.5594 -0.1033  0.6526
 7157SOL    HW233105   2.747   1.906   4.602 -1.1754  0.0302  1.5982
 7158SOL     OW33106   2.137   1.859   3.077  0.0669  0.6234 -0.6216
 7158SOL    HW133107   2.230   1.847   3.095 -0.4520 -1.9170  0.4157
 7158SOL    HW233108   2.117   1.928   3.140 -2.7635 -0.1704 -0.6292
 7159SOL     OW33109   0.420   1.846   8.448 -0.0434 -0.2996  0.6956
 7159SOL    HW133110   0.340   1.844   8.501  0.9547  0.4830  2.2584
 7159SOL    HW233111   0.486   1.824   8.515  0.3112 -0.3599  0.3239
 7160SOL     OW33112   0.474   0.175  16.548  0.1828  0.0353  0.5186
 7160SOL    HW133113   0.446   0.252  16.599 -0.9724 -0.8985  1.2800
 7160SOL    HW233114   0.417   0.100  16.561 -0.8424  0.6340 -0.5172
 7161SOL     OW33115   2.867   0.623   1.414 -0.0743  0.1881  0.1972
 7161SOL    HW133116   2.913   0.640   1.332 -1.7671  0.4741 -0.6702
 7161SOL    HW233117   2.876   0.703   1.466 -1.6537 -0.5742  1.6392
 7162SOL     OW33118   2.678   0.018   0.800  0.4853  0.3704 -0.2518
 7162SOL    HW133119   2.656   4.660   0.772  0.0165  0.9577 -1.7285
 7162SOL    HW233120   2.773   0.001   0.801  0.4571  0.3966  1.8315
 7163SOL     OW33121   1.208   2.829  14.004 -0.0843 -0.1985 -0.3272
 7163SOL    HW133122   1.299   2.838  14.032 -0.1767  1.6512 -0.6020
 7163SOL    HW233123   1.213   2.769  13.929  1.8745 -1.3967  0.7551
 7164SOL     OW33124   1.191   0.277   9.724 -0.2454 -0.1936 -0.0519
 7164SOL    HW133125   1.254   0.233   9.782  0.0165  0.1717 -0.0622
 7164SOL    HW233126   1.113   0.222   9.723 -0.1754 -0.2438 -1.6261
 7165SOL     OW33127   2.166   0.731  10.790  0.0719  0.4099  0.5004
 7165SOL    HW133128   2.096   0.757  10.850 -1.3030 -0.6338 -0.6611
 7165SOL    HW233129   2.219   0.684  10.855 -0.4222  0.9005  1.2550
 7166SOL     OW33130   3.907   1.484   3.974  0.6400  0.4475 -0.1079
 7166SOL    HW133131   3.915   1.408   4.031 -1.2030  0.9206  0.7936
 7166SOL    HW233132   3.957   1.463   3.895  1.6796 -1.0866  0.9494
 7167SOL     OW33133   0.332   0.922   8.880  0.0077 -0.0266 -0.0923
 7167SOL    HW133134   0.307   0.974   8.804  0.3787  0.6865  0.2781
 7167SOL    HW233135   0.387   0.860   8.833  2.0061  2.0968 -0.5270
 7168SOL     OW33136   2.471   1.442   6.834 -0.3542 -0.1236  0.2269
 7168SOL    HW133137   2.390   1.466   6.879  0.6095  2.3419  0.6664
 7168SOL    HW233138   2.514   1.389   6.901  0.0028  0.9979  0.8776
 7169SOL     OW33139   3.386   3.164   5.247 -0.1530 -0.0026 -0.0877
 7169SOL    HW133140   3.419   3.096   5.188 -1.9408 -0.5460 -0.4751
 7169SOL    HW233141   3.463   3.199   5.292 -1.0181  1.3663  0.3233
 7170SOL     OW33142   0.277   2.551   1.603  0.3842 -0.0046  0.4449
 7170SOL    HW133143   0.343   2.519   1.541  0.0033 -0.2480  0.1628
 7170SOL    HW233144   0.335   2.608   1.652  0.7598 -0.6543  0.7608
 7171SOL     OW33145   4.200   4.274   5.148 -0.0536 -0.4966 -0.6479
 7171SOL    HW133146   4.238   4.309   5.068 -0.6502 -1.5295 -1.3922
 7171SOL    HW233147   4.281   4.284   5.198  1.3442 -2.1594 -2.5816
 7172SOL     OW33148   1.250   3.936   6.827  0.6471 -0.0057  0.1361
 7172SOL    HW133149   1.210   3.991   6.894 -1.4807 -1.1049 -0.2161
 7172SOL    HW233150   1.266   3.863   6.887 -2.1215 -0.4608  0.3222
 7173SOL     OW33151   1.718   4.035   6.170  0.2861 -0.3318  0.1880
 7173SOL    HW133152   1.782   3.988   6.224  1.4172 -0.0055 -0.8723
 7173SOL    HW233153   1.775   4.085   6.112 -1.6343  1.4840 -0.1707
 7174SOL     OW33154   0.470   1.580  16.383  0.7249  0.4906 -0.0578
 7174SOL    HW133155   0.507   1.591  16.296 -1.6677 -1.3423 -1.2849
 7174SOL    HW233156   0.527   1.515  16.425 -0.7295 -1.2153 -0.7404
 7175SOL     OW33157   3.364   0.996   2.108 -0.1722 -0.0475  0.0802
 7175SOL    HW133158   3.420   1.007   2.031 -0.0931 -0.9657  0.0096
 7175SOL    HW233159   3.289   0.940   2.087 -0.7450  1.3628 -1.6896
 7176SOL     OW33160   2.330   1.365  12.935 -0.5958  0.3537 -0.2014
 7176SOL    HW133161   2.302   1.455  12.947  1.8072  1.1080 -0.2570
 7176SOL    HW233162   2.415   1.385  12.974 -1.3221  0.3046  1.4157
 7177SOL     OW33163   3.470   0.569  15.756 -0.4616 -0.2471  0.3795
 7177SOL    HW133164   3.437   0.648  15.714  1.2907  0.8907  1.1464
 7177SOL    HW233165   3.559   0.601  15.773 -0.3709 -1.1929  1.6826
 7178SOL     OW33166   1.607   3.907   4.669 -0.5618 -0.4725  0.4401
 7178SOL    HW133167   1.599   3.978   4.606  1.7236 -1.7016 -1.2414
 7178SOL    HW233168   1.643   3.952   4.745 -1.5489 -0.6416  1.0044
 7179SOL     OW33169   2.051   1.093   3.880  0.3221  0.6800 -0.1023
 7179SOL    HW133170   1.971   1.054   3.915  1.5058  0.1842  2.0970
 7179SOL    HW233171   2.013   1.144   3.809 -0.5955  1.3881  0.8961
 7180SOL     OW33172   0.328   2.078   1.696 -0.3680 -0.2320 -0.1028
 7180SOL    HW133173   0.379   2.106   1.619  2.9044 -0.0234  2.1599
 7180SOL    HW233174   0.382   2.118   1.764 -1.8778  0.3876  0.7136
 7181SOL     OW33175   4.302   2.379   6.172  0.6171 -0.0009 -0.0952
 7181SOL    HW133176   4.317   2.285   6.185  0.4387 -0.2016 -1.3347
 7181SOL    HW233177   4.391   2.411   6.188  0.0078  0.2157  2.9091
 7182SOL     OW33178   1.550   4.636   2.339  0.7280 -0.0871  1.1193
 7182SOL    HW133179   1.500   4.603   2.414  1.8541  2.4229  2.9749
 7182SOL    HW233180   1.487   4.704   2.314 -0.4729 -2.2035 -1.7048
 7183SOL     OW33181   0.099   1.486  17.616 -0.0379 -0.0078  0.0051
 7183SOL    HW133182   0.162   1.491  17.689 -0.0728  0.8935 -0.0242
 7183SOL    HW233183   0.135   1.421  17.555  0.1333 -0.2881  0.4026
 7184SOL     OW33184   4.294   4.248   1.485  0.1558  0.1333 -0.0560
 7184SOL    HW133185   4.275   4.242   1.579 -1.2240  3.8087 -0.1045
 7184SOL    HW233186   4.226   4.185   1.459 -1.9160  1.9304  0.9703
 7185SOL     OW33187   2.072   2.722  13.204 -0.0780  0.3915 -0.6455
 7185SOL    HW133188   2.002   2.657  13.196 -0.7416  0.8910  1.2209
 7185SOL    HW233189   2.011   2.794  13.215  1.5544  1.4794  1.2102
 7186SOL     OW33190   2.676   4.362   2.615 -0.0309  0.4292  0.8413
 7186SOL    HW133191   2.635   4.397   2.694 -2.5239 -0.7098  0.0779
 7186SOL    HW233192   2.770   4.376   2.625  0.0072 -0.2217  1.4329
 7187SOL     OW33193   1.715   1.503   6.996 -0.1436  0.6846 -0.1585
 7187SOL    HW133194   1.811   1.503   6.995 -0.1495 -0.9949 -1.2008
 7187SOL    HW233195   1.702   1.426   7.051  1.9907  0.8364  0.5788
 7188SOL     OW33196   0.645   2.769   5.116 -0.7723  0.0267 -0.1212
 7188SOL    HW133197   0.568   2.798   5.068  0.0153  1.1344 -0.7077
 7188SOL    HW233198   0.642   2.833   5.188  0.7860 -0.2959  0.2225
 7189SOL     OW33199   3.397   3.567  16.235  0.5296 -0.1925  1.0257
 7189SOL    HW133200   3.308   3.602  16.240 -0.0923 -1.9743  2.1282
 7189SOL    HW233201   3.384   3.473  16.246  2.6499 -0.6826 -0.5494
 7190SOL     OW33202   1.329   3.135   2.353 -0.1901 -0.1375 -0.5150
 7190SOL    HW133203   1.327   3.047   2.391  0.5784  1.3223  2.8254
 7190SOL    HW233204   1.237   3.141   2.326  0.4486  0.4789 -2.5586
 7191SOL     OW33205   4.682   3.926  13.741  0.1266 -0.3311  0.4388
 7191SOL    HW133206   4.627   4.004  13.741  0.2085 -0.2712  0.1152
 7191SOL    HW233207   4.615   3.858  13.751 -0.9776  0.7733  0.4222
 7192SOL     OW33208   0.154   2.276   7.041  0.0750  0.1080 -0.0443
 7192SOL    HW133209   0.152   2.301   7.134  2.0045 -2.9823  0.8180
 7192SOL    HW233210   0.190   2.188   7.046 -1.1856 -0.3674  0.5381
 7193SOL     OW33211   4.193   3.079   2.979  0.9000  0.0263 -0.8958
 7193SOL    HW133212   4.192   3.150   2.914  0.0905 -1.4890 -2.5314
 7193SOL    HW233213   4.283   3.048   2.965  1.4849  0.2516  2.4049
 7194SOL     OW33214   2.130   2.275   7.290 -0.2919 -0.3673  0.1197
 7194SOL    HW133215   2.145   2.303   7.380 -0.0212  1.8738 -0.6097
 7194SOL    HW233216   2.096   2.352   7.245 -1.1279 -0.4297  0.6435
 7195SOL     OW33217   0.255   1.381   3.389  0.4375  0.1199  0.1598
 7195SOL    HW133218   0.199   1.448   3.351  0.7765 -1.3371 -2.8450
 7195SOL    HW233219   0.331   1.387   3.332 -0.5674 -0.4341 -1.2371
 7196SOL     OW33220   4.720   0.423   1.079  0.2297  0.3397 -0.3198
 7196SOL    HW133221   0.043   0.457   1.008 -0.2072  2.3581  0.3157
 7196SOL    HW233222   0.027   0.336   1.070  0.2652  0.4055 -0.8262
 7197SOL     OW33223   1.327   4.711   6.172  0.3084 -0.1537 -0.2990
 7197SOL    HW133224   1.246   0.006   6.128 -0.1909 -1.6884 -0.2912
 7197SOL    HW233225   1.297   4.694   6.261  0.9811 -2.1829 -0.4565
 7198SOL     OW33226   3.402   2.498  11.290  0.2430 -0.1294  0.5393
 7198SOL    HW133227   3.383   2.407  11.267 -0.9088  1.0054 -3.0468
 7198SOL    HW233228   3.490   2.502  11.327  0.9457  1.0781 -1.2470
 7199SOL     OW33229   1.631   4.060   3.240 -0.0555 -0.0266  0.5233
 7199SOL    HW133230   1.691   4.102   3.301  1.6308  1.7239 -2.3252
 7199SOL    HW233231   1.569   4.133   3.240  0.9283  0.8153 -0.3249
 7200SOL     OW33232   4.464   2.414  10.164  0.0890 -0.2163  0.3334
 7200SOL    HW133233   4.538   2.470  10.140  0.7281 -1.6888 -1.2221
 7200SOL    HW233234   4.504   2.333  10.197 -3.0221 -2.4381 -1.3015
 7201SOL     OW33235   0.171   3.312   4.297  0.3180 -0.3878  1.0128
 7201SOL    HW133236   0.160   3.407   4.298  0.0765 -0.4371  2.3011
 7201SOL    HW233237   0.166   3.286   4.205  2.1292 -0.4292  0.9151
 7202SOL     OW33238   1.045   3.079   7.583 -0.4433 -0.2137  0.2005
 7202SOL    HW133239   1.039   3.022   7.660 -1.1909  0.1655  0.4242
 7202SOL    HW233240   0.994   3.155   7.612  0.4129  0.3438  0.2288
 7203SOL     OW33241   3.178   3.948   6.124  0.1797 -0.7624 -0.7677
 7203SOL    HW133242   3.127   3.996   6.059  0.2441 -0.5057 -0.6287
 7203SOL    HW233243   3.112   3.922   6.188 -0.0209  2.8226  0.4911
 7204SOL     OW33244   0.497   2.926   9.021  0.5497  0.0662 -0.1039
 7204SOL    HW133245   0.408   2.916   8.988  1.2161 -0.5489 -1.7196
 7204SOL    HW233246   0.550   2.882   8.954  0.2613  1.9762 -1.5643
 7205SOL     OW33247   3.313   2.487   5.545 -0.7037 -0.5199 -0.5205
 7205SOL    HW133248   3.318   2.515   5.454 -1.4933 -2.7796 -1.2410
 7205SOL    HW233249   3.396   2.524   5.576 -0.5294 -0.4485 -1.0733
 7206SOL     OW33250   3.120   3.671  12.221  0.3145  0.3309  0.1386
 7206SOL    HW133251   3.101   3.689  12.129 -2.0834 -0.3983  0.4852
 7206SOL    HW233252   3.042   3.696  12.270 -0.3936 -0.3806 -0.6092
 7207SOL     OW33253   3.821   0.095   3.286  0.4380  0.0635  0.2286
 7207SOL    HW133254   3.861   0.071   3.370  1.4313  0.2364 -0.1902
 7207SOL    HW233255   3.862   0.181   3.271 -0.8925  0.2265 -2.4858
 7208SOL     OW33256   3.906   1.999   9.821 -0.2656  0.0497 -0.6670
 7208SOL    HW133257   3.830   1.962   9.775 -1.4009 -2.2741  3.0989
 7208SOL    HW233258   3.944   1.915   9.845  1.3327  0.9432 -0.0873
 7209SOL     OW33259   4.125   2.628   0.756  0.0181 -0.5037  0.2593
 7209SOL    HW133260   4.059   2.689   0.788 -1.1219 -1.8881  0.5552
 7209SOL    HW233261   4.066   2.569   0.708  1.3369  0.2609 -2.3338
 7210SOL     OW33262   0.906   2.483   7.043  0.0602  0.1101 -0.1874
 7210SOL    HW133263   0.899   2.577   7.023  1.1359  0.3091  0.3416
 7210SOL    HW233264   0.820   2.466   7.079 -0.3557 -1.2723 -1.8420
 7211SOL     OW33265   4.436   0.886   9.400 -0.1809  0.1014  0.3543
 7211SOL    HW133266   4.474   0.954   9.344 -0.3271  0.5290  0.7702
 7211SOL    HW233267   4.438   0.920   9.489 -0.7851  1.8808 -0.3080
 7212SOL     OW33268   2.108   3.724   4.947  0.4811  0.1445 -0.1208
 7212SOL    HW133269   2.200   3.718   4.973  0.3072  0.0932  0.4743
 7212SOL    HW233270   2.120   3.673   4.867  0.5424  1.6957 -1.1162
 7213SOL     OW33271   0.457   0.330   9.185  0.0502  0.4619 -0.4340
 7213SOL    HW133272   0.467   0.397   9.252 -2.3023 -0.2894  0.6829
 7213SOL    HW233273   0.362   0.331   9.173 -0.0762  2.3693  0.8659
 7214SOL     OW33274   3.334   2.714   7.444 -1.5243  0.3168  0.6762
 7214SOL    HW133275   3.240   2.703   7.435 -1.5096  1.1889 -0.5324
 7214SOL    HW233276   3.341   2.793   7.390 -0.0239  1.1203  2.0226
 7215SOL     OW33277   1.964   4.162   6.036 -0.1826  0.4541 -0.3343
 7215SOL    HW133278   2.021   4.104   6.086  0.9676 -0.6338 -2.9081
 7215SOL    HW233279   1.958   4.105   5.960 -1.6090  0.8157 -0.4820
 7216SOL     OW33280   4.173   3.153   4.237 -0.2318 -0.3978  0.0118
 7216SOL    HW133281   4.168   3.085   4.170 -0.6537 -2.3207  1.9968
 7216SOL    HW233282   4.223   3.220   4.191 -3.0341  0.8522 -1.1636
 7217SOL     OW33283   1.252   1.810  11.076 -0.1969 -0.5701  0.4834
 7217SOL    HW133284   1.296   1.732  11.108 -0.1036 -0.4198  0.7265
 7217SOL    HW233285   1.179   1.831  11.135 -1.5120 -0.7629 -1.0774
 7218SOL     OW33286   1.251   2.800   2.965 -0.1158  0.2640  0.0034
 7218SOL    HW133287   1.195   2.779   3.040 -0.2295 -0.7653 -0.3668
 7218SOL    HW233288   1.191   2.805   2.890  0.4945  1.1974 -0.4189
 7219SOL     OW33289   3.197   1.922   8.141 -0.0898  0.2226  0.5231
 7219SOL    HW133290   3.202   2.009   8.180  0.9347  0.4863 -0.1928
 7219SOL    HW233291   3.181   1.853   8.205 -0.4117 -0.1423  0.0545
 7220SOL     OW33292   0.355   0.958   6.960 -0.0407 -0.3423  0.5305
 7220SOL    HW133293   0.430   0.901   6.978 -0.0078 -0.6451 -0.5625
 7220SOL    HW233294   0.360   0.967   6.865 -0.8174  1.9440  0.6963
 7221SOL     OW33295   3.743   2.713   1.805 -0.0549 -0.5854 -0.8727
 7221SOL    HW133296   3.667   2.770   1.804  0.4472  0.1489  2.2840
 7221SOL    HW233297   3.738   2.673   1.892 -1.5139  0.0508 -0.6548
 7222SOL     OW33298   4.552   2.014   5.874  0.0381 -0.4636 -0.4851
 7222SOL    HW133299   4.616   2.002   5.803 -0.1826  1.1055 -0.9425
 7222SOL    HW233300   4.505   1.931   5.864  0.9729 -1.1415  0.7226
 7223SOL     OW33301   3.237   3.323  12.538 -0.1930 -0.0332 -0.7605
 7223SOL    HW133302   3.252   3.389  12.470 -2.4978  2.0627  0.8028
 7223SOL    HW233303   3.300   3.349  12.605  0.1083  1.9299 -1.8066
 7224SOL     OW33304   0.453   0.027   9.350 -0.1547 -0.2467  0.6560
 7224SOL    HW133305   0.390   0.007   9.280  0.6745  0.6733 -0.3640
 7224SOL    HW233306   0.428   4.696   9.418  1.7235 -2.8727 -1.0409
 7225SOL     OW33307   0.812   2.402  10.897  0.4900 -0.3943 -0.6410
 7225SOL    HW133308   0.837   2.486  10.860 -0.7615  0.5581  0.6988
 7225SOL    HW233309   0.758   2.423  10.973  3.6236  1.0650  1.1913
 7226SOL     OW33310   3.591   1.266   6.619 -0.0328  0.7290  0.1691
 7226SOL    HW133311   3.588   1.360   6.602 -1.7476  0.6646  0.0507
 7226SOL    HW233312   3.545   1.243   6.538  0.8019 -0.4797  0.0425
 7227SOL     OW33313   4.295   2.544   9.112  0.0770 -0.2561  0.2504
 7227SOL    HW133314   4.229   2.573   9.175 -2.9971 -2.2550 -2.0418
 7227SOL    HW233315   4.380   2.551   9.156 -1.1512  2.5182  2.1241
 7228SOL     OW33316   1.671   4.651  14.190  0.3995 -0.1048 -0.0173
 7228SOL    HW133317   1.684   4.560  14.217  0.3431  0.0022  0.3734
 7228SOL    HW233318   1.593   4.678  14.239 -0.3638 -0.2879 -1.1324
 7229SOL     OW33319   0.803   3.945   2.811 -0.4415  0.1365 -0.2281
 7229SOL    HW133320   0.783   3.865   2.860  0.6704 -1.7061 -2.8136
 7229SOL    HW233321   0.724   3.967   2.762 -0.4530  2.2783  0.7305
 7230SOL     OW33322   0.851   4.591   4.176  0.4688 -0.1237  0.2458
 7230SOL    HW133323   0.762   4.589   4.210  0.3435  0.7576 -0.0387
 7230SOL    HW233324   0.846   4.652   4.103  3.4263 -0.5321 -0.3044
 7231SOL     OW33325   0.103   0.047   7.795  0.1205  0.3154 -0.0517
 7231SOL    HW133326   0.182   0.098   7.809  0.2162  0.2920 -0.4867
 7231SOL    HW233327   0.142   4.692   7.807  1.3661  1.1466  1.7350
 7232SOL     OW33328   2.382   4.410   7.522 -0.6219 -0.3733  0.2515
 7232SOL    HW133329   2.446   4.339   7.528  1.4432  1.4803  0.2304
 7232SOL    HW233330   2.301   4.367   7.495  0.0619  0.0918 -2.5270
 7233SOL     OW33331   0.723   1.613   5.053  0.5426 -0.0668  0.1067
 7233SOL    HW133332   0.804   1.565   5.036 -0.6132 -1.6407 -0.9478
 7233SOL    HW233333   0.734   1.606   5.148  0.8391  0.4477  0.1116
 7234SOL     OW33334   1.446   0.952   3.603  0.1248 -0.1245  0.2915
 7234SOL    HW133335   1.357   0.983   3.588  0.1773 -0.8643 -1.5159
 7234SOL    HW233336   1.492   1.027   3.566  0.7270 -1.3022 -1.3197
 7235SOL     OW33337   1.450   0.213   1.748  0.2525 -0.2563 -0.4301
 7235SOL    HW133338   1.522   0.210   1.684 -1.8223  0.5406 -2.7590
 7235SOL    HW233339   1.491   0.250   1.826  1.2528  0.0084 -1.0784
 7236SOL     OW33340   3.929   2.568   8.365  0.3357  0.3243 -0.0225
 7236SOL    HW133341   3.963   2.491   8.320 -0.0220  0.7126 -0.9535
 7236SOL    HW233342   4.013   2.608   8.389  0.8961 -1.3034  0.7466
 7237SOL     OW33343   4.585   0.416  14.863 -0.2113 -0.0470  0.0512
 7237SOL    HW133344   4.572   0.328  14.898 -1.8940  0.0134 -0.4347
 7237SOL    HW233345   4.661   0.409  14.805  0.1902 -1.0004  0.6928
 7238SOL     OW33346   2.211   1.703   9.410 -0.0371 -0.2850  0.0363
 7238SOL    HW133347   2.210   1.670   9.320 -2.4563 -1.3120  0.4376
 7238SOL    HW233348   2.163   1.785   9.403 -0.4822 -0.6856 -1.4611
 7239SOL     OW33349   4.636   1.623   8.972 -0.0111 -0.3397 -0.0447
 7239SOL    HW133350   4.665   1.698   9.024 -0.0319  0.9907 -1.9462
 7239SOL    HW233351   4.543   1.642   8.963 -0.2410 -1.3980  0.1361
 7240SOL     OW33352   2.884   1.074   4.208  0.1518 -0.1929  0.7497
 7240SOL    HW133353   2.865   1.112   4.294  1.9677  1.1967  0.5417
 7240SOL    HW233354   2.796   1.043   4.184 -0.0502 -0.2285  1.5501
 7241SOL     OW33355   3.921   0.728   2.872 -0.5108 -0.7697 -0.1973
 7241SOL    HW133356   3.851   0.693   2.817 -1.0699 -1.9463  1.2596
 7241SOL    HW233357   3.973   0.651   2.895  0.7906 -0.6468 -2.8272
 7242SOL     OW33358   4.584   0.405   8.311 -0.0582 -0.3328  0.0852
 7242SOL    HW133359   4.509   0.452   8.275 -1.2135 -2.4352 -0.2589
 7242SOL    HW233360   4.645   0.420   8.239 -0.0529  3.3894  0.8729
 7243SOL     OW33361   2.927   4.077   3.022 -0.1610  0.1104 -0.0719
 7243SOL    HW133362   2.984   4.038   3.088 -2.1395  3.3295  3.5289
 7243SOL    HW233363   2.916   4.169   3.046  0.7068  0.6429 -1.7372
 7244SOL     OW33364   0.270   3.032  11.812 -0.0185 -0.8809 -0.4536
 7244SOL    HW133365   0.341   3.067  11.757  0.8328 -1.1402  0.4824
 7244SOL    HW233366   0.226   3.107  11.851  3.8295  0.6314  0.9742
 7245SOL     OW33367   2.569   4.579   6.492 -0.1117 -0.1130 -0.0429
 7245SOL    HW133368   2.609   4.655   6.449  1.4674 -0.4091  0.9081
 7245SOL    HW233369   2.653   4.550   6.527  0.7204 -0.1744 -2.0824
 7246SOL     OW33370   3.499   3.962   8.802 -0.1556 -0.1861  0.3303
 7246SOL    HW133371   3.595   3.967   8.808 -0.2667  0.4803  1.5206
 7246SOL    HW233372   3.488   3.888   8.863  0.0029  0.2499  0.8931
 7247SOL     OW33373   3.518   1.273  13.722 -0.4504 -0.6556 -0.4553
 7247SOL    HW133374   3.537   1.181  13.741 -1.6506 -0.7717  0.1702
 7247SOL    HW233375   3.489   1.277  13.631  2.9034  0.6819 -1.4682
 7248SOL     OW33376   2.808   0.727   5.885  0.2129 -0.4229 -0.3457
 7248SOL    HW133377   2.807   0.757   5.975  0.4542  0.2122 -0.5589
 7248SOL    HW233378   2.721   0.750   5.851  0.3506  1.2150  0.4240
 7249SOL     OW33379   2.189   1.153  13.029 -0.3636  0.2164 -0.7163
 7249SOL    HW133380   2.252   1.226  13.032 -0.8682  0.6776 -1.2857
 7249SOL    HW233381   2.226   1.085  12.972  3.5327  1.1585  0.6610
 7250SOL     OW33382   3.657   2.524  12.060  0.0501 -0.1863 -0.0049
 7250SOL    HW133383   3.600   2.453  12.032 -1.0971  0.1176  1.5663
 7250SOL    HW233384   3.625   2.599  12.010  1.5956  0.9310  0.6604
 7251SOL     OW33385   1.878   0.993   0.474  0.2403  0.4820  0.0273
 7251SOL    HW133386   1.955   0.961   0.427  0.4650 -1.8986  2.0104
 7251SOL    HW233387   1.920   0.992   0.560  1.3635 -3.2661 -0.5587
 7252SOL     OW33388   0.402   2.503   7.025 -0.5115  0.7139 -0.3204
 7252SOL    HW133389   0.323   2.463   7.062  0.8091  0.8973  2.6767
 7252SOL    HW233390   0.425   2.423   6.978 -0.2337  1.6846 -1.8368
 7253SOL     OW33391   1.695   0.852   3.257  0.2133  0.1999  0.0541
 7253SOL    HW133392   1.671   0.840   3.349 -0.1346 -0.4003 -0.1177
 7253SOL    HW233393   1.643   0.929   3.235 -0.6396 -0.4014 -0.0183
 7254SOL     OW33394   0.213   4.195   5.237  0.8213 -0.0801  0.4066
 7254SOL    HW133395   0.296   4.152   5.218  1.5743  1.9490 -0.9373
 7254SOL    HW233396   0.250   4.271   5.282  1.0372  1.6080 -2.5568
 7255SOL     OW33397   3.161   4.550   5.167  0.2076 -0.2464  0.5568
 7255SOL    HW133398   3.254   4.530   5.157  0.4106  0.7118  0.5332
 7255SOL    HW233399   3.157   4.527   5.260  1.6435  1.1529  0.9525
 7256SOL     OW33400   0.383   2.637   5.797 -0.0025  0.2032 -0.2587
 7256SOL    HW133401   0.376   2.732   5.790 -2.0668  0.1073  0.7179
 7256SOL    HW233402   0.326   2.622   5.872  0.7471  0.0761  0.2860
 7257SOL     OW33403   0.895   2.965   5.755  0.0470 -0.0178 -0.5926
 7257SOL    HW133404   0.901   2.912   5.835 -3.1638  0.8352  0.2498
 7257SOL    HW233405   0.867   2.894   5.698 -2.1622  1.3835 -1.2734
 7258SOL     OW33406   2.443   1.100   5.663  0.2239 -0.6927  0.5217
 7258SOL    HW133407   2.393   1.029   5.622  1.0594 -2.4350  2.5136
 7258SOL    HW233408   2.393   1.179   5.647 -0.4286 -0.9948  1.0611
 7259SOL     OW33409   0.839   4.165  16.135  0.1157 -0.0988 -0.4942
 7259SOL    HW133410   0.809   4.177  16.225  0.2530  2.7458 -0.8213
 7259SOL    HW233411   0.929   4.199  16.129  0.3535 -0.9265 -1.6650
 7260SOL     OW33412   0.208   1.097  14.088 -0.0041 -0.2708  0.3365
 7260SOL    HW133413   0.281   1.119  14.145  0.2075 -1.3888  0.4977
 7260SOL    HW233414   0.181   1.013  14.124 -3.2454  1.4539  1.9166
 7261SOL     OW33415   1.503   0.104   4.234 -0.2633 -0.1950  0.1121
 7261SOL    HW133416   1.549   0.156   4.168  1.7999 -3.3528 -0.9690
 7261SOL    HW233417   1.418   0.147   4.240  0.2940  0.9002  0.1648
 7262SOL     OW33418   4.717   1.095   8.438 -0.0995  0.5058  0.0337
 7262SOL    HW133419   0.008   1.187   8.421 -1.7068  1.2747  2.1541
 7262SOL    HW233420   4.640   1.081   8.382  0.4722 -2.3996 -0.0231
 7263SOL     OW33421   3.036   4.249   7.564  0.3779 -0.4175  0.0386
 7263SOL    HW133422   3.072   4.274   7.479  0.1940  1.1757  0.4280
 7263SOL    HW233423   3.008   4.333   7.602 -2.2711 -0.6166 -1.4954
 7264SOL     OW33424   4.284   0.809   3.001  0.1157  0.3280 -0.6025
 7264SOL    HW133425   4.201   0.797   3.048  1.2361  0.6037  1.4546
 7264SOL    HW233426   4.350   0.765   3.054  0.0496 -0.1468 -0.9233
 7265SOL     OW33427   0.876   2.599   9.385  0.0985  0.0469  0.0948
 7265SOL    HW133428   0.913   2.537   9.323 -1.3289 -1.6479  0.9282
 7265SOL    HW233429   0.923   2.581   9.467  2.2895  1.0816 -0.9551
 7266SOL     OW33430   0.701   4.564   5.379 -0.4250 -0.4185 -0.0733
 7266SOL    HW133431   0.754   4.486   5.362  1.1087  0.6599 -0.2710
 7266SOL    HW233432   0.754   4.642   5.358 -1.9117  0.9357  1.2796
 7267SOL     OW33433   1.765   1.856   9.736  0.4859  0.0755  0.2596
 7267SOL    HW133434   1.780   1.888   9.825  0.6738 -2.2461  1.0532
 7267SOL    HW233435   1.686   1.906   9.715  2.6554  2.3257 -2.4291
 7268SOL     OW33436   4.039   1.580   1.483 -0.4021 -0.6599  0.3447
 7268SOL    HW133437   4.129   1.606   1.463 -0.7331  0.4805  0.3586
 7268SOL    HW233438   3.990   1.661   1.470  0.9460  0.3963  1.8054
 7269SOL     OW33439   2.825   4.404  16.827  0.8039 -0.1838 -0.1269
 7269SOL    HW133440   2.739   4.445  16.836  1.7267  0.9746  3.1459
 7269SOL    HW233441   2.869   4.429  16.908  2.3733  1.3901 -1.4920
 7270SOL     OW33442   1.701   4.414   2.482  0.8046  0.0163  0.0270
 7270SOL    HW133443   1.762   4.352   2.444 -0.6251 -2.8146  2.3126
 7270SOL    HW233444   1.614   4.378   2.462  0.5071  1.2371 -0.8475
 7271SOL     OW33445   4.576   3.639  17.465  0.5355  0.6058  0.4026
 7271SOL    HW133446   4.521   3.594  17.401  0.8043  1.4258 -0.4065
 7271SOL    HW233447   4.567   3.730  17.434 -1.5034  0.5772  0.9367
 7272SOL     OW33448   0.021   3.358   2.432 -0.4113 -0.0115  0.0612
 7272SOL    HW133449   4.687   3.372   2.363 -1.9889 -0.5889  1.4074
 7272SOL    HW233450   0.011   3.441   2.478 -2.2856  0.7197 -1.7021
 7273SOL     OW33451   3.887   0.338   1.809  0.2608 -0.0758  0.6032
 7273SOL    HW133452   3.980   0.327   1.829  0.4401 -0.4181 -0.4370
 7273SOL    HW233453   3.895   0.371   1.720  1.5340 -1.9738  0.0019
 7274SOL     OW33454   1.988   2.272   9.268 -0.1714 -0.5101 -0.1324
 7274SOL    HW133455   2.081   2.295   9.265  0.1883 -1.4947  3.0210
 7274SOL    HW233456   1.946   2.357   9.257 -1.4301 -1.0922  0.1811
 7275SOL     OW33457   4.166   2.019   1.449 -0.0003 -0.4388 -0.3305
 7275SOL    HW133458   4.186   2.085   1.383  1.7155  0.1879  0.7952
 7275SOL    HW233459   4.161   2.074   1.527  0.0170 -1.1288  0.1577
 7276SOL     OW33460   3.557   3.361   1.962  0.7012  0.1808  0.4472
 7276SOL    HW133461   3.584   3.431   2.021  0.4222  1.0659 -0.4776
 7276SOL    HW233462   3.492   3.322   2.021 -0.2402 -1.3368 -1.5753
 7277SOL     OW33463   2.751   4.641  14.172 -0.2743  0.2578 -0.8535
 7277SOL    HW133464   2.720   4.560  14.131  0.7809  0.0361 -1.2120
 7277SOL    HW233465   2.711   4.709  14.118 -0.2379  1.1878  0.2836
 7278SOL     OW33466   0.931   4.402   2.833  0.1914 -0.9911 -0.1559
 7278SOL    HW133467   0.919   4.311   2.804 -2.0630 -0.1638 -1.7513
 7278SOL    HW233468   0.947   4.396   2.928  1.0477 -0.6314 -0.2834
 7279SOL     OW33469   0.451   1.828   7.377  0.0924  0.2056  0.4146
 7279SOL    HW133470   0.397   1.901   7.407  0.6988  1.3420 -1.2416
 7279SOL    HW233471   0.387   1.778   7.327  1.3758 -1.6446  0.6000
 7280SOL     OW33472   1.256   0.582   5.840 -0.0438  0.5060  0.1818
 7280SOL    HW133473   1.316   0.545   5.775 -0.5539  1.0664 -0.6101
 7280SOL    HW233474   1.198   0.637   5.787  0.3176  1.0474  0.3439
 7281SOL     OW33475   3.267   2.004  14.357  0.1629  0.4303 -1.2572
 7281SOL    HW133476   3.242   1.996  14.449 -0.8273 -3.4371 -1.8443
 7281SOL    HW233477   3.358   2.025  14.375 -0.1072  1.2085 -0.7891
 7282SOL     OW33478   0.508   2.711  16.894  0.5067 -0.0060  0.2094
 7282SOL    HW133479   0.521   2.765  16.972 -1.7029 -0.4429  0.8941
 7282SOL    HW233480   0.428   2.751  16.858  0.6052 -0.0049 -0.0059
 7283SOL     OW33481   0.703   1.980   8.586  0.8155 -0.3147 -0.2901
 7283SOL    HW133482   0.745   1.903   8.550  1.1599 -2.0133  3.7594
 7283SOL    HW233483   0.698   1.973   8.682 -0.9454 -0.0772 -0.3608
 7284SOL     OW33484   2.603   1.738   5.990 -0.1496  0.2059 -0.0796
 7284SOL    HW133485   2.520   1.770   6.025  1.4768  1.1414  2.9522
 7284SOL    HW233486   2.620   1.799   5.918 -0.3459  0.0081 -0.2940
 7285SOL     OW33487   3.652   0.728   5.796  0.0658  0.0402  0.1893
 7285SOL    HW133488   3.734   0.680   5.812  0.1021 -0.2529 -0.8732
 7285SOL    HW233489   3.602   0.664   5.746  0.5058 -0.5725  0.5438
 7286SOL     OW33490   3.533   3.923  15.039 -0.1515 -0.0644 -0.5129
 7286SOL    HW133491   3.602   3.941  15.102 -2.1089  1.0061  1.3427
 7286SOL    HW233492   3.569   3.855  14.982  2.0676 -0.6411  1.5640
 7287SOL     OW33493   3.087   0.434   2.522  0.3892 -0.0327  0.3503
 7287SOL    HW133494   3.096   0.343   2.550  0.5556 -0.6118 -1.6163
 7287SOL    HW233495   3.011   0.441   2.465  1.2801  0.8794 -0.7158
 7288SOL     OW33496   0.389   0.619   2.565 -0.4464  0.1816  0.0945
 7288SOL    HW133497   0.326   0.561   2.609 -0.6415  0.7352  0.5378
 7288SOL    HW233498   0.332   0.694   2.548 -1.1124 -0.4058 -0.2429
 7289SOL     OW33499   3.352   1.523   1.573  0.1934  0.3238 -0.1303
 7289SOL    HW133500   3.380   1.434   1.594 -0.7686  0.7604  3.1070
 7289SOL    HW233501   3.258   1.508   1.566  0.6507 -1.0638 -3.4428
 7290SOL     OW33502   3.571   0.158   3.303 -0.5686 -0.2228 -0.1971
 7290SOL    HW133503   3.658   0.123   3.283 -0.5121 -0.3959  0.3424
 7290SOL    HW233504   3.560   0.132   3.395  2.9287 -3.1365 -0.5818
 7291SOL     OW33505   4.619   0.109   2.562 -0.2473 -0.0364  0.4744
 7291SOL    HW133506   4.583   0.148   2.483  2.0472  1.9280  0.3922
 7291SOL    HW233507   4.706   0.146   2.578 -0.4466  0.5110  0.2978
 7292SOL     OW33508   3.586   3.864   4.846 -0.0271  0.0452  0.8569
 7292SOL    HW133509   3.575   3.831   4.935 -0.9791  0.1114  0.7628
 7292SOL    HW233510   3.674   3.902   4.841  0.5184 -1.4540 -0.9578
 7293SOL     OW33511   1.829   4.239   5.363  0.0620 -0.6499  0.3192
 7293SOL    HW133512   1.884   4.257   5.438 -0.7818 -1.4965  1.1424
 7293SOL    HW233513   1.877   4.166   5.324  0.1728 -0.8015  0.7401
 7294SOL     OW33514   3.917   1.499   9.984 -0.9262  0.5695 -0.1296
 7294SOL    HW133515   3.929   1.458  10.070  1.1813  1.6396  0.0809
 7294SOL    HW233516   3.828   1.487   9.952 -0.4759 -3.9368  0.3153
 7295SOL     OW33517   0.352   3.270   2.531  0.0112 -0.1465 -0.6320
 7295SOL    HW133518   0.424   3.325   2.563 -0.1284 -0.0802 -0.4288
 7295SOL    HW233519   0.292   3.339   2.501 -0.3829  0.3962  1.3549
 7296SOL     OW33520   3.524   4.388   2.749 -0.2183 -0.4394 -0.0120
 7296SOL    HW133521   3.467   4.329   2.700  0.7496 -1.3286 -0.0659
 7296SOL    HW233522   3.577   4.410   2.673 -0.5293  1.8623  0.4379
 7297SOL     OW33523   1.954   3.273   6.881  0.5040  0.5461  0.1907
 7297SOL    HW133524   2.006   3.203   6.919 -0.5957 -0.0449  0.5940
 7297SOL    HW233525   1.906   3.221   6.817 -1.7048  0.1482  2.1848
 7298SOL     OW33526   3.922   1.710   6.180  0.0632 -0.7119 -0.3704
 7298SOL    HW133527   3.974   1.771   6.232 -0.8850 -1.2080  1.1587
 7298SOL    HW233528   3.837   1.753   6.191 -0.4710 -1.5948 -1.0781
 7299SOL     OW33529   2.726   0.618   6.257 -0.3102  0.0782 -0.3152
 7299SOL    HW133530   2.762   0.586   6.339  1.4335  0.2116 -1.0365
 7299SOL    HW233531   2.796   0.678   6.232 -0.2923  0.9462  1.8670
 7300SOL     OW33532   4.194   2.807  13.485 -0.1134  0.2004 -0.0283
 7300SOL    HW133533   4.137   2.874  13.522  2.0484  0.4705  2.8240
 7300SOL    HW233534   4.220   2.859  13.409  2.3343 -1.1027 -0.0737
 7301SOL     OW33535   4.440   3.566   0.610 -0.1276 -0.1984 -0.0662
 7301SOL    HW133536   4.421   3.575   0.516  0.0862 -1.6103 -0.2512
 7301SOL    HW233537   4.385   3.634   0.648 -0.3649 -0.7716  0.6196
 7302SOL     OW33538   1.909   3.331   1.900 -0.3712  0.1763  0.4722
 7302SOL    HW133539   1.880   3.407   1.849  0.4201  1.2453  1.6092
 7302SOL    HW233540   1.831   3.303   1.949 -0.5041  0.4632  0.4229
 7303SOL     OW33541   2.377   4.314  12.202  0.3239 -0.2494 -0.3362
 7303SOL    HW133542   2.466   4.329  12.169 -0.7391 -0.6265 -3.3769
 7303SOL    HW233543   2.389   4.250  12.273  0.7463 -0.1541 -0.3254
 7304SOL     OW33544   3.709   3.282   1.150 -0.2688  0.7170  0.6780
 7304SOL    HW133545   3.618   3.258   1.168  0.0322 -1.8247 -1.0563
 7304SOL    HW233546   3.722   3.324   1.234  0.4925 -1.1738  1.5065
 7305SOL     OW33547   0.417   0.664   6.522  0.0995  0.5709  0.2311
 7305SOL    HW133548   0.480   0.593   6.519 -2.0307 -1.2427 -1.2334
 7305SOL    HW233549   0.447   0.712   6.444 -1.3092 -0.1269 -0.7384
 7306SOL     OW33550   4.538   0.066  13.191  0.0814  0.3317  0.7236
 7306SOL    HW133551   4.535   0.157  13.160 -2.4804 -0.8114 -2.4295
 7306SOL    HW233552   4.450   0.035  13.168 -0.1066  2.3745 -1.3567
 7307SOL     OW33553   3.610   3.911   5.790 -0.1650 -0.1529  0.1857
 7307SOL    HW133554   3.613   3.849   5.717  0.7106  0.7779 -0.5735
 7307SOL    HW233555   3.656   3.982   5.744  0.4272 -0.5433  0.1659
 7308SOL     OW33556   4.467   0.868   1.638  0.1172  0.2291 -0.1019
 7308SOL    HW133557   4.380   0.898   1.666 -0.4516 -3.0335  1.6177
 7308SOL    HW233558   4.477   0.913   1.554  2.3111 -0.3913 -0.1555
 7309SOL     OW33559   1.060   3.077   9.973  0.0108  0.1034 -0.2388
 7309SOL    HW133560   1.096   3.072  10.062  0.0877  0.0158 -0.2756
 7309SOL    HW233561   1.132   3.117   9.925  0.3543  0.1179  0.2880
 7310SOL     OW33562   1.898   2.914  13.181  0.1522  0.1677 -0.2815
 7310SOL    HW133563   1.892   2.983  13.247  1.4176  1.9168 -2.0146
 7310SOL    HW233564   1.936   2.966  13.111 -0.1650 -0.6394 -1.0592
 7311SOL     OW33565   2.522   0.928  10.002  0.2426 -0.0310 -0.0574
 7311SOL    HW133566   2.607   0.932  10.045 -0.2007 -1.3025  0.9511
 7311SOL    HW233567   2.481   0.862  10.058 -0.0430  1.8788  1.9725
 7312SOL     OW33568   2.913   2.737   2.495  0.4663  0.0932  0.0522
 7312SOL    HW133569   2.889   2.741   2.403  0.8121  2.4098  0.0788
 7312SOL    HW233570   2.841   2.781   2.539  1.5224  1.5590  0.3136
 7313SOL     OW33571   3.775   4.353   9.479 -0.0084 -0.0347 -0.0097
 7313SOL    HW133572   3.776   4.344   9.574  3.1928  0.2155 -0.0267
 7313SOL    HW233573   3.849   4.294   9.466  1.3249  1.8415 -0.9942
 7314SOL     OW33574   0.987   1.057  16.399 -0.6478  0.1978 -0.7588
 7314SOL    HW133575   1.057   0.993  16.414 -0.2991  0.4092 -1.4751
 7314SOL    HW233576   0.911   1.013  16.438 -0.6127 -0.0097 -0.9310
 7315SOL     OW33577   2.353   1.153   3.287  0.4606 -0.1269  0.0098
 7315SOL    HW133578   2.288   1.200   3.236 -0.3257 -0.8534  0.3514
 7315SOL    HW233579   2.329   1.074   3.239 -1.2214  1.5200 -1.8276
 7316SOL     OW33580   0.460   2.413   1.399  0.3914 -0.0572 -0.0542
 7316SOL    HW133581   0.483   2.321   1.414  4.3024  0.8531 -0.6743
 7316SOL    HW233582   0.393   2.419   1.332  2.6117 -0.4471 -2.2861
 7317SOL     OW33583   2.575   2.597   3.007  0.1743 -0.2175  0.5875
 7317SOL    HW133584   2.593   2.503   3.003  0.4280 -0.1549  0.1831
 7317SOL    HW233585   2.534   2.601   3.093 -0.8302  0.4251  0.0794
 7318SOL     OW33586   1.279   1.419   2.508  0.4039 -0.4623  0.0535
 7318SOL    HW133587   1.263   1.476   2.583  0.9780  1.4638 -1.2827
 7318SOL    HW233588   1.209   1.452   2.452  1.1432  0.8359 -0.1131
 7319SOL     OW33589   2.640   1.771   7.662 -0.1344 -0.0266  0.2789
 7319SOL    HW133590   2.550   1.746   7.683 -0.0505 -0.4854  0.1078
 7319SOL    HW233591   2.625   1.798   7.571  1.4421 -0.2450 -0.0576
 7320SOL     OW33592   3.933   2.296   8.551 -0.0806  0.4509 -0.4228
 7320SOL    HW133593   3.976   2.227   8.602  1.9579  0.3112 -2.3175
 7320SOL    HW233594   3.985   2.373   8.578  1.9241 -1.7835  2.1351
 7321SOL     OW33595   3.579   2.982   4.679 -0.8100 -0.3265  0.4444
 7321SOL    HW133596   3.662   2.988   4.632  0.0878  1.1789  2.2199
 7321SOL    HW233597   3.611   2.973   4.768  2.2680 -0.6621 -0.7216
 7322SOL     OW33598   2.919   3.742  14.371 -0.2416 -0.6110  0.1063
 7322SOL    HW133599   2.864   3.775  14.299  1.0285 -0.7019 -0.8945
 7322SOL    HW233600   2.973   3.679  14.324  1.2739 -0.1747  1.2794
 7323SOL     OW33601   0.795   2.027   6.672 -0.7987  0.0151 -0.3317
 7323SOL    HW133602   0.735   2.034   6.598 -0.8918  1.5244 -0.1130
 7323SOL    HW233603   0.836   1.950   6.632 -0.1798  0.8434 -1.3051
 7324SOL     OW33604   4.195   1.437   5.745 -0.3292 -0.0553  0.1285
 7324SOL    HW133605   4.255   1.400   5.810  1.4437  0.4059 -1.2847
 7324SOL    HW233606   4.250   1.501   5.700  0.4219  0.9051  2.3844
 7325SOL     OW33607   0.206   3.039   9.192 -0.6756 -0.2335  0.0892
 7325SOL    HW133608   0.176   2.948   9.193  1.4625 -0.9187  0.3362
 7325SOL    HW233609   0.294   3.029   9.155 -0.1929  0.6889  1.0047
 7326SOL     OW33610   1.160   2.532   6.290  0.0918  0.2199 -0.2785
 7326SOL    HW133611   1.155   2.467   6.361 -0.7880 -0.7229 -1.2000
 7326SOL    HW233612   1.070   2.550   6.262  0.1253  0.6768 -0.0809
 7327SOL     OW33613   2.522   1.853   2.280  0.6817 -0.1694  0.0412
 7327SOL    HW133614   2.547   1.788   2.215 -1.0366  0.7263 -1.5014
 7327SOL    HW233615   2.458   1.796   2.323 -0.1629  1.2540  0.6890
 7328SOL     OW33616   1.990   2.430   8.117  0.0938 -0.0916 -0.2933
 7328SOL    HW133617   1.936   2.352   8.132  0.5500  0.1488  2.4372
 7328SOL    HW233618   1.934   2.480   8.057 -1.2875  0.4100  1.4241
 7329SOL     OW33619   2.511   4.724   2.423  0.5235  0.2131  0.1632
 7329SOL    HW133620   2.432   4.693   2.466  0.7146  0.7711  0.9117
 7329SOL    HW233621   2.568   4.649   2.440 -1.1801 -1.1509 -0.1840
 7330SOL     OW33622   3.120   0.246   7.883 -0.5547 -0.3533 -0.2826
 7330SOL    HW133623   3.045   0.246   7.942 -0.1679 -2.3413  0.2289
 7330SOL    HW233624   3.135   0.340   7.880 -0.1281 -0.4500 -1.1876
 7331SOL     OW33625   1.568   3.345   3.936 -0.4639  0.3676  0.0396
 7331SOL    HW133626   1.646   3.388   3.899  0.5569  0.1508  1.9504
 7331SOL    HW233627   1.536   3.302   3.857 -0.2819  1.1427 -0.4635
 7332SOL     OW33628   4.140   4.702   5.098  0.3920 -0.2621 -0.3163
 7332SOL    HW133629   4.091   4.693   5.179  0.1940  0.3594 -0.3705
 7332SOL    HW233630   4.175   0.059   5.106 -3.1090  1.0016  0.6597
 7333SOL     OW33631   2.178   1.837  16.912 -0.1011  0.5835  0.5338
 7333SOL    HW133632   2.084   1.829  16.926 -0.1822  3.2237  1.4726
 7333SOL    HW233633   2.177   1.918  16.860 -0.4998  0.2422  0.0018
 7334SOL     OW33634   1.839   0.971  12.378 -0.6503  0.2655  0.0238
 7334SOL    HW133635   1.904   0.937  12.439  0.7231  0.1408 -1.5242
 7334SOL    HW233636   1.887   1.018  12.311 -1.0186  0.2802 -0.2333
 7335SOL     OW33637   4.404   1.953  17.482 -0.3097  0.1976  0.2985
 7335SOL    HW133638   4.311   1.977  17.478 -0.9438 -2.5756 -1.9818
 7335SOL    HW233639   4.431   2.027  17.536  2.0320  0.7945 -1.6752
 7336SOL     OW33640   0.229   2.635   5.124  0.1421  0.0856 -0.3106
 7336SOL    HW133641   0.233   2.729   5.107 -1.3785  0.0734 -0.7767
 7336SOL    HW233642   0.136   2.632   5.148  0.2082  3.5984  0.4367
 7337SOL     OW33643   4.368   1.017   4.278 -0.3361 -0.2343 -0.2323
 7337SOL    HW133644   4.297   1.080   4.264  0.5627  1.6644  3.8547
 7337SOL    HW233645   4.322   0.934   4.295  0.1108  0.3418  3.6171
 7338SOL     OW33646   0.619   0.176   4.481 -0.0528  0.0286  0.2442
 7338SOL    HW133647   0.691   0.136   4.431  1.0907  0.2814  1.6888
 7338SOL    HW233648   0.596   0.244   4.417  2.8924  1.5849  0.8657
 7339SOL     OW33649   0.780   2.993   4.853  0.0284  0.1991  0.3376
 7339SOL    HW133650   0.762   3.020   4.763 -2.2831 -0.2172  0.6664
 7339SOL    HW233651   0.694   3.026   4.881  0.7235  0.0929  2.5815
 7340SOL     OW33652   3.894   3.692   7.555  0.7054  0.3771 -0.0645
 7340SOL    HW133653   3.820   3.745   7.583 -0.8130 -0.9967 -1.5095
 7340SOL    HW233654   3.890   3.636   7.632 -0.2831 -2.0349 -1.8723
 7341SOL     OW33655   4.729   3.832  11.830  0.8557 -0.2264 -0.6939
 7341SOL    HW133656   4.672   3.756  11.815  0.4731  0.1104 -0.9696
 7341SOL    HW233657   0.083   3.791  11.844  0.3526 -0.3892  1.8881
 7342SOL     OW33658   1.171   3.319  16.485  0.3425 -0.2532 -0.1853
 7342SOL    HW133659   1.102   3.311  16.551  1.0400  1.3297  0.7558
 7342SOL    HW233660   1.150   3.261  16.412  1.4431 -0.3242 -0.4506
 7343SOL     OW33661   4.174   1.779   7.767  0.3693  0.1772 -0.0569
 7343SOL    HW133662   4.207   1.691   7.748  0.4555  0.4029 -0.9635
 7343SOL    HW233663   4.254   1.832   7.765  0.4299  0.0619 -0.7459
 7344SOL     OW33664   4.232   3.050   1.627 -0.4484 -0.5423  0.3393
 7344SOL    HW133665   4.293   3.013   1.562  1.6093  1.1987  1.2635
 7344SOL    HW233666   4.260   2.992   1.698 -2.1242 -2.0368 -0.2273
 7345SOL     OW33667   3.211   3.515  16.446 -0.6086 -0.1007 -0.0944
 7345SOL    HW133668   3.156   3.513  16.367  1.2398 -1.6090 -1.3491
 7345SOL    HW233669   3.162   3.569  16.508 -0.2755  1.3791 -1.1458
 7346SOL     OW33670   0.845   1.681   0.574 -0.6303 -0.9352  0.2167
 7346SOL    HW133671   0.757   1.716   0.584 -0.2062  0.6264 -1.5173
 7346SOL    HW233672   0.863   1.709   0.485 -0.7845 -1.1237  0.1259
 7347SOL     OW33673   3.549   0.138   1.551  0.0932  0.0501 -0.0103
 7347SOL    HW133674   3.602   0.200   1.502 -0.5654  0.1698 -0.5729
 7347SOL    HW233675   3.584   0.055   1.516 -0.0424 -0.5248  1.2308
 7348SOL     OW33676   2.505   3.833   2.151 -0.2644  0.1437 -0.2113
 7348SOL    HW133677   2.496   3.921   2.187 -1.7956  0.6409 -1.8229
 7348SOL    HW233678   2.450   3.780   2.209 -3.4776  2.7666 -0.8494
 7349SOL     OW33679   3.602   1.302   5.632  0.0499  1.1223  0.6758
 7349SOL    HW133680   3.598   1.351   5.714  1.8562 -0.4571  1.7021
 7349SOL    HW233681   3.534   1.339   5.577  0.9781  1.0901 -0.5054
 7350SOL     OW33682   1.068   2.179   1.242  0.1109 -0.2667 -0.0823
 7350SOL    HW133683   0.988   2.198   1.192  1.4379  2.4038 -1.1823
 7350SOL    HW233684   1.108   2.120   1.178  4.2758  1.5169  0.8780
 7351SOL     OW33685   0.761   1.406   9.104 -0.4603 -0.3398  0.1589
 7351SOL    HW133686   0.703   1.359   9.164 -0.5460 -0.4133  0.0155
 7351SOL    HW233687   0.695   1.443   9.047 -1.0302 -1.1977  0.2626
 7352SOL     OW33688   1.493   1.368   2.254  0.4645  0.1390  0.2072
 7352SOL    HW133689   1.529   1.361   2.166 -1.9135  0.8946 -0.8198
 7352SOL    HW233690   1.492   1.275   2.279  0.5186 -0.0317 -0.4210
 7353SOL     OW33691   1.199   4.412   5.528 -0.1979 -0.3862 -0.3642
 7353SOL    HW133692   1.238   4.391   5.612 -1.0724 -0.3398  0.0610
 7353SOL    HW233693   1.236   4.499   5.519 -1.0173  0.1452  1.3829
 7354SOL     OW33694   2.471   4.310  15.089  0.0040  0.0926  0.0342
 7354SOL    HW133695   2.523   4.255  15.030 -2.2220 -2.4825  0.5057
 7354SOL    HW233696   2.522   4.297  15.169  2.6980  0.5996 -1.5886
 7355SOL     OW33697   2.386   1.499   3.826  0.2462 -0.1898 -0.0545
 7355SOL    HW133698   2.320   1.521   3.892 -1.7159  0.7729 -2.3850
 7355SOL    HW233699   2.422   1.417   3.859  0.7948  0.4017  0.8411
 7356SOL     OW33700   0.459   4.398   3.989 -0.2012  0.1780 -0.2639
 7356SOL    HW133701   0.439   4.471   3.931 -0.7265 -0.2826 -0.6529
 7356SOL    HW233702   0.420   4.431   4.070 -0.2884 -1.8610  0.5386
 7357SOL     OW33703   2.478   1.504   2.389 -0.0125  0.3482 -0.0305
 7357SOL    HW133704   2.469   1.408   2.393  0.3337  0.3047 -0.2997
 7357SOL    HW233705   2.544   1.523   2.455 -0.1633 -0.5211  0.3781
 7358SOL     OW33706   1.291   0.070   9.027 -0.1217 -0.5948 -0.3773
 7358SOL    HW133707   1.202   0.060   9.060  0.0104  0.3058  0.2496
 7358SOL    HW233708   1.331   4.717   9.051  1.3655 -0.3197 -1.8512
 7359SOL     OW33709   3.661   4.479   9.945 -0.1568  0.3165  0.3623
 7359SOL    HW133710   3.693   4.531   9.871 -0.8923  0.2731  0.0144
 7359SOL    HW233711   3.713   4.522  10.013  1.8608 -1.3264 -0.1641
 7360SOL     OW33712   0.212   1.719   4.050  0.5693  0.8255 -0.2211
 7360SOL    HW133713   0.138   1.757   4.002  0.6131  1.5519  0.2890
 7360SOL    HW233714   0.269   1.739   3.976  0.8708 -1.9622 -0.7249
 7361SOL     OW33715   3.175   2.919   4.426 -0.2252  1.1731  0.0199
 7361SOL    HW133716   3.176   2.844   4.366 -1.9371  1.4489 -0.3604
 7361SOL    HW233717   3.251   2.886   4.474 -1.5202  0.2453  1.4116
 7362SOL     OW33718   1.429   4.064   5.056 -0.0404  0.2808  0.0785
 7362SOL    HW133719   1.386   4.124   4.994 -0.8267 -0.0137  0.3338
 7362SOL    HW233720   1.490   4.015   5.001 -1.3605  0.6451 -1.7246
 7363SOL     OW33721   3.320   2.551  12.711 -0.3015 -0.3667  0.1242
 7363SOL    HW133722   3.292   2.592  12.629 -2.7653  0.3442  1.3141
 7363SOL    HW233723   3.330   2.632  12.760  1.0245 -0.7120  0.4090
 7364SOL     OW33724   1.119   3.695   5.115  0.8522 -0.3282  0.4954
 7364SOL    HW133725   1.072   3.778   5.122 -0.0374 -0.8943  1.1074
 7364SOL    HW233726   1.122   3.687   5.020 -0.2737  1.0396  0.3412
 7365SOL     OW33727   3.606   2.214  13.375  0.1865  0.0032  0.6319
 7365SOL    HW133728   3.687   2.173  13.345 -0.2219 -0.2713 -0.0794
 7365SOL    HW233729   3.630   2.227  13.467  0.4766 -1.6883  0.7805
 7366SOL     OW33730   3.287   2.558   1.640 -0.0216  0.5666  0.4768
 7366SOL    HW133731   3.307   2.557   1.546 -0.6435 -0.1410  0.3491
 7366SOL    HW233732   3.209   2.502   1.640 -1.3895  2.4460  1.5017
 7367SOL     OW33733   1.775   2.057  14.955 -0.0138  0.0317  0.1548
 7367SOL    HW133734   1.723   1.994  14.905 -0.1635  0.0800  0.2519
 7367SOL    HW233735   1.777   2.133  14.896 -0.7705 -1.0875 -1.3092
 7368SOL     OW33736   0.007   3.450  15.007 -0.0125 -0.3564 -0.4725
 7368SOL    HW133737   4.699   3.522  15.058  0.7882 -0.2931  0.0614
 7368SOL    HW233738   0.067   3.500  14.951 -0.1487  1.0986  0.6606
 7369SOL     OW33739   3.425   1.168  15.409  0.0920 -0.4585 -0.2268
 7369SOL    HW133740   3.404   1.139  15.321 -1.0668  0.1809 -0.1644
 7369SOL    HW233741   3.369   1.109  15.459  1.6002 -1.4425  0.3125
 7370SOL     OW33742   2.770   2.960   4.998 -0.3083  0.2922  0.4550
 7370SOL    HW133743   2.734   2.995   4.917  0.0823  2.3063  1.1447
 7370SOL    HW233744   2.702   2.948   5.065 -1.1809  4.3547  0.2937
 7371SOL     OW33745   1.811   3.120  10.756  0.1953 -0.2432 -0.6599
 7371SOL    HW133746   1.810   3.166  10.672  0.6261  1.6609  0.3850
 7371SOL    HW233747   1.778   3.034  10.729  0.2647  0.0125 -1.5576
 7372SOL     OW33748   3.401   4.643   7.740 -0.1563 -0.2025 -0.5953
 7372SOL    HW133749   3.331   4.620   7.680 -1.5122  0.9708  0.5242
 7372SOL    HW233750   3.395   0.007   7.746  0.4521 -0.1758 -0.3039
 7373SOL     OW33751   3.885   0.195   8.853 -0.5183 -0.5138  0.2442
 7373SOL    HW133752   3.828   0.272   8.854  0.3292  0.1165  0.1191
 7373SOL    HW233753   3.818   0.131   8.875 -1.6236  0.0820 -1.3746
 7374SOL     OW33754   2.770   2.308   2.738  0.3879 -0.2566  0.7085
 7374SOL    HW133755   2.807   2.220   2.737 -0.0991 -0.4608  0.1042
 7374SOL    HW233756   2.850   2.360   2.727 -0.5604  1.2846  1.0447
 7375SOL     OW33757   0.666   4.216   9.381  0.7619  0.7711  0.0392
 7375SOL    HW133758   0.701   4.217   9.292 -0.9170 -1.0503 -0.6289
 7375SOL    HW233759   0.583   4.262   9.370  0.5428 -0.0384 -1.5967
 7376SOL     OW33760   0.612   0.762   0.264 -0.1491  0.2525 -0.3920
 7376SOL    HW133761   0.572   0.849   0.266 -0.2034  0.1882  1.3237
 7376SOL    HW233762   0.690   0.774   0.318  0.9289  0.7702 -2.0569
 7377SOL     OW33763   2.380   4.120   5.846 -0.2309  0.1049 -0.8287
 7377SOL    HW133764   2.468   4.082   5.851 -0.4415 -0.0063  1.8320
 7377SOL    HW233765   2.332   4.039   5.864 -1.6002  0.9150 -0.8180
 7378SOL     OW33766   2.456   0.168   2.707 -0.2654 -0.3496  0.1031
 7378SOL    HW133767   2.476   0.260   2.723 -0.2465 -0.2784 -0.3435
 7378SOL    HW233768   2.537   0.153   2.658 -0.4785 -0.0343 -0.3460
 7379SOL     OW33769   3.218   2.876   1.961 -0.3125  0.3596  0.0919
 7379SOL    HW133770   3.311   2.864   1.982 -0.7853 -1.0458  1.4307
 7379SOL    HW233771   3.209   2.825   1.881  0.0780  0.5046 -0.0468
 7380SOL     OW33772   4.447   0.443   3.020 -0.3860 -0.3708 -0.0760
 7380SOL    HW133773   4.414   0.520   2.974  2.0343  0.2945 -0.6860
 7380SOL    HW233774   4.542   0.457   3.025 -0.3345 -0.7951  0.2126
 7381SOL     OW33775   0.425   2.742  11.684  0.0241  0.0377  0.8386
 7381SOL    HW133776   0.394   2.786  11.763  0.8441 -0.6010  1.5172
 7381SOL    HW233777   0.511   2.729  11.723  0.5164  1.2363  0.1655
 7382SOL     OW33778   3.557   4.354  13.464  0.6698  0.1504  0.2554
 7382SOL    HW133779   3.473   4.308  13.451  0.4493  0.4463  0.6497
 7382SOL    HW233780   3.530   4.439  13.499  1.9489 -0.8811  3.7644
 7383SOL     OW33781   0.526   0.756   2.864  0.7560  0.6289  0.3871
 7383SOL    HW133782   0.458   0.716   2.810  0.4325  1.3906  0.2246
 7383SOL    HW233783   0.600   0.734   2.807 -0.0516 -2.0066  0.3802
 7384SOL     OW33784   3.160   0.352   5.891  0.5472 -0.5244  0.4828
 7384SOL    HW133785   3.179   0.414   5.961  1.1867  0.9832 -1.0401
 7384SOL    HW233786   3.065   0.356   5.898  0.4562 -0.0400 -0.9881
 7385SOL     OW33787   2.982   4.316   3.342  0.0881 -0.2557 -0.0559
 7385SOL    HW133788   2.894   4.325   3.378 -0.5287 -0.9455 -1.3664
 7385SOL    HW233789   2.998   4.223   3.329 -2.3992 -0.5769 -0.8547
 7386SOL     OW33790   3.218   1.644   3.540 -0.4535 -0.6149 -0.5369
 7386SOL    HW133791   3.237   1.706   3.610 -0.7838 -1.3106  0.1720
 7386SOL    HW233792   3.144   1.686   3.497 -1.7347 -3.5583 -1.2228
 7387SOL     OW33793   2.842   0.049   3.488 -0.1069 -0.0922 -0.8719
 7387SOL    HW133794   2.800   0.104   3.422 -0.4330  0.2431 -0.3830
 7387SOL    HW233795   2.847   0.101   3.568  1.9944  0.3457 -1.2752
 7388SOL     OW33796   2.002   3.832   5.639 -0.0365  0.2695  0.2836
 7388SOL    HW133797   1.988   3.759   5.578  0.9272 -0.0377  0.4280
 7388SOL    HW233798   2.065   3.884   5.590  0.2008  0.0681  0.3766
 7389SOL     OW33799   3.252   3.174   3.972 -0.4035 -0.6945  0.4917
 7389SOL    HW133800   3.222   3.238   4.035 -2.3945  0.4881 -1.6572
 7389SOL    HW233801   3.305   3.115   4.026 -0.6458 -1.4691 -0.1069
 7390SOL     OW33802   0.786   0.898   1.521  0.3589  0.1453  0.1396
 7390SOL    HW133803   0.839   0.965   1.565  2.2390  0.0499 -1.9585
 7390SOL    HW233804   0.716   0.906   1.585 -0.8413 -0.2543 -1.1266
 7391SOL     OW33805   3.609   2.100   7.173 -0.2568  0.5800  0.0200
 7391SOL    HW133806   3.628   2.155   7.249  0.0387  0.8166 -0.2221
 7391SOL    HW233807   3.678   2.033   7.172  1.2780  2.1511  1.1189
 7392SOL     OW33808   1.721   3.800   2.685 -0.2186  0.0195 -0.0294
 7392SOL    HW133809   1.770   3.851   2.749 -0.5195 -0.2290  0.4031
 7392SOL    HW233810   1.776   3.722   2.683  1.7427  1.4092 -0.4124
 7393SOL     OW33811   0.849   3.767  16.551  0.1970 -0.1324  0.7123
 7393SOL    HW133812   0.837   3.806  16.465  0.1953 -1.8000 -0.0525
 7393SOL    HW233813   0.889   3.840  16.598 -0.4323 -0.6126  1.9994
 7394SOL     OW33814   3.719   1.064   5.430 -0.1946 -0.0615  0.5759
 7394SOL    HW133815   3.688   1.128   5.366  1.5849  0.3635  0.1398
 7394SOL    HW233816   3.717   0.986   5.376 -0.0370 -0.6582  1.4324
 7395SOL     OW33817   3.481   1.353   1.060 -0.3036 -0.1525 -0.1336
 7395SOL    HW133818   3.415   1.312   1.116 -0.8068 -0.3461 -0.8700
 7395SOL    HW233819   3.544   1.281   1.069  0.0852  0.5238  2.8411
 7396SOL     OW33820   4.499   1.171  14.510  0.0488 -0.5059  0.2269
 7396SOL    HW133821   4.470   1.091  14.555 -1.3985  0.0555  0.3120
 7396SOL    HW233822   4.418   1.197  14.466  1.9060  2.6028 -1.3625
 7397SOL     OW33823   4.112   2.481  15.150  0.2343  0.1092  0.2459
 7397SOL    HW133824   4.079   2.406  15.101  1.2058  0.1880 -0.5192
 7397SOL    HW233825   4.126   2.436  15.234 -1.0016  0.6093  0.7180
 7398SOL     OW33826   0.427   1.955   6.637  0.5250 -0.8625 -0.4959
 7398SOL    HW133827   0.468   1.880   6.594 -1.0458 -0.7677 -2.1384
 7398SOL    HW233828   0.495   2.016   6.608  1.2604 -2.2904 -1.7549
 7399SOL     OW33829   4.227   2.740  17.593  0.0315 -0.0412  0.2236
 7399SOL    HW133830   4.195   2.780  17.674  0.0158 -0.2171  0.3051
 7399SOL    HW233831   4.147   2.693  17.570  0.4983 -0.9482  0.4634
 7400SOL     OW33832   0.411   4.000   5.650 -0.0608 -0.2869  0.1208
 7400SOL    HW133833   0.492   4.013   5.600 -0.0030 -0.1188  0.2599
 7400SOL    HW233834   0.437   3.994   5.742  0.3748  0.1941  0.0298
 7401SOL     OW33835   2.080   1.288   3.480  0.5747  0.3012 -0.5212
 7401SOL    HW133836   2.068   1.267   3.573  2.2846 -0.2202 -0.4295
 7401SOL    HW233837   2.165   1.328   3.463  1.0141 -1.4494 -2.4837
 7402SOL     OW33838   4.404   2.679   8.130 -0.3561 -0.2829 -0.8439
 7402SOL    HW133839   4.471   2.681   8.198  0.4823 -0.7083 -1.6538
 7402SOL    HW233840   4.351   2.609   8.167 -0.7147  1.0537  1.1498
 7403SOL     OW33841   0.085   4.203  10.101  0.4513 -0.4113  0.0789
 7403SOL    HW133842   0.048   4.248  10.025  0.7387  0.0182  0.1950
 7403SOL    HW233843   0.036   4.247  10.170  2.6784 -1.7958  2.5470
 7404SOL     OW33844   0.979   0.860   2.023 -0.0725  0.1031  0.3890
 7404SOL    HW133845   1.033   0.938   2.038 -0.8978  0.2972  2.3953
 7404SOL    HW233846   0.896   0.875   2.068  0.2077  1.8308  0.3094
 7405SOL     OW33847   3.566   2.909  15.227 -0.3003 -0.6561 -0.1686
 7405SOL    HW133848   3.541   2.976  15.289  2.2262  2.2206 -2.2494
 7405SOL    HW233849   3.557   2.955  15.143  1.8689 -1.9116 -1.0990
 7406SOL     OW33850   2.609   3.975   1.469  0.5809 -0.7478  0.1043
 7406SOL    HW133851   2.606   3.989   1.375  0.7712  0.7418  0.3313
 7406SOL    HW233852   2.561   4.055   1.490 -0.4899 -1.2473 -0.3985
 7407SOL     OW33853   2.816   4.157   4.941  0.0971 -0.4566  0.1429
 7407SOL    HW133854   2.825   4.234   4.997 -1.7544  0.5945 -1.0112
 7407SOL    HW233855   2.721   4.155   4.940  0.1185 -1.2860 -0.1559
 7408SOL     OW33856   2.742   1.627  13.766  0.0030 -0.2525  0.7543
 7408SOL    HW133857   2.715   1.698  13.825 -1.9405 -0.0860 -0.3422
 7408SOL    HW233858   2.745   1.675  13.684 -1.0724 -0.2389  0.7220
 7409SOL     OW33859   2.742   2.533   8.379  0.0971 -0.7601 -0.0671
 7409SOL    HW133860   2.792   2.555   8.300  0.0705 -1.8469 -0.3897
 7409SOL    HW233861   2.679   2.605   8.372 -0.3221 -1.0330  0.9368
 7410SOL     OW33862   0.906   0.521   8.453 -0.0499 -0.6492 -0.5504
 7410SOL    HW133863   0.927   0.604   8.410 -0.9977 -0.4693 -0.6617
 7410SOL    HW233864   0.974   0.532   8.520 -1.1575 -1.9881  0.7875
 7411SOL     OW33865   0.741   1.760   8.767 -0.1341  0.0466  0.4533
 7411SOL    HW133866   0.722   1.710   8.688 -1.4951 -1.0051  1.4494
 7411SOL    HW233867   0.816   1.712   8.802 -0.0690 -0.7718 -0.8015
 7412SOL     OW33868   1.543   3.642  12.770 -0.1093  0.0320 -0.1867
 7412SOL    HW133869   1.601   3.603  12.704 -2.0096 -0.7974 -1.3545
 7412SOL    HW233870   1.521   3.720  12.718  1.9408 -0.4233 -1.7844
 7413SOL     OW33871   0.876   4.386  12.150 -0.0500  0.3189 -0.0170
 7413SOL    HW133872   0.937   4.459  12.165  1.9122 -1.2694 -0.3937
 7413SOL    HW233873   0.935   4.317  12.120  0.1576  0.9442 -1.0539
 7414SOL     OW33874   0.592   4.696   4.969  0.7453 -1.5350 -0.1277
 7414SOL    HW133875   0.669   4.704   4.912  1.1960 -0.8380  0.5730
 7414SOL    HW233876   0.537   0.039   4.944  1.1408 -0.5166  2.0317
 7415SOL     OW33877   3.479   0.994   2.361  0.0828 -0.4802 -0.4465
 7415SOL    HW133878   3.455   1.000   2.269 -2.2523 -3.4847 -0.0373
 7415SOL    HW233879   3.396   0.990   2.407  0.0605  1.3542 -0.3484
 7416SOL     OW33880   3.405   4.515   8.167 -0.0365 -0.1892  0.5205
 7416SOL    HW133881   3.451   4.440   8.204 -1.8873 -1.4742  0.1688
 7416SOL    HW233882   3.456   4.529   8.087 -2.1606  0.3905 -0.7279
 7417SOL     OW33883   4.029   0.468   2.930  0.0418  0.0465 -0.6403
 7417SOL    HW133884   4.066   0.431   2.850  1.2854  1.3683 -0.6954
 7417SOL    HW233885   4.066   0.403   2.989 -2.0493 -0.2036  0.3602
 7418SOL     OW33886   2.518   3.479   7.131 -0.4973  0.6271 -0.3645
 7418SOL    HW133887   2.545   3.565   7.098  0.3962  0.1231 -0.9414
 7418SOL    HW233888   2.602   3.435   7.122  0.3945  1.7022  3.0223
 7419SOL     OW33889   4.175   1.454   1.679  0.1406  0.0550 -0.1780
 7419SOL    HW133890   4.108   1.489   1.621 -1.4010 -1.7470  0.5165
 7419SOL    HW233891   4.230   1.407   1.616 -1.4344 -1.7155 -0.2253
 7420SOL     OW33892   0.451   3.421   1.771 -0.0127  0.6899 -0.1156
 7420SOL    HW133893   0.518   3.367   1.729 -0.9762 -1.4968  1.1599
 7420SOL    HW233894   0.494   3.437   1.855 -0.7597 -2.9048  0.9424
 7421SOL     OW33895   4.015   3.157   7.144  0.1569 -0.0523 -0.6535
 7421SOL    HW133896   4.037   3.115   7.227  1.7108  1.4144 -0.3247
 7421SOL    HW233897   4.049   3.099   7.076 -0.2832 -0.2946 -0.6703
 7422SOL     OW33898   3.379   2.223   9.471  0.1531  0.5055 -0.6524
 7422SOL    HW133899   3.442   2.151   9.461  1.5183  1.7228 -0.8086
 7422SOL    HW233900   3.311   2.182   9.524  0.8131 -0.5348 -0.6219
 7423SOL     OW33901   0.578   3.210   8.184 -0.6318 -0.0563 -0.2617
 7423SOL    HW133902   0.536   3.293   8.165  1.6674  1.1299 -0.2108
 7423SOL    HW233903   0.653   3.241   8.234 -1.4492  0.3095  0.7284
 7424SOL     OW33904   0.978   1.807   3.642  0.2202 -0.8864 -0.6999
 7424SOL    HW133905   1.042   1.811   3.571 -0.7578  0.9459 -1.4703
 7424SOL    HW233906   0.963   1.713   3.653 -0.3958 -0.8858 -1.5084
 7425SOL     OW33907   1.025   2.170   2.216 -0.7162  0.2131  0.4829
 7425SOL    HW133908   1.071   2.243   2.258 -0.3052  0.3789 -0.2538
 7425SOL    HW233909   1.088   2.150   2.147  0.9245 -0.4500  2.1862
 7426SOL     OW33910   1.062   2.699   5.689  0.2766 -0.3438  0.0811
 7426SOL    HW133911   1.028   2.700   5.600 -0.5934  1.8347  0.4462
 7426SOL    HW233912   1.149   2.738   5.686  0.7173 -1.4901 -1.9326
 7427SOL     OW33913   3.190   1.229  16.737  0.0217 -0.0951  0.2867
 7427SOL    HW133914   3.214   1.321  16.721  1.5287 -0.7729 -1.3856
 7427SOL    HW233915   3.102   1.246  16.769  0.9946  0.2946  2.7856
 7428SOL     OW33916   0.318   2.012   2.841 -0.0043  0.2564  0.0922
 7428SOL    HW133917   0.256   2.084   2.851  0.4374  0.7408 -0.6630
 7428SOL    HW233918   0.358   2.014   2.929  2.4081  0.4657 -0.9984
 7429SOL     OW33919   2.658   2.166  10.810  0.4472  0.1201  0.6089
 7429SOL    HW133920   2.646   2.247  10.760 -1.0498  1.5114  3.2529
 7429SOL    HW233921   2.586   2.113  10.777  0.1682  0.6022  0.4391
 7430SOL     OW33922   3.419   0.794   9.640 -0.1873 -0.2665 -0.7816
 7430SOL    HW133923   3.402   0.829   9.552  1.2850  2.1017 -0.1262
 7430SOL    HW233924   3.512   0.772   9.632  0.3572  1.9822 -0.4268
 7431SOL     OW33925   2.369   1.326   5.566  0.2755 -0.1958 -0.2746
 7431SOL    HW133926   2.276   1.347   5.565  0.9339  2.7311 -0.8160
 7431SOL    HW233927   2.408   1.409   5.594  0.2484 -0.0813 -0.5691
 7432SOL     OW33928   1.358   4.541   9.307  0.6794 -0.0195  0.6568
 7432SOL    HW133929   1.343   4.534   9.213  1.5506  0.1165  0.5076
 7432SOL    HW233930   1.288   4.598   9.339 -0.1886 -0.5686 -0.2629
 7433SOL     OW33931   0.143   2.432  15.842 -0.5641  0.2036 -0.6671
 7433SOL    HW133932   0.126   2.440  15.936  0.1542  0.1386 -0.5262
 7433SOL    HW233933   0.143   2.338  15.823  0.3656 -0.2988  1.7503
 7434SOL     OW33934   2.975   3.803   7.535  0.0005  0.3345 -0.1528
 7434SOL    HW133935   2.926   3.870   7.488 -0.9436  0.4912  1.0661
 7434SOL    HW233936   2.996   3.855   7.613 -1.0373  2.4069 -1.2789
 7435SOL     OW33937   0.775   3.186   5.295  0.3212  0.0906  0.6205
 7435SOL    HW133938   0.749   3.278   5.302  0.2326  0.2418 -1.7260
 7435SOL    HW233939   0.802   3.168   5.386 -2.3260  2.7311  1.9099
 7436SOL     OW33940   1.091   2.720   9.848  0.1958 -0.5108  0.4071
 7436SOL    HW133941   1.114   2.658   9.918 -2.0743 -0.3548  1.3102
 7436SOL    HW233942   1.172   2.769   9.838  0.0994 -0.4970 -0.2980
 7437SOL     OW33943   2.890   3.661  17.616 -0.0625  0.2450 -0.3322
 7437SOL    HW133944   2.837   3.721  17.668 -0.8487  1.0558 -2.1037
 7437SOL    HW233945   2.958   3.633  17.678 -1.0297 -3.3176 -0.8329
 7438SOL     OW33946   0.135   0.206   2.546 -0.2847 -0.4282 -0.2622
 7438SOL    HW133947   0.223   0.187   2.579 -0.7817 -0.1750  1.2023
 7438SOL    HW233948   0.146   0.265   2.471  0.5090 -1.6956 -1.1409
 7439SOL     OW33949   1.453   2.854   5.566 -0.4525  0.0336  0.2187
 7439SOL    HW133950   1.479   2.848   5.658 -1.8065  1.2877  0.6772
 7439SOL    HW233951   1.433   2.761   5.550  1.7477 -0.4436  0.2671
 7440SOL     OW33952   1.515   1.666   4.056  0.3601  0.6749  0.2868
 7440SOL    HW133953   1.528   1.761   4.062  1.3876  0.6620 -1.9960
 7440SOL    HW233954   1.421   1.650   4.056  0.4614  0.1087 -0.7723
 7441SOL     OW33955   3.541   3.811   6.984 -0.1988 -0.1285 -0.0370
 7441SOL    HW133956   3.620   3.836   7.031 -0.6613 -0.9941  1.1990
 7441SOL    HW233957   3.582   3.748   6.924  2.4391 -0.2315  1.8474
 7442SOL     OW33958   2.320   3.779   4.159  0.2170  0.7379  0.4648
 7442SOL    HW133959   2.365   3.700   4.189 -0.3180  0.4822  0.5919
 7442SOL    HW233960   2.370   3.803   4.081  0.5492  1.4034  0.8878
 7443SOL     OW33961   4.639   2.477  15.174  0.2453 -0.0471  0.7220
 7443SOL    HW133962   4.682   2.562  15.167 -0.8990  0.3021 -1.7341
 7443SOL    HW233963   4.556   2.501  15.215 -0.3301 -0.7773 -0.0206
 7444SOL     OW33964   2.193   0.122   7.432  0.1243 -0.0707 -0.4126
 7444SOL    HW133965   2.244   0.082   7.362 -0.7211 -0.0289 -1.0603
 7444SOL    HW233966   2.118   0.062   7.439 -0.2899  0.3546 -1.1430
 7445SOL     OW33967   3.644   1.925   2.524 -0.2666  0.4610  0.4898
 7445SOL    HW133968   3.578   1.939   2.456  0.1145  1.4421  0.3197
 7445SOL    HW233969   3.651   1.830   2.534  1.0908  0.4624 -0.3730
 7446SOL     OW33970   2.391   3.379   5.783 -0.1605  0.1601 -0.2960
 7446SOL    HW133971   2.464   3.330   5.820 -0.0695  1.4410  1.2072
 7446SOL    HW233972   2.361   3.318   5.716 -0.1301 -1.7765  1.4490
 7447SOL     OW33973   2.475   1.292   1.691  0.3265  0.0786 -0.0335
 7447SOL    HW133974   2.513   1.373   1.656  2.1879 -0.2071  1.3073
 7447SOL    HW233975   2.472   1.300   1.786  1.8789 -1.2424  0.1394
 7448SOL     OW33976   0.134   4.591   2.192 -0.3580  0.1618 -0.1545
 7448SOL    HW133977   0.222   4.623   2.171 -0.2115 -0.2384 -0.1421
 7448SOL    HW233978   0.083   4.628   2.120  2.1452  1.4615 -1.2784
 7449SOL     OW33979   2.431   0.904   9.590 -0.5319  0.1360  0.4021
 7449SOL    HW133980   2.354   0.853   9.615  1.0306 -2.4021  0.0038
 7449SOL    HW233981   2.394   0.988   9.563  0.4627  1.3023  2.6536
 7450SOL     OW33982   0.902   1.552   1.075 -0.2651 -0.2053  0.5306
 7450SOL    HW133983   0.965   1.605   1.027 -3.5845  0.9636 -2.5092
 7450SOL    HW233984   0.962   1.481   1.097  1.5666  0.0298 -3.7620
 7451SOL     OW33985   0.909   3.763   1.812  0.1885  0.6616  0.1373
 7451SOL    HW133986   0.837   3.723   1.861  0.2079  0.2917 -0.1364
 7451SOL    HW233987   0.905   3.850   1.852  1.7319  1.8415 -2.2593
 7452SOL     OW33988   4.418   3.808   0.106 -0.0880 -0.5481  0.2129
 7452SOL    HW133989   4.424   3.728   0.158  2.4405  0.3370  1.3021
 7452SOL    HW233990   4.509   3.804   0.075 -1.0195  2.1632 -2.8458
 7453SOL     OW33991   4.373   3.653   9.163 -0.0268 -0.9901 -0.1389
 7453SOL    HW133992   4.441   3.716   9.139 -0.6740  0.0452  0.7684
 7453SOL    HW233993   4.295   3.708   9.155  0.5894 -0.5068 -2.9605
 7454SOL     OW33994   1.522   0.936  11.765  0.4214  0.8638  0.3765
 7454SOL    HW133995   1.595   0.935  11.827  1.1482 -1.9186 -0.5077
 7454SOL    HW233996   1.506   0.845  11.742  1.0483  1.3436 -1.9585
 7455SOL     OW33997   1.618   1.183   3.467  0.6672  0.0647  0.5542
 7455SOL    HW133998   1.534   1.227   3.477  1.5464  2.6759 -3.4458
 7455SOL    HW233999   1.677   1.257   3.480 -0.5110  1.4264 -1.7858
 7456SOL     OW34000   4.569   2.362   6.259 -0.3157 -0.1197 -0.0824
 7456SOL    HW134001   4.587   2.360   6.353 -0.7165  0.4046  0.0116
 7456SOL    HW234002   4.629   2.296   6.226 -0.0650 -0.1578  0.4528
 7457SOL     OW34003   4.604   4.183  12.673  0.5352  0.7155  0.3822
 7457SOL    HW134004   4.600   4.089  12.694  2.6830  0.3828 -0.7310
 7457SOL    HW234005   4.531   4.199  12.614 -0.1310  1.4236  1.3943
 7458SOL     OW34006   0.888   4.273   5.886 -0.1339  0.3572  0.6596
 7458SOL    HW134007   0.844   4.232   5.811  0.3503  0.1442  0.4913
 7458SOL    HW234008   0.910   4.359   5.852 -0.7408  0.2158 -0.0930
 7459SOL     OW34009   3.035   3.063   1.176  0.5819  0.5030  0.6563
 7459SOL    HW134010   2.986   2.980   1.182 -0.7606  1.1487 -1.3497
 7459SOL    HW234011   2.960   3.123   1.174 -0.2211 -0.4503  2.1041
 7460SOL     OW34012   2.747   1.502   7.126  0.6168 -0.4557  0.6922
 7460SOL    HW134013   2.807   1.433   7.155  1.2241 -0.5975 -0.9271
 7460SOL    HW234014   2.713   1.451   7.053 -0.1650  1.3844 -0.2441
 7461SOL     OW34015   0.961   1.408   0.649 -0.5695 -0.1047  0.3363
 7461SOL    HW134016   0.917   1.491   0.669  2.5656  1.0205  2.6278
 7461SOL    HW234017   0.914   1.371   0.575 -1.8867  1.2571  0.4801
 7462SOL     OW34018   4.434   0.153   5.496 -0.1253 -0.5519 -0.0562
 7462SOL    HW134019   4.484   0.087   5.543  1.7302 -0.2815 -1.6409
 7462SOL    HW234020   4.473   0.235   5.527  0.3666 -0.2026 -1.6148
 7463SOL     OW34021   1.126   2.367   8.185 -0.2143 -0.5440  0.0615
 7463SOL    HW134022   1.153   2.368   8.277 -0.9896  0.1143  0.2873
 7463SOL    HW234023   1.103   2.458   8.167 -1.8262 -0.8310  0.6433
 7464SOL     OW34024   4.245   3.071   8.223  0.2113  0.1211  0.1700
 7464SOL    HW134025   4.311   3.139   8.240 -0.8049  0.5493  2.3267
 7464SOL    HW234026   4.204   3.054   8.307  0.3265  3.7840  0.9911
 7465SOL     OW34027   2.838   1.300   6.641  0.2967 -0.1194 -0.2197
 7465SOL    HW134028   2.786   1.380   6.655  0.4774 -0.2367  1.1814
 7465SOL    HW234029   2.865   1.280   6.731  0.9111  2.4215  0.1568
 7466SOL     OW34030   3.760   3.433   5.118  0.8882 -0.1933  0.2970
 7466SOL    HW134031   3.814   3.382   5.178  2.5874 -2.6792 -3.3337
 7466SOL    HW234032   3.672   3.436   5.156  0.5664  0.3068 -0.4774
 7467SOL     OW34033   2.706   0.831   7.706  0.0924  0.0251 -0.1515
 7467SOL    HW134034   2.747   0.890   7.642  0.8435  0.8133  1.0539
 7467SOL    HW234035   2.757   0.852   7.784 -0.6440 -1.6172  0.7690
 7468SOL     OW34036   3.081   4.468   3.783  0.2001 -0.4193 -0.5510
 7468SOL    HW134037   3.086   4.563   3.789  1.6597 -0.5338  0.1950
 7468SOL    HW234038   2.989   4.442   3.781  0.6316 -1.8648 -1.4358
 7469SOL     OW34039   3.567   2.164   5.716 -0.0455 -0.5407 -0.2304
 7469SOL    HW134040   3.644   2.141   5.768  0.4179  1.4505 -0.0621
 7469SOL    HW234041   3.574   2.258   5.702 -0.1244 -0.5199 -0.1291
 7470SOL     OW34042   1.927   2.105  15.222  0.2076 -0.4664  0.3562
 7470SOL    HW134043   1.845   2.101  15.173  0.8872  2.4490 -0.9678
 7470SOL    HW234044   1.988   2.134  15.155 -0.2776  2.0572  1.0076
 7471SOL     OW34045   1.850   3.208   7.518  0.1148  0.2388 -0.0360
 7471SOL    HW134046   1.806   3.281   7.475  1.1471 -0.0717 -1.6012
 7471SOL    HW234047   1.813   3.125   7.491  0.3520 -0.3390  1.3839
 7472SOL     OW34048   1.374   4.530   8.026 -0.2812 -0.2537 -0.7911
 7472SOL    HW134049   1.379   4.623   8.005 -0.9975  0.1844  0.9689
 7472SOL    HW234050   1.377   4.499   7.935 -1.7911  3.0070 -1.9343
 7473SOL     OW34051   4.380   2.488   4.833  0.3338  0.7070 -0.2164
 7473SOL    HW134052   4.400   2.555   4.768 -1.0793  1.9593  0.6086
 7473SOL    HW234053   4.295   2.520   4.864 -1.4671 -3.2191 -1.1177
 7474SOL     OW34054   0.331   3.723   8.599  0.2927 -0.4991  0.4362
 7474SOL    HW134055   0.285   3.645   8.630 -1.6805  0.1088 -0.8887
 7474SOL    HW234056   0.327   3.696   8.507 -0.0293 -0.1995  0.3600
 7475SOL     OW34057   0.018   4.586   6.196 -0.1613 -0.1395 -0.0239
 7475SOL    HW134058   0.090   4.594   6.135  1.7421 -2.9002  1.8656
 7475SOL    HW234059   4.716   4.676   6.187  2.8567  1.1555  1.6798
 7476SOL     OW34060   3.688   3.599   6.835 -0.0998 -0.5550  0.1773
 7476SOL    HW134061   3.674   3.549   6.915  0.2417  1.3228  1.4150
 7476SOL    HW234062   3.771   3.637   6.863 -1.2655  1.5658  0.7072
 7477SOL     OW34063   1.758   1.438   3.579  0.3664 -0.4461 -0.1264
 7477SOL    HW134064   1.753   1.507   3.513  0.6739 -0.5863 -0.2997
 7477SOL    HW234065   1.693   1.460   3.645  0.7458 -2.5856  0.9805
 7478SOL     OW34066   1.488   4.077   7.242  0.1025 -0.9807  0.5446
 7478SOL    HW134067   1.509   4.157   7.292  0.2098 -0.4419 -0.3654
 7478SOL    HW234068   1.398   4.060   7.273 -0.1153 -0.6850  0.0664
 7479SOL     OW34069   3.516   2.075   2.258  0.1494  0.8193 -0.1315
 7479SOL    HW134070   3.454   2.027   2.313  1.5641 -0.0188  0.7092
 7479SOL    HW234071   3.484   2.164   2.277 -3.0372  0.0736 -1.9464
 7480SOL     OW34072   2.090   2.277  12.728  0.1066 -0.2014 -0.3971
 7480SOL    HW134073   2.134   2.194  12.747 -3.1933 -1.7246  0.5556
 7480SOL    HW234074   2.082   2.273  12.632  2.2382  0.5093 -0.5985
 7481SOL     OW34075   4.161   0.307   1.833 -0.4469  0.2120 -0.1666
 7481SOL    HW134076   4.172   0.259   1.915 -0.4253 -0.1961 -0.4049
 7481SOL    HW234077   4.246   0.349   1.827 -0.8877  1.3911  1.6490
 7482SOL     OW34078   2.380   3.121   7.398  0.2102  0.3142 -0.5679
 7482SOL    HW134079   2.294   3.099   7.362 -0.4217  0.5514  0.7978
 7482SOL    HW234080   2.391   3.054   7.465 -2.4378  0.6927  0.2407
 7483SOL     OW34081   3.529   2.428   2.354  0.6607  0.4097 -0.7787
 7483SOL    HW134082   3.621   2.421   2.328  0.5155 -0.8296 -0.9581
 7483SOL    HW234083   3.535   2.386   2.440 -0.2876  1.7855 -0.0485
 7484SOL     OW34084   3.262   3.228   7.793 -0.3525 -0.1978  0.1756
 7484SOL    HW134085   3.331   3.177   7.749 -0.8749  0.7221 -1.6882
 7484SOL    HW234086   3.190   3.170   7.769 -0.3554  1.1209 -2.9117
 7485SOL     OW34087   4.578   1.566   5.267 -0.0926 -0.2266  0.3354
 7485SOL    HW134088   4.494   1.570   5.221  0.1716  1.7801  0.0297
 7485SOL    HW234089   4.554   1.491   5.321 -1.8728 -0.1882 -0.3988
 7486SOL     OW34090   0.299   0.793  11.050  0.1404  0.2989  0.0999
 7486SOL    HW134091   0.379   0.808  11.000  0.8971  0.1986  1.2842
 7486SOL    HW234092   0.334   0.781  11.139 -0.7292  0.4770  0.4654
 7487SOL     OW34093   3.717   1.873  13.987  0.2126  0.3078 -0.3296
 7487SOL    HW134094   3.734   1.963  13.961 -0.7011  0.1138 -1.6375
 7487SOL    HW234095   3.805   1.837  13.971  0.0809  0.2176 -0.8763
 7488SOL     OW34096   3.148   0.117   2.390  0.5684  0.1398  0.4244
 7488SOL    HW134097   3.080   0.078   2.335  0.5749  0.5235  0.1434
 7488SOL    HW234098   3.221   0.072   2.346 -0.2374 -1.6501  0.9482
 7489SOL     OW34099   0.544   1.894   4.011 -0.3818  0.3861 -0.1242
 7489SOL    HW134100   0.597   1.881   3.933 -0.2572 -1.7624  0.3112
 7489SOL    HW234101   0.500   1.976   3.989  0.6892  0.4418 -2.0230
 7490SOL     OW34102   0.203   0.957   9.399 -0.1343  0.5327 -0.4057
 7490SOL    HW134103   0.133   0.893   9.384 -0.2434  0.7884 -0.9753
 7490SOL    HW234104   0.160   1.034   9.362  0.6873  0.9762 -0.4394
 7491SOL     OW34105   1.091   3.263  17.458 -0.4850 -0.0829 -0.3617
 7491SOL    HW134106   1.154   3.335  17.461 -1.8777  1.1396 -0.2517
 7491SOL    HW234107   1.076   3.248  17.552  0.1977 -1.7147 -0.5151
 7492SOL     OW34108   3.723   2.071  11.971  0.9027  0.2067 -0.6743
 7492SOL    HW134109   3.648   2.047  12.025 -1.4379  1.2381 -3.4838
 7492SOL    HW234110   3.793   2.078  12.036  0.5265 -1.0872 -0.1173
 7493SOL     OW34111   3.003   2.943   8.520 -0.0430  0.5237 -0.2301
 7493SOL    HW134112   3.073   2.896   8.474  1.4549  1.7217  0.8384
 7493SOL    HW234113   2.933   2.915   8.460  0.5095  0.4667 -0.8527
 7494SOL     OW34114   4.231   4.204   1.765 -0.3003 -0.4017 -0.0696
 7494SOL    HW134115   4.222   4.299   1.768  0.2624 -0.3604  0.3678
 7494SOL    HW234116   4.308   4.201   1.822  1.7490 -0.4162 -2.8280
 7495SOL     OW34117   2.052   0.736   1.536  0.1977  0.3564 -0.1785
 7495SOL    HW134118   2.034   0.828   1.555  2.5127  1.5129 -3.6068
 7495SOL    HW234119   1.978   0.714   1.479  1.0202 -1.5404 -0.5165
 7496SOL     OW34120   4.550   4.246   5.041  0.5698 -0.0947 -0.2967
 7496SOL    HW134121   4.587   4.266   4.955 -0.2312 -0.3476 -0.7091
 7496SOL    HW234122   4.505   4.330   5.053  0.9422 -0.4212  3.3576
 7497SOL     OW34123   2.286   0.080   3.957 -0.1500 -0.1500 -0.0391
 7497SOL    HW134124   2.274   0.144   3.887 -1.4669 -0.1064  0.2232
 7497SOL    HW234125   2.191   0.070   3.968 -0.1096  2.5164  2.7346
 7498SOL     OW34126   2.195   0.616   2.233  0.4078 -0.0040 -0.0983
 7498SOL    HW134127   2.271   0.563   2.210  0.6502 -0.5963  2.1060
 7498SOL    HW234128   2.148   0.633   2.151 -1.4524  0.0884  0.9777
 7499SOL     OW34129   4.022   0.752  14.599 -0.2095  0.0285 -0.3390
 7499SOL    HW134130   4.081   0.677  14.596 -0.0251  0.1363  0.6195
 7499SOL    HW234131   3.962   0.724  14.669  0.4639  0.6421  0.4889
 7500SOL     OW34132   1.222   2.025   2.036  0.1444 -0.2698 -0.0572
 7500SOL    HW134133   1.285   1.962   2.071  0.8101 -0.6145 -1.8843
 7500SOL    HW234134   1.192   1.984   1.956  0.0925 -2.9209  1.3209
 7501SOL     OW34135   4.350   2.149   2.004  0.1326 -0.4082 -0.0237
 7501SOL    HW134136   4.417   2.102   1.953  0.6461  0.9631 -0.6342
 7501SOL    HW234137   4.301   2.081   2.049 -0.3424 -1.4529 -2.1166
 7502SOL     OW34138   4.216   2.601   1.723  0.1107  0.5264  0.1844
 7502SOL    HW134139   4.287   2.537   1.720  0.7820  1.4089 -2.7067
 7502SOL    HW234140   4.216   2.623   1.630 -0.0471 -1.0309 -0.1788
 7503SOL     OW34141   3.702   0.253   3.553  0.2199  0.1565 -0.1371
 7503SOL    HW134142   3.788   0.223   3.582 -1.8524 -4.3517  1.3052
 7503SOL    HW234143   3.644   0.211   3.617  1.1757 -0.5602  0.2732
 7504SOL     OW34144   1.547   2.839   1.334 -0.3471 -0.2053  0.0284
 7504SOL    HW134145   1.639   2.813   1.323 -0.7291 -1.9294  0.9868
 7504SOL    HW234146   1.551   2.915   1.393  1.1070  0.1161 -0.4625
 7505SOL     OW34147   0.156   1.306   8.104  0.1826  0.7482  0.1668
 7505SOL    HW134148   0.198   1.228   8.142 -0.2745  0.5077  0.1800
 7505SOL    HW234149   0.074   1.276   8.064  2.6596 -2.4395 -2.5313
 7506SOL     OW34150   0.233   1.070   3.341  0.1606 -0.5532 -0.4441
 7506SOL    HW134151   0.327   1.085   3.358 -0.1433  0.4777  0.3221
 7506SOL    HW234152   0.230   1.088   3.247  0.0012  0.6768 -0.2008
 7507SOL     OW34153   3.055   1.790   5.547 -0.3804  0.9685  0.0651
 7507SOL    HW134154   3.046   1.773   5.640  2.1312  0.3468  0.1713
 7507SOL    HW234155   2.975   1.745   5.518 -0.4426 -0.0968  1.9153
 7508SOL     OW34156   1.128   1.170   6.629  0.6603  0.1453 -0.1471
 7508SOL    HW134157   1.184   1.247   6.636  1.3232 -0.1725 -1.7969
 7508SOL    HW234158   1.064   1.183   6.699 -0.6873  1.3540 -1.6134
 7509SOL     OW34159   4.434   0.816  10.178 -0.2408  0.0500  0.3094
 7509SOL    HW134160   4.465   0.758  10.247 -1.5592  1.0529  1.7200
 7509SOL    HW234161   4.383   0.878  10.231 -0.5064 -0.0514  0.1728
 7510SOL     OW34162   4.363   2.528  15.833 -0.4531  0.2508 -0.0356
 7510SOL    HW134163   4.328   2.466  15.898  1.8951 -0.9719  0.0609
 7510SOL    HW234164   4.435   2.568  15.882 -0.4216 -0.6032  0.6130
 7511SOL     OW34165   4.495   4.173   7.128  0.2305 -0.4143 -0.3552
 7511SOL    HW134166   4.538   4.228   7.062  0.1716  0.1911  0.1041
 7511SOL    HW234167   4.511   4.081   7.110 -0.3815 -0.2920 -1.5256
 7512SOL     OW34168   3.442   2.946   5.034 -0.0074 -0.6227 -0.3550
 7512SOL    HW134169   3.404   2.900   5.109  0.0163 -1.4115 -0.8238
 7512SOL    HW234170   3.513   2.883   5.017  0.3269  0.4492 -2.8353
 7513SOL     OW34171   1.762   3.565   2.364 -0.1555  0.0713 -0.2512
 7513SOL    HW134172   1.692   3.621   2.330  0.3229 -0.3559 -1.9590
 7513SOL    HW234173   1.721   3.480   2.342  1.9583 -0.9649 -0.1767
 7514SOL     OW34174   4.154   4.009  13.556 -0.1959 -0.1262  0.4273
 7514SOL    HW134175   4.142   3.927  13.510 -0.4607  0.7065 -0.9669
 7514SOL    HW234176   4.220   4.053  13.502 -1.0896 -1.0205 -1.3635
 7515SOL     OW34177   3.754   3.401   1.738 -0.5344  0.7494  0.0692
 7515SOL    HW134178   3.742   3.496   1.733  0.6514  0.8256 -1.2340
 7515SOL    HW234179   3.680   3.379   1.795 -0.3669 -1.6632 -0.6406
 7516SOL     OW34180   0.912   0.772   8.263 -0.5234  0.0268 -0.3494
 7516SOL    HW134181   0.845   0.839   8.276 -1.2356 -1.1035  1.7842
 7516SOL    HW234182   0.968   0.818   8.200  1.6864 -1.5142  0.5040
 7517SOL     OW34183   1.121   3.242   5.520  0.0991 -0.1733  0.4591
 7517SOL    HW134184   1.130   3.262   5.427  1.0406  0.4962  0.7011
 7517SOL    HW234185   1.196   3.183   5.523  0.5093  0.2759 -0.9771
 7518SOL     OW34186   4.382   2.997   5.690 -0.3160  0.2269 -0.1159
 7518SOL    HW134187   4.306   3.016   5.745 -1.8870 -1.8770 -1.5689
 7518SOL    HW234188   4.351   2.929   5.630 -0.7074 -0.5132  0.9286
 7519SOL     OW34189   1.451   0.891   4.211 -0.4393 -0.0944 -0.1036
 7519SOL    HW134190   1.424   0.950   4.140  1.6380 -1.0299 -1.6567
 7519SOL    HW234191   1.540   0.918   4.233 -0.5306 -0.1953  0.3881
 7520SOL     OW34192   4.150   1.648   6.959 -0.4346  0.3008  0.0794
 7520SOL    HW134193   4.126   1.697   7.038 -1.5344  0.7406 -0.5301
 7520SOL    HW234194   4.069   1.661   6.909 -2.2604 -0.4004  2.8433
 7521SOL     OW34195   1.970   1.021  16.022  0.1384 -0.2024  0.2780
 7521SOL    HW134196   1.883   1.057  16.042  0.6880  2.6523 -2.6464
 7521SOL    HW234197   1.946   0.936  15.985 -1.2367 -0.7535  2.3959
 7522SOL     OW34198   4.155   2.748   4.298 -0.3714  0.3648  0.5640
 7522SOL    HW134199   4.062   2.733   4.315 -0.5665  0.9786  0.0366
 7522SOL    HW234200   4.157   2.811   4.226 -1.4386 -0.4211 -0.1348
 7523SOL     OW34201   1.292   1.963   4.731  0.1863  0.0368 -0.4644
 7523SOL    HW134202   1.277   2.053   4.757  1.5829 -0.2350  1.2428
 7523SOL    HW234203   1.202   1.931   4.725  0.6449 -1.5650  1.4023
 7524SOL     OW34204   3.389   1.612  14.788  0.5240  0.2617  0.6825
 7524SOL    HW134205   3.380   1.517  14.783 -0.7473  0.5652 -2.6149
 7524SOL    HW234206   3.474   1.619  14.746  0.1592 -2.2285 -0.4332
 7525SOL     OW34207   4.191   4.148  15.653  0.8387 -0.5803  0.4360
 7525SOL    HW134208   4.110   4.199  15.658  0.1011 -1.6379 -0.6273
 7525SOL    HW234209   4.242   4.219  15.690 -1.2757  0.8392  0.6635
 7526SOL     OW34210   2.206   0.600   6.872 -0.1404  0.4029 -0.8114
 7526SOL    HW134211   2.120   0.604   6.831 -0.6237  1.8702  0.3190
 7526SOL    HW234212   2.205   0.517   6.920  1.7959  0.3780 -0.8181
 7527SOL     OW34213   3.017   3.893   6.616  0.2403 -0.1628 -0.0184
 7527SOL    HW134214   3.000   3.986   6.600  1.4949 -0.2388 -1.7151
 7527SOL    HW234215   2.928   3.859   6.627 -0.4275  1.1738 -1.3765
 7528SOL     OW34216   1.944   3.731   8.523 -0.3580 -0.1185 -0.2094
 7528SOL    HW134217   1.901   3.792   8.462  1.5129  0.3701 -1.0398
 7528SOL    HW234218   1.965   3.790   8.596  1.0313  1.6851 -2.0507
 7529SOL     OW34219   3.678   0.270   2.341 -0.0104  0.1496 -0.2035
 7529SOL    HW134220   3.660   0.176   2.343 -0.2243  0.1668 -1.2851
 7529SOL    HW234221   3.697   0.265   2.247  0.3211  0.3495 -0.1457
 7530SOL     OW34222   3.479   1.398   7.073  0.0379 -0.4714 -0.2487
 7530SOL    HW134223   3.414   1.360   7.014 -0.5942  0.4305 -0.1374
 7530SOL    HW234224   3.509   1.457   7.003 -0.0782 -1.2540 -0.9543
 7531SOL     OW34225   2.705   1.476  10.636 -0.0530  0.1766  0.2091
 7531SOL    HW134226   2.634   1.422  10.670  0.3065 -0.4621 -0.0509
 7531SOL    HW234227   2.780   1.456  10.693 -0.7656 -2.1563  0.3025
 7532SOL     OW34228   3.998   0.199   7.974  0.2843  0.1465  0.3190
 7532SOL    HW134229   3.950   0.276   8.004 -0.7264 -0.4582  0.2326
 7532SOL    HW234230   3.957   0.135   8.032 -0.6371  0.6769  0.2521
 7533SOL     OW34231   0.498   2.250   6.876  0.4945 -0.0291  0.2822
 7533SOL    HW134232   0.586   2.252   6.837  0.9962 -0.7705  1.3636
 7533SOL    HW234233   0.500   2.161   6.911 -0.1595 -0.2796 -0.3255
 7534SOL     OW34234   2.906   0.202   2.918 -0.2524 -0.4878 -0.2791
 7534SOL    HW134235   2.957   0.231   2.842  0.4821  2.0420  1.1595
 7534SOL    HW234236   2.978   0.158   2.962 -1.3029 -1.6319  0.2706
 7535SOL     OW34237   3.317   2.590  12.437  0.4133 -0.7728 -0.6648
 7535SOL    HW134238   3.292   2.516  12.381 -0.3955 -0.7748 -0.2988
 7535SOL    HW234239   3.367   2.636  12.369  0.3672 -0.0077 -0.1766
 7536SOL     OW34240   1.494   0.641   8.953 -0.7219 -1.0389 -0.1634
 7536SOL    HW134241   1.478   0.575   9.020  0.6789 -1.6301 -0.3976
 7536SOL    HW234242   1.497   0.718   9.009 -0.3244 -0.5154 -0.9043
 7537SOL     OW34243   1.491   3.241   3.701  0.1026  0.0989 -0.5491
 7537SOL    HW134244   1.534   3.274   3.622 -0.2304  2.3163  0.2166
 7537SOL    HW234245   1.466   3.151   3.680  3.9026 -0.9480 -0.6983
 7538SOL     OW34246   0.026   2.335   6.814  0.0528 -0.5460 -0.3730
 7538SOL    HW134247   0.073   2.321   6.897 -2.1297 -0.3145  0.9234
 7538SOL    HW234248   0.108   2.329   6.765 -0.1166  0.2587 -0.7533
 7539SOL     OW34249   3.171   3.867   2.953  0.6334  0.4411  0.2739
 7539SOL    HW134250   3.266   3.872   2.943  0.6294 -0.5489 -0.2617
 7539SOL    HW234251   3.136   3.894   2.868 -0.2898  1.1718  0.8770
 7540SOL     OW34252   1.764   3.233   1.540 -0.1254  0.6658  0.1861
 7540SOL    HW134253   1.817   3.154   1.532 -0.4231  0.5424 -0.6642
 7540SOL    HW234254   1.676   3.199   1.522  0.6110 -2.0929  1.7253
 7541SOL     OW34255   1.373   2.065   8.276 -0.4164  0.0032  0.0303
 7541SOL    HW134256   1.387   1.973   8.300 -0.3883 -0.2756 -1.0478
 7541SOL    HW234257   1.290   2.068   8.228  0.2666 -0.4940 -1.1753
 7542SOL     OW34258   3.235   0.029   6.622 -0.4851 -0.2902 -0.6337
 7542SOL    HW134259   3.156   0.082   6.614 -1.0069 -0.9935 -0.0432
 7542SOL    HW234260   3.253   0.022   6.716  0.7826 -0.5142 -0.8869
 7543SOL     OW34261   1.811   0.431   5.093  0.0904 -0.7415 -0.1419
 7543SOL    HW134262   1.771   0.405   5.176  0.4261  1.4151  0.7094
 7543SOL    HW234263   1.860   0.350   5.079  0.6798 -0.1131 -1.7191
 7544SOL     OW34264   2.884   2.665  13.845 -0.0903 -0.1861 -0.0934
 7544SOL    HW134265   2.821   2.630  13.908 -0.5286  0.9966  0.1248
 7544SOL    HW234266   2.950   2.596  13.847 -0.0811 -0.2022 -1.0480
 7545SOL     OW34267   3.426   1.918   5.748  0.5817  0.4083 -0.1273
 7545SOL    HW134268   3.480   1.869   5.810 -0.4594 -2.0715 -1.1942
 7545SOL    HW234269   3.469   2.004   5.739  1.3356 -0.1347 -1.8229
 7546SOL     OW34270   0.151   0.454  10.454  0.3823  0.3454  0.3688
 7546SOL    HW134271   0.164   0.482  10.363  0.6058  1.5390  0.7625
 7546SOL    HW234272   0.233   0.411  10.477  0.6189  0.5804 -0.0428
 7547SOL     OW34273   2.575   1.798   5.621  0.2744 -0.1932 -0.5063
 7547SOL    HW134274   2.525   1.750   5.687  1.2106  2.5597  2.1753
 7547SOL    HW234275   2.516   1.864   5.586 -0.5376 -0.8368 -0.3400
 7548SOL     OW34276   2.334   2.599  12.865 -0.2879 -0.1562 -0.6439
 7548SOL    HW134277   2.428   2.607  12.852 -0.3852  0.6109 -0.8456
 7548SOL    HW234278   2.301   2.604  12.775  3.6911  0.2294 -2.0870
 7549SOL     OW34279   1.124   3.349  10.113  0.5510  0.1576 -0.6288
 7549SOL    HW134280   1.192   3.294  10.153 -1.3929 -1.5783  0.3321
 7549SOL    HW234281   1.045   3.331  10.165  1.1765 -1.0019 -0.0806
 7550SOL     OW34282   1.046   1.799  12.523  0.2673 -0.3861  0.6400
 7550SOL    HW134283   1.069   1.840  12.440  0.8433  0.0893  1.0311
 7550SOL    HW234284   0.952   1.782  12.514  0.2088  0.4004 -0.2610
 7551SOL     OW34285   1.731   3.265   6.493  0.5912 -0.8164 -0.2094
 7551SOL    HW134286   1.665   3.279   6.425  1.3798  1.5848 -0.4722
 7551SOL    HW234287   1.796   3.322   6.452 -0.8434  1.3732  0.5791
 7552SOL     OW34288   1.780   4.046   2.870 -0.5650  0.8975  0.1444
 7552SOL    HW134289   1.782   3.993   2.949  0.1777  0.3326 -0.2543
 7552SOL    HW234290   1.818   4.128   2.901 -1.0430  1.6362 -1.2041
 7553SOL     OW34291   2.241   4.348   9.922 -0.2011  0.0341 -0.1068
 7553SOL    HW134292   2.276   4.271   9.967  0.7458  0.1019 -0.7170
 7553SOL    HW234293   2.315   4.408   9.909  0.3798 -0.6002  0.3297
 7554SOL     OW34294   1.914   4.174  13.462 -0.0665 -0.9856 -0.0271
 7554SOL    HW134295   1.950   4.095  13.422  4.4300  1.2391 -0.3872
 7554SOL    HW234296   1.823   4.172  13.435 -1.1337  0.0147  3.5006
 7555SOL     OW34297   2.133   3.406   2.428  0.7350 -0.2455 -0.1033
 7555SOL    HW134298   2.114   3.427   2.337 -0.7310 -0.3278  0.1774
 7555SOL    HW234299   2.164   3.317   2.411  0.7971 -0.3863  0.7408
 7556SOL     OW34300   1.430   4.514   3.298 -0.1321 -0.0294  0.2653
 7556SOL    HW134301   1.499   4.580   3.289 -0.2410  0.0699  0.1719
 7556SOL    HW234302   1.369   4.540   3.367  0.7807  0.3386  0.9465
 7557SOL     OW34303   1.357   2.880   4.345 -0.1038 -0.8714  0.2772
 7557SOL    HW134304   1.441   2.834   4.339  0.0844 -0.4812 -0.0140
 7557SOL    HW234305   1.293   2.808   4.343 -0.4276 -0.5034 -2.1849
 7558SOL     OW34306   2.754   4.167  13.111 -0.1764 -0.0680 -0.0945
 7558SOL    HW134307   2.798   4.250  13.131  1.5588 -0.4906 -2.2114
 7558SOL    HW234308   2.775   4.118  13.190 -1.6331 -0.4385  0.0699
 7559SOL     OW34309   1.086   0.157   1.471  0.4617  0.3745  0.2966
 7559SOL    HW134310   1.153   0.208   1.518 -0.8786 -0.3728  3.0248
 7559SOL    HW234311   1.090   0.188   1.381 -1.1925 -0.3298 -0.0221
 7560SOL     OW34312   0.979   2.777   3.138 -0.2805 -0.4581  0.7911
 7560SOL    HW134313   0.910   2.834   3.105 -0.6112 -1.2365  0.1423
 7560SOL    HW234314   1.037   2.838   3.184 -0.9313  0.8110 -0.0556
 7561SOL     OW34315   0.781   4.481   6.264  0.2641 -0.1995 -0.5476
 7561SOL    HW134316   0.871   4.511   6.262 -0.0965  1.1294  2.6153
 7561SOL    HW234317   0.767   4.462   6.357 -1.0773 -0.2745 -0.7591
 7562SOL     OW34318   1.643   2.174   0.111  0.1775 -0.4066 -0.1674
 7562SOL    HW134319   1.594   2.121   0.174  0.5490  0.4348  0.8317
 7562SOL    HW234320   1.663   2.113   0.040  2.4347 -0.6092  0.6467
 7563SOL     OW34321   0.321   2.549  14.053 -0.4104 -0.2515  0.2946
 7563SOL    HW134322   0.344   2.587  14.137  2.5081 -2.6731  0.5990
 7563SOL    HW234323   0.227   2.537  14.066 -0.2248 -0.8374  1.0703
 7564SOL     OW34324   0.534   4.262   5.815 -0.3081 -0.0119 -0.2391
 7564SOL    HW134325   0.547   4.167   5.821  1.0310  0.1497 -0.5751
 7564SOL    HW234326   0.530   4.285   5.908 -2.4213 -1.3067 -0.0190
 7565SOL     OW34327   2.829   1.091  12.756 -0.2276 -0.0302 -0.0322
 7565SOL    HW134328   2.893   1.088  12.828  1.0395  0.4978 -1.1273
 7565SOL    HW234329   2.751   1.108  12.808  0.1173  0.7401  0.2429
 7566SOL     OW34330   4.527   3.878   3.897  0.7195  0.5361  0.3962
 7566SOL    HW134331   4.465   3.950   3.886 -0.3164 -0.7657 -2.4922
 7566SOL    HW234332   4.543   3.884   3.991  1.0314 -1.4367  0.4744
 7567SOL     OW34333   1.166   0.673   3.989 -0.0935  0.1124  0.1065
 7567SOL    HW134334   1.243   0.674   4.045  1.3344  0.4839 -1.8628
 7567SOL    HW234335   1.197   0.680   3.899  0.0216  1.6961  0.2716
 7568SOL     OW34336   4.590   2.367   8.007  0.6678 -0.2842 -0.5695
 7568SOL    HW134337   4.504   2.388   7.971  1.3589 -0.7683 -2.4936
 7568SOL    HW234338   4.635   2.390   7.925  0.7496 -0.6146 -0.6171
 7569SOL     OW34339   0.228   1.943   9.012  0.0136  0.4755 -0.0464
 7569SOL    HW134340   0.285   1.877   8.973 -0.2112 -0.4718  1.2313
 7569SOL    HW234341   0.270   2.026   8.990 -1.4291  1.4946  1.0648
 7570SOL     OW34342   0.370   3.141   6.699  0.0822 -0.0250 -0.1909
 7570SOL    HW134343   0.293   3.143   6.756 -0.1761  0.5554 -0.5690
 7570SOL    HW234344   0.434   3.162   6.766 -1.9246  0.6453  1.5287
 7571SOL     OW34345   1.582   3.701   2.225  0.3494 -0.0528  0.4716
 7571SOL    HW134346   1.559   3.792   2.207  0.8000 -0.8870 -4.2512
 7571SOL    HW234347   1.504   3.658   2.190  0.8830 -0.6445  0.0041
 7572SOL     OW34348   2.012   0.144   4.010 -0.5021 -0.0968 -0.1635
 7572SOL    HW134349   2.057   0.208   4.065 -1.2637 -0.5408  0.9615
 7572SOL    HW234350   1.923   0.178   4.018 -0.7667 -0.8534  0.0771
 7573SOL     OW34351   0.912   2.518   7.687 -0.0736  0.1440 -0.4898
 7573SOL    HW134352   0.873   2.455   7.627 -1.9520  0.4668  0.4024
 7573SOL    HW234353   0.878   2.487   7.771 -0.7082  1.0456 -0.4102
 7574SOL     OW34354   1.659   1.982   1.160 -0.0363 -0.2766  0.5343
 7574SOL    HW134355   1.679   1.940   1.244  0.2182  0.9682  1.0991
 7574SOL    HW234356   1.564   1.988   1.168 -0.0991  1.6667 -1.7248
 7575SOL     OW34357   2.231   0.982   9.845  0.2059 -0.1029 -0.3780
 7575SOL    HW134358   2.199   1.057   9.895  2.4855  0.4845  0.1859
 7575SOL    HW234359   2.298   0.951   9.905  0.9085  3.4444  0.6511
 7576SOL     OW34360   3.715   2.529   9.226 -0.3401 -0.4765 -0.4568
 7576SOL    HW134361   3.785   2.594   9.223 -0.4601 -0.3482 -0.4496
 7576SOL    HW234362   3.747   2.481   9.303 -2.5662 -1.3004 -0.0497
 7577SOL     OW34363   0.387   4.347   1.554  0.2598 -0.3623 -1.1324
 7577SOL    HW134364   0.383   4.292   1.632  2.8283  0.0812 -0.6882
 7577SOL    HW234365   0.463   4.308   1.510  0.5184  0.1816 -1.1618
 7578SOL     OW34366   1.388   0.165   3.932 -0.0687  0.6841 -0.4673
 7578SOL    HW134367   1.310   0.137   3.980 -1.0198  2.3428 -1.0855
 7578SOL    HW234368   1.360   0.250   3.900 -1.1735  0.7998  0.8264
 7579SOL     OW34369   3.122   1.185   4.133  0.3007  0.1102 -0.3006
 7579SOL    HW134370   3.038   1.140   4.128  1.9018 -2.9720  0.5120
 7579SOL    HW234371   3.134   1.166   4.226 -0.9706  0.6113 -0.0302
 7580SOL     OW34372   1.243   1.594  14.718 -0.5093 -0.8013 -0.5570
 7580SOL    HW134373   1.203   1.577  14.803  0.0169  0.1123 -0.1405
 7580SOL    HW234374   1.175   1.556  14.661 -4.9415  1.0783  3.4680
 7581SOL     OW34375   0.804   1.384   0.422 -0.3356  0.2984 -0.1312
 7581SOL    HW134376   0.751   1.463   0.408  0.9415  1.4902  1.7648
 7581SOL    HW234377   0.809   1.367   0.328 -1.3183 -0.5988 -0.0174
 7582SOL     OW34378   3.570   1.908   7.428 -0.1966 -0.3708 -0.6235
 7582SOL    HW134379   3.626   1.882   7.501  2.0624  3.2287 -1.1281
 7582SOL    HW234380   3.620   1.912   7.346  1.8651 -1.4876  0.5774
 7583SOL     OW34381   3.543   3.635   4.035  0.2592  0.8303 -0.0757
 7583SOL    HW134382   3.542   3.553   4.083 -1.2862  0.7568 -0.2293
 7583SOL    HW234383   3.459   3.672   4.063  1.9337  1.7171  3.7296
 7584SOL     OW34384   1.532   4.148   0.937 -0.3431  0.2317  0.3048
 7584SOL    HW134385   1.465   4.183   0.877 -2.0423 -2.7273  0.4756
 7584SOL    HW234386   1.612   4.163   0.887 -0.5003 -2.6154 -0.8296
 7585SOL     OW34387   3.297   3.490  12.313  0.4281 -0.3929 -1.1303
 7585SOL    HW134388   3.225   3.551  12.298 -0.9772 -2.0428 -1.0317
 7585SOL    HW234389   3.372   3.539  12.279 -1.2717  3.4433  0.5951
 7586SOL     OW34390   3.666   0.846   7.903 -0.1620 -0.3908 -0.6354
 7586SOL    HW134391   3.627   0.762   7.928 -0.8157 -0.4585 -1.8891
 7586SOL    HW234392   3.586   0.898   7.889  0.4453  0.5649 -0.5768
 7587SOL     OW34393   2.056   0.681   4.102  1.0531 -0.2333 -0.3796
 7587SOL    HW134394   2.110   0.754   4.071 -0.4951  0.5093 -1.3599
 7587SOL    HW234395   2.089   0.608   4.050 -1.4387 -1.9903  0.5200
 7588SOL     OW34396   0.891   1.707   5.953  0.0943 -0.0004 -0.5559
 7588SOL    HW134397   0.840   1.717   5.872  0.7630  2.2711 -0.6956
 7588SOL    HW234398   0.832   1.658   6.009 -0.6283  0.3035 -1.0474
 7589SOL     OW34399   4.662   2.834   5.311 -0.4399 -0.4197 -0.0466
 7589SOL    HW134400   4.700   2.811   5.396 -2.3166 -1.0678  0.6162
 7589SOL    HW234401   4.649   2.926   5.336 -0.5048 -0.2593 -0.6870
 7590SOL     OW34402   0.646   3.343  17.592  0.2656  0.6373 -0.2742
 7590SOL    HW134403   0.585   3.416  17.587 -0.8721 -0.3224 -0.3097
 7590SOL    HW234404   0.664   3.337  17.498  0.5033  0.3481 -0.2111
 7591SOL     OW34405   4.061   1.316   6.825  0.9603  0.1273  0.0193
 7591SOL    HW134406   3.991   1.379   6.842 -0.0678 -0.3426 -2.5685
 7591SOL    HW234407   4.066   1.333   6.731  1.0861  2.3672  0.4261
 7592SOL     OW34408   0.144   3.091   3.981  0.3122  0.1797  0.8360
 7592SOL    HW134409   0.168   3.184   3.989 -1.3271  0.7090 -0.4308
 7592SOL    HW234410   0.214   3.065   3.921  0.0171 -0.2330  0.6750
 7593SOL     OW34411   3.977   1.861   8.508 -0.3585  0.3182 -0.5145
 7593SOL    HW134412   3.929   1.865   8.424 -0.3111  1.8485 -0.4548
 7593SOL    HW234413   4.061   1.826   8.479 -0.5893 -1.5523  1.0659
 7594SOL     OW34414   1.151   3.658   8.519 -0.0405  0.6925 -0.0366
 7594SOL    HW134415   1.182   3.743   8.489  2.5195 -0.1552  0.2305
 7594SOL    HW234416   1.099   3.682   8.596  1.1468 -2.5706  1.7991
 7595SOL     OW34417   4.317   4.067  17.113 -0.3149  0.5743 -0.4003
 7595SOL    HW134418   4.320   3.986  17.062 -0.0569  0.6812 -0.5541
 7595SOL    HW234419   4.260   4.048  17.187  1.7194  0.4926  1.1486
 7596SOL     OW34420   0.661   0.298  10.326 -0.1113  0.0610 -0.1139
 7596SOL    HW134421   0.663   0.394  10.325 -0.5687  0.0851  1.3656
 7596SOL    HW234422   0.753   0.280  10.309 -0.0404 -1.1366  1.5923
 7597SOL     OW34423   4.116   3.227  12.483  0.2159  0.7436  0.2221
 7597SOL    HW134424   4.115   3.187  12.570  0.3760 -0.3659 -0.2909
 7597SOL    HW234425   4.085   3.155  12.429 -1.3830  0.6415  1.3085
 7598SOL     OW34426   2.487   4.608  10.002  0.0915 -0.3404  0.0839
 7598SOL    HW134427   2.569   4.653   9.980 -0.7193  0.8102 -0.5270
 7598SOL    HW234428   2.450   4.685  10.045 -0.7503  0.6243 -2.3737
 7599SOL     OW34429   3.881   1.377  14.295  0.2353 -0.6280  0.3914
 7599SOL    HW134430   3.803   1.360  14.242 -0.3515 -0.5770  1.2334
 7599SOL    HW234431   3.855   1.459  14.339  2.7743  1.2663 -1.6393
 7600SOL     OW34432   1.796   2.875  10.119  0.7493 -0.0964 -0.1244
 7600SOL    HW134433   1.783   2.936  10.046 -0.9077  1.6847  1.6756
 7600SOL    HW234434   1.712   2.883  10.164  1.1934  0.2509  0.6354
 7601SOL     OW34435   0.084   1.138   4.756 -0.1021 -0.0671  0.4695
 7601SOL    HW134436   0.013   1.145   4.692 -0.6151  0.0531  1.0464
 7601SOL    HW234437   0.102   1.231   4.772 -0.1034 -0.3701  2.2225
 7602SOL     OW34438   3.226   1.009  16.879  0.0140 -0.6177 -0.0821
 7602SOL    HW134439   3.205   0.938  16.819 -1.4473  1.4296 -1.9918
 7602SOL    HW234440   3.222   1.086  16.823  0.0941  1.8494  3.2957
 7603SOL     OW34441   3.129   1.448  17.104  0.6378 -0.0992  0.0071
 7603SOL    HW134442   3.089   1.361  17.096  2.4124 -0.8390 -0.8256
 7603SOL    HW234443   3.083   1.487  17.178  0.3892 -0.9510  0.2966
 7604SOL     OW34444   1.990   0.107   5.676 -0.1339 -0.2896  0.2229
 7604SOL    HW134445   2.034   0.176   5.725 -0.9309 -0.4352  1.1550
 7604SOL    HW234446   1.959   0.161   5.603 -3.1157 -1.8385  0.3350
 7605SOL     OW34447   4.444   0.495   4.374  0.2279  0.0177 -0.0225
 7605SOL    HW134448   4.471   0.405   4.354 -3.1051 -0.5217 -2.0526
 7605SOL    HW234449   4.391   0.510   4.296 -1.0670 -2.2189  0.4139
 7606SOL     OW34450   3.450   3.958   3.312  0.0314  0.1077  0.2585
 7606SOL    HW134451   3.533   3.999   3.287 -0.0055  0.6141  0.9697
 7606SOL    HW234452   3.408   4.036   3.348 -1.7423 -1.0398  0.6621
 7607SOL     OW34453   3.321   4.654   0.887  0.1587  0.1402  0.3256
 7607SOL    HW134454   3.247   4.605   0.924 -1.6271  0.1764 -3.1899
 7607SOL    HW234455   3.338   4.718   0.956 -0.9571  1.9220 -1.0570
 7608SOL     OW34456   3.859   3.124   1.433  0.1850  0.1717 -0.0715
 7608SOL    HW134457   3.915   3.189   1.390  1.3942 -2.3465 -2.3701
 7608SOL    HW234458   3.884   3.136   1.524  0.3017 -1.3953  0.1063
 7609SOL     OW34459   2.805   2.944   2.109 -0.2021 -0.0053 -0.4764
 7609SOL    HW134460   2.840   3.022   2.067  1.2689  0.5698  1.8377
 7609SOL    HW234461   2.784   2.987   2.192  0.6991 -1.9830  0.7796
 7610SOL     OW34462   1.074   1.054   6.068 -0.1341  0.1144 -0.2582
 7610SOL    HW134463   1.032   1.119   6.124 -0.8955  0.1359 -0.8555
 7610SOL    HW234464   1.049   0.972   6.110  1.0771 -0.8399 -1.3892
 7611SOL     OW34465   4.613   3.384   1.785  0.6710  0.2874  0.2865
 7611SOL    HW134466   4.543   3.357   1.725  1.0748  1.0441 -0.5316
 7611SOL    HW234467   4.641   3.466   1.745  0.7236  0.1300  0.0010
 7612SOL     OW34468   2.499   1.963   5.313  0.3136 -0.0840  0.3636
 7612SOL    HW134469   2.462   1.877   5.334 -0.3637  0.4025  1.1315
 7612SOL    HW234470   2.487   2.016   5.391  1.5412  0.8064 -0.0503
 7613SOL     OW34471   1.875   0.804   2.187  0.1087  0.2932  0.2971
 7613SOL    HW134472   1.846   0.717   2.212 -1.6828 -0.3243 -3.8490
 7613SOL    HW234473   1.911   0.840   2.268 -1.1685 -0.6086  1.2509
 7614SOL     OW34474   4.288   2.097   3.708 -0.7118 -0.3851 -0.6117
 7614SOL    HW134475   4.308   2.093   3.615 -1.5969 -2.2521 -0.7157
 7614SOL    HW234476   4.238   2.018   3.728 -0.7816 -0.8501 -2.6181
 7615SOL     OW34477   1.240   3.735  14.248  0.4749 -0.5931  0.1819
 7615SOL    HW134478   1.178   3.676  14.291 -0.0328 -0.6833 -0.6730
 7615SOL    HW234479   1.225   3.708  14.157 -0.7923  1.2992 -0.1853
 7616SOL     OW34480   2.454   1.708   8.727  0.1833  0.1130  0.2644
 7616SOL    HW134481   2.482   1.680   8.640 -1.0477 -2.7530  0.7806
 7616SOL    HW234482   2.360   1.708   8.708  0.4020 -2.0219 -0.7619
 7617SOL     OW34483   2.160   0.403   5.544  0.6042  0.6210 -0.3518
 7617SOL    HW134484   2.127   0.488   5.575 -0.6146 -0.4104  1.1674
 7617SOL    HW234485   2.195   0.430   5.459  0.2894 -2.0338 -1.3311
 7618SOL     OW34486   2.728   3.250   4.375  0.2552 -0.0307  0.1688
 7618SOL    HW134487   2.804   3.239   4.318  0.2677  0.1751  0.1472
 7618SOL    HW234488   2.773   3.291   4.449  1.6037 -0.1076 -0.6102
 7619SOL     OW34489   2.642   2.131   8.174  0.1274 -0.2031  0.0397
 7619SOL    HW134490   2.599   2.213   8.148  0.2618 -0.1139  0.0955
 7619SOL    HW234491   2.721   2.165   8.217  0.2327 -1.5012  0.8488
 7620SOL     OW34492   1.828   4.195   9.932 -0.1041  0.0197 -0.4196
 7620SOL    HW134493   1.810   4.236  10.016 -1.6205 -0.8911 -0.3039
 7620SOL    HW234494   1.848   4.102   9.948 -0.5759  0.1292  0.8026
 7621SOL     OW34495   0.646   1.541   8.608  0.8236 -0.3371  0.1461
 7621SOL    HW134496   0.581   1.503   8.667  0.5672 -0.1031  0.0155
 7621SOL    HW234497   0.715   1.479   8.629  1.9157  1.0158  0.5790
 7622SOL     OW34498   3.152   2.211   9.102  0.4383  0.0339 -0.3796
 7622SOL    HW134499   3.214   2.263   9.154  2.2505 -3.3293  0.7878
 7622SOL    HW234500   3.134   2.282   9.040 -0.6784  0.6979  0.7105
 7623SOL     OW34501   0.318   4.064   7.543 -0.1456  0.3630 -0.7295
 7623SOL    HW134502   0.371   3.992   7.574 -0.4335  0.6923  0.5292
 7623SOL    HW234503   0.349   4.074   7.453  0.4408 -2.2210 -0.8150
 7624SOL     OW34504   4.431   0.818  17.025 -0.1608 -0.4066  0.1196
 7624SOL    HW134505   4.496   0.878  17.063  2.2258 -3.1395  0.3140
 7624SOL    HW234506   4.406   0.774  17.106  0.8872 -1.2158 -0.0033
 7625SOL     OW34507   1.234   0.899   4.391  0.3794  0.8886 -0.3601
 7625SOL    HW134508   1.152   0.922   4.347  1.2853  4.7790 -0.0324
 7625SOL    HW234509   1.297   0.896   4.320  1.4929 -0.7762  0.7091
 7626SOL     OW34510   2.562   2.004  13.119  0.7864 -0.4180 -0.3535
 7626SOL    HW134511   2.628   1.934  13.111  1.9036  0.1597  3.8554
 7626SOL    HW234512   2.526   2.001  13.207 -2.4310 -1.1312 -1.7192
 7627SOL     OW34513   1.744   2.003  15.817  0.6724  0.4315 -0.3427
 7627SOL    HW134514   1.738   2.017  15.722  1.7394 -0.0751 -0.4868
 7627SOL    HW234515   1.711   2.088  15.845 -1.1595 -0.1489 -0.7797
 7628SOL     OW34516   2.978   2.355   6.991 -0.2718  0.1804 -0.0843
 7628SOL    HW134517   2.975   2.262   7.016  0.0974 -0.3053 -1.8275
 7628SOL    HW234518   3.063   2.368   6.950 -0.9004  1.5498 -0.9188
 7629SOL     OW34519   1.822   2.058   0.919  0.2430 -0.2558 -0.7258
 7629SOL    HW134520   1.888   2.124   0.944 -1.1346 -0.9291  4.4979
 7629SOL    HW234521   1.873   2.029   0.843 -0.8645 -1.0397 -1.1608
 7630SOL     OW34522   1.265   1.352  12.360  0.1041  0.6680  0.5748
 7630SOL    HW134523   1.299   1.432  12.322 -2.4179  1.2220 -0.4933
 7630SOL    HW234524   1.175   1.381  12.352  0.3052  1.1027 -0.0222
 7631SOL     OW34525   3.335   2.404   3.038  0.3265  0.4514 -0.4431
 7631SOL    HW134526   3.299   2.446   2.960 -0.4143  0.8399  0.1139
 7631SOL    HW234527   3.302   2.314   3.042 -0.0825  0.5790 -1.0002
 7632SOL     OW34528   1.658   4.458   1.951  0.2936 -0.3119  0.3641
 7632SOL    HW134529   1.710   4.488   2.026 -1.0957  0.1226  1.1494
 7632SOL    HW234530   1.586   4.521   1.946  1.6290  1.0572 -1.4681
 7633SOL     OW34531   2.294   0.538  13.448 -0.8075  0.1268 -0.0171
 7633SOL    HW134532   2.297   0.473  13.378  1.6446 -1.5838  1.6930
 7633SOL    HW234533   2.346   0.609  13.411  0.7481 -1.2946 -0.5543
 7634SOL     OW34534   4.279   3.628   8.828 -0.3205 -0.1265  0.0565
 7634SOL    HW134535   4.331   3.568   8.774 -1.6383 -1.6451  0.5073
 7634SOL    HW234536   4.317   3.608   8.913  1.9545  1.2079 -0.6280
 7635SOL     OW34537   3.931   2.872   8.628 -0.2972 -0.8649 -0.1719
 7635SOL    HW134538   3.970   2.884   8.714  1.1377  0.2921 -0.9642
 7635SOL    HW234539   3.872   2.947   8.626 -0.7611 -1.1972  1.2086
 7636SOL     OW34540   2.512   4.274  13.353 -0.0640  0.1490 -0.3361
 7636SOL    HW134541   2.514   4.326  13.273  1.4740 -1.4608 -1.3350
 7636SOL    HW234542   2.586   4.215  13.345 -1.0389 -0.6844 -3.2419
 7637SOL     OW34543   3.347   3.091  16.389  0.3255 -0.0055  0.4432
 7637SOL    HW134544   3.439   3.071  16.373  0.3281  0.2413  0.1483
 7637SOL    HW234545   3.315   3.005  16.417  0.7562  0.2274  1.6274
 7638SOL     OW34546   1.361   4.638   4.347 -0.4431  0.0198  0.6989
 7638SOL    HW134547   1.406   4.555   4.331 -2.1793 -0.8261  0.1284
 7638SOL    HW234548   1.427   4.697   4.310 -1.4305  0.0060 -1.0954
 7639SOL     OW34549   1.397   1.656   7.439 -0.2466 -0.4320  0.1436
 7639SOL    HW134550   1.431   1.568   7.426 -1.8077 -0.9611 -0.3281
 7639SOL    HW234551   1.390   1.696   7.352  0.8334 -0.6499 -0.0489
 7640SOL     OW34552   0.044   1.849  13.146 -0.6562 -0.7336  0.4669
 7640SOL    HW134553   0.063   1.760  13.116 -0.6348 -0.7459  0.5169
 7640SOL    HW234554   0.062   1.843  13.240  1.4694 -0.2128  0.1012
 7641SOL     OW34555   4.512   4.058   2.808 -0.3335  0.0247  0.4984
 7641SOL    HW134556   4.601   4.055   2.774  0.0954 -0.2137  1.6707
 7641SOL    HW234557   4.525   4.017   2.894 -1.7416 -2.6515 -0.5513
 7642SOL     OW34558   1.183   4.586   1.502  0.0029  0.1740 -0.1688
 7642SOL    HW134559   1.170   4.589   1.407 -0.3328  0.0774 -0.1257
 7642SOL    HW234560   1.156   4.678   1.513 -0.7289  0.0411 -0.8741
 7643SOL     OW34561   0.768   3.498  11.894 -0.0143 -0.1028 -0.1753
 7643SOL    HW134562   0.835   3.562  11.867 -1.0251  0.5708 -1.0784
 7643SOL    HW234563   0.696   3.556  11.918 -1.4214 -1.6249 -0.8085
 7644SOL     OW34564   0.296   3.271   7.941 -0.4502  0.0022 -0.1606
 7644SOL    HW134565   0.372   3.329   7.941  0.1891 -0.8408 -1.4499
 7644SOL    HW234566   0.275   3.277   8.034 -0.2735  0.3659 -0.1461
 7645SOL     OW34567   1.972   1.581  15.202 -0.5373  0.1963  0.7096
 7645SOL    HW134568   1.993   1.528  15.125 -0.5698  0.7193  0.3420
 7645SOL    HW234569   1.878   1.569  15.188 -0.2671 -1.6373  0.3857
 7646SOL     OW34570   1.835   2.963   6.594  0.1699 -0.8446  0.0032
 7646SOL    HW134571   1.905   3.022   6.565  0.0177 -1.5172 -1.7592
 7646SOL    HW234572   1.884   2.884   6.618  1.3344 -1.1634 -3.4435
 7647SOL     OW34573   0.787   0.922   8.037  0.5696 -0.5126 -0.1420
 7647SOL    HW134574   0.798   1.015   8.016 -1.7766  0.0879  1.3214
 7647SOL    HW234575   0.874   0.890   8.009  0.8895  1.3887 -1.3318
 7648SOL     OW34576   2.700   2.530   2.427 -0.2797  0.2528 -0.0495
 7648SOL    HW134577   2.694   2.546   2.333 -0.2267 -0.3982 -0.1648
 7648SOL    HW234578   2.673   2.616   2.458 -1.3474 -0.9067  2.2896
 7649SOL     OW34579   3.257   2.366   1.963 -0.1284 -0.0156  0.6807
 7649SOL    HW134580   3.169   2.398   1.948  0.8100  1.6194 -1.3494
 7649SOL    HW234581   3.250   2.275   1.932 -0.6304  0.2504  0.0179
 7650SOL     OW34582   4.708   2.747   4.451  0.2761  0.0600  0.2939
 7650SOL    HW134583   4.658   2.731   4.371  0.1377  1.5316  0.0873
 7650SOL    HW234584   4.721   2.841   4.440  0.1394  0.1435  0.8520
 7651SOL     OW34585   2.607   1.731   3.962 -0.3085  0.1819 -0.4480
 7651SOL    HW134586   2.702   1.736   3.967 -0.1997 -0.3498 -1.9067
 7651SOL    HW234587   2.593   1.751   3.869  0.1493  0.0786 -0.5382
 7652SOL     OW34588   3.577   4.559   7.959 -0.2750  0.2396 -0.0882
 7652SOL    HW134589   3.519   4.584   7.887  0.6321  0.5672 -0.7047
 7652SOL    HW234590   3.633   4.637   7.963  1.8929 -1.2851 -0.8075
 7653SOL     OW34591   3.544   1.733   6.675  0.4679 -0.6865  0.6533
 7653SOL    HW134592   3.453   1.754   6.655  0.7533  1.6928  1.8123
 7653SOL    HW234593   3.593   1.815   6.666 -1.2319  0.2678  0.0901
 7654SOL     OW34594   3.811   2.644   0.722 -0.0950  0.1413  0.0345
 7654SOL    HW134595   3.825   2.709   0.791  1.0593  2.0907 -2.0247
 7654SOL    HW234596   3.797   2.568   0.778 -1.7029  0.1554 -0.3576
 7655SOL     OW34597   0.118   0.967  16.779 -0.1372 -0.2686 -0.1709
 7655SOL    HW134598   0.184   0.988  16.845 -0.3672 -0.2540  0.0554
 7655SOL    HW234599   0.134   1.036  16.714  0.6304 -1.0390 -0.7985
 7656SOL     OW34600   4.154   3.971   3.184  0.4207  0.1908  0.4635
 7656SOL    HW134601   4.098   3.935   3.116 -0.5706 -1.7773  2.3322
 7656SOL    HW234602   4.181   3.887   3.220  0.2449  0.2616  0.7621
 7657SOL     OW34603   0.493   4.292   7.074  0.3959  0.0586 -0.2174
 7657SOL    HW134604   0.508   4.224   7.008 -0.1764  1.8202 -2.1522
 7657SOL    HW234605   0.487   4.363   7.010 -0.7033 -0.9338 -1.2271
 7658SOL     OW34606   3.186   1.547   6.755  0.0429  0.6139  0.1703
 7658SOL    HW134607   3.264   1.495   6.775  0.6837  1.1520 -0.9683
 7658SOL    HW234608   3.215   1.631   6.790  1.9253  0.1218 -0.2125
 7659SOL     OW34609   1.505   2.335   1.479 -0.7325 -0.0868 -0.2223
 7659SOL    HW134610   1.557   2.415   1.472 -1.4638  0.6727  2.8295
 7659SOL    HW234611   1.476   2.321   1.389  1.6357 -2.3116 -0.6080
 7660SOL     OW34612   1.014   3.119   9.626 -0.2309 -0.4720 -0.6278
 7660SOL    HW134613   1.018   3.190   9.562 -0.2301  0.1325  0.0426
 7660SOL    HW234614   0.949   3.156   9.686  1.1152 -1.4095  1.3852
 7661SOL     OW34615   4.494   3.156   4.352  0.0221  0.1827 -0.2542
 7661SOL    HW134616   4.481   3.239   4.306 -0.5996 -0.7626 -1.7940
 7661SOL    HW234617   4.492   3.099   4.275 -0.1119  1.2748 -1.0742
 7662SOL     OW34618   4.199   0.867   9.905 -0.2038 -0.0427  0.7057
 7662SOL    HW134619   4.230   0.868   9.815  0.6736  1.3135  1.0147
 7662SOL    HW234620   4.170   0.777   9.913  0.0307 -0.0618  1.4023
 7663SOL     OW34621   2.899   0.690  12.157 -0.0263 -0.6466  0.1933
 7663SOL    HW134622   2.828   0.733  12.205  0.4599 -0.5217  0.8141
 7663SOL    HW234623   2.971   0.699  12.219  1.0200 -0.7599 -0.9981
 7664SOL     OW34624   4.538   0.443   7.483 -0.0118 -0.1708  0.2850
 7664SOL    HW134625   4.578   0.413   7.401 -0.8690  0.5422 -0.3921
 7664SOL    HW234626   4.602   0.397   7.537 -0.5969 -2.8982 -1.3596
 7665SOL     OW34627   2.906   2.753   8.744  0.4453  0.0557  0.1357
 7665SOL    HW134628   2.889   2.672   8.697  1.4283  0.4691 -0.9071
 7665SOL    HW234629   2.936   2.806   8.670 -2.3894  1.5297  0.0173
 7666SOL     OW34630   0.390   2.443  11.977  0.4888  0.5956 -0.4451
 7666SOL    HW134631   0.361   2.377  11.915 -0.3386  1.0600 -0.5527
 7666SOL    HW234632   0.306   2.465  12.018  1.5044  1.4763  1.1948
 7667SOL     OW34633   0.980   0.009   6.737 -0.3545  0.2286  0.1589
 7667SOL    HW134634   1.034   4.701   6.805  1.2399  0.0497 -1.2027
 7667SOL    HW234635   1.022   4.703   6.659  1.7058  0.7506  1.0300
 7668SOL     OW34636   1.105   4.543   7.451 -0.3022 -0.4054  0.1962
 7668SOL    HW134637   1.156   4.619   7.422  1.1443 -0.7219  1.9694
 7668SOL    HW234638   1.041   4.596   7.500  1.8012 -0.3040  2.7795
 7669SOL     OW34639   2.768   0.759  15.324 -0.6943  0.4005  0.2727
 7669SOL    HW134640   2.708   0.686  15.341  0.2874 -0.9134 -2.0676
 7669SOL    HW234641   2.746   0.760  15.231 -2.6341 -0.7509  0.7171
 7670SOL     OW34642   3.558   4.349   8.747  0.4859  0.0349 -0.5696
 7670SOL    HW134643   3.534   4.438   8.772 -0.1719 -1.2248  3.3956
 7670SOL    HW234644   3.474   4.305   8.728  0.8448 -1.5962  1.5410
 7671SOL     OW34645   2.250   4.433   0.441  0.1909  0.6443 -0.0104
 7671SOL    HW134646   2.189   4.396   0.506  0.2568 -0.1271 -0.3931
 7671SOL    HW234647   2.244   4.374   0.366 -0.3422  2.1448 -1.1454
 7672SOL     OW34648   1.000   0.387   2.421  1.0732  0.0776 -0.5113
 7672SOL    HW134649   0.978   0.477   2.443  4.4984  0.9167 -0.6138
 7672SOL    HW234650   1.094   0.396   2.433  1.0551 -0.6060  0.1197
 7673SOL     OW34651   1.486   3.632   3.518  0.0342  0.6258  0.3281
 7673SOL    HW134652   1.518   3.573   3.449  0.1890 -0.6468  1.4758
 7673SOL    HW234653   1.524   3.714   3.489 -0.3883  1.4402  2.1235
 7674SOL     OW34654   0.573   3.695  11.969  0.2577  0.1791 -0.0814
 7674SOL    HW134655   0.542   3.731  12.052  1.3993 -1.6845  1.1568
 7674SOL    HW234656   0.618   3.773  11.938 -0.1559  0.8336  0.9900
 7675SOL     OW34657   0.905   2.882   3.859 -0.5740 -0.6505  0.1271
 7675SOL    HW134658   0.941   2.912   3.943 -0.8115 -0.0916  0.0344
 7675SOL    HW234659   0.961   2.805   3.850  1.1348  0.3387  2.2448
 7676SOL     OW34660   4.665   3.907   2.506 -0.1995  0.0510 -0.3390
 7676SOL    HW134661   4.666   3.958   2.586 -0.1590  1.2669 -1.1127
 7676SOL    HW234662   4.712   3.968   2.449  0.4908 -0.5737 -0.4409
 7677SOL     OW34663   1.955   0.991   6.520  0.2325  0.3753  0.0667
 7677SOL    HW134664   2.005   0.937   6.459 -1.4937  1.4119 -2.2749
 7677SOL    HW234665   1.997   0.977   6.605  0.8899  0.8296 -0.1896
 7678SOL     OW34666   0.565   0.302  13.037  0.1795 -0.5258 -0.5789
 7678SOL    HW134667   0.603   0.220  13.007 -0.8726 -0.2729 -2.6078
 7678SOL    HW234668   0.515   0.278  13.115 -0.4516 -0.4017 -0.9401
 7679SOL     OW34669   2.614   4.481   5.705  0.0327  0.4306  0.0063
 7679SOL    HW134670   2.629   4.575   5.702 -1.0366  0.5426 -1.7443
 7679SOL    HW234671   2.594   4.483   5.799 -0.7877  1.6024 -0.1955
 7680SOL     OW34672   3.818   2.673   5.183  0.0521  0.0395  0.1600
 7680SOL    HW134673   3.786   2.736   5.120  0.4628 -1.4967 -1.5801
 7680SOL    HW234674   3.774   2.699   5.264 -0.8556  1.8828 -0.9369
 7681SOL     OW34675   2.621   2.071   5.842 -0.2108  0.2927  0.0004
 7681SOL    HW134676   2.715   2.057   5.855  0.3055  1.7704 -2.1005
 7681SOL    HW234677   2.635   2.155   5.798 -0.3551  1.3761  2.0170
 7682SOL     OW34678   0.467   1.506   4.922  0.2901  0.0441  0.3555
 7682SOL    HW134679   0.514   1.553   4.991 -2.2678  0.4038  1.8587
 7682SOL    HW234680   0.481   1.557   4.842  0.7069 -0.9345 -0.1929
 7683SOL     OW34681   1.157   3.772   5.751  0.5289  0.2395  0.0475
 7683SOL    HW134682   1.094   3.711   5.788  0.8587 -0.6922 -0.9522
 7683SOL    HW234683   1.117   3.795   5.667  0.1075  1.3739  0.5507
 7684SOL     OW34684   4.132   1.037  16.781 -0.5200  0.1853 -0.0773
 7684SOL    HW134685   4.090   1.019  16.697  0.4013 -0.1759 -0.4599
 7684SOL    HW234686   4.122   1.133  16.782 -1.9800  0.0246 -0.2769
 7685SOL     OW34687   4.020   1.873   6.703 -0.5993  0.3957 -0.4159
 7685SOL    HW134688   4.105   1.841   6.673 -1.3590 -0.3309 -1.7904
 7685SOL    HW234689   4.047   1.965   6.715  0.5621 -0.2280  1.7324
 7686SOL     OW34690   4.123   1.560  16.734  1.2151  0.6149  0.0259
 7686SOL    HW134691   4.197   1.619  16.719 -0.6788  2.6307 -1.4119
 7686SOL    HW234692   4.050   1.618  16.757 -1.7504 -3.0118 -0.3674
 7687SOL     OW34693   4.119   0.837   5.531 -0.2947  0.3284  0.1876
 7687SOL    HW134694   4.098   0.817   5.622 -0.9573  3.3489  0.7109
 7687SOL    HW234695   4.178   0.909   5.553  0.1364 -0.0935  0.4290
 7688SOL     OW34696   1.851   1.667   1.982 -0.0150 -0.0592 -0.5725
 7688SOL    HW134697   1.828   1.744   2.033  2.6162  0.8388 -0.7601
 7688SOL    HW234698   1.919   1.699   1.924  0.7941  0.8242  0.8624
 7689SOL     OW34699   0.264   3.493   3.350  0.1319 -0.3188  0.1982
 7689SOL    HW134700   0.263   3.398   3.354 -0.2000 -0.3505 -0.5868
 7689SOL    HW234701   0.350   3.493   3.391  1.9455 -2.9879 -3.6044
 7690SOL     OW34702   2.558   3.504   0.704  0.3804 -0.1273 -0.0054
 7690SOL    HW134703   2.646   3.510   0.742  0.1319  1.5535  0.2667
 7690SOL    HW234704   2.507   3.525   0.782 -0.3341  0.0220 -0.5118
 7691SOL     OW34705   4.435   0.879   2.519  0.0947  0.7124  0.1029
 7691SOL    HW134706   4.518   0.837   2.496  0.5257  0.1054  2.7692
 7691SOL    HW234707   4.457   0.883   2.612 -1.2210  0.8338  0.4064
 7692SOL     OW34708   1.005   1.529   9.206  0.0603 -0.0575  0.3336
 7692SOL    HW134709   0.925   1.476   9.210 -0.1968  0.2032 -1.1886
 7692SOL    HW234710   1.000   1.573   9.291  3.5034  0.0313  0.4826
 7693SOL     OW34711   2.093   0.532   7.717  0.4369 -0.0688  0.4453
 7693SOL    HW134712   2.098   0.445   7.677 -3.1384  0.6396 -1.5581
 7693SOL    HW234713   2.001   0.552   7.700 -0.0144 -0.5249  2.2921
 7694SOL     OW34714   1.312   0.922   9.203 -0.2770  0.3937  0.2371
 7694SOL    HW134715   1.295   0.835   9.166 -1.1960  0.2827  0.9115
 7694SOL    HW234716   1.362   0.898   9.281  0.9140  2.3124  0.0573
 7695SOL     OW34717   1.852   4.270  15.206 -0.8096 -0.1416  0.5029
 7695SOL    HW134718   1.815   4.265  15.118 -0.0560  0.6405  0.1507
 7695SOL    HW234719   1.886   4.182  15.224  1.6477  0.4629 -1.2951
 7696SOL     OW34720   3.656   3.135   3.957 -0.1395 -0.3245 -0.0842
 7696SOL    HW134721   3.683   3.125   3.866  2.5154  0.4170  0.6193
 7696SOL    HW234722   3.571   3.090   3.956 -0.2730 -0.0610 -1.0937
 7697SOL     OW34723   4.415   0.630   7.112  0.0569 -0.4749 -0.6357
 7697SOL    HW134724   4.496   0.586   7.086  0.8019  1.0459 -0.8595
 7697SOL    HW234725   4.431   0.723   7.129 -1.3557 -0.3567  0.0561
 7698SOL     OW34726   3.042   2.443   1.614 -0.1062  0.0578  0.4860
 7698SOL    HW134727   3.039   2.357   1.571  4.9809  0.3171 -0.3620
 7698SOL    HW234728   2.951   2.472   1.607 -0.4279 -0.1863  3.8950
 7699SOL     OW34729   1.048   2.447   4.259  0.6322  0.3764  0.3441
 7699SOL    HW134730   1.020   2.406   4.177  0.9080 -1.4903  1.1888
 7699SOL    HW234731   0.981   2.515   4.270  0.2145  0.3417 -1.9911
 7700SOL     OW34732   0.416   0.827  16.526 -0.0153  0.5766  0.3688
 7700SOL    HW134733   0.358   0.772  16.474  1.2090 -0.0078 -0.3889
 7700SOL    HW234734   0.434   0.769  16.600  0.8359 -2.9431 -2.5952
 7701SOL     OW34735   2.009   0.870  14.983 -0.2134 -0.2114 -0.4859
 7701SOL    HW134736   2.035   0.942  14.925  1.9904 -0.1832  0.5369
 7701SOL    HW234737   1.946   0.913  15.041  0.5225  1.5820 -0.9928
 7702SOL     OW34738   0.238   1.592   1.824 -0.2665 -0.3064 -0.2913
 7702SOL    HW134739   0.307   1.651   1.793 -0.1670  0.7961  2.0753
 7702SOL    HW234740   0.159   1.625   1.782  1.0093 -0.9714 -3.2492
 7703SOL     OW34741   4.520   4.564  12.743 -0.1433  0.4462 -0.6471
 7703SOL    HW134742   4.442   4.602  12.702  0.2731  1.4100 -0.5523
 7703SOL    HW234743   4.518   4.613  12.825 -1.4095 -1.3631  0.4113
 7704SOL     OW34744   0.394   2.301   4.672 -0.2710 -0.1537  0.0540
 7704SOL    HW134745   0.405   2.379   4.617 -0.6395 -1.7399 -2.2517
 7704SOL    HW234746   0.407   2.340   4.758 -1.3319  0.8118 -0.2281
 7705SOL     OW34747   0.767   1.747   8.471  0.9257 -0.4055 -0.0605
 7705SOL    HW134748   0.702   1.677   8.473  1.6561 -1.1149 -1.3974
 7705SOL    HW234749   0.785   1.743   8.377  1.0528  0.5564 -0.0784
 7706SOL     OW34750   0.779   1.631   1.835  0.5086  0.2376 -0.0075
 7706SOL    HW134751   0.774   1.537   1.853  0.4455  0.2512  0.0473
 7706SOL    HW234752   0.827   1.658   1.913  0.4738  0.4069 -0.0442
 7707SOL     OW34753   1.400   4.689   5.190 -0.0290  0.3157  0.2061
 7707SOL    HW134754   1.375   4.598   5.175 -1.6388  0.7786  0.0104
 7707SOL    HW234755   1.377   4.723   5.103  0.1572 -0.6951 -0.2357
 7708SOL     OW34756   4.710   0.366  10.825 -0.0166  0.1880  0.4159
 7708SOL    HW134757   0.026   0.315  10.891  1.3235  0.4277 -0.3554
 7708SOL    HW234758   0.018   0.448  10.854  2.4554 -1.5012  1.9083
 7709SOL     OW34759   2.679   1.127   7.975  0.3437 -0.0438  0.0388
 7709SOL    HW134760   2.703   1.217   7.954 -0.5616 -0.1754 -1.5370
 7709SOL    HW234761   2.679   1.137   8.070  2.8702  0.2146  0.0135
 7710SOL     OW34762   4.362   4.250   8.698  0.5704 -0.0429  0.2154
 7710SOL    HW134763   4.391   4.294   8.618  1.6678 -2.3125 -0.6485
 7710SOL    HW234764   4.314   4.317   8.746  1.7538  1.8758 -1.2683
 7711SOL     OW34765   0.794   2.508  15.186 -0.4349  0.0438 -0.1105
 7711SOL    HW134766   0.797   2.413  15.171  0.9486  0.3683 -1.9439
 7711SOL    HW234767   0.739   2.533  15.259 -0.6749 -1.6691  0.2886
 7712SOL     OW34768   2.894   4.377  13.165  0.8498 -0.0315  0.2910
 7712SOL    HW134769   2.990   4.373  13.171  0.7896  0.1879  1.4159
 7712SOL    HW234770   2.888   4.473  13.165 -1.3518 -0.1840 -0.3769
 7713SOL     OW34771   1.547   3.755  15.650 -0.4493 -0.8296  0.4835
 7713SOL    HW134772   1.619   3.705  15.612 -1.2075 -2.0318  0.6305
 7713SOL    HW234773   1.582   3.842  15.667  0.9124 -1.1316 -0.7902
 7714SOL     OW34774   2.425   1.763   1.072  0.6011 -0.1118  0.0444
 7714SOL    HW134775   2.423   1.754   0.977 -0.6196 -0.4965  0.1139
 7714SOL    HW234776   2.511   1.803   1.087  1.0458 -0.3305 -1.9649
 7715SOL     OW34777   1.589   3.327   1.760  0.2995  0.6917 -0.5380
 7715SOL    HW134778   1.563   3.237   1.781  2.4342  0.7901  2.5231
 7715SOL    HW234779   1.663   3.311   1.701  2.0220  2.7801  1.0492
 7716SOL     OW34780   3.521   2.284   2.585  0.4039  0.2302 -0.3935
 7716SOL    HW134781   3.529   2.357   2.646 -3.3453  0.4771 -0.2051
 7716SOL    HW234782   3.603   2.237   2.604  0.0224 -0.0341  0.5932
 7717SOL     OW34783   2.800   0.266   4.331  0.1223  0.1123  0.6766
 7717SOL    HW134784   2.747   0.345   4.319 -0.3072 -0.3294 -0.3304
 7717SOL    HW234785   2.856   0.269   4.254  0.5637 -1.2002  0.9530
 7718SOL     OW34786   3.501   0.250   2.625  0.9562 -0.1505 -0.8726
 7718SOL    HW134787   3.463   0.328   2.667  1.6208  1.4997 -3.3389
 7718SOL    HW234788   3.463   0.256   2.538  1.5884  3.6721 -0.8833
 7719SOL     OW34789   4.240   3.099   4.915 -0.1722  0.1151  0.3813
 7719SOL    HW134790   4.276   3.011   4.909  1.2928  0.6656  1.0872
 7719SOL    HW234791   4.298   3.146   4.854  0.0511 -0.2411  0.3177
 7720SOL     OW34792   0.427   4.313  17.371  0.4500 -0.1200  0.6832
 7720SOL    HW134793   0.403   4.404  17.389 -0.5221 -0.5315  1.4995
 7720SOL    HW234794   0.365   4.271  17.432 -0.6278  0.4589 -0.0108
 7721SOL     OW34795   3.300   2.125   2.960  0.0514 -0.0077 -0.3123
 7721SOL    HW134796   3.381   2.116   3.009 -2.1427  0.1316  3.3041
 7721SOL    HW234797   3.326   2.086   2.876  3.3322 -0.2697  0.8362
 7722SOL     OW34798   3.724   1.854   5.588 -0.2821  0.4200 -0.4372
 7722SOL    HW134799   3.811   1.854   5.627 -0.2198  1.5306 -0.5790
 7722SOL    HW234800   3.663   1.900   5.645  0.5111  1.2039 -0.2302
 7723SOL     OW34801   0.138   2.647  15.698 -0.6588 -0.3461 -0.6782
 7723SOL    HW134802   0.140   2.570  15.754 -2.0745 -0.2140 -0.4530
 7723SOL    HW234803   0.046   2.647  15.674 -0.9090  2.5122  0.2732
 7724SOL     OW34804   0.216   1.121   7.626  0.2143 -0.3202 -0.1760
 7724SOL    HW134805   0.258   1.041   7.594  1.2798  0.3186 -0.3732
 7724SOL    HW234806   0.296   1.168   7.649  1.2194 -1.8906 -0.4507
 7725SOL     OW34807   0.420   1.514   2.815  0.5833 -0.3075  0.1386
 7725SOL    HW134808   0.343   1.469   2.849 -2.2853  2.4459 -2.7135
 7725SOL    HW234809   0.389   1.549   2.731 -0.2860 -1.7688 -0.1551
 7726SOL     OW34810   3.119   1.183   2.619  0.2446 -0.0058  0.0005
 7726SOL    HW134811   3.155   1.098   2.594 -0.0788 -0.4554  1.0558
 7726SOL    HW234812   3.186   1.229   2.670 -0.8653  1.1280  0.4348
 7727SOL     OW34813   2.803   4.222   1.232 -0.7893  0.5437  0.0275
 7727SOL    HW134814   2.882   4.200   1.182 -1.5889 -0.1623 -0.9292
 7727SOL    HW234815   2.727   4.191   1.182 -1.2692  0.1902  0.9857
 7728SOL     OW34816   4.475   0.273  11.278  0.3401 -0.3664  0.0555
 7728SOL    HW134817   4.566   0.293  11.256  0.2364  0.9186  0.7767
 7728SOL    HW234818   4.429   0.314  11.205  1.2821 -0.7471 -0.7511
 7729SOL     OW34819   1.883   4.638   0.054 -0.7459  0.3662  0.0378
 7729SOL    HW134820   1.913   4.552   0.024  1.8878  1.0208  0.7249
 7729SOL    HW234821   1.960   4.694   0.068 -0.2757 -0.0323 -0.9792
 7730SOL     OW34822   2.609   2.405  14.742  0.3212  0.2086  0.0997
 7730SOL    HW134823   2.556   2.328  14.722  2.9552 -1.6910  0.4342
 7730SOL    HW234824   2.692   2.361  14.762 -0.4936 -0.2016  2.5451
 7731SOL     OW34825   1.717   3.445   5.892  0.4824 -0.2687 -0.1133
 7731SOL    HW134826   1.636   3.434   5.842 -0.6638  1.3172  1.3633
 7731SOL    HW234827   1.703   3.394   5.971  2.1318  1.7291  1.4678
 7732SOL     OW34828   1.107   4.254  12.152  0.2127  0.2089  0.1076
 7732SOL    HW134829   1.168   4.215  12.215  0.5960  1.8551  0.7651
 7732SOL    HW234830   1.167   4.261  12.079 -0.3514  0.5090 -0.3272
 7733SOL     OW34831   4.083   1.656  15.587 -0.0299  0.3375 -0.3483
 7733SOL    HW134832   4.040   1.672  15.503  1.4008 -0.5206 -1.2461
 7733SOL    HW234833   4.161   1.705  15.560  0.7213 -1.1478 -0.8971
 7734SOL     OW34834   0.940   0.154   2.573 -0.1908 -0.6194 -0.4553
 7734SOL    HW134835   0.948   0.112   2.487 -1.6253  1.3965 -1.5548
 7734SOL    HW234836   0.949   0.246   2.550 -1.6472 -0.2367  0.4538
 7735SOL     OW34837   4.178   1.713   2.273  0.5074  0.4407  0.3721
 7735SOL    HW134838   4.217   1.656   2.339  0.7279 -1.9887 -1.8648
 7735SOL    HW234839   4.108   1.748   2.330  1.5925 -0.6640  2.3837
 7736SOL     OW34840   4.337   0.578   8.793  0.0769  0.2605  0.5136
 7736SOL    HW134841   4.286   0.538   8.723  0.9176  1.6528 -0.8811
 7736SOL    HW234842   4.325   0.672   8.780  0.2008  0.0973 -0.7778
 7737SOL     OW34843   3.724   3.961  14.076 -0.9844 -0.3065  0.1286
 7737SOL    HW134844   3.813   3.948  14.044 -0.2503 -0.3784  2.1815
 7737SOL    HW234845   3.705   4.048  14.041 -1.8880 -0.3735  0.4599
 7738SOL     OW34846   2.219   1.222   1.609  0.4998  0.6430  0.5353
 7738SOL    HW134847   2.216   1.220   1.514 -0.9623 -1.6514  0.6469
 7738SOL    HW234848   2.306   1.260   1.624  0.5469  0.6727  0.1777
 7739SOL     OW34849   3.718   3.330   7.400  0.5108 -0.0268 -0.3737
 7739SOL    HW134850   3.763   3.414   7.394  0.2427  0.1793  0.4915
 7739SOL    HW234851   3.737   3.282   7.319 -1.3482 -0.6486 -0.4454
 7740SOL     OW34852   0.281   4.494  15.326  1.1040 -0.6353 -0.5734
 7740SOL    HW134853   0.304   4.529  15.240 -0.8106 -0.1240 -0.8746
 7740SOL    HW234854   0.293   4.574  15.377  0.3337 -0.2083 -1.0620
 7741SOL     OW34855   0.050   3.252   8.688  0.1142 -0.3502 -0.0569
 7741SOL    HW134856   0.003   3.247   8.605  0.1623  0.2200 -0.1165
 7741SOL    HW234857   4.705   3.264   8.745  1.6979  0.8260  1.8127
 7742SOL     OW34858   0.113   0.907   6.325 -0.0268 -0.3021 -0.3781
 7742SOL    HW134859   0.163   0.909   6.243  0.7778 -1.2222  0.0926
 7742SOL    HW234860   0.043   0.972   6.320 -0.1995 -0.5428 -1.0846
 7743SOL     OW34861   3.022   4.215  11.424  0.6495 -0.2411  0.5528
 7743SOL    HW134862   3.070   4.288  11.462 -0.6656  1.5458 -1.2231
 7743SOL    HW234863   2.929   4.232  11.435  0.7636 -0.0375  1.1889
 7744SOL     OW34864   4.311   2.087   6.233  0.2710 -0.3415  0.5648
 7744SOL    HW134865   4.283   2.038   6.156 -0.3037  1.2679 -0.2514
 7744SOL    HW234866   4.371   2.023   6.270  2.3816  1.9246  1.0449
 7745SOL     OW34867   1.158   0.010   0.982 -0.1852  0.0758 -0.0112
 7745SOL    HW134868   1.083   0.069   0.988 -2.1070 -2.0766 -2.4493
 7745SOL    HW234869   1.133   4.678   1.049  0.7052 -3.8844 -3.4217
 7746SOL     OW34870   1.058   1.494   2.337 -0.1345  0.2903 -0.0925
 7746SOL    HW134871   1.048   1.509   2.243  1.1878 -0.8550 -0.4171
 7746SOL    HW234872   1.018   1.571   2.378 -1.4820 -0.8960  0.7978
 7747SOL     OW34873   4.476   0.605   9.042  0.1736  0.4927 -0.4767
 7747SOL    HW134874   4.451   0.584   8.952  0.8659 -1.1677 -0.2918
 7747SOL    HW234875   4.569   0.619   9.026  0.4252  1.1440  1.5732
 7748SOL     OW34876   2.375   3.143   6.865 -0.1858  0.1357  0.1475
 7748SOL    HW134877   2.451   3.086   6.870 -1.7952 -2.1106 -1.0757
 7748SOL    HW234878   2.384   3.205   6.938  0.4075 -1.2205  1.2119
 7749SOL     OW34879   4.080   2.887   2.625  0.3609  0.4228 -0.0650
 7749SOL    HW134880   4.109   2.834   2.700  1.6816 -0.4497 -1.1904
 7749SOL    HW234881   4.023   2.821   2.586  0.7238  0.8405 -1.3047
 7750SOL     OW34882   2.272   2.486   8.749 -0.4540 -0.4089  0.6783
 7750SOL    HW134883   2.183   2.456   8.768 -1.3619  1.2026 -1.0824
 7750SOL    HW234884   2.314   2.480   8.835 -0.5093 -0.1502  0.7239
 7751SOL     OW34885   1.668   2.440   1.713  0.2189  0.1394 -0.1361
 7751SOL    HW134886   1.641   2.421   1.803 -0.4200  0.5204 -0.2477
 7751SOL    HW234887   1.607   2.384   1.665  0.6838  1.0888 -1.8403
 7752SOL     OW34888   4.070   1.484   9.053 -0.4665  0.0219  0.0796
 7752SOL    HW134889   4.061   1.474   9.148 -3.3527  2.5565  0.0953
 7752SOL    HW234890   4.057   1.395   9.020  3.8072 -0.7018  0.3743
 7753SOL     OW34891   0.232   2.893   8.877  0.3786  0.2008 -0.0845
 7753SOL    HW134892   0.136   2.899   8.872  0.3246 -0.8830 -0.3929
 7753SOL    HW234893   0.248   2.801   8.857 -1.1871  0.1066 -0.9352
 7754SOL     OW34894   2.991   3.821   9.362 -0.7275  0.2667  0.5585
 7754SOL    HW134895   2.928   3.761   9.402  0.4777 -1.1141  0.3907
 7754SOL    HW234896   2.957   3.899   9.407  1.3340  1.2997  0.3576
 7755SOL     OW34897   4.721   2.503   1.265  0.1458 -0.5793  0.3244
 7755SOL    HW134898   4.713   2.515   1.170 -1.8037 -0.9092  0.4407
 7755SOL    HW234899   4.627   2.499   1.282  0.0500 -0.0406 -0.0497
 7756SOL     OW34900   2.710   1.370   6.233 -0.0331 -0.2126  0.0916
 7756SOL    HW134901   2.679   1.343   6.147 -0.7862  0.6805  0.0784
 7756SOL    HW234902   2.774   1.436   6.205  1.0516 -1.3826 -0.1766
 7757SOL     OW34903   0.483   4.555   2.370 -0.3832  0.3471  0.6752
 7757SOL    HW134904   0.458   4.589   2.284  0.1130 -0.3108  0.2696
 7757SOL    HW234905   0.397   4.525   2.398 -0.1563 -0.4507  0.5162
 7758SOL     OW34906   4.674   0.974   1.870 -0.0557  0.0156 -0.5310
 7758SOL    HW134907   4.678   1.065   1.900  0.1658  0.3288 -1.5254
 7758SOL    HW234908   4.625   0.983   1.788  1.3560  2.9322 -1.0280
 7759SOL     OW34909   2.197   3.822   3.338 -0.1733 -0.2055 -0.0503
 7759SOL    HW134910   2.191   3.918   3.340  1.7722 -0.0944  0.4925
 7759SOL    HW234911   2.153   3.789   3.260 -2.0721  1.3600  0.3729
 7760SOL     OW34912   2.447   1.170   7.487 -0.4156  0.3405 -0.0442
 7760SOL    HW134913   2.377   1.207   7.541 -1.2803  0.7233 -1.4210
 7760SOL    HW234914   2.461   1.091   7.538  1.4762 -0.3134 -1.5899
 7761SOL     OW34915   1.694   1.092   2.646  0.1392  0.0183 -0.1173
 7761SOL    HW134916   1.612   1.128   2.612 -0.4289 -1.6851 -0.5489
 7761SOL    HW234917   1.757   1.141   2.594  1.2144  0.2473  1.4235
 7762SOL     OW34918   4.321   3.889   6.955  0.5524 -0.7015 -0.5532
 7762SOL    HW134919   4.250   3.877   7.018  0.5133 -0.6526 -0.5872
 7762SOL    HW234920   4.288   3.973   6.920 -1.6155 -0.8949  1.0315
 7763SOL     OW34921   4.542   1.963   1.906  0.3264 -0.3817  0.6844
 7763SOL    HW134922   4.635   1.971   1.927 -0.0076 -2.7471  3.0583
 7763SOL    HW234923   4.529   1.878   1.949  1.5320 -1.7663 -1.6268
 7764SOL     OW34924   0.348   0.626   1.342  0.6173 -0.4808  0.6239
 7764SOL    HW134925   0.301   0.621   1.425 -0.5024 -0.1929  0.0075
 7764SOL    HW234926   0.435   0.624   1.382  0.1755 -1.3955  1.5409
 7765SOL     OW34927   1.461   2.630   3.044  0.1047 -0.3162 -0.7139
 7765SOL    HW134928   1.403   2.705   3.035  1.8093  1.0595 -0.1797
 7765SOL    HW234929   1.417   2.563   2.992  0.8440  0.0598 -1.8413
 7766SOL     OW34930   2.616   2.195   4.667 -0.4133 -0.2021 -0.2970
 7766SOL    HW134931   2.542   2.172   4.723  1.3921 -0.0724  2.1626
 7766SOL    HW234932   2.599   2.286   4.642  2.9374  0.9959  1.6859
 7767SOL     OW34933   0.719   0.114   2.177 -0.5911 -0.6296 -0.2955
 7767SOL    HW134934   0.708   0.019   2.169  1.4137 -0.8493 -0.3247
 7767SOL    HW234935   0.764   0.136   2.096  0.3016  0.9363  0.6483
 7768SOL     OW34936   2.763   0.898  12.580  0.5657  0.4724 -0.4836
 7768SOL    HW134937   2.849   0.866  12.551  1.1407  0.8700  0.7697
 7768SOL    HW234938   2.779   0.974  12.636  1.9032 -0.5474  0.5087
 7769SOL     OW34939   3.811   4.591   5.392  0.6180  0.0390  0.0710
 7769SOL    HW134940   3.902   4.561   5.397  0.7059 -0.1388 -2.3813
 7769SOL    HW234941   3.766   4.568   5.473  2.3353 -2.2599  0.3700
 7770SOL     OW34942   1.789   3.916   8.372  0.1730  0.2162  0.1076
 7770SOL    HW134943   1.708   3.966   8.370  1.0966  1.7022 -0.1041
 7770SOL    HW234944   1.772   3.854   8.301 -1.7099  0.9197 -0.0351
 7771SOL     OW34945   4.489   2.314  16.910 -0.1716  0.6457 -0.1045
 7771SOL    HW134946   4.550   2.346  16.977 -1.4908 -0.4188  1.5737
 7771SOL    HW234947   4.402   2.327  16.947 -0.2598  4.3989 -1.6109
 7772SOL     OW34948   1.888   1.223  14.198  0.0972  0.1130  0.6639
 7772SOL    HW134949   1.865   1.296  14.141 -0.5227  0.5633  1.4901
 7772SOL    HW234950   1.803   1.184  14.218  0.5942 -0.7847  1.0382
 7773SOL     OW34951   4.503   3.724   3.407  0.3351  0.5291  0.3895
 7773SOL    HW134952   4.569   3.663   3.438  0.6968  1.4246  1.4157
 7773SOL    HW234953   4.543   3.782   3.343 -1.5384  0.2658 -1.0236
 7774SOL     OW34954   3.710   0.741   3.101 -0.9490 -0.0626  0.2200
 7774SOL    HW134955   3.747   0.785   3.024  0.3050 -1.5547 -0.0217
 7774SOL    HW234956   3.719   0.649   3.077 -1.1238 -0.0484  0.1041
 7775SOL     OW34957   0.977   3.239   8.188 -0.3524  0.9731 -0.0349
 7775SOL    HW134958   1.052   3.298   8.176  0.8021 -0.1280  1.8120
 7775SOL    HW234959   0.954   3.246   8.281  1.7594  1.2706  0.4791
 7776SOL     OW34960   4.383   3.344   2.515 -0.3094 -0.2275 -0.1781
 7776SOL    HW134961   4.437   3.315   2.589 -0.2153  2.0199  0.6195
 7776SOL    HW234962   4.435   3.324   2.437 -0.3249  1.9145 -0.7468
 7777SOL     OW34963   3.975   2.005   9.017 -0.4431 -0.7548  0.0462
 7777SOL    HW134964   3.946   2.095   8.998 -1.5452 -1.6109 -2.3189
 7777SOL    HW234965   3.988   1.973   8.927 -1.8822 -1.8443  0.2255
 7778SOL     OW34966   0.016   0.483   3.040  0.1733 -0.1742  0.0257
 7778SOL    HW134967   0.055   0.401   3.010 -2.5948 -1.3326 -0.4413
 7778SOL    HW234968   4.716   0.517   2.956  1.0294  1.0169  0.1921
 7779SOL     OW34969   3.373   3.713   3.234  0.2104  0.1011  0.1624
 7779SOL    HW134970   3.433   3.668   3.174 -0.3135  0.2742 -0.5038
 7779SOL    HW234971   3.420   3.794   3.252  1.7376 -0.6195 -0.5745
 7780SOL     OW34972   3.245   1.091  11.568 -0.0724 -0.2167  0.8956
 7780SOL    HW134973   3.255   1.108  11.475 -0.4530 -0.6915  0.7669
 7780SOL    HW234974   3.155   1.125  11.574 -0.2050 -0.3471 -0.4883
 7781SOL     OW34975   0.624   2.422   1.861  0.4902  0.0725  0.3627
 7781SOL    HW134976   0.638   2.468   1.778 -2.3943 -1.3531 -0.9150
 7781SOL    HW234977   0.532   2.400   1.844  0.9036  0.6172 -2.5540
 7782SOL     OW34978   0.524   0.323   9.859 -0.2907 -0.4946  0.5146
 7782SOL    HW134979   0.456   0.270   9.817 -0.9503  0.3557  0.4985
 7782SOL    HW234980   0.541   0.268   9.935  2.3633  0.1980  0.3962
 7783SOL     OW34981   0.838   3.171   5.563  0.0291  0.6367 -0.4333
 7783SOL    HW134982   0.923   3.214   5.554  0.0527  0.5285 -0.7275
 7783SOL    HW234983   0.855   3.102   5.627  2.4487 -0.6338 -2.4168
 7784SOL     OW34984   0.411   2.865   7.089 -0.0129  0.0483 -0.2452
 7784SOL    HW134985   0.502   2.837   7.103  0.0591  0.8486  0.9045
 7784SOL    HW234986   0.380   2.857   7.180  2.4816 -2.4777  0.3879
 7785SOL     OW34987   2.169   0.336   3.440 -0.5164  0.2371  0.3268
 7785SOL    HW134988   2.255   0.311   3.407 -1.0596 -0.2357 -0.7329
 7785SOL    HW234989   2.119   0.254   3.436  0.5598 -0.4838  1.5831
 7786SOL     OW34990   1.041   2.701   8.847  0.2847  0.0481 -0.4511
 7786SOL    HW134991   1.126   2.664   8.870 -0.5688  0.4393  3.4173
 7786SOL    HW234992   1.072   2.783   8.808 -1.4733  1.6295  1.4303
 7787SOL     OW34993   3.346   3.456   7.484  0.2555  0.1934 -0.4507
 7787SOL    HW134994   3.337   3.487   7.394 -2.8394 -0.2583 -0.2950
 7787SOL    HW234995   3.262   3.485   7.520  0.3614 -1.2631  0.9962
 7788SOL     OW34996   4.701   0.696   6.038 -0.1956  0.0768  0.1312
 7788SOL    HW134997   4.611   0.681   6.010 -0.1571 -1.4397  0.8479
 7788SOL    HW234998   4.701   0.683   6.132 -2.0513 -0.3680  0.0662
 7789SOL     OW34999   3.224   4.355   6.079  0.6483  1.0182 -0.3163
 7789SOL    HW135000   3.239   4.425   6.142  1.8308  0.6922 -0.2453
 7789SOL    HW235001   3.187   4.404   6.005 -1.3483 -0.2057 -0.1203
 7790SOL     OW35002   4.113   0.317   5.954 -0.0387  0.2027 -0.0334
 7790SOL    HW135003   4.135   0.273   6.037  0.4340 -1.8510 -1.2579
 7790SOL    HW235004   4.197   0.349   5.921 -0.6085  1.4217 -0.3018
 7791SOL     OW35005   3.946   4.650   3.118 -0.1178 -0.2910  0.1533
 7791SOL    HW135006   3.913   0.006   3.139 -1.6129 -0.8143  0.0024
 7791SOL    HW235007   3.874   4.592   3.143 -1.8342  0.6940 -2.4916
 7792SOL     OW35008   0.765   2.569   9.897 -0.1823  0.0618 -0.1031
 7792SOL    HW135009   0.829   2.604   9.835  1.2128 -1.4341  0.5212
 7792SOL    HW235010   0.716   2.510   9.839 -0.5521 -1.2538  1.5625
 7793SOL     OW35011   3.109   2.294  17.005  0.3947  0.2956  0.4263
 7793SOL    HW135012   3.184   2.327  17.054  1.1600 -1.3034  0.3131
 7793SOL    HW235013   3.094   2.210  17.048 -0.1989  0.6556  0.9166
 7794SOL     OW35014   2.162   4.276  14.214  0.1346 -0.1568 -0.1315
 7794SOL    HW135015   2.104   4.207  14.184  1.6936 -1.4353 -0.2086
 7794SOL    HW235016   2.167   4.254  14.306  0.7412  1.2874  0.1872
 7795SOL     OW35017   4.224   1.617   7.347  0.2862  0.1582  0.0034
 7795SOL    HW135018   4.265   1.704   7.347 -1.4926  0.9942  1.3574
 7795SOL    HW235019   4.301   1.562   7.363  2.0708  2.4246 -0.7029
 7796SOL     OW35020   1.467   3.798   2.900  0.0697 -0.2803  0.1078
 7796SOL    HW135021   1.553   3.795   2.941 -0.9477  0.1471  2.2531
 7796SOL    HW235022   1.479   3.744   2.822  0.2103 -0.6985  0.4217
 7797SOL     OW35023   3.067   2.706   3.705 -0.1031 -0.2073  0.1201
 7797SOL    HW135024   3.055   2.786   3.653  1.1491 -1.2695 -1.8305
 7797SOL    HW235025   3.121   2.653   3.647 -1.4687  0.3170 -1.6202
 7798SOL     OW35026   2.862   3.760   2.720  0.6613 -0.1540 -0.6555
 7798SOL    HW135027   2.893   3.707   2.794  0.7360  3.2430  1.7487
 7798SOL    HW235028   2.933   3.764   2.656 -1.4421  1.4127 -2.9256
 7799SOL     OW35029   2.745   4.683   1.350 -0.0447  0.4494  0.3881
 7799SOL    HW135030   2.718   0.028   1.401 -0.0394  0.3057  0.6069
 7799SOL    HW235031   2.754   4.619   1.420 -1.5271 -0.3603 -0.1535
 7800SOL     OW35032   0.430   2.368  15.843 -0.4188 -0.1243  0.0015
 7800SOL    HW135033   0.459   2.419  15.919  1.1415 -0.6337 -0.2548
 7800SOL    HW235034   0.343   2.406  15.832 -0.7042 -0.2612  1.7938
 7801SOL     OW35035   2.576   0.082   5.419  0.3899 -0.1901 -0.6792
 7801SOL    HW135036   2.626   0.161   5.395 -0.1552  0.3597  0.0354
 7801SOL    HW235037   2.486   0.112   5.418  0.1276 -0.9547  0.8394
 7802SOL     OW35038   2.004   1.773  15.758  0.0208  0.1022  0.3794
 7802SOL    HW135039   2.074   1.776  15.693 -0.9014 -0.1979 -0.6287
 7802SOL    HW235040   2.050   1.807  15.835 -0.7573 -2.4917  2.0014
 7803SOL     OW35041   0.200   3.766  14.369 -0.1781 -0.3901 -0.1851
 7803SOL    HW135042   0.157   3.769  14.283  0.1033 -1.5803 -0.3713
 7803SOL    HW235043   0.257   3.689  14.370  2.6222  1.7133 -0.7442
 7804SOL     OW35044   1.108   4.120  10.017 -0.2659 -0.1535 -0.2848
 7804SOL    HW135045   1.150   4.035  10.029 -1.4719 -0.5185  1.3783
 7804SOL    HW235046   1.028   4.107   9.965 -0.0901  0.8060 -0.8066
 7805SOL     OW35047   2.871   0.632   7.885  0.1512 -0.0311  0.2219
 7805SOL    HW135048   2.820   0.711   7.904  0.7949  0.0588  1.5871
 7805SOL    HW235049   2.889   0.593   7.971  0.0620  1.7031  1.0200
 7806SOL     OW35050   4.092   3.584   5.513  0.6070 -0.4104  0.0564
 7806SOL    HW135051   4.020   3.645   5.499  0.0670 -1.0175  0.1820
 7806SOL    HW235052   4.128   3.620   5.594  0.9767  0.8931 -0.6917
 7807SOL     OW35053   1.742   0.955  11.928  0.4310 -0.4112 -0.5584
 7807SOL    HW135054   1.835   0.946  11.947  0.5342 -0.1705 -0.9343
 7807SOL    HW235055   1.752   1.013  11.852 -0.7341  0.6181  0.0693
 7808SOL     OW35056   0.868   0.297  14.680 -0.3198 -0.4718 -0.1547
 7808SOL    HW135057   0.896   0.221  14.731  0.6522  0.1968  0.3182
 7808SOL    HW235058   0.947   0.302  14.625 -0.9613  1.1799 -0.9351
 7809SOL     OW35059   0.811   1.353  16.661 -0.4777  0.7072 -1.0185
 7809SOL    HW135060   0.800   1.407  16.583  0.3976  0.7159 -1.1395
 7809SOL    HW235061   0.906   1.363  16.667 -0.1143 -2.3341 -1.6234
 7810SOL     OW35062   4.225   4.448  17.289  0.3328  0.3419  0.0971
 7810SOL    HW135063   4.303   4.456  17.344  0.2085  0.3326  0.2761
 7810SOL    HW235064   4.266   4.408  17.213 -0.1351 -1.1552  0.6466
 7811SOL     OW35065   0.650   2.612   5.894  0.6906 -0.0745 -0.1230
 7811SOL    HW135066   0.697   2.569   5.822  2.1617  2.0386 -0.4514
 7811SOL    HW235067   0.560   2.614   5.862  0.3656  0.9576  0.8672
 7812SOL     OW35068   2.454   4.353   5.111  0.2600  0.5969 -0.6568
 7812SOL    HW135069   2.381   4.413   5.096  0.0821  0.1348 -1.6204
 7812SOL    HW235070   2.493   4.338   5.025 -1.2276  0.7327 -1.3470
 7813SOL     OW35071   3.061   4.024  13.096 -0.3093  0.0698 -0.3076
 7813SOL    HW135072   3.135   4.008  13.038 -2.3089 -0.6587 -2.6568
 7813SOL    HW235073   3.019   4.091  13.043 -1.2916  0.4914  0.9851
 7814SOL     OW35074   4.321   1.132   5.409 -0.0148 -0.0621  0.1038
 7814SOL    HW135075   4.229   1.110   5.423 -0.3316  0.4388 -1.1894
 7814SOL    HW235076   4.324   1.150   5.315 -0.5044 -0.3768  0.0291
 7815SOL     OW35077   0.611   2.488   3.803  0.6742  0.0218  0.1241
 7815SOL    HW135078   0.615   2.401   3.763 -0.4034  0.6856 -1.4480
 7815SOL    HW235079   0.647   2.475   3.890 -1.0471  0.4846  0.9166
 7816SOL     OW35080   0.042   3.088   2.136 -0.3463 -0.2356 -0.0538
 7816SOL    HW135081   0.031   3.063   2.044  0.1765 -0.0851 -0.1549
 7816SOL    HW235082   0.124   3.137   2.135 -0.8549  0.6071 -0.6127
 7817SOL     OW35083   1.892   1.161   8.959  0.4827  0.5877 -0.1452
 7817SOL    HW135084   1.833   1.210   8.901 -0.6516 -1.5888 -0.8064
 7817SOL    HW235085   1.847   1.145   9.042  0.5744  2.4506  0.2738
 7818SOL     OW35086   3.378   0.062   9.139  0.3047 -0.5593 -0.2928
 7818SOL    HW135087   3.461   0.016   9.155  0.0314 -0.6400  0.8429
 7818SOL    HW235088   3.330   4.710   9.137 -1.7270  0.5718  1.5642
 7819SOL     OW35089   4.417   4.471   7.679 -0.3480 -0.1540  0.0045
 7819SOL    HW135090   4.479   4.508   7.616  0.8813 -1.2786  0.5491
 7819SOL    HW235091   4.477   4.447   7.751 -0.3458 -0.0071  0.0506
 7820SOL     OW35092   4.485   0.752  16.770  0.0025 -0.3833  0.5068
 7820SOL    HW135093   4.470   0.774  16.862 -0.0384  1.6435  0.0188
 7820SOL    HW235094   4.400   0.772  16.732  0.9134  0.1822 -1.2486
 7821SOL     OW35095   3.625   0.760  17.412  0.5802 -0.5231 -0.4013
 7821SOL    HW135096   3.621   0.709  17.331 -1.6243  0.5779 -0.9824
 7821SOL    HW235097   3.622   0.851  17.383 -0.2640 -0.2513  0.5231
 7822SOL     OW35098   3.614   1.038   4.786 -0.6045 -0.1852  0.2555
 7822SOL    HW135099   3.543   1.101   4.797 -1.1127 -0.5032 -1.3305
 7822SOL    HW235100   3.692   1.070   4.831 -0.6607 -1.3998  1.2401
 7823SOL     OW35101   2.162   3.430   2.878  0.1578 -0.1187  0.4903
 7823SOL    HW135102   2.169   3.401   2.969 -4.5251 -0.2739  0.8236
 7823SOL    HW235103   2.187   3.522   2.877 -1.0701  0.1779 -2.6268
 7824SOL     OW35104   4.690   0.755   2.436  0.1651 -0.1417  0.1445
 7824SOL    HW135105   0.052   0.779   2.435 -0.0473  0.6178 -1.5066
 7824SOL    HW235106   4.672   0.752   2.342  0.9150  0.9324 -0.0382
 7825SOL     OW35107   4.717   0.549   4.880 -0.6006 -0.7491 -0.2354
 7825SOL    HW135108   0.068   0.528   4.836 -0.3877  1.7693 -1.0405
 7825SOL    HW235109   4.696   0.639   4.856  3.1226  0.3568  0.5345
 7826SOL     OW35110   1.991   0.024  17.357  0.2993  0.5130 -0.2541
 7826SOL    HW135111   1.940   0.100  17.327  1.4931  1.1517 -0.6597
 7826SOL    HW235112   1.926   4.696  17.395 -0.2305  0.5706 -1.0850
 7827SOL     OW35113   0.432   3.329  11.644  0.2903 -0.0978  0.2972
 7827SOL    HW135114   0.438   3.410  11.594  0.0689 -0.1109  0.2494
 7827SOL    HW235115   0.520   3.308  11.675 -0.1575 -1.4726  0.6450
 7828SOL     OW35116   2.149   2.940   8.342 -0.2827  0.5418  0.0471
 7828SOL    HW135117   2.096   3.010   8.382 -2.5308 -0.6521 -0.8200
 7828SOL    HW235118   2.223   2.953   8.402  0.1386  0.1280 -0.3922
 7829SOL     OW35119   0.822   0.330   5.791 -0.3423  0.3379 -0.1217
 7829SOL    HW135120   0.812   0.301   5.700 -0.9242  1.7103 -0.4988
 7829SOL    HW235121   0.789   0.420   5.793 -0.1586  0.3882  0.5416
 7830SOL     OW35122   3.910   1.105  10.323  0.5188 -0.8224  0.5076
 7830SOL    HW135123   3.978   1.038  10.315 -0.2239 -1.5257  0.0969
 7830SOL    HW235124   3.868   1.082  10.406 -2.1428 -0.0014 -0.6347
 7831SOL     OW35125   3.631   2.857   2.376  0.2466 -0.1121  0.2534
 7831SOL    HW135126   3.552   2.898   2.413  0.4037  0.3943  0.0271
 7831SOL    HW235127   3.652   2.920   2.307  2.0667  0.5695  1.4472
 7832SOL     OW35128   3.884   3.622  15.201  0.2036 -0.2878 -0.1424
 7832SOL    HW135129   3.875   3.634  15.106 -2.0660  2.2975  0.3943
 7832SOL    HW235130   3.973   3.587  15.199 -0.6253 -2.2952 -0.8292
 7833SOL     OW35131   0.481   2.733   3.766 -0.2851  0.1447 -0.5911
 7833SOL    HW135132   0.528   2.653   3.791 -0.5586  0.5055  1.0488
 7833SOL    HW235133   0.533   2.803   3.805 -1.9865  0.2096  1.5502
 7834SOL     OW35134   1.263   1.293  17.555 -0.3402 -0.3992 -0.3883
 7834SOL    HW135135   1.292   1.203  17.565  0.4095 -0.0986  0.1913
 7834SOL    HW235136   1.271   1.309  17.649  0.0217  3.3088 -1.0504
 7835SOL     OW35137   1.767   3.753   5.986 -0.0027  0.4164 -0.6319
 7835SOL    HW135138   1.688   3.793   5.948  0.3011 -0.6841 -2.4405
 7835SOL    HW235139   1.740   3.662   5.994  1.0033  0.1981  0.1589
 7836SOL     OW35140   2.591   4.242   3.107  0.2342 -0.3501 -0.1788
 7836SOL    HW135141   2.647   4.246   3.030  1.3468  0.9878  0.6906
 7836SOL    HW235142   2.637   4.301   3.168 -1.5380  0.2387  0.6017
 7837SOL     OW35143   1.844   1.383   7.672  0.2641  0.0895 -0.8640
 7837SOL    HW135144   1.938   1.386   7.691  0.5110 -2.9699 -1.5696
 7837SOL    HW235145   1.808   1.472   7.672  0.9602  0.3736  0.6314
 7838SOL     OW35146   2.849   1.848   1.918 -0.1259 -0.5970 -0.2263
 7838SOL    HW135147   2.886   1.922   1.965 -0.1722  0.8870 -2.5340
 7838SOL    HW235148   2.909   1.818   1.850  0.0337  0.6809 -0.6396
 7839SOL     OW35149   0.101   2.378   8.421  0.0534  0.2889  0.4075
 7839SOL    HW135150   0.183   2.405   8.380 -0.2507 -0.4151 -0.6834
 7839SOL    HW235151   0.036   2.392   8.352 -0.3861 -0.3494  0.6882
 7840SOL     OW35152   3.323   4.508   6.530  0.3703  0.0606  0.8357
 7840SOL    HW135153   3.409   4.483   6.564  0.8511  0.9970  0.3222
 7840SOL    HW235154   3.324   4.603   6.540 -1.5670  0.0341  1.1532
 7841SOL     OW35155   2.098   3.906   0.126  0.4336 -0.2959  0.7402
 7841SOL    HW135156   2.189   3.900   0.153  0.7188 -2.0155 -0.5325
 7841SOL    HW235157   2.078   3.963   0.199 -1.9967  0.2679 -0.3323
 7842SOL     OW35158   4.036   4.619   7.846 -0.1524  0.1331 -0.2074
 7842SOL    HW135159   3.991   4.603   7.929 -1.3347  1.0847 -0.6747
 7842SOL    HW235160   3.982   4.693   7.819 -0.8350 -0.5588 -0.7256
 7843SOL     OW35161   2.946   4.537   6.868  0.5151  0.2048 -0.3492
 7843SOL    HW135162   2.971   4.458   6.915 -1.4500 -0.1970 -0.0250
 7843SOL    HW235163   2.897   4.500   6.795 -1.6036 -2.4240  2.4151
 7844SOL     OW35164   0.304   1.241  15.364  0.0073 -0.3141  0.3545
 7844SOL    HW135165   0.313   1.206  15.275  0.1931 -0.4888  0.4412
 7844SOL    HW235166   0.216   1.277  15.359  0.7912  1.4598 -0.7518
 7845SOL     OW35167   2.369   1.767   2.572  0.2654  0.2118 -0.4612
 7845SOL    HW135168   2.304   1.697   2.568 -0.3149  0.8898 -2.9467
 7845SOL    HW235169   2.445   1.713   2.593 -0.2104  0.3473  1.6639
 7846SOL     OW35170   3.440   4.455  15.651 -0.1929  0.1213 -0.0100
 7846SOL    HW135171   3.391   4.477  15.572  0.1012  0.5785 -0.0634
 7846SOL    HW235172   3.513   4.517  15.657 -0.7443  0.7758 -0.0088
 7847SOL     OW35173   3.931   3.996   9.713 -0.3652 -0.5973  0.3436
 7847SOL    HW135174   3.956   4.028   9.799 -0.6964  1.5521 -0.3471
 7847SOL    HW235175   3.838   3.990   9.735 -0.5799 -0.2132 -0.4531
 7848SOL     OW35176   4.323   4.260   2.135  0.3249  0.2031  0.0409
 7848SOL    HW135177   4.344   4.276   2.227  1.2133 -0.6727 -0.0150
 7848SOL    HW235178   4.248   4.319   2.126  0.4482  0.3128 -0.2904
 7849SOL     OW35179   2.343   0.143   7.724 -0.4395  0.3269  0.5231
 7849SOL    HW135180   2.364   0.051   7.737  0.9592  0.8261  1.7108
 7849SOL    HW235181   2.285   0.149   7.800 -1.0038  2.0807 -0.0403
 7850SOL     OW35182   1.583   3.330   5.423  0.3035 -0.1218  0.2568
 7850SOL    HW135183   1.582   3.265   5.493 -0.7182 -0.4145 -0.0214
 7850SOL    HW235184   1.668   3.366   5.447  0.2136 -0.0751  0.4948
 7851SOL     OW35185   1.844   3.531   4.620 -0.2241  0.4936  0.4874
 7851SOL    HW135186   1.864   3.450   4.574 -0.6285  0.2495  0.7422
 7851SOL    HW235187   1.931   3.549   4.656 -1.5258  2.3455  2.7175
 7852SOL     OW35188   2.436   0.504   1.942  0.1254 -0.5276 -0.3217
 7852SOL    HW135189   2.398   0.547   1.865 -0.3996  0.7807  0.6743
 7852SOL    HW235190   2.504   0.459   1.891 -0.5486  0.1161 -1.7891
 7853SOL     OW35191   1.374   3.214   7.396 -0.0768 -0.1642 -0.0934
 7853SOL    HW135192   1.307   3.151   7.370 -0.3067 -0.3968  1.0305
 7853SOL    HW235193   1.454   3.170   7.365  0.7650  0.5417  1.0378
 7854SOL     OW35194   3.815   3.679   9.120 -0.6225  0.2821  0.5003
 7854SOL    HW135195   3.910   3.685   9.122 -0.5268 -1.5538  1.0109
 7854SOL    HW235196   3.799   3.732   9.198 -0.2300  1.1089  0.0238
 7855SOL     OW35197   4.529   1.361   3.797  0.0066 -0.0530  0.3953
 7855SOL    HW135198   4.600   1.298   3.801  1.0627  1.0885 -0.3383
 7855SOL    HW235199   4.511   1.379   3.704  2.5617  1.5322  0.2176
 7856SOL     OW35200   0.633   2.689   8.374  0.4604 -0.6054  0.2659
 7856SOL    HW135201   0.679   2.606   8.368  0.8088 -0.2949 -1.3852
 7856SOL    HW235202   0.690   2.727   8.441  0.0969 -1.0864  0.8411
 7857SOL     OW35203   3.575   3.192   6.813 -0.2192 -0.2092  0.1792
 7857SOL    HW135204   3.517   3.256   6.772  1.0113  0.2883 -0.8015
 7857SOL    HW235205   3.624   3.243   6.877  1.0485 -2.8828  1.3767
 7858SOL     OW35206   3.174   4.407  13.187 -0.3916  0.2982 -0.0843
 7858SOL    HW135207   3.206   4.497  13.173  0.5953  0.1510  1.2864
 7858SOL    HW235208   3.216   4.366  13.111 -0.9146 -1.1675  0.4223
 7859SOL     OW35209   3.781   0.682   8.487 -0.0878  1.1629  0.2615
 7859SOL    HW135210   3.704   0.626   8.498  1.1099 -0.6901 -0.6737
 7859SOL    HW235211   3.754   0.748   8.424  0.0680  1.2121  0.2458
 7860SOL     OW35212   2.915   2.819   3.230 -0.0051 -0.0762  0.3583
 7860SOL    HW135213   2.967   2.747   3.196 -2.5850 -0.3994 -2.9378
 7860SOL    HW235214   2.951   2.809   3.318  1.0568  0.4340 -0.0111
 7861SOL     OW35215   2.603   3.545  17.580 -0.2900  0.0018 -0.5173
 7861SOL    HW135216   2.624   3.575  17.491  2.0091 -0.0925 -0.0100
 7861SOL    HW235217   2.626   3.452  17.578  1.1316  0.3140  1.6805
 7862SOL     OW35218   1.731   4.406  15.399 -0.3969 -0.2418 -0.0945
 7862SOL    HW135219   1.796   4.380  15.334  0.3108  1.0192  0.1080
 7862SOL    HW235220   1.660   4.358  15.356 -0.1643 -1.8625  1.3185
 7863SOL     OW35221   2.659   0.256  13.716  0.4296 -0.0342  0.4966
 7863SOL    HW135222   2.742   0.266  13.762  0.3824  1.0781  0.3437
 7863SOL    HW235223   2.656   0.161  13.713 -0.9212  0.0539 -1.1967
 7864SOL     OW35224   4.164   2.392  15.399 -0.6437 -0.6866  0.2048
 7864SOL    HW135225   4.155   2.303  15.433  2.6898 -0.8169  0.7717
 7864SOL    HW235226   4.169   2.434  15.486 -0.0041  1.9709 -1.1068
 7865SOL     OW35227   4.438   4.187   7.422  0.5718  0.6277 -0.3189
 7865SOL    HW135228   4.454   4.167   7.329 -1.3820 -2.0121 -0.1114
 7865SOL    HW235229   4.517   4.240   7.425 -0.2765  1.8790 -0.3957
 7866SOL     OW35230   3.007   2.778   2.887 -0.9158 -0.2360 -0.7648
 7866SOL    HW135231   3.024   2.687   2.861 -0.5189 -0.7846  1.4026
 7866SOL    HW235232   3.046   2.787   2.974  0.9368 -0.7489 -1.5513
 7867SOL     OW35233   1.032   4.142   6.107 -0.1275  0.2003  0.2720
 7867SOL    HW135234   0.980   4.182   6.037  0.0770  0.4513  0.2644
 7867SOL    HW235235   1.065   4.065   6.062 -1.4233  0.3924 -0.9906
 7868SOL     OW35236   4.587   2.435   6.554 -0.2547  0.1209  0.8874
 7868SOL    HW135237   4.553   2.456   6.641 -0.5159  0.7198  0.6441
 7868SOL    HW235238   4.672   2.394   6.568 -0.6135 -0.4028  1.5343
 7869SOL     OW35239   3.249   0.535   9.882  0.5293 -0.3307 -0.2137
 7869SOL    HW135240   3.229   0.626   9.862 -2.3933 -0.7107  1.0156
 7869SOL    HW235241   3.220   0.523   9.973  0.0612  0.3785 -0.2682
 7870SOL     OW35242   1.000   3.615   7.017  0.1365  0.2976 -0.1963
 7870SOL    HW135243   1.063   3.557   7.058 -0.1854  1.6225  2.1747
 7870SOL    HW235244   0.961   3.663   7.090 -0.1608  0.1284 -0.2406
 7871SOL     OW35245   3.533   3.247  14.941 -0.0919 -0.4462  0.6628
 7871SOL    HW135246   3.475   3.224  15.013  2.7679 -1.0104  2.7829
 7871SOL    HW235247   3.611   3.258  14.995 -0.0901  2.2689  0.1050
 7872SOL     OW35248   4.405   4.684   2.629  0.4135 -0.3495  0.0231
 7872SOL    HW135249   4.500   4.691   2.626  0.3785 -0.2727 -0.7595
 7872SOL    HW235250   4.378   4.678   2.721 -3.7017  1.8422 -1.0081
 7873SOL     OW35251   2.815   0.043   2.344 -0.3886 -0.1163  0.4315
 7873SOL    HW135252   2.737   0.071   2.393 -1.1381  0.5869 -1.1709
 7873SOL    HW235253   2.778   0.048   2.256 -1.4768  1.7700  0.9928
 7874SOL     OW35254   4.244   3.606  13.514  0.3870  0.2901  0.1925
 7874SOL    HW135255   4.231   3.627  13.607 -1.0302  1.4460 -0.2594
 7874SOL    HW235256   4.195   3.677  13.472 -1.8446 -2.0406 -1.1320
 7875SOL     OW35257   4.604   3.188   3.976  0.0733  0.0345 -0.1830
 7875SOL    HW135258   4.697   3.174   3.956 -0.4201  1.2232 -3.2013
 7875SOL    HW235259   4.582   3.120   4.040 -1.4861 -0.1145 -0.8888
 7876SOL     OW35260   1.324   2.970   7.632  0.0892  0.1320 -0.0095
 7876SOL    HW135261   1.400   2.913   7.639 -0.1604  0.1627  2.9872
 7876SOL    HW235262   1.306   2.975   7.538  2.5932  1.7558 -0.3964
 7877SOL     OW35263   1.474   1.146   5.383 -0.3911 -0.4162 -0.0773
 7877SOL    HW135264   1.509   1.061   5.358 -1.8588 -1.4802  1.4819
 7877SOL    HW235265   1.541   1.170   5.448  0.6977 -2.6624 -0.3727
 7878SOL     OW35266   0.744   0.575   0.636  0.2280  0.2513  0.5287
 7878SOL    HW135267   0.795   0.550   0.713 -1.8455 -0.0996  1.7688
 7878SOL    HW235268   0.675   0.509   0.639  0.9936 -0.5794  0.1213
 7879SOL     OW35269   3.085   0.005   3.761  0.2696 -0.4672 -0.0850
 7879SOL    HW135270   3.070   0.014   3.855 -0.4790 -0.2880 -0.2248
 7879SOL    HW235271   3.064   0.093   3.731  0.6833 -0.0511  0.8239
 7880SOL     OW35272   0.878   3.666  14.543 -0.4450 -0.4891 -0.1514
 7880SOL    HW135273   0.951   3.714  14.582  0.1745 -1.3731 -0.2386
 7880SOL    HW235274   0.804   3.727  14.547  0.3639  0.4540  0.6035
 7881SOL     OW35275   2.983   0.292   5.252  0.5319 -0.2259  0.5570
 7881SOL    HW135276   3.062   0.240   5.267  1.2089  1.4046  2.7048
 7881SOL    HW235277   3.019   0.375   5.220  0.9759 -0.1823  1.1634
 7882SOL     OW35278   0.028   2.966  17.446 -0.7949  0.4279  0.2288
 7882SOL    HW135279   0.027   2.909  17.369 -1.6151 -1.0238  1.3271
 7882SOL    HW235280   0.006   2.905  17.516  0.3340  1.5418  1.5710
 7883SOL     OW35281   3.064   4.296   5.591 -0.0238  0.2220  0.9492
 7883SOL    HW135282   3.095   4.207   5.608  0.6626  0.4417  0.8174
 7883SOL    HW235283   2.983   4.288   5.642 -0.1223  0.0497  0.7682
 7884SOL     OW35284   3.276   3.400  17.452  0.1793 -0.3833  0.0790
 7884SOL    HW135285   3.351   3.458  17.467  1.2382 -1.7731  0.2013
 7884SOL    HW235286   3.276   3.417  17.358 -2.0935  0.8687  0.2997
 7885SOL     OW35287   3.036   2.807  13.095  0.2211 -0.0117 -0.4493
 7885SOL    HW135288   3.032   2.718  13.059 -1.2341 -0.4323  0.7093
 7885SOL    HW235289   3.083   2.845  13.021  0.8181  1.0325  0.4669
 7886SOL     OW35290   4.685   4.602   5.255  0.5308 -0.2168 -0.2982
 7886SOL    HW135291   4.708   4.658   5.181  0.9537  1.0742  0.8166
 7886SOL    HW235292   4.715   4.519   5.218  3.0391  1.0664 -1.1274
 7887SOL     OW35293   4.129   1.302  15.564  0.4091 -0.6238  0.0678
 7887SOL    HW135294   4.049   1.295  15.512  1.0849 -0.1184 -1.0454
 7887SOL    HW235295   4.188   1.251  15.508  1.9988  0.1833  1.0199
 7888SOL     OW35296   0.417   3.180   3.185  0.1731  0.3354 -0.5130
 7888SOL    HW135297   0.350   3.135   3.133 -0.5213 -0.5652  1.1923
 7888SOL    HW235298   0.366   3.177   3.265  3.5188  1.7123  1.6829
 7889SOL     OW35299   0.294   2.040   6.329  0.1942 -1.0171 -0.2203
 7889SOL    HW135300   0.324   1.974   6.391 -0.5679 -0.0051  1.2100
 7889SOL    HW235301   0.353   2.112   6.353 -0.7672 -0.7894  1.4257
 7890SOL     OW35302   2.657   1.818   4.286  0.4688  0.2586 -0.5908
 7890SOL    HW135303   2.677   1.859   4.371 -1.4099 -1.6431  0.7460
 7890SOL    HW235304   2.624   1.899   4.246  0.4719  0.9835  0.8737
 7891SOL     OW35305   4.055   3.421   4.248  0.0688 -0.5126 -0.4709
 7891SOL    HW135306   4.077   3.509   4.216 -0.2069 -0.2602  0.0239
 7891SOL    HW235307   4.020   3.380   4.169  0.8907  0.8945 -1.5782
 7892SOL     OW35308   4.162   2.695  12.721 -0.0771 -0.3718 -0.1135
 7892SOL    HW135309   4.202   2.608  12.713  0.1654 -0.1384 -1.4372
 7892SOL    HW235310   4.224   2.736  12.661 -0.2950  1.0842  0.6760
 7893SOL     OW35311   0.340   0.767  10.029 -0.2826 -0.2784  0.3175
 7893SOL    HW135312   0.369   0.853  10.001 -0.2399 -0.3551  0.1282
 7893SOL    HW235313   0.378   0.710   9.963  3.7958  2.4372  0.3355
 7894SOL     OW35314   2.449   2.204   3.178  0.5961 -0.3461  0.0991
 7894SOL    HW135315   2.457   2.290   3.139  1.6837 -0.6917 -0.4477
 7894SOL    HW235316   2.446   2.149   3.100  0.7175  0.2307 -0.3019
 7895SOL     OW35317   2.594   1.703   1.414  0.2655 -0.0134 -0.1456
 7895SOL    HW135318   2.524   1.640   1.392  1.5164 -1.1742 -0.8041
 7895SOL    HW235319   2.662   1.657   1.463 -1.8778 -1.7558  1.2133
 7896SOL     OW35320   2.459   3.024   1.442 -0.4471 -0.1649 -0.3021
 7896SOL    HW135321   2.372   3.043   1.478  0.6321  1.4245  1.4598
 7896SOL    HW235322   2.520   3.021   1.515 -1.9240 -1.1929  0.8931
 7897SOL     OW35323   3.351   1.580   1.230  0.4851  0.8790  0.5036
 7897SOL    HW135324   3.276   1.543   1.277 -0.8243  0.8716 -1.6134
 7897SOL    HW235325   3.327   1.575   1.138 -0.6767 -1.7203  0.9402
 7898SOL     OW35326   4.401   2.065   3.472  0.4573 -0.1681  0.7621
 7898SOL    HW135327   4.404   2.043   3.379 -0.2248  0.0405  0.6895
 7898SOL    HW235328   4.471   2.127   3.492 -0.4024  0.5881  1.3809
 7899SOL     OW35329   0.900   3.372   4.150 -0.0080 -0.0797 -0.1611
 7899SOL    HW135330   0.903   3.456   4.103  1.1742  0.3210  0.6304
 7899SOL    HW235331   0.820   3.388   4.199 -0.8913 -1.7547 -1.0343
 7900SOL     OW35332   3.272   2.208   2.525 -0.8266 -0.6520 -0.1222
 7900SOL    HW135333   3.238   2.296   2.505  1.2056  0.3285  0.6749
 7900SOL    HW235334   3.366   2.225   2.530 -0.8074 -2.2424  4.6631
 7901SOL     OW35335   4.417   0.162  13.950 -0.4404  0.0938  0.2971
 7901SOL    HW135336   4.403   0.229  14.017 -0.1793  0.1020  0.3453
 7901SOL    HW235337   4.351   0.094  13.960 -0.1386 -0.1214  0.8330
 7902SOL     OW35338   0.522   0.061  15.303  0.2468 -0.4919  0.1575
 7902SOL    HW135339   0.586   0.020  15.246  0.9444  0.2563  0.4049
 7902SOL    HW235340   0.550   0.046  15.393 -0.3217  0.1753  0.4511
 7903SOL     OW35341   0.596   3.201   0.202  0.4004  0.3373  0.0164
 7903SOL    HW135342   0.670   3.207   0.262  1.4938  1.7575 -1.4603
 7903SOL    HW235343   0.554   3.118   0.222  2.2061 -0.7017 -0.4577
 7904SOL     OW35344   3.259   4.516   4.609 -0.0033  0.2554 -0.3258
 7904SOL    HW135345   3.308   4.598   4.618 -0.3821  0.7761 -3.1599
 7904SOL    HW235346   3.228   4.512   4.700  0.6286 -0.7584 -0.1588
 7905SOL     OW35347   1.408   2.760   1.886  0.2378  0.1870 -0.0520
 7905SOL    HW135348   1.466   2.701   1.839  0.5466  1.8623 -1.7874
 7905SOL    HW235349   1.410   2.842   1.837 -0.6223  0.2409 -0.0068
 7906SOL     OW35350   4.327   0.097   4.610  0.4586  0.0654 -0.1125
 7906SOL    HW135351   4.234   0.120   4.599  0.8836  2.3640  0.9187
 7906SOL    HW235352   4.367   0.137   4.533 -0.3470  2.0563  0.4869
 7907SOL     OW35353   3.574   4.150   3.908 -0.4158 -0.0251 -0.1186
 7907SOL    HW135354   3.496   4.159   3.962 -1.0082 -1.1585 -0.7765
 7907SOL    HW235355   3.589   4.058   3.931  1.0780 -0.2910 -2.1698
 7908SOL     OW35356   3.101   0.013  13.880  0.0550 -0.0172  0.1372
 7908SOL    HW135357   3.031   0.078  13.884  1.0265  1.0027  0.6053
 7908SOL    HW235358   3.159   0.038  13.953  0.1334  0.7669 -0.1910
 7909SOL     OW35359   1.931   3.047   4.761 -0.0676  0.0510 -0.1568
 7909SOL    HW135360   1.957   3.002   4.842  1.1533  0.7220 -0.1695
 7909SOL    HW235361   1.957   2.982   4.695 -1.4355  3.2064 -3.7869
 7910SOL     OW35362   3.787   4.238   4.791 -0.0383  0.0247 -0.3263
 7910SOL    HW135363   3.845   4.306   4.757 -0.2547 -0.0093 -0.7720
 7910SOL    HW235364   3.708   4.290   4.804 -0.6519 -0.4653 -2.0350
 7911SOL     OW35365   2.027   2.362   5.278  0.4594  0.2644 -0.0889
 7911SOL    HW135366   1.976   2.281   5.283 -0.3632  0.6931 -1.5143
 7911SOL    HW235367   2.054   2.359   5.370 -2.3087 -1.8152  0.6492
 7912SOL     OW35368   0.914   0.463   4.943  0.6690  0.0081  0.1589
 7912SOL    HW135369   0.964   0.508   4.874 -0.6291  0.9473 -0.1602
 7912SOL    HW235370   0.869   0.391   4.898  0.4529  1.1332 -1.4435
 7913SOL     OW35371   1.595   3.253   6.059 -0.1241  0.0672  0.3166
 7913SOL    HW135372   1.508   3.273   6.027  0.9447  1.9613 -1.4092
 7913SOL    HW235373   1.592   3.291   6.146  2.0653 -0.8327  0.7927
 7914SOL     OW35374   2.798   3.469  12.005  0.0480 -0.0155 -0.0229
 7914SOL    HW135375   2.766   3.545  12.054 -3.6489 -2.7003  1.6695
 7914SOL    HW235376   2.868   3.444  12.066 -0.4516  1.7108  1.2709
 7915SOL     OW35377   3.756   0.012   5.806  0.2866 -0.1730  0.1566
 7915SOL    HW135378   3.784   0.006   5.715 -3.4802  1.0885 -1.1002
 7915SOL    HW235379   3.836   0.035   5.852  0.0301  0.1623  0.4430
 7916SOL     OW35380   2.229   4.227   0.272  0.2040  0.1577 -0.2441
 7916SOL    HW135381   2.271   4.144   0.248  3.1802  2.1685 -1.9603
 7916SOL    HW235382   2.202   4.240   0.181  2.0946 -0.2662 -0.8689
 7917SOL     OW35383   0.029   1.966   6.374  0.3380  0.3029 -0.4564
 7917SOL    HW135384   0.124   1.971   6.368  0.2856 -0.5076 -2.0531
 7917SOL    HW235385   0.004   2.022   6.300  0.8025  1.2596  0.1067
 7918SOL     OW35386   3.852   0.694   6.559  0.2577  0.2048 -0.3200
 7918SOL    HW135387   3.837   0.788   6.570 -3.2885 -0.5632  1.3009
 7918SOL    HW235388   3.871   0.670   6.649  1.4900 -0.9434 -0.8820
 7919SOL     OW35389   4.097   2.456   6.038 -0.6433  0.1921  0.6423
 7919SOL    HW135390   4.147   2.531   6.007  1.2832 -0.7150  1.5549
 7919SOL    HW235391   4.166   2.410   6.085 -0.8859  1.9458  2.7108
 7920SOL     OW35392   3.406   1.002   3.246 -0.3404 -0.0297  0.1942
 7920SOL    HW135393   3.342   1.072   3.236  0.7669  1.3234  2.6912
 7920SOL    HW235394   3.435   1.011   3.337 -1.0678  2.9869  0.1030
 7921SOL     OW35395   1.784   2.101   8.542  0.2235 -0.4908 -0.2423
 7921SOL    HW135396   1.729   2.150   8.482  0.2205  1.7195  1.5608
 7921SOL    HW235397   1.716   2.063   8.598  0.3492 -0.5377 -0.1199
 7922SOL     OW35398   4.187   1.102   4.580  0.3615 -0.0227  0.4862
 7922SOL    HW135399   4.252   1.136   4.642 -2.0968  2.8750  1.4848
 7922SOL    HW235400   4.205   1.146   4.497 -1.2430 -0.7709 -0.2523
 7923SOL     OW35401   4.365   0.972   5.627 -0.2852 -0.4933 -0.3069
 7923SOL    HW135402   4.367   1.034   5.554  2.0559 -1.1780 -0.8191
 7923SOL    HW235403   4.323   1.017   5.700  0.8973 -1.6955  1.1502
 7924SOL     OW35404   3.800   4.020   6.535  0.2602  0.4925 -0.2730
 7924SOL    HW135405   3.869   4.086   6.529  0.2905  0.4514 -0.3782
 7924SOL    HW235406   3.732   4.063   6.482 -1.2417  0.5370  1.6767
 7925SOL     OW35407   2.288   4.314  13.525  0.2704  0.2431 -0.4062
 7925SOL    HW135408   2.370   4.299  13.478  1.5221  1.9758  1.2188
 7925SOL    HW235409   2.240   4.240  13.486 -2.5067  1.1821  1.2018
 7926SOL     OW35410   2.826   3.523   0.844 -1.1142 -0.1756  0.1380
 7926SOL    HW135411   2.892   3.576   0.888  0.2363 -0.3759 -1.6592
 7926SOL    HW235412   2.814   3.452   0.908 -0.5155 -1.2891 -0.9841
 7927SOL     OW35413   0.906   1.023   0.455 -0.4317 -0.2132 -0.1303
 7927SOL    HW135414   0.810   1.017   0.454 -0.3998 -0.5084 -1.8464
 7927SOL    HW235415   0.926   0.937   0.419 -0.3962 -0.6179  0.8519
 7928SOL     OW35416   0.165   4.059   5.527  0.2172 -0.4379  0.3450
 7928SOL    HW135417   0.249   4.051   5.572  1.4706  2.6760 -1.4415
 7928SOL    HW235418   0.125   3.979   5.561 -0.0348 -0.4029  0.1308
 7929SOL     OW35419   4.720   1.368  15.311  0.2984 -0.5791 -0.5944
 7929SOL    HW135420   4.667   1.370  15.231  1.6064  0.3977 -1.4297
 7929SOL    HW235421   4.696   1.277  15.327 -2.1189  0.0942 -0.3483
 7930SOL     OW35422   0.528   3.192   6.237 -0.4012  0.8975  0.6631
 7930SOL    HW135423   0.483   3.228   6.313 -0.5916  0.9855  0.5063
 7930SOL    HW235424   0.503   3.254   6.169  1.0431 -1.4156 -2.0015
 7931SOL     OW35425   4.520   3.096   7.459  0.1167  0.2622  0.0336
 7931SOL    HW135426   4.597   3.140   7.496  2.6806 -2.0808 -2.5572
 7931SOL    HW235427   4.472   3.080   7.540 -0.3063  1.8916  0.1159
 7932SOL     OW35428   4.477   3.470   9.361  0.1187 -0.1223  0.0198
 7932SOL    HW135429   4.383   3.491   9.365  0.4020  1.2422 -0.5562
 7932SOL    HW235430   4.509   3.537   9.301 -0.6310  0.2012 -0.0183
 7933SOL     OW35431   4.041   2.105   6.070  0.2338  0.6338 -0.5827
 7933SOL    HW135432   4.081   2.145   5.993  2.3374 -3.0768 -1.3993
 7933SOL    HW235433   4.090   2.023   6.061 -0.4626  0.1875 -0.3154
 7934SOL     OW35434   4.683   0.261   4.879 -0.0667  0.1152 -0.0024
 7934SOL    HW135435   4.696   0.356   4.876  0.9465 -0.0904 -2.7791
 7934SOL    HW235436   4.592   0.247   4.903 -0.1866 -2.2825 -1.8294
 7935SOL     OW35437   0.549   4.419   9.710 -0.3166 -0.6246  0.3752
 7935SOL    HW135438   0.618   4.436   9.647 -1.2287  1.0905 -0.1574
 7935SOL    HW235439   0.542   4.325   9.723  0.7485 -0.7001  0.3446
 7936SOL     OW35440   3.540   1.672   2.618  0.3309 -0.1651  0.4849
 7936SOL    HW135441   3.532   1.668   2.522 -1.2109 -2.3210  0.7110
 7936SOL    HW235442   3.453   1.639   2.639  0.3736  0.7749  2.1032
 7937SOL     OW35443   0.717   1.474   7.120  0.4893 -0.5473 -0.0403
 7937SOL    HW135444   0.754   1.551   7.078 -0.0407 -0.2628  0.0166
 7937SOL    HW235445   0.760   1.461   7.205 -0.3357 -0.0096  0.4588
 7938SOL     OW35446   3.495   1.892   5.374 -0.1415  0.4053  1.1798
 7938SOL    HW135447   3.457   1.979   5.385 -1.7343 -0.3534  1.6256
 7938SOL    HW235448   3.432   1.829   5.410  1.9768 -2.5055 -0.2118
 7939SOL     OW35449   1.589   1.844   7.818  0.3422 -0.4231  0.0201
 7939SOL    HW135450   1.651   1.914   7.836 -0.8374  0.5202  0.3602
 7939SOL    HW235451   1.520   1.863   7.881 -0.0215 -1.4427 -0.0585
 7940SOL     OW35452   4.563   4.510  13.934 -0.0906  0.1027 -0.8319
 7940SOL    HW135453   4.476   4.478  13.957  0.7132 -0.3546  1.5312
 7940SOL    HW235454   4.589   4.474  13.850  0.6974 -1.3676  0.0522
 7941SOL     OW35455   3.900   2.116   2.275 -0.2134  0.2187 -0.2218
 7941SOL    HW135456   3.985   2.089   2.240 -1.8478 -1.3567 -2.9283
 7941SOL    HW235457   3.842   2.058   2.227  0.9782 -0.8408 -0.3716
 7942SOL     OW35458   0.298   3.810  13.383 -0.1950  0.3461  0.0172
 7942SOL    HW135459   0.326   3.882  13.326 -1.3725 -0.5029 -1.6292
 7942SOL    HW235460   0.213   3.840  13.415 -0.6703 -1.7693  0.6811
 7943SOL     OW35461   2.205   3.761   4.431  0.5090  0.3303  0.2795
 7943SOL    HW135462   2.179   3.800   4.348 -1.1166 -3.1928 -0.8502
 7943SOL    HW235463   2.268   3.694   4.404  0.1605  0.1062  0.0277
 7944SOL     OW35464   1.213   1.087   7.884  0.0597 -0.1170 -0.1293
 7944SOL    HW135465   1.277   1.074   7.954 -0.3310 -0.5908  0.1388
 7944SOL    HW235466   1.236   1.178   7.864 -0.2000 -0.1243 -0.4496
 7945SOL     OW35467   0.878   4.102  12.324 -0.0847 -0.1529  0.8532
 7945SOL    HW135468   0.914   4.167  12.264  0.3947 -0.8206  0.4121
 7945SOL    HW235469   0.916   4.134  12.406 -0.8159 -0.6727  1.4012
 7946SOL     OW35470   2.268   2.593   3.708  0.6079 -0.7531 -0.2089
 7946SOL    HW135471   2.278   2.678   3.751  1.4421 -1.5569  1.1595
 7946SOL    HW235472   2.351   2.575   3.666  0.1481 -0.5941 -1.1880
 7947SOL     OW35473   0.281   0.859  17.017  0.2640 -0.1848 -0.6533
 7947SOL    HW135474   0.272   0.862  17.112 -1.5716  0.3420 -0.8287
 7947SOL    HW235475   0.346   0.928  17.004  0.9635 -0.7106  0.0726
 7948SOL     OW35476   0.213   1.081   5.570  0.1891  0.1895  0.0080
 7948SOL    HW135477   0.285   1.036   5.525 -0.2744 -0.3232 -0.2258
 7948SOL    HW235478   0.211   1.163   5.520  2.2528  0.7451  0.8258
 7949SOL     OW35479   3.965   3.768   2.594 -0.0387 -0.0143 -0.7346
 7949SOL    HW135480   3.997   3.732   2.511  0.8362 -0.1176 -0.3522
 7949SOL    HW235481   3.998   3.858   2.591  0.3392 -0.1098  0.5405
 7950SOL     OW35482   1.020   2.042  17.654  0.0506  0.0898 -0.3345
 7950SOL    HW135483   0.936   2.001  17.676 -0.6613  1.1928 -0.9977
 7950SOL    HW235484   1.047   1.991  17.578  0.9979 -0.4625  0.3770
 7951SOL     OW35485   2.038   3.106   6.190  0.0857  0.0687  0.6042
 7951SOL    HW135486   2.113   3.059   6.153 -1.4381 -2.9481  1.2982
 7951SOL    HW235487   2.066   3.193   6.164  1.1072 -0.2192  0.7468
 7952SOL     OW35488   3.176   0.783   7.015 -0.1577 -0.0101 -0.1270
 7952SOL    HW135489   3.109   0.735   6.966 -0.7456 -1.7977  2.4595
 7952SOL    HW235490   3.246   0.792   6.949  1.2467  0.7758  1.4689
 7953SOL     OW35491   3.706   0.216   4.190  0.1289 -0.2719  0.0216
 7953SOL    HW135492   3.726   0.152   4.258  1.3709  0.5309  0.4143
 7953SOL    HW235493   3.722   0.169   4.108  1.4698 -1.4709  0.9768
 7954SOL     OW35494   1.803   1.127   1.866  0.3771  0.1789  0.5752
 7954SOL    HW135495   1.830   1.111   1.956 -1.1318 -0.4475  0.9217
 7954SOL    HW235496   1.861   1.079   1.807  1.2908  0.2623  1.4028
 7955SOL     OW35497   1.088   2.822   2.739 -0.1270  0.2816  0.3843
 7955SOL    HW135498   1.027   2.839   2.667  0.3505 -2.3393 -0.6276
 7955SOL    HW235499   1.030   2.842   2.812 -1.4269 -1.6452 -0.1214
 7956SOL     OW35500   1.333   2.948  15.874 -0.2749 -0.0827  0.4078
 7956SOL    HW135501   1.302   3.026  15.828  0.0301  0.3997  1.0139
 7956SOL    HW235502   1.363   2.888  15.806  1.1475  0.7357  0.2936
 7957SOL     OW35503   4.111   3.108   5.164 -0.0807  0.2192  0.2071
 7957SOL    HW135504   4.173   3.104   5.092 -0.8363 -0.7833 -0.3939
 7957SOL    HW235505   4.103   3.199   5.191  0.9501  0.5211 -0.5185
 7958SOL     OW35506   2.084   3.230   5.379  0.3074 -0.3910 -0.2403
 7958SOL    HW135507   2.112   3.198   5.294  1.0886 -1.7394  0.5145
 7958SOL    HW235508   1.996   3.261   5.359  0.4673  0.3393  0.1808
 7959SOL     OW35509   3.230   0.554   5.413 -0.3239  0.4045  0.3351
 7959SOL    HW135510   3.320   0.587   5.419 -0.1587 -0.3149  1.6960
 7959SOL    HW235511   3.223   0.531   5.505 -1.1681 -0.9196 -0.0617
 7960SOL     OW35512   4.049   3.668   3.236 -0.0860 -0.2321 -0.3878
 7960SOL    HW135513   4.094   3.589   3.207 -0.9311 -0.1554 -1.9402
 7960SOL    HW235514   4.109   3.698   3.304 -2.9270  0.9622  1.5572
 7961SOL     OW35515   3.803   3.607   4.026 -0.1278 -0.5184  0.0930
 7961SOL    HW135516   3.709   3.595   4.038  0.0782 -1.2276  1.0055
 7961SOL    HW235517   3.841   3.659   4.097 -1.1570 -0.0361  0.2899
 7962SOL     OW35518   2.782   1.213   9.170 -0.4003  0.2847  0.2006
 7962SOL    HW135519   2.762   1.199   9.262  0.6925  0.5777  0.4774
 7962SOL    HW235520   2.790   1.308   9.157  0.0465  0.2439  0.1860
 7963SOL     OW35521   3.185   0.385   2.105  0.0166 -0.1705  0.3254
 7963SOL    HW135522   3.280   0.376   2.094  0.2618  0.7613  1.6442
 7963SOL    HW235523   3.188   0.467   2.154 -0.7749 -0.3218  0.6294
 7964SOL     OW35524   2.323   2.948   8.615  0.0027  0.1207  0.1595
 7964SOL    HW135525   2.283   2.973   8.698  1.4655  0.0620  0.8973
 7964SOL    HW235526   2.305   2.854   8.623 -1.5975  0.4464  0.2918
 7965SOL     OW35527   1.074   2.029   9.865 -0.6106 -0.6492  0.0624
 7965SOL    HW135528   1.152   2.008   9.916 -1.4022 -2.3894  0.5475
 7965SOL    HW235529   1.025   2.081   9.928  1.6316  0.3507  0.9786
 7966SOL     OW35530   1.763   1.076   9.189 -0.0863 -0.4666  0.1842
 7966SOL    HW135531   1.699   1.049   9.255 -0.8513 -0.4799 -0.5687
 7966SOL    HW235532   1.786   1.162   9.226 -2.3227  0.8535 -1.4471
 7967SOL     OW35533   0.503   1.343   2.252  0.1969  0.1869 -0.1568
 7967SOL    HW135534   0.469   1.380   2.171  0.5835  2.3606  0.6714
 7967SOL    HW235535   0.433   1.376   2.309 -1.8782 -0.2668 -2.4237
 7968SOL     OW35536   3.886   2.614  12.664  0.2974 -0.0972  0.1079
 7968SOL    HW135537   3.818   2.592  12.728  0.3918 -1.2015 -0.1677
 7968SOL    HW235538   3.967   2.638  12.707 -0.5338  1.7327  0.6486
 7969SOL     OW35539   2.573   1.062  12.432  0.0551  0.6243 -0.4093
 7969SOL    HW135540   2.589   1.146  12.474  0.9938  0.1585  0.1461
 7969SOL    HW235541   2.638   1.011  12.480 -0.8183  0.2744  0.3911
 7970SOL     OW35542   3.276   1.464   3.305  0.1297 -0.2535 -0.3555
 7970SOL    HW135543   3.328   1.501   3.234  0.0550 -0.7463 -0.6646
 7970SOL    HW235544   3.278   1.532   3.372 -2.6539 -0.2409 -0.2969
 7971SOL     OW35545   3.828   1.474  14.595  0.3319 -0.4099 -0.2204
 7971SOL    HW135546   3.763   1.444  14.532  0.3092 -1.1067  0.1357
 7971SOL    HW235547   3.883   1.398  14.614  0.8949 -0.2845 -1.3726
 7972SOL     OW35548   3.320   4.644   3.608 -1.0674  0.5401 -0.3356
 7972SOL    HW135549   3.253   4.624   3.673  0.8017  2.2847  2.1769
 7972SOL    HW235550   3.286   0.000   3.587  0.7984  0.9492 -1.6094
 7973SOL     OW35551   2.559   0.385   8.574 -0.1673 -0.2055  0.0266
 7973SOL    HW135552   2.532   0.450   8.510  0.4965  0.3545  0.3240
 7973SOL    HW235553   2.556   0.447   8.646  0.7960 -1.2628  0.9889
 7974SOL     OW35554   1.888   1.837   8.541  0.2992 -0.1213  0.4929
 7974SOL    HW135555   1.801   1.806   8.566 -0.3412 -0.9970 -2.8994
 7974SOL    HW235556   1.877   1.924   8.579 -0.9949 -0.3386  0.6050
 7975SOL     OW35557   2.002   3.380  12.880  0.2858  0.3081  0.3360
 7975SOL    HW135558   2.076   3.319  12.886  0.7715  0.8986  0.2799
 7975SOL    HW235559   1.960   3.342  12.958 -0.7021  0.3724 -0.1648
 7976SOL     OW35560   2.281   4.243   4.270  0.9291 -0.9104 -0.1451
 7976SOL    HW135561   2.299   4.336   4.281  0.9657 -0.9495  0.1182
 7976SOL    HW235562   2.351   4.224   4.208 -1.8759 -0.3175 -3.4734
 7977SOL     OW35563   2.472   2.713   0.983 -0.0390  0.0890 -0.3380
 7977SOL    HW135564   2.381   2.697   0.957 -0.0735  2.7652 -1.8868
 7977SOL    HW235565   2.471   2.714   1.079  0.1945  2.2882 -0.3581
 7978SOL     OW35566   1.288   3.523   6.927 -0.2260 -0.5623 -0.2860
 7978SOL    HW135567   1.224   3.474   6.876  0.0310 -0.5009 -0.6622
 7978SOL    HW235568   1.353   3.524   6.857 -0.2366  1.1311 -0.2787
 7979SOL     OW35569   4.091   0.297   3.129  0.1925 -0.2589 -0.5608
 7979SOL    HW135570   4.015   0.240   3.117  0.5358 -0.8841  0.1908
 7979SOL    HW235571   4.065   0.360   3.197  1.9313 -0.5627  0.3864
 7980SOL     OW35572   2.479   4.283   2.429 -0.6135 -0.1208  0.3790
 7980SOL    HW135573   2.394   4.252   2.459 -0.6154 -0.3606  0.1253
 7980SOL    HW235574   2.528   4.314   2.505  0.9198 -3.0010  0.5339
 7981SOL     OW35575   2.349   2.043   7.502 -0.0031  0.1743 -0.3529
 7981SOL    HW135576   2.330   1.969   7.444  2.8288 -1.0009  0.2170
 7981SOL    HW235577   2.269   2.044   7.554  1.3673  2.8452  1.7286
 7982SOL     OW35578   3.776   4.119   5.721 -0.0992 -0.0503 -0.1756
 7982SOL    HW135579   3.861   4.124   5.763  0.0274 -1.1389 -0.3134
 7982SOL    HW235580   3.757   4.210   5.744 -0.4407  0.0555 -0.8692
 7983SOL     OW35581   1.010   0.361   8.965 -0.2663 -0.2084  0.1502
 7983SOL    HW135582   0.952   0.286   8.971 -1.4720  0.7359  0.2464
 7983SOL    HW235583   1.067   0.355   9.042 -2.3830 -1.5207  1.5936
 7984SOL     OW35584   1.330   2.167   6.701  0.8600  0.6068  0.4269
 7984SOL    HW135585   1.325   2.075   6.678 -0.5838  0.2717  2.1053
 7984SOL    HW235586   1.407   2.205   6.659  1.4847 -1.1102  0.0296
 7985SOL     OW35587   0.980   1.416  15.722  0.2465  0.3290 -0.1354
 7985SOL    HW135588   0.975   1.438  15.629 -1.0785 -0.7151 -0.2974
 7985SOL    HW235589   0.955   1.324  15.727  0.5145  0.2691  0.0818
 7986SOL     OW35590   3.156   0.487   8.284  0.4613 -0.4542  0.9102
 7986SOL    HW135591   3.137   0.525   8.370 -0.5230  1.2522 -0.0413
 7986SOL    HW235592   3.240   0.443   8.294 -0.7753 -3.3356 -1.4464
 7987SOL     OW35593   3.604   2.430   5.320  0.4181 -0.4638 -0.1181
 7987SOL    HW135594   3.516   2.459   5.298  0.3206 -0.3034  0.4900
 7987SOL    HW235595   3.648   2.415   5.236 -2.1804 -1.0850 -1.3770
 7988SOL     OW35596   1.653   0.819  14.538 -0.1767 -0.3868 -0.0888
 7988SOL    HW135597   1.659   0.905  14.496 -0.3714 -0.1189  0.4200
 7988SOL    HW235598   1.695   0.835  14.623  0.1425 -1.6904 -0.0010
 7989SOL     OW35599   2.460   0.285   6.685  0.2826  0.0845 -0.3515
 7989SOL    HW135600   2.398   0.224   6.724  0.3153 -0.5656 -1.3026
 7989SOL    HW235601   2.536   0.229   6.702  0.2351  0.4829  1.0871
 7990SOL     OW35602   4.479   3.724   3.689 -0.0338  0.0628  0.9523
 7990SOL    HW135603   4.415   3.786   3.653  0.7099 -0.4975 -1.3559
 7990SOL    HW235604   4.503   3.768   3.771 -3.6806  0.1193  2.0004
 7991SOL     OW35605   1.952   4.473   0.334  0.5365 -0.1637  0.4322
 7991SOL    HW135606   1.943   4.427   0.250 -2.4149  0.4108  0.4326
 7991SOL    HW235607   2.029   4.527   0.320 -0.1158  0.7346  0.2933
 7992SOL     OW35608   3.364   2.095   7.395  0.1873 -0.0977  0.6833
 7992SOL    HW135609   3.439   2.039   7.414  0.4461 -0.5117 -1.5832
 7992SOL    HW235610   3.406   2.175   7.362 -0.1468 -0.1191  0.2027
 7993SOL     OW35611   4.453   2.970  17.302  0.0728  0.2913 -0.1816
 7993SOL    HW135612   4.493   3.026  17.368  0.6156  1.1418 -1.2159
 7993SOL    HW235613   4.496   3.011  17.227  1.3722 -0.2121  0.2873
 7994SOL     OW35614   0.924   3.556   1.631 -0.3522 -0.3575 -0.6787
 7994SOL    HW135615   0.951   3.509   1.710  0.9711 -0.7079 -1.3252
 7994SOL    HW235616   0.898   3.638   1.671  1.6021  0.4476 -1.0314
 7995SOL     OW35617   1.114   2.436  14.793  0.3806  0.6292  0.6652
 7995SOL    HW135618   1.022   2.461  14.782  0.2454 -0.1292  0.0817
 7995SOL    HW235619   1.086   2.350  14.824  0.8082  0.2177 -0.1010
 7996SOL     OW35620   3.231   2.353   7.477  0.1691 -0.4549  0.5692
 7996SOL    HW135621   3.164   2.375   7.413  2.1150  2.1525 -0.5953
 7996SOL    HW235622   3.247   2.260   7.461 -0.2800 -0.0048 -2.4058
 7997SOL     OW35623   1.315   3.403   6.064  0.2553 -0.2014  0.6659
 7997SOL    HW135624   1.274   3.323   6.031  2.4235 -0.4875 -1.2925
 7997SOL    HW235625   1.296   3.386   6.157 -1.9466  0.6298  0.3559
 7998SOL     OW35626   4.364   1.899   7.372  0.0108 -0.0231 -0.1913
 7998SOL    HW135627   4.383   1.993   7.374  1.3904 -0.3229  0.6223
 7998SOL    HW235628   4.403   1.867   7.453 -0.1545 -1.3938 -0.6605
 7999SOL     OW35629   4.483   0.187   4.380 -0.5851  0.3180 -0.0213
 7999SOL    HW135630   4.458   0.100   4.348 -1.3516 -0.0237  1.5196
 7999SOL    HW235631   4.552   0.166   4.443 -1.2237  0.5173  0.7533
 8000SOL     OW35632   0.472   2.683   9.152  0.3061  0.2798 -0.4118
 8000SOL    HW135633   0.500   2.700   9.242 -1.2454  0.9825 -0.0542
 8000SOL    HW235634   0.477   2.773   9.118  3.9883  0.4170  0.5049
 8001SOL     OW35635   3.000   2.785   7.910 -0.2041  0.6399  0.6352
 8001SOL    HW135636   3.091   2.763   7.891 -1.5162 -2.7785 -1.6560
 8001SOL    HW235637   3.018   2.871   7.948  1.3267  1.3222 -1.6491
 8002SOL     OW35638   1.326   4.104  13.427 -0.0168 -0.4761 -0.7158
 8002SOL    HW135639   1.284   4.019  13.434  0.2997 -0.6530 -0.9746
 8002SOL    HW235640   1.264   4.163  13.470  1.3375 -2.2180  3.6322
 8003SOL     OW35641   0.657   2.381   2.206  0.2557  0.0936 -0.3406
 8003SOL    HW135642   0.706   2.456   2.173 -0.3556 -0.0542 -1.5798
 8003SOL    HW235643   0.565   2.408   2.201  0.1967 -0.0214  0.1316
 8004SOL     OW35644   2.129   0.955   7.573  0.4925  0.4498  0.1974
 8004SOL    HW135645   2.057   0.910   7.530 -0.7338  1.5987  1.0644
 8004SOL    HW235646   2.176   0.880   7.611  0.0082 -0.3473 -0.7704
 8005SOL     OW35647   0.635   4.460   9.983 -0.4392 -0.2897  0.2058
 8005SOL    HW135648   0.606   4.442   9.893 -1.8825  1.6188  0.3084
 8005SOL    HW235649   0.700   4.390   9.994 -0.6137 -0.3968  0.5287
 8006SOL     OW35650   1.343   4.328   1.910 -0.3554 -0.0620 -0.1617
 8006SOL    HW135651   1.283   4.253   1.904  0.8223 -0.9474 -0.7843
 8006SOL    HW235652   1.301   4.396   1.856  2.0574  0.7130 -1.0685
 8007SOL     OW35653   0.656   1.771   1.638  0.4998 -0.5040  0.3345
 8007SOL    HW135654   0.578   1.771   1.693  0.5409  0.8163  0.3825
 8007SOL    HW235655   0.712   1.733   1.705 -1.9450 -1.2717  1.9313
 8008SOL     OW35656   3.644   2.901  14.483 -0.1788 -0.1831  0.4657
 8008SOL    HW135657   3.651   2.805  14.481 -2.0745 -0.2817 -3.0648
 8008SOL    HW235658   3.560   2.929  14.518 -0.9374 -1.9121  0.0176
 8009SOL     OW35659   2.297   1.016  12.526 -0.0539  0.2142  0.2473
 8009SOL    HW135660   2.389   1.042  12.524 -0.1740  0.6087 -0.1062
 8009SOL    HW235661   2.317   0.926  12.552  2.8986  0.6899 -0.3898
 8010SOL     OW35662   3.706   0.780   7.169 -0.6362 -0.2189  0.4742
 8010SOL    HW135663   3.679   0.698   7.128  1.8446 -0.3421 -0.9257
 8010SOL    HW235664   3.643   0.834   7.122  0.3307 -0.9361 -1.6577
 8011SOL     OW35665   0.550   1.908  12.548  0.2888  0.4748  0.5319
 8011SOL    HW135666   0.556   1.838  12.613 -1.0874  0.2904  0.4594
 8011SOL    HW235667   0.459   1.934  12.561  0.0209  1.2089 -2.8190
 8012SOL     OW35668   1.562   1.068   5.053  0.7820  0.0684 -0.1869
 8012SOL    HW135669   1.597   1.052   5.141 -2.0609 -0.3370  0.8956
 8012SOL    HW235670   1.516   1.146   5.084 -0.0368 -1.2081  1.8430
 8013SOL     OW35671   4.272   2.535   4.107  0.3898  0.2719 -0.0273
 8013SOL    HW135672   4.218   2.592   4.161  2.3622  0.7080  1.4594
 8013SOL    HW235673   4.304   2.591   4.037 -0.3598 -0.7907 -1.2395
 8014SOL     OW35674   3.784   4.532   7.454 -0.0750  0.5713  0.1011
 8014SOL    HW135675   3.714   4.598   7.456 -0.0574  0.5617  1.5713
 8014SOL    HW235676   3.834   4.572   7.525 -0.8400 -2.3538  2.2659
 8015SOL     OW35677   2.005   4.112   7.896  0.4906 -0.1058  0.1049
 8015SOL    HW135678   1.999   4.137   7.988 -0.0813  0.6528 -0.1367
 8015SOL    HW235679   2.083   4.157   7.864 -2.6010  4.4934 -1.0029
 8016SOL     OW35680   3.694   1.632   5.382  0.2661  0.4379  0.0222
 8016SOL    HW135681   3.693   1.712   5.435 -1.0399 -0.2757  1.0771
 8016SOL    HW235682   3.642   1.663   5.307 -1.1019  0.6725  1.0623
 8017SOL     OW35683   0.432   3.194  10.766  0.0112  0.1460 -0.3263
 8017SOL    HW135684   0.372   3.120  10.778 -1.8010  1.2636 -2.5358
 8017SOL    HW235685   0.505   3.156  10.815  0.2238 -0.0142 -0.7770
 8018SOL     OW35686   0.602   2.775   7.786  0.2079 -0.2928 -0.2455
 8018SOL    HW135687   0.655   2.821   7.721  1.6153 -2.0924 -0.3908
 8018SOL    HW235688   0.543   2.848   7.804  1.5969  0.2696  1.9155
 8019SOL     OW35689   1.432   2.969  14.964  0.2012  0.5868 -0.0101
 8019SOL    HW135690   1.343   2.955  14.996 -0.1247  0.4034 -1.0083
 8019SOL    HW235691   1.471   2.984  15.051  1.1843  1.1847 -0.5534
 8020SOL     OW35692   1.959   2.119   0.194  0.4146 -0.1192 -0.4398
 8020SOL    HW135693   2.021   2.063   0.148  0.8017 -1.3720  1.6061
 8020SOL    HW235694   1.876   2.071   0.199 -1.0779  2.5308  0.6334
 8021SOL     OW35695   2.400   1.711   8.991  0.2349  0.3019  0.3184
 8021SOL    HW135696   2.403   1.709   8.896  0.9273 -0.3280  0.3531
 8021SOL    HW235697   2.428   1.794   9.030 -1.1157  1.1005 -0.4280
 8022SOL     OW35698   2.913   0.576  11.239  0.2084  0.1335 -1.0954
 8022SOL    HW135699   2.841   0.549  11.183  0.5878 -1.1733 -0.9335
 8022SOL    HW235700   2.947   0.490  11.262 -0.8192 -0.3193 -1.2873
 8023SOL     OW35701   1.489   1.673   9.382 -0.5584 -0.3246  0.4189
 8023SOL    HW135702   1.539   1.600   9.347 -2.0044 -1.0711 -0.0875
 8023SOL    HW235703   1.542   1.697   9.458  0.3204 -2.2836  0.4092
 8024SOL     OW35704   0.490   3.387  11.302  0.1296 -0.3446  0.7801
 8024SOL    HW135705   0.403   3.353  11.278  0.4987  0.2073 -1.3552
 8024SOL    HW235706   0.468   3.458  11.361 -0.5426 -0.3603  0.5514
 8025SOL     OW35707   3.824   2.953   5.689  0.2282 -0.0742  0.7327
 8025SOL    HW135708   3.909   2.996   5.694  0.3552 -0.3260  0.7099
 8025SOL    HW235709   3.803   2.961   5.783  1.1068 -1.9438  1.0801
 8026SOL     OW35710   0.563   2.965   8.496 -0.2141  0.4333  0.3261
 8026SOL    HW135711   0.546   2.887   8.548  1.0162  0.1877  0.3569
 8026SOL    HW235712   0.472   2.992   8.488 -0.6454 -0.8026  1.1490
 8027SOL     OW35713   2.019   1.010   3.416  0.7499 -0.4580  0.2573
 8027SOL    HW135714   2.027   1.104   3.429  3.0160 -0.5731 -0.3116
 8027SOL    HW235715   2.101   0.976   3.453  0.2334 -1.6484  0.3180
 8028SOL     OW35716   0.974   1.043  13.194  0.5825  0.0964  0.9194
 8028SOL    HW135717   1.048   1.095  13.226  2.0355 -0.5900 -1.3157
 8028SOL    HW235718   1.018   0.979  13.138  0.7179 -0.8014  2.0659
 8029SOL     OW35719   1.181   1.795   7.526  0.1779  0.4740  0.2211
 8029SOL    HW135720   1.208   1.887   7.526 -1.3782  0.9362 -1.4869
 8029SOL    HW235721   1.258   1.744   7.501 -0.5202 -0.5503  0.1387
 8030SOL     OW35722   3.604   3.971  12.454 -0.0280  0.0199  0.0924
 8030SOL    HW135723   3.698   3.959  12.471  0.4114 -0.0681 -2.3890
 8030SOL    HW235724   3.598   3.910  12.381  1.4731 -0.6032  0.4786
 8031SOL     OW35725   3.631   2.420   6.666  0.3875 -0.4575  0.7969
 8031SOL    HW135726   3.712   2.376   6.691  0.5836 -1.5425 -1.7342
 8031SOL    HW235727   3.588   2.414   6.752  0.1773  0.1436  0.7317
 8032SOL     OW35728   3.598   1.522   6.496  0.8003 -0.0446 -0.0619
 8032SOL    HW135729   3.602   1.603   6.547  1.0667 -0.0009 -0.1503
 8032SOL    HW235730   3.566   1.545   6.409 -0.3282 -0.8501  0.1381
 8033SOL     OW35731   0.636   1.648   5.584  0.4683  0.1181 -0.3488
 8033SOL    HW135732   0.717   1.697   5.596  1.1168 -1.4771  1.7660
 8033SOL    HW235733   0.586   1.695   5.650  0.3963 -1.7794  0.9281
 8034SOL     OW35734   0.676   1.382  11.882  0.0447 -0.4098 -0.0229
 8034SOL    HW135735   0.692   1.445  11.813  0.3861 -0.7235 -0.2335
 8034SOL    HW235736   0.671   1.307  11.823 -0.1174 -0.9112  0.6157
 8035SOL     OW35737   2.634   2.594   8.804 -0.4793  0.1974 -0.0333
 8035SOL    HW135738   2.631   2.689   8.801 -2.2769  0.1787  1.4107
 8035SOL    HW235739   2.700   2.573   8.737 -0.2056 -2.3323  1.0088
 8036SOL     OW35740   4.275   0.246   5.238 -0.1113 -0.8748  0.2040
 8036SOL    HW135741   4.251   0.337   5.258  2.2328 -0.0337 -0.8643
 8036SOL    HW235742   4.364   0.241   5.272 -0.1978  0.8342  0.6648
 8037SOL     OW35743   1.368   1.764   3.696 -0.3843 -0.0940 -0.3437
 8037SOL    HW135744   1.286   1.721   3.673  0.1156 -0.5026 -1.3430
 8037SOL    HW235745   1.415   1.783   3.615 -1.0842  0.5434 -0.5916
 8038SOL     OW35746   0.897   2.569   5.209 -0.0081  0.1482  0.0236
 8038SOL    HW135747   0.809   2.531   5.200 -0.3699  1.5739 -2.4030
 8038SOL    HW235748   0.918   2.582   5.117  0.2292  2.0596  0.3371
 8039SOL     OW35749   3.689   1.503   2.993  0.7969 -0.5944  0.0176
 8039SOL    HW135750   3.769   1.509   3.046  1.1281  1.8862 -0.7639
 8039SOL    HW235751   3.692   1.577   2.933 -0.1059  0.7568  1.6146
 8040SOL     OW35752   2.616   2.789   2.590 -0.0763  0.4868 -0.2218
 8040SOL    HW135753   2.556   2.862   2.577  0.6805  1.0621 -0.5315
 8040SOL    HW235754   2.631   2.787   2.685  0.2028 -1.3328 -0.3051
 8041SOL     OW35755   4.625   0.447   3.724  0.0078 -0.3164 -0.9299
 8041SOL    HW135756   4.617   0.467   3.817  1.7126  1.6496 -1.1974
 8041SOL    HW235757   4.702   0.390   3.720  0.5320  0.3089  0.1479
 8042SOL     OW35758   2.988   4.482   0.635 -0.0594 -0.3822 -0.5625
 8042SOL    HW135759   2.958   4.564   0.675 -0.9377 -0.8164 -0.3307
 8042SOL    HW235760   2.997   4.436   0.719  0.4604 -0.4562 -0.6562
 8043SOL     OW35761   4.573   3.514   7.976 -0.1867 -0.1611  0.3446
 8043SOL    HW135762   4.582   3.568   7.898 -1.0700 -0.0815  0.2960
 8043SOL    HW235763   4.609   3.431   7.944 -1.4275  0.1747 -1.9351
 8044SOL     OW35764   3.365   2.219   3.451  0.4141 -0.4638 -0.3303
 8044SOL    HW135765   3.451   2.199   3.412  0.8763  1.5958 -0.3555
 8044SOL    HW235766   3.315   2.250   3.375  2.5894  1.7425 -0.8863
 8045SOL     OW35767   2.556   2.389   7.704  0.2922  0.2494  0.0689
 8045SOL    HW135768   2.537   2.373   7.611 -0.1902 -1.4658  0.4641
 8045SOL    HW235769   2.478   2.438   7.730  0.2196  0.7243 -1.0167
 8046SOL     OW35770   1.933   4.175   5.621 -0.2423  0.3986  0.6274
 8046SOL    HW135771   2.008   4.127   5.586 -0.4245 -0.3269  1.2214
 8046SOL    HW235772   1.902   4.105   5.680  1.4344 -0.3807  0.5923
 8047SOL     OW35773   1.504   1.077   2.326  0.4950  0.1065  0.3648
 8047SOL    HW135774   1.428   1.065   2.270  2.9052  0.9342 -3.1159
 8047SOL    HW235775   1.507   0.994   2.374  1.5606 -0.3576 -0.4942
 8048SOL     OW35776   1.971   2.379   2.736  0.6248  0.1890  0.0821
 8048SOL    HW135777   2.042   2.357   2.796  0.8395 -0.4039 -0.3901
 8048SOL    HW235778   2.007   2.335   2.659 -0.7459  1.5054 -1.3085
 8049SOL     OW35779   2.925   2.145  15.356 -0.4295 -0.1780  0.0859
 8049SOL    HW135780   2.838   2.150  15.397 -0.1680  0.2728  0.5785
 8049SOL    HW235781   2.963   2.231  15.375  2.8117 -1.5457 -0.1925
 8050SOL     OW35782   3.482   4.312  16.050 -0.0673 -0.1858 -0.3281
 8050SOL    HW135783   3.451   4.253  15.982 -2.9069 -1.1908  1.8400
 8050SOL    HW235784   3.432   4.392  16.037  0.0195 -0.2691 -1.1829
 8051SOL     OW35785   4.155   2.142   9.457  0.4697  0.3871 -0.2638
 8051SOL    HW135786   4.219   2.185   9.514 -0.4974 -0.4701  1.4917
 8051SOL    HW235787   4.125   2.070   9.513 -0.5174  0.0744 -1.2030
 8052SOL     OW35788   2.137   3.577   1.316  0.7811 -0.1381 -0.0794
 8052SOL    HW135789   2.189   3.620   1.248 -2.1295  1.2721 -1.4178
 8052SOL    HW235790   2.126   3.485   1.291  0.3353 -0.1136  0.0343
 8053SOL     OW35791   4.045   0.705   3.133 -0.6600  0.3930 -0.2599
 8053SOL    HW135792   4.117   0.642   3.144 -0.8812  0.5694  2.1660
 8053SOL    HW235793   3.976   0.650   3.096  1.0960 -1.5490 -0.6379
 8054SOL     OW35794   0.407   1.896   6.041  0.1128 -0.1168  0.0421
 8054SOL    HW135795   0.471   1.853   6.098 -0.4570 -2.6330 -1.1879
 8054SOL    HW235796   0.381   1.979   6.081 -0.2597 -1.3365  2.3822
 8055SOL     OW35797   3.931   4.642  16.833 -0.3910 -0.1079 -0.2561
 8055SOL    HW135798   3.979   4.695  16.897 -2.0279  0.8314  0.1814
 8055SOL    HW235799   3.871   4.593  16.888  1.6226 -0.3792  1.7060
 8056SOL     OW35800   1.329   2.526   3.769 -0.4548 -0.4568 -0.1493
 8056SOL    HW135801   1.268   2.461   3.804  0.4362 -2.7307 -2.8283
 8056SOL    HW235802   1.272   2.601   3.755 -0.0248 -0.2411 -0.7453
 8057SOL     OW35803   1.456   2.884  13.779  0.1140 -0.2893  0.2168
 8057SOL    HW135804   1.477   2.791  13.775  0.8005 -0.1979  1.7395
 8057SOL    HW235805   1.372   2.892  13.734  0.8217 -0.2452 -1.0770
 8058SOL     OW35806   1.774   3.807   7.118 -0.5665 -0.2661  0.5816
 8058SOL    HW135807   1.782   3.839   7.028 -1.7299 -0.1653  0.5171
 8058SOL    HW235808   1.827   3.729   7.102  0.2137  0.3916 -0.0466
 8059SOL     OW35809   0.554   2.520   6.609 -0.6582  0.5016 -0.3641
 8059SOL    HW135810   0.469   2.559   6.593 -0.6421  0.9679  0.7307
 8059SOL    HW235811   0.566   2.537   6.702  0.3230  0.3538 -0.4563
 8060SOL     OW35812   0.660   1.085   6.308  0.0330 -0.3162 -0.2598
 8060SOL    HW135813   0.616   1.151   6.361  0.5809  0.7493 -1.1215
 8060SOL    HW235814   0.599   1.069   6.236 -0.6145 -1.1798  0.4852
 8061SOL     OW35815   0.864   0.056   5.371  0.1892  0.4882 -0.1815
 8061SOL    HW135816   0.911   0.056   5.455  0.7600 -2.3730 -0.5053
 8061SOL    HW235817   0.934   0.087   5.313 -0.4645 -0.1931 -1.3126
 8062SOL     OW35818   2.431   4.078  12.346  0.4628 -0.3921 -0.4166
 8062SOL    HW135819   2.416   4.139  12.418 -0.8697 -0.7721 -0.3747
 8062SOL    HW235820   2.519   4.047  12.366  0.1668  0.6183  2.3878
 8063SOL     OW35821   4.559   3.900  17.385  0.0593  0.2392 -0.1943
 8063SOL    HW135822   4.602   3.957  17.320  0.9484  2.1873  2.0971
 8063SOL    HW235823   4.484   3.875  17.331 -0.7836  1.5181  0.3865
 8064SOL     OW35824   0.483   0.315   7.233 -0.3587 -0.3107  0.5908
 8064SOL    HW135825   0.484   0.407   7.257  1.7937 -0.1256 -0.1897
 8064SOL    HW235826   0.393   0.307   7.202  0.1476  0.4242 -1.0931
 8065SOL     OW35827   3.830   2.118  13.892 -0.1114 -0.0020 -0.1669
 8065SOL    HW135828   3.816   2.188  13.955 -0.0756 -0.2060  0.0684
 8065SOL    HW235829   3.925   2.106  13.900 -0.0044  1.5346  0.7192
 8066SOL     OW35830   4.706   0.168   4.048 -0.2333  0.0010  0.0917
 8066SOL    HW135831   0.024   0.091   4.075  1.9609  2.7157  3.9142
 8066SOL    HW235832   0.025   0.238   4.090 -2.1210  1.6897 -0.4609
 8067SOL     OW35833   2.492   1.563   8.025 -0.5409  0.2686 -0.0447
 8067SOL    HW135834   2.550   1.561   7.948  0.2343 -0.7265  0.5625
 8067SOL    HW235835   2.444   1.645   8.013 -2.6369 -0.6288  2.2629
 8068SOL     OW35836   4.428   0.382   3.325 -0.6091 -0.1814  0.1150
 8068SOL    HW135837   4.401   0.402   3.414  0.1051  0.1387  0.2601
 8068SOL    HW235838   4.523   0.386   3.331 -0.7001 -0.0171  1.2758
 8069SOL     OW35839   3.518   2.546   5.845 -0.1925 -0.4352 -0.0235
 8069SOL    HW135840   3.555   2.509   5.764 -0.0357  0.1202 -0.2062
 8069SOL    HW235841   3.509   2.636   5.814 -3.4629 -0.5536  0.6445
 8070SOL     OW35842   1.692   3.411   7.151  0.1200 -0.0336 -0.1596
 8070SOL    HW135843   1.724   3.322   7.142  0.3746 -0.0133  0.5380
 8070SOL    HW235844   1.600   3.389   7.135 -0.2401  0.7849  0.7645
 8071SOL     OW35845   3.008   0.026   3.255  0.4294  0.3191 -0.2737
 8071SOL    HW135846   3.045   4.670   3.271 -1.3034 -0.0464  1.7685
 8071SOL    HW235847   2.970   0.052   3.339  0.9639  1.6389 -0.4426
 8072SOL     OW35848   1.148   2.367   5.209  0.1204  0.2301  0.1414
 8072SOL    HW135849   1.058   2.341   5.228 -0.5476  3.5524  1.4918
 8072SOL    HW235850   1.198   2.310   5.268  1.2841  0.8325 -0.2708
 8073SOL     OW35851   1.988   3.136   8.717 -0.8932  0.2326  0.0459
 8073SOL    HW135852   1.982   3.231   8.719 -3.1797  0.0725  1.0719
 8073SOL    HW235853   2.067   3.124   8.769 -0.0384  2.6226 -0.7115
 8074SOL     OW35854   3.913   2.763   0.923 -0.5928 -0.1993  0.7663
 8074SOL    HW135855   3.967   2.785   0.999 -1.6508  0.7191  1.2768
 8074SOL    HW235856   3.855   2.840   0.922  0.6853  0.7769  1.4812
 8075SOL     OW35857   2.531   2.326  11.657 -0.5509  0.1511  0.8097
 8075SOL    HW135858   2.608   2.377  11.686  0.1333 -0.3576 -0.1208
 8075SOL    HW235859   2.580   2.245  11.667 -0.2760  0.4679  2.1400
 8076SOL     OW35860   1.183   4.540   4.970 -0.4267 -0.0316 -0.1220
 8076SOL    HW135861   1.124   4.615   4.964 -0.8679 -0.3318  0.4631
 8076SOL    HW235862   1.173   4.503   4.882 -0.1366  0.7270 -0.4732
 8077SOL     OW35863   3.978   2.662  14.973 -0.1976 -0.4716  0.3209
 8077SOL    HW135864   4.037   2.624  15.037 -1.8872 -0.7832  1.7041
 8077SOL    HW235865   3.911   2.597  14.953 -1.8701  0.3897  3.0519
 8078SOL     OW35866   1.991   0.498   8.692  0.1715 -0.6101  0.5820
 8078SOL    HW135867   1.971   0.562   8.760 -0.7851 -1.1469  0.8134
 8078SOL    HW235868   1.930   0.521   8.621  0.8700  0.9484  0.4984
 8079SOL     OW35869   0.840   3.294  14.208 -0.2438  0.0668  0.5499
 8079SOL    HW135870   0.800   3.341  14.135 -1.7229 -2.8618 -0.5513
 8079SOL    HW235871   0.814   3.347  14.283 -0.4549  1.0305 -0.2018
 8080SOL     OW35872   1.733   1.867   9.335  0.2078  0.1508 -0.4569
 8080SOL    HW135873   1.706   1.797   9.275 -1.9268 -1.2158  2.1071
 8080SOL    HW235874   1.683   1.941   9.301 -1.1461 -0.8219 -0.5591
 8081SOL     OW35875   1.622   1.266  13.578  0.2066 -0.5109  0.2321
 8081SOL    HW135876   1.610   1.217  13.658 -0.2187 -0.4382  0.2132
 8081SOL    HW235877   1.531   1.271  13.548 -0.1238 -0.8326  1.2040
 8082SOL     OW35878   1.200   0.090   8.584 -0.2399 -0.0344  0.2010
 8082SOL    HW135879   1.212   0.006   8.629 -1.2520  0.4634  1.3938
 8082SOL    HW235880   1.265   0.148   8.624  0.6066 -1.1057  0.3931
 8083SOL     OW35881   3.508   0.384   9.167  0.6061  0.5246 -0.2133
 8083SOL    HW135882   3.420   0.369   9.133 -1.0195 -0.4970  4.5289
 8083SOL    HW235883   3.514   0.365   9.260 -0.6875 -1.6978 -0.5646
 8084SOL     OW35884   0.765   2.536   7.388 -0.1884  0.2471 -0.4834
 8084SOL    HW135885   0.785   2.453   7.432 -0.2750  0.1961 -0.5418
 8084SOL    HW235886   0.850   2.579   7.377  0.4476 -1.3275 -1.9040
 8085SOL     OW35887   3.623   3.065   7.899  0.2377 -0.0093  0.6010
 8085SOL    HW135888   3.584   3.116   7.828 -1.4402 -3.0331 -0.6758
 8085SOL    HW235889   3.710   3.103   7.909  0.0055  1.2373 -2.3017
 8086SOL     OW35890   0.785   1.481   2.237 -0.2729  0.0023 -0.5957
 8086SOL    HW135891   0.755   1.520   2.319  0.5049 -1.6777  0.4820
 8086SOL    HW235892   0.796   1.389   2.263  2.1421  1.0554  2.0102
 8087SOL     OW35893   2.811   0.270  14.589 -0.7077  0.6028 -0.2659
 8087SOL    HW135894   2.734   0.262  14.533  0.9596  1.4742 -2.7034
 8087SOL    HW235895   2.823   0.365  14.592  1.1405  0.3468  0.6287
 8088SOL     OW35896   1.140   2.529   1.809 -0.3242  0.6335  0.2338
 8088SOL    HW135897   1.194   2.518   1.731  2.2845  2.9569  1.7141
 8088SOL    HW235898   1.164   2.457   1.867 -0.4423  1.5796  1.4492
 8089SOL     OW35899   0.807   3.313   3.010  0.2708  0.6023 -0.0041
 8089SOL    HW135900   0.782   3.397   2.970 -2.4543 -0.6866 -1.0430
 8089SOL    HW235901   0.897   3.337   3.032  0.7295  0.2522 -1.4865
 8090SOL     OW35902   1.505   3.671   4.106  0.6717 -1.0919 -0.0437
 8090SOL    HW135903   1.589   3.717   4.109 -0.8279  1.5407  1.1955
 8090SOL    HW235904   1.497   3.625   4.189  0.6027  0.8367  1.0038
 8091SOL     OW35905   1.386   0.418   6.054 -0.5133  0.2147  0.1928
 8091SOL    HW135906   1.355   0.495   6.007 -2.4616 -0.8001 -0.1708
 8091SOL    HW235907   1.312   0.411   6.114 -2.1181 -1.5467 -1.9741
 8092SOL     OW35908   0.461   2.292  13.238 -0.5852  0.3951  0.0139
 8092SOL    HW135909   0.367   2.291  13.255 -0.6453  0.8701 -0.3071
 8092SOL    HW235910   0.479   2.382  13.211 -0.1677  0.1110 -0.6578
 8093SOL     OW35911   0.700   2.290  14.221 -0.2657 -0.0137  1.1009
 8093SOL    HW135912   0.685   2.340  14.141 -0.1664  1.5691  2.0681
 8093SOL    HW235913   0.776   2.236  14.201  0.1313  1.2754 -0.7459
 8094SOL     OW35914   1.966   4.382   0.010 -0.7366  0.1599 -0.0302
 8094SOL    HW135915   1.928   4.294   0.007  1.4857 -0.7679 -1.3732
 8094SOL    HW235916   2.057   4.357  17.718 -0.7634  0.0591 -0.0274
 8095SOL     OW35917   3.845   3.102  14.450 -0.4415  0.2791  0.3430
 8095SOL    HW135918   3.907   3.076  14.518  0.1982 -2.9445 -1.4535
 8095SOL    HW235919   3.777   3.035  14.458 -0.4028  0.2383  0.3322
 8096SOL     OW35920   1.605   2.153   5.118 -0.5251 -0.5646 -0.0880
 8096SOL    HW135921   1.594   2.207   5.040 -1.1933 -1.9232 -0.9330
 8096SOL    HW235922   1.535   2.087   5.115 -2.9993  2.1605 -1.5076
 8097SOL     OW35923   0.862   3.040  14.256 -0.0265 -0.2026 -0.1675
 8097SOL    HW135924   0.851   3.135  14.253 -2.2922 -0.4196  0.7037
 8097SOL    HW235925   0.872   3.033  14.161  0.5528 -1.2424 -0.0363
 8098SOL     OW35926   3.404   0.751   8.637 -0.3025  0.3733  0.2121
 8098SOL    HW135927   3.367   0.790   8.716 -0.2998 -1.8468  1.3281
 8098SOL    HW235928   3.485   0.721   8.679  0.8170 -0.2671 -2.4024
 8099SOL     OW35929   4.110   2.385   3.698 -0.1701 -0.0955  0.6455
 8099SOL    HW135930   4.047   2.322   3.663  2.4427 -1.0853 -2.2435
 8099SOL    HW235931   4.081   2.394   3.789 -1.1059  1.7481  0.1746
 8100SOL     OW35932   4.582   4.716   0.874  0.2879  0.0653 -0.2163
 8100SOL    HW135933   4.510   4.655   0.890 -1.4266  3.3144  4.5273
 8100SOL    HW235934   4.543   0.072   0.881  0.6772  0.2416 -0.2311
 8101SOL     OW35935   3.875   3.267   4.584 -0.2173 -0.3524  0.1513
 8101SOL    HW135936   3.853   3.207   4.656 -1.0123  1.7502  1.6393
 8101SOL    HW235937   3.969   3.248   4.575 -0.1148  0.2732 -0.0953
 8102SOL     OW35938   0.524   1.390   8.815 -0.1631 -0.3123 -0.0956
 8102SOL    HW135939   0.429   1.388   8.825 -0.1273 -2.0139 -0.0761
 8102SOL    HW235940   0.540   1.297   8.796  2.3680 -0.0972  0.9841
 8103SOL     OW35941   2.232   2.984   9.120 -0.1217  0.5040 -0.7352
 8103SOL    HW135942   2.139   2.976   9.097 -0.4297  0.4608  0.5283
 8103SOL    HW235943   2.252   2.899   9.158 -0.4420  0.3806 -0.8380
 8104SOL     OW35944   0.918   2.576   4.921  0.1253  0.0172 -0.1059
 8104SOL    HW135945   0.866   2.624   4.856 -0.9034  0.6493  1.1815
 8104SOL    HW235946   0.918   2.488   4.883 -1.3797  0.2882 -0.7433
 8105SOL     OW35947   0.375   1.144   9.053 -0.1296  0.4710 -0.0848
 8105SOL    HW135948   0.324   1.138   8.973  0.4727 -1.1122 -0.3388
 8105SOL    HW235949   0.435   1.072   9.033 -0.3487 -0.1453  1.4482
 8106SOL     OW35950   1.111   4.447   3.211  0.1845 -0.0230 -0.0579
 8106SOL    HW135951   1.177   4.415   3.273 -0.6355 -2.3368 -0.4033
 8106SOL    HW235952   1.128   4.387   3.139 -1.3348  0.5332 -0.8548
 8107SOL     OW35953   0.685   2.374  16.723  0.1023 -0.1112  0.3144
 8107SOL    HW135954   0.688   2.384  16.628 -2.4160 -1.4935  0.0982
 8107SOL    HW235955   0.732   2.293  16.746 -0.2630 -0.1723  0.8559
 8108SOL     OW35956   3.226   1.534  10.994  0.2493  0.1384  0.7758
 8108SOL    HW135957   3.235   1.531  10.899 -1.0780 -0.4726  0.6767
 8108SOL    HW235958   3.245   1.625  11.015  0.0150 -0.0510  1.8171
 8109SOL     OW35959   4.437   4.058   5.300  0.2613  0.2027 -0.4857
 8109SOL    HW135960   4.417   4.038   5.208 -0.0881  0.2085 -0.4108
 8109SOL    HW235961   4.520   4.105   5.289  0.6382 -0.3790 -0.1475
 8110SOL     OW35962   1.776   4.432   2.984  0.1538  0.1396  0.2961
 8110SOL    HW135963   1.786   4.464   3.073  1.3916  2.3798 -0.6502
 8110SOL    HW235964   1.858   4.463   2.945 -0.6622  1.9271 -0.0075
 8111SOL     OW35965   2.291   3.696  11.341  0.0627  0.1408  0.0624
 8111SOL    HW135966   2.372   3.654  11.314 -0.1078 -0.3417  0.2956
 8111SOL    HW235967   2.268   3.744  11.261  1.0441  1.0426  0.3213
 8112SOL     OW35968   2.315   4.343   3.079 -0.4185  0.2438  0.5856
 8112SOL    HW135969   2.337   4.433   3.058  0.1248 -0.1464 -0.5569
 8112SOL    HW235970   2.406   4.316   3.091 -1.2086 -2.0202  1.4963
 8113SOL     OW35971   0.896   0.345  13.850 -0.2606 -0.0175  0.4317
 8113SOL    HW135972   0.948   0.409  13.800 -1.7992  2.0281  1.4369
 8113SOL    HW235973   0.876   0.394  13.929 -2.7580 -0.1109 -0.1491
 8114SOL     OW35974   2.240   4.401   9.621  0.2609 -0.4477  0.5068
 8114SOL    HW135975   2.166   4.358   9.663  0.1326 -0.5124  0.2174
 8114SOL    HW235976   2.250   4.477   9.678  1.5390  0.4647 -0.9139
 8115SOL     OW35977   3.337   0.793   6.307  0.1350  0.0015 -0.0599
 8115SOL    HW135978   3.339   0.766   6.215  1.5307  1.5690 -0.4775
 8115SOL    HW235979   3.329   0.711   6.356  1.4735  0.2879  0.6436
 8116SOL     OW35980   3.779   1.510  10.360 -0.4786  1.1141  0.2318
 8116SOL    HW135981   3.846   1.575  10.380 -0.3392  0.3400  2.2924
 8116SOL    HW235982   3.776   1.463  10.444  2.0043 -2.2311 -1.5436
 8117SOL     OW35983   3.906   3.396   5.779 -0.4458 -0.4359 -0.8127
 8117SOL    HW135984   3.973   3.451   5.820 -1.0821  1.4198 -2.2254
 8117SOL    HW235985   3.824   3.433   5.812  0.4772 -0.6516  1.6806
 8118SOL     OW35986   3.178   0.662  10.927  0.1829  0.1067 -0.1348
 8118SOL    HW135987   3.239   0.694  10.993  0.9848  1.4040 -1.4961
 8118SOL    HW235988   3.104   0.697  10.976 -0.6759  1.1296 -2.1312
 8119SOL     OW35989   3.879   1.138   2.453 -0.4147 -0.0479  0.9599
 8119SOL    HW135990   3.940   1.150   2.380 -0.2410 -1.8751  0.8110
 8119SOL    HW235991   3.830   1.062   2.420  0.6869 -0.8690  1.2098
 8120SOL     OW35992   3.177   4.712  16.308 -0.2307 -0.0359 -0.0736
 8120SOL    HW135993   3.268   4.697  16.285  0.4599  1.5146  1.6175
 8120SOL    HW235994   3.130   4.673  16.235  0.7980  0.9930 -1.2782
 8121SOL     OW35995   3.195   1.215   3.863 -0.3027  0.1252  0.0430
 8121SOL    HW135996   3.222   1.305   3.844 -1.7633  0.6090  0.2627
 8121SOL    HW235997   3.171   1.219   3.955  1.3346  1.4464  0.4134
 8122SOL     OW35998   2.712   0.679  16.338  0.2379  0.2474 -0.1697
 8122SOL    HW135999   2.631   0.724  16.317  0.8393  0.9731 -0.9496
 8122SOL    HW236000   2.763   0.681  16.257  1.3299 -1.3262  0.4660
 8123SOL     OW36001   3.438   4.462   5.212  0.2667 -0.0542 -0.2547
 8123SOL    HW136002   3.520   4.446   5.165 -0.2847  0.7824 -1.5021
 8123SOL    HW236003   3.420   4.370   5.234  0.7985 -0.0792  0.0545
 8124SOL     OW36004   2.428   0.231   4.400 -0.1009 -0.0268  1.2679
 8124SOL    HW136005   2.521   0.252   4.398  0.0910 -1.0219 -0.0422
 8124SOL    HW236006   2.412   0.168   4.330 -1.1169  1.8074 -0.1668
 8125SOL     OW36007   4.383   3.930   1.367 -1.1453  0.4586  0.5574
 8125SOL    HW136008   4.417   4.013   1.333  2.1956 -1.5952 -1.0187
 8125SOL    HW236009   4.332   3.904   1.290  0.1552  1.0564 -0.4971
 8126SOL     OW36010   2.653   1.302  11.182 -0.3775  0.1054  0.0652
 8126SOL    HW136011   2.676   1.389  11.149 -0.3380  0.6357  1.4897
 8126SOL    HW236012   2.622   1.321  11.270 -2.1107  1.4212 -0.8255
 8127SOL     OW36013   2.910   2.784   1.872  0.2768  0.1563  0.6721
 8127SOL    HW136014   2.978   2.851   1.865  1.8434 -1.3377  1.6106
 8127SOL    HW236015   2.873   2.824   1.951 -1.9187 -3.2872  1.4081
 8128SOL     OW36016   3.442   4.613  16.243  0.7392  0.3050  0.2978
 8128SOL    HW136017   3.416   4.521  16.244 -0.1697  0.5658  0.5619
 8128SOL    HW236018   3.503   4.611  16.169  0.2197 -1.7251 -0.0474
 8129SOL     OW36019   0.691   0.901   2.570  0.4889  0.5718 -0.0018
 8129SOL    HW136020   0.768   0.912   2.626 -1.4550 -1.1105  2.9882
 8129SOL    HW236021   0.635   0.976   2.592 -0.0498 -0.5372  2.4162
 8130SOL     OW36022   2.271   3.788  17.172 -0.7575  0.1084  0.1384
 8130SOL    HW136023   2.330   3.739  17.114 -1.4872 -1.8297  1.0048
 8130SOL    HW236024   2.184   3.767  17.136 -1.6714 -0.1199  2.5070
 8131SOL     OW36025   3.974   1.766   1.747 -0.1454  0.0697 -0.0815
 8131SOL    HW136026   3.919   1.836   1.782 -1.0026  0.1777 -1.6452
 8131SOL    HW236027   3.941   1.769   1.657 -0.3303 -0.1842 -0.0206
 8132SOL     OW36028   1.789   4.024   2.358  0.5137  0.3075 -0.1718
 8132SOL    HW136029   1.800   3.941   2.310 -3.0001  0.4550 -1.2147
 8132SOL    HW236030   1.790   3.983   2.445  2.0194 -0.1061 -0.3728
 8133SOL     OW36031   4.274   3.905   3.607 -0.2799  0.1663  0.0814
 8133SOL    HW136032   4.339   3.972   3.586  1.3860 -1.3988  0.2511
 8133SOL    HW236033   4.197   3.961   3.615 -0.0135  0.5375  0.0868
 8134SOL     OW36034   1.524   4.562   8.267  0.3667 -0.2628 -0.1681
 8134SOL    HW136035   1.472   4.560   8.348  0.3861  2.8337 -0.0705
 8134SOL    HW236036   1.458   4.538   8.202 -1.6050 -1.0662  2.1202
 8135SOL     OW36037   1.368   1.587   9.052  0.3892 -0.4466  0.2783
 8135SOL    HW136038   1.322   1.671   9.047  1.5265  0.1420 -0.2160
 8135SOL    HW236039   1.297   1.527   9.076  1.3996 -1.6456  0.2504
 8136SOL     OW36040   0.581   3.500  14.640 -0.0138  0.4584 -0.4469
 8136SOL    HW136041   0.570   3.591  14.615 -1.4138  0.3053 -0.3856
 8136SOL    HW236042   0.548   3.502  14.730 -0.9837 -2.2663 -0.7107
 8137SOL     OW36043   4.702   3.081   2.383 -0.0379 -0.0224  0.2117
 8137SOL    HW136044   4.702   3.170   2.419  0.9534 -0.2874  0.8662
 8137SOL    HW236045   4.725   3.108   2.294  0.3247 -4.0200 -0.9249
 8138SOL     OW36046   4.332   0.621   4.110 -0.4554  0.0929 -0.1779
 8138SOL    HW136047   4.284   0.679   4.170  1.9413  1.7110  0.2088
 8138SOL    HW236048   4.270   0.551   4.094 -0.9843  0.2579  1.1438
 8139SOL     OW36049   0.535   1.543  13.905  0.0282  0.0197 -0.3251
 8139SOL    HW136050   0.506   1.615  13.961  3.4792 -0.0652  1.6132
 8139SOL    HW236051   0.517   1.579  13.819 -0.9429 -1.7807 -0.8616
 8140SOL     OW36052   1.159   0.531   1.251 -0.2537 -0.2006 -0.4487
 8140SOL    HW136053   1.210   0.527   1.170 -1.1214 -1.3961 -0.9438
 8140SOL    HW236054   1.118   0.444   1.242 -0.6476  0.1087 -1.6088
 8141SOL     OW36055   3.938   1.402   7.699  0.3111  0.1485 -0.0668
 8141SOL    HW136056   3.981   1.442   7.775 -0.7933  0.0060  0.6462
 8141SOL    HW236057   3.968   1.462   7.632 -0.2371 -0.4104 -0.8126
 8142SOL     OW36058   0.028   3.496   8.432 -0.1530 -0.0206 -0.5411
 8142SOL    HW136059   4.672   3.532   8.414 -0.1837  0.2342  0.1285
 8142SOL    HW236060   0.015   3.474   8.524 -0.2315  0.7394 -0.3748
 8143SOL     OW36061   4.434   3.215  12.785  0.0351 -0.3756 -0.1170
 8143SOL    HW136062   4.450   3.304  12.752  2.1048  0.1922  2.4321
 8143SOL    HW236063   4.518   3.175  12.762 -0.4644 -1.5396  0.1189
 8144SOL     OW36064   1.767   3.110   3.348  0.4516 -0.2576  0.2032
 8144SOL    HW136065   1.857   3.085   3.368  0.2659  0.0011  1.3423
 8144SOL    HW236066   1.761   3.100   3.253 -1.1751 -3.2945  0.6270
 8145SOL     OW36067   4.060   0.208   7.070 -0.1394  0.0933 -0.3955
 8145SOL    HW136068   4.040   0.140   7.134  1.9568  1.3492  1.6030
 8145SOL    HW236069   4.153   0.193   7.053 -0.5677 -1.0970 -1.7162
 8146SOL     OW36070   1.827   0.341  17.482 -0.8309  0.2978  0.3585
 8146SOL    HW136071   1.832   0.259  17.532 -0.2035  1.9464  3.0511
 8146SOL    HW236072   1.830   0.312  17.391  0.9099  1.3974  0.0774
 8147SOL     OW36073   3.908   4.098  11.195  0.5129 -0.1261 -0.3558
 8147SOL    HW136074   3.986   4.099  11.251  1.2423 -1.7206 -1.3384
 8147SOL    HW236075   3.834   4.110  11.255  0.1374 -0.4096 -0.7593
 8148SOL     OW36076   2.757   3.897   3.293 -0.3216  0.1441 -0.5728
 8148SOL    HW136077   2.737   3.972   3.350  0.4358 -0.5801  0.6461
 8148SOL    HW236078   2.753   3.822   3.353 -2.2521  0.0868 -0.7958
 8149SOL     OW36079   0.865   3.270  12.106 -0.5152  0.1089  0.6471
 8149SOL    HW136080   0.817   3.317  12.037 -1.0875 -0.3464  0.7320
 8149SOL    HW236081   0.949   3.313  12.119  0.5918 -2.3631  1.5204
 8150SOL     OW36082   2.654   4.681   7.952  0.4395 -0.1690  0.1685
 8150SOL    HW136083   2.639   4.729   8.033  0.6471 -1.1437  0.7836
 8150SOL    HW236084   2.675   4.593   7.985 -2.6383 -0.8102  0.4347
 8151SOL     OW36085   3.012   3.285   7.433 -0.6186 -0.7133  0.6267
 8151SOL    HW136086   2.962   3.226   7.490  1.9172 -1.9753  1.5053
 8151SOL    HW236087   2.959   3.281   7.353 -1.9795 -1.9464  1.5800
 8152SOL     OW36088   0.074   0.528  17.498 -0.5215  0.2145  0.0247
 8152SOL    HW136089   0.045   0.616  17.474  2.1506  1.2958  0.7899
 8152SOL    HW236090   4.726   0.475  17.508 -0.5356  0.1041 -0.6714
 8153SOL     OW36091   3.691   4.715   8.602 -0.3457 -0.1631  0.2649
 8153SOL    HW136092   3.596   4.720   8.595 -0.6448 -1.1331  3.3235
 8153SOL    HW236093   3.707   4.685   8.692 -0.1506  0.7452  0.5284
 8154SOL     OW36094   2.570   0.270   6.217  0.0763  0.0889  0.0903
 8154SOL    HW136095   2.500   0.269   6.282 -1.3794 -1.5895 -1.4979
 8154SOL    HW236096   2.617   0.350   6.240  0.0863  0.4258 -1.1088
 8155SOL     OW36097   2.045   0.542   2.014  0.1639  0.3015 -0.1124
 8155SOL    HW136098   2.108   0.473   2.033 -0.5064 -0.4372 -0.5906
 8155SOL    HW236099   2.012   0.506   1.932 -0.6028  0.4651  0.1229
 8156SOL     OW36100   3.811   1.057  13.074  0.1758  0.0659 -0.2838
 8156SOL    HW136101   3.768   0.979  13.110 -2.6160  1.2159 -1.0789
 8156SOL    HW236102   3.898   1.030  13.045 -0.1307  1.1254 -2.2026
 8157SOL     OW36103   1.717   2.882  10.632 -0.2078 -0.4487  0.2817
 8157SOL    HW136104   1.649   2.849  10.690 -0.9517 -1.2047 -1.0367
 8157SOL    HW236105   1.754   2.797  10.609  0.1588  0.0199 -0.8791
 8158SOL     OW36106   1.516   1.382   4.222 -0.0851  0.6050  0.2556
 8158SOL    HW136107   1.563   1.312   4.269 -0.6084  0.5352  0.6731
 8158SOL    HW236108   1.471   1.426   4.294 -0.2186  0.3127  0.3523
 8159SOL     OW36109   1.585   4.293   7.397 -0.2147  0.2654  0.0544
 8159SOL    HW136110   1.669   4.335   7.379  1.1751 -2.3528  0.3910
 8159SOL    HW236111   1.528   4.365   7.372 -1.3221 -1.5872 -2.7258
 8160SOL     OW36112   1.483   4.196  13.118  0.5774 -0.0080 -0.0124
 8160SOL    HW136113   1.502   4.266  13.180  0.7171 -1.3892  1.5120
 8160SOL    HW236114   1.520   4.114  13.152  0.1130  0.1975  0.9728
 8161SOL     OW36115   3.652   0.899   9.865 -0.0456 -0.4260  0.1010
 8161SOL    HW136116   3.678   0.808   9.877  2.2779  0.3960  1.2202
 8161SOL    HW236117   3.579   0.913   9.926  0.7503 -2.2142  1.4452
 8162SOL     OW36118   0.950   1.061   9.690  0.1380 -0.5152  0.3340
 8162SOL    HW136119   0.957   1.147   9.732 -1.6531 -0.8947  1.4344
 8162SOL    HW236120   0.945   1.078   9.596 -1.1501 -0.4595  0.4065
 8163SOL     OW36121   3.937   2.299   8.284  0.3262 -0.2293 -0.6827
 8163SOL    HW136122   3.928   2.284   8.378  1.1505 -0.5240 -0.6530
 8163SOL    HW236123   4.010   2.243   8.258  2.4049  0.3684  3.7797
 8164SOL     OW36124   3.683   0.312   6.790 -0.7428 -1.0713  0.0246
 8164SOL    HW136125   3.700   0.220   6.813 -1.2844 -1.2822 -0.4179
 8164SOL    HW236126   3.731   0.353   6.862 -0.2758 -0.2314 -0.7666
 8165SOL     OW36127   2.056   4.658   1.198 -0.2645  0.0768 -0.4448
 8165SOL    HW136128   1.983   4.712   1.168 -1.1340 -0.9073 -0.0613
 8165SOL    HW236129   2.129   4.696   1.148  1.6081 -0.8696  1.5362
 8166SOL     OW36130   4.655   4.153  15.371  0.4670  0.3169  0.0273
 8166SOL    HW136131   0.010   4.185  15.399  1.4806  1.0095 -3.9557
 8166SOL    HW236132   4.601   4.228  15.345  1.2768  1.0027  0.3103
 8167SOL     OW36133   2.474   2.013   4.170  0.0064  0.0227  0.0465
 8167SOL    HW136134   2.530   2.089   4.158 -1.7146  1.4936  1.3877
 8167SOL    HW236135   2.388   2.051   4.189  0.3676  1.9448 -2.1804
 8168SOL     OW36136   3.044   4.589   6.438  0.0916 -0.6144 -0.4987
 8168SOL    HW136137   3.085   4.622   6.358 -1.5348  2.0990 -0.2149
 8168SOL    HW236138   3.106   4.521   6.463 -0.9508 -1.4136 -0.0982
 8169SOL     OW36139   3.858   1.614   2.243 -0.1837 -0.1593 -0.0475
 8169SOL    HW136140   3.913   1.677   2.290  0.6619 -0.7717 -0.2094
 8169SOL    HW236141   3.896   1.619   2.155  0.5449  1.8284  0.3651
 8170SOL     OW36142   4.398   0.137   7.746 -0.1785  0.3855 -0.0904
 8170SOL    HW136143   4.482   0.116   7.706 -0.3620  1.7713 -1.1918
 8170SOL    HW236144   4.367   0.054   7.784 -0.5704  0.9245  0.7749
 8171SOL     OW36145   4.025   2.719   0.210  0.0615  0.5329  0.4656
 8171SOL    HW136146   3.967   2.790   0.185 -0.3951  0.5009  1.4001
 8171SOL    HW236147   4.019   2.663   0.133 -1.8767  0.3242  0.7679
 8172SOL     OW36148   4.714   0.362   0.273  0.0179 -0.4588 -0.5399
 8172SOL    HW136149   4.688   0.450   0.247  2.2298  1.1109  2.5557
 8172SOL    HW236150   0.075   0.371   0.249 -0.7338  2.0358 -2.4489
 8173SOL     OW36151   3.774   3.609   3.121 -0.1408 -0.4632  0.1583
 8173SOL    HW136152   3.844   3.640   3.179  0.1784 -0.1335 -0.4013
 8173SOL    HW236153   3.793   3.640   3.033 -1.5003  0.2652  0.1202
 8174SOL     OW36154   0.930   4.726  16.275  0.5223 -0.0675 -0.7712
 8174SOL    HW136155   0.872   4.710  16.349  1.6461 -1.1903 -0.1279
 8174SOL    HW236156   0.877   4.728  16.195  1.1447 -2.2420 -1.2569
 8175SOL     OW36157   3.507   3.405   4.198  0.3567 -0.0480 -0.0930
 8175SOL    HW136158   3.568   3.334   4.214  0.3550 -0.1433 -0.5115
 8175SOL    HW236159   3.499   3.454   4.280  2.8286 -0.1286  0.1828
 8176SOL     OW36160   3.538   1.791   0.861 -0.1722  0.0043 -0.9747
 8176SOL    HW136161   3.522   1.726   0.792 -0.0127 -1.2633  0.1930
 8176SOL    HW236162   3.543   1.744   0.943 -0.8971  1.0544 -0.3256
 8177SOL     OW36163   0.040   4.105   2.355 -0.1896  0.0104 -0.0292
 8177SOL    HW136164   0.126   4.129   2.390  0.8022 -1.7240 -1.2571
 8177SOL    HW236165   0.015   4.190   2.319 -0.1103  0.5905  1.2747
 8178SOL     OW36166   2.472   0.213   5.922  0.1602 -0.3708 -0.1704
 8178SOL    HW136167   2.452   0.284   5.861  0.2073  0.8337  1.2011
 8178SOL    HW236168   2.529   0.249   5.990 -0.2613  0.6499 -0.3426
 8179SOL     OW36169   1.661   0.198  10.553 -0.3381 -0.1726 -0.1161
 8179SOL    HW136170   1.593   0.179  10.619 -0.6782  1.7672  0.0924
 8179SOL    HW236171   1.713   0.119  10.567 -0.4328 -0.0577  0.9506
 8180SOL     OW36172   2.066   3.923   7.437  0.0722 -0.3930  0.1885
 8180SOL    HW136173   2.066   3.912   7.532 -0.7029  0.8555  0.3311
 8180SOL    HW236174   2.119   3.845   7.418  1.5315  0.6151  0.1837
 8181SOL     OW36175   2.688   1.806   7.011  0.1379  0.8246 -0.4288
 8181SOL    HW136176   2.718   1.767   7.093 -1.9722 -1.1107 -0.5645
 8181SOL    HW236177   2.715   1.736   6.951  1.2427  1.4390 -0.6357
 8182SOL     OW36178   1.640   0.471   4.201  0.2168  0.9065  0.2351
 8182SOL    HW136179   1.683   0.556   4.196  1.1375  0.4917  1.0303
 8182SOL    HW236180   1.558   0.500   4.242 -0.2664  1.1089 -0.8855
 8183SOL     OW36181   1.025   1.905  16.363  0.7895  0.4170 -0.2702
 8183SOL    HW136182   1.079   1.827  16.350 -0.0167 -0.5603  2.4523
 8183SOL    HW236183   1.073   1.961  16.423 -0.4882 -0.2189  1.3457
 8184SOL     OW36184   4.143   1.615   4.136 -0.4413 -0.0331  0.1594
 8184SOL    HW136185   4.119   1.688   4.079 -1.1742  0.7313  1.4604
 8184SOL    HW236186   4.232   1.638   4.159 -1.6790  2.1140  2.7856
 8185SOL     OW36187   2.192   4.464  16.403 -0.0978 -0.3534  0.3779
 8185SOL    HW136188   2.148   4.428  16.327  0.3147 -0.9357  0.4100
 8185SOL    HW236189   2.172   4.400  16.471  0.8089 -0.0777  0.9152
 8186SOL     OW36190   2.204   2.197   5.666 -0.3475  0.2303 -0.7848
 8186SOL    HW136191   2.128   2.243   5.630  0.3314  0.8206 -1.4740
 8186SOL    HW236192   2.222   2.239   5.750  1.0986 -0.7541 -0.5957
 8187SOL     OW36193   0.616   3.248   3.685  0.3358 -0.2847 -0.8154
 8187SOL    HW136194   0.648   3.275   3.771 -1.0114 -1.7359  0.1327
 8187SOL    HW236195   0.693   3.194   3.666  1.6991  1.3985 -0.0522
 8188SOL     OW36196   3.021   4.220   6.288 -0.1712  0.2300  0.2806
 8188SOL    HW136197   3.088   4.203   6.222  0.0794 -1.2523  0.9226
 8188SOL    HW236198   3.089   4.217   6.356 -0.1442  1.6440  0.3204
 8189SOL     OW36199   2.913   1.583   2.462  0.4469 -1.0692 -0.1805
 8189SOL    HW136200   2.928   1.496   2.424 -0.9076 -2.3437  2.2803
 8189SOL    HW236201   2.949   1.582   2.550  1.3631 -0.5536 -0.5423
 8190SOL     OW36202   4.485   3.074   5.130 -0.0298  0.3274 -0.1500
 8190SOL    HW136203   4.444   2.997   5.090 -0.9231  1.3561 -1.1746
 8190SOL    HW236204   4.432   3.081   5.210  1.3618 -1.6658  0.9458
 8191SOL     OW36205   1.462   1.815   2.976 -0.0162 -0.2358 -0.5932
 8191SOL    HW136206   1.408   1.894   2.965  1.8195  1.1487  0.3451
 8191SOL    HW236207   1.504   1.832   3.060  0.7203  0.6037 -1.1275
 8192SOL     OW36208   0.742   3.825   9.784 -0.4701  0.0996  0.5508
 8192SOL    HW136209   0.677   3.864   9.843 -0.3930  0.7896  0.1745
 8192SOL    HW236210   0.823   3.811   9.833 -2.1249 -0.4142  3.1517
 8193SOL     OW36211   4.220   2.585   5.161 -0.0768 -0.0713  0.8627
 8193SOL    HW136212   4.309   2.620   5.159 -0.5891  1.1599  0.0430
 8193SOL    HW236213   4.182   2.630   5.237  0.0780  0.6504  0.5143
 8194SOL     OW36214   2.405   4.077   7.303  0.2321  0.4632  0.8591
 8194SOL    HW136215   2.397   3.999   7.357 -0.6451 -0.3292 -0.4255
 8194SOL    HW236216   2.490   4.112   7.330  0.6426 -0.3848  0.6711
 8195SOL     OW36217   0.653   1.895   4.887  0.5600 -0.1839  0.1069
 8195SOL    HW136218   0.603   1.920   4.965 -3.1887 -0.9974 -1.9885
 8195SOL    HW236219   0.650   1.799   4.887 -2.2141 -0.1154  2.9450
 8196SOL     OW36220   4.620   2.677   6.352  0.3123  0.2511  0.1231
 8196SOL    HW136221   4.594   2.689   6.443  0.8013  2.0311  0.0340
 8196SOL    HW236222   4.623   2.582   6.349  0.9029  0.3009 -0.9302
 8197SOL     OW36223   3.859   4.696   6.364  0.4878  0.3900 -0.8392
 8197SOL    HW136224   3.774   4.730   6.392  0.5423 -0.2536  0.1172
 8197SOL    HW236225   3.921   0.013   6.419 -1.1417  0.2007  1.1769
 8198SOL     OW36226   0.268   3.476   8.696  0.2069 -0.6354 -0.0661
 8198SOL    HW136227   0.174   3.467   8.710  0.1743  1.0192  0.7353
 8198SOL    HW236228   0.322   3.432   8.762 -0.0755 -1.1694 -0.1877
 8199SOL     OW36229   2.157   2.372   9.548 -0.3820  0.1751  0.8817
 8199SOL    HW136230   2.109   2.307   9.598 -0.2130 -1.6184 -1.3045
 8199SOL    HW236231   2.094   2.443   9.536 -2.2302 -1.7049 -0.3867
 8200SOL     OW36232   2.596   3.956   8.684  0.2976  0.2406 -0.0300
 8200SOL    HW136233   2.623   4.017   8.615  0.3462  1.2355  0.8670
 8200SOL    HW236234   2.525   3.907   8.642  1.0628 -1.3020  0.4936
 8201SOL     OW36235   1.629   2.725   8.765 -0.2995  0.0874  0.2958
 8201SOL    HW136236   1.697   2.719   8.698  1.2613  1.5134  1.7556
 8201SOL    HW236237   1.680   2.763   8.836  0.1447  0.3554 -0.1680
 8202SOL     OW36238   4.011   1.996  12.583  0.0612 -0.3085  0.3699
 8202SOL    HW136239   4.052   2.081  12.567  0.9195 -0.5969  1.0132
 8202SOL    HW236240   4.033   1.966  12.495  0.3490  1.3948 -0.1396
 8203SOL     OW36241   1.322   2.897   1.174 -0.3237 -0.0423 -0.2999
 8203SOL    HW136242   1.357   2.867   1.091  0.0947  1.9618 -0.8407
 8203SOL    HW236243   1.403   2.878   1.221 -0.9671 -1.1143  0.3726
 8204SOL     OW36244   4.567   3.318   9.111  0.4017  0.2549  0.9727
 8204SOL    HW136245   4.659   3.321   9.137  0.5026  1.0942  0.4949
 8204SOL    HW236246   4.530   3.344   9.196 -1.8682  2.9446 -0.8541
 8205SOL     OW36247   2.400   1.394   1.183 -0.3208 -0.3137  0.1086
 8205SOL    HW136248   2.436   1.327   1.242 -1.8825 -2.8839 -1.8720
 8205SOL    HW236249   2.380   1.472   1.235  0.5072 -1.0146  1.4807
 8206SOL     OW36250   3.594   4.386   6.577 -0.3574  0.4593 -0.0394
 8206SOL    HW136251   3.587   4.383   6.673 -0.7745  1.8976 -0.0212
 8206SOL    HW236252   3.679   4.344   6.574  0.3780  1.9502  0.0743
 8207SOL     OW36253   4.015   4.622   8.905 -0.5111  0.1759 -0.5664
 8207SOL    HW136254   3.962   4.563   8.850  0.8599 -1.2046 -0.4044
 8207SOL    HW236255   3.990   4.712   8.886 -1.2699 -0.2761 -1.7536
 8208SOL     OW36256   1.853   1.832   8.944 -0.4308 -0.6780 -0.2241
 8208SOL    HW136257   1.791   1.775   8.989 -0.4929 -0.6498 -0.2748
 8208SOL    HW236258   1.937   1.832   8.990 -0.6156 -0.8280  0.1087
 8209SOL     OW36259   2.707   2.537  11.420  0.0912  0.3546 -0.9043
 8209SOL    HW136260   2.617   2.568  11.427 -0.0498 -0.4826  0.9317
 8209SOL    HW236261   2.758   2.616  11.401  2.0597 -0.8550 -0.7238
 8210SOL     OW36262   0.231   3.478   5.456  0.3081 -0.0365  0.4187
 8210SOL    HW136263   0.224   3.472   5.361 -0.9798  0.5527  0.4816
 8210SOL    HW236264   0.199   3.568   5.466 -2.3396 -1.0658  0.9845
 8211SOL     OW36265   3.023   0.456   7.389  0.0578 -0.1511 -0.3112
 8211SOL    HW136266   2.945   0.501   7.356 -0.1720 -0.3767 -0.0689
 8211SOL    HW236267   3.019   0.497   7.475 -2.1598 -0.9356 -0.0372
 8212SOL     OW36268   0.540   2.834  10.706  0.6633  0.4534  0.4108
 8212SOL    HW136269   0.482   2.869  10.774 -1.9128 -0.7534 -1.1483
 8212SOL    HW236270   0.494   2.863  10.628 -0.8653  0.7286  1.4201
 8213SOL     OW36271   4.431   3.040   4.590 -0.3021  0.4863  0.0279
 8213SOL    HW136272   4.444   3.069   4.500 -0.6733  1.9889  0.4609
 8213SOL    HW236273   4.421   3.119   4.643  0.8782  2.1862 -2.2887
 8214SOL     OW36274   2.106   2.942   5.285  0.2890  0.6002 -0.4297
 8214SOL    HW136275   2.080   2.856   5.252 -0.0623 -0.1722  1.7985
 8214SOL    HW236276   2.056   2.948   5.367  0.6585  1.5839 -0.2794
 8215SOL     OW36277   1.858   0.362   8.372  0.4625 -0.0813  0.2178
 8215SOL    HW136278   1.795   0.348   8.443  0.2532  2.9031  0.6136
 8215SOL    HW236279   1.807   0.401   8.301 -0.2321 -0.7723  0.3425
 8216SOL     OW36280   3.201   1.784   3.786 -0.4125  0.3824 -0.2802
 8216SOL    HW136281   3.127   1.820   3.736 -0.2522  1.8117  0.5164
 8216SOL    HW236282   3.196   1.831   3.869  0.8931 -0.2002  0.1126
 8217SOL     OW36283   4.086   0.017   2.848 -0.5782  1.1462 -0.0812
 8217SOL    HW136284   4.092   0.001   2.942 -0.7276 -0.4371 -0.3323
 8217SOL    HW236285   4.164   4.702   2.816 -1.8059 -1.1254  0.2315
 8218SOL     OW36286   3.091   2.187   5.058  0.3864 -0.2809 -0.6441
 8218SOL    HW136287   2.996   2.197   5.052 -0.1491 -4.2610  1.1301
 8218SOL    HW236288   3.111   2.108   5.108  1.8287  0.3060 -0.3084
 8219SOL     OW36289   2.296   1.452  16.073  0.0717  0.3570  0.2483
 8219SOL    HW136290   2.243   1.386  16.028 -1.3778  0.3694  1.9381
 8219SOL    HW236291   2.236   1.475  16.143  0.3717 -1.1069  0.9923
 8220SOL     OW36292   1.351   3.406  13.591 -0.6489 -0.4594  0.1102
 8220SOL    HW136293   1.330   3.498  13.577 -1.5722 -0.2304  3.0385
 8220SOL    HW236294   1.339   3.404  13.686  1.8258 -1.9077  0.4094
 8221SOL     OW36295   2.173   0.855   7.111  0.1473  0.1377 -0.1610
 8221SOL    HW136296   2.251   0.802   7.090  0.1017  0.0154 -0.0235
 8221SOL    HW236297   2.208   0.884   7.196 -1.7351  0.1789  0.5919
 8222SOL     OW36298   4.489   2.100   4.265  0.3093  0.3773  0.2264
 8222SOL    HW136299   4.421   2.077   4.327  0.7949 -0.5537  0.4130
 8222SOL    HW236300   4.566   2.058   4.305 -0.6060 -3.3019 -1.8799
 8223SOL     OW36301   3.126   3.975  10.063  0.7695  0.7903 -0.0292
 8223SOL    HW136302   3.065   4.002  10.132  0.5476  1.1851 -0.3779
 8223SOL    HW236303   3.123   4.045   9.998  1.1897  0.5961 -0.2559
 8224SOL     OW36304   0.844   2.788   8.545 -1.2293  0.5822 -0.8264
 8224SOL    HW136305   0.875   2.722   8.607 -0.1781  0.4418 -1.5100
 8224SOL    HW236306   0.824   2.861   8.604  2.2309 -1.2040  2.5728
 8225SOL     OW36307   4.294   0.797   6.733  0.1042 -0.1030 -0.3102
 8225SOL    HW136308   4.256   0.882   6.712  1.5554  0.7234  0.4007
 8225SOL    HW236309   4.239   0.740   6.680  1.2061 -0.2544 -1.2978
 8226SOL     OW36310   3.937   1.164   7.114 -0.1863 -0.2479 -0.3861
 8226SOL    HW136311   4.026   1.137   7.136 -0.6587  0.1570  2.0298
 8226SOL    HW236312   3.905   1.220   7.185 -1.3127 -0.8620 -0.4051
 8227SOL     OW36313   1.426   2.177   4.184 -0.4497 -0.0201  0.4599
 8227SOL    HW136314   1.335   2.169   4.213 -0.2858 -1.2098  0.6504
 8227SOL    HW236315   1.469   2.161   4.268  0.7674 -0.4094 -0.2493
 8228SOL     OW36316   1.830   1.464   2.188  0.5984 -0.2337  0.2840
 8228SOL    HW136317   1.837   1.524   2.114 -0.0245  0.1824  0.5698
 8228SOL    HW236318   1.773   1.394   2.157 -0.1026 -0.1158  1.3063
 8229SOL     OW36319   3.309   0.453   8.805  0.2231 -0.5675 -0.1208
 8229SOL    HW136320   3.254   0.461   8.883  2.6926  2.7360  1.2652
 8229SOL    HW236321   3.343   0.543   8.807 -0.1172 -0.4357 -0.1259
 8230SOL     OW36322   3.173   4.278   6.513 -0.9783  0.4552 -0.6177
 8230SOL    HW136323   3.187   4.228   6.594  1.0726  0.9094 -0.6971
 8230SOL    HW236324   3.226   4.355   6.534  0.6457 -0.6765 -0.5572
 8231SOL     OW36325   2.851   3.813  14.922  0.7212 -0.1617 -0.4847
 8231SOL    HW136326   2.902   3.885  14.959 -0.6954  1.4098 -1.5894
 8231SOL    HW236327   2.772   3.826  14.974  2.1179  2.5589  0.9690
 8232SOL     OW36328   0.244   0.524   0.930  0.1590 -0.5188  0.0224
 8232SOL    HW136329   0.246   0.509   0.836  0.7087  1.5028 -0.2769
 8232SOL    HW236330   0.263   0.617   0.931 -0.8819 -0.3124  0.0582
 8233SOL     OW36331   4.536   1.334   4.229  0.2914  0.5187 -0.0555
 8233SOL    HW136332   4.558   1.241   4.235 -0.1356  0.3870 -0.5999
 8233SOL    HW236333   4.606   1.373   4.177 -1.2286  0.1068 -2.3963
 8234SOL     OW36334   3.773   4.402   5.809 -0.2872  0.5424 -0.2083
 8234SOL    HW136335   3.725   4.461   5.750 -0.3314  0.9302  0.2178
 8234SOL    HW236336   3.705   4.395   5.876 -0.8438  1.0381 -0.7242
 8235SOL     OW36337   2.118   0.937   8.484 -0.2164  0.4368 -0.2521
 8235SOL    HW136338   2.199   0.941   8.432 -0.3037 -1.1042 -0.5169
 8235SOL    HW236339   2.145   0.888   8.562  1.1097  1.5128 -0.0376
 8236SOL     OW36340   0.923   1.006   8.561 -0.2977 -0.3824 -0.3143
 8236SOL    HW136341   0.881   1.074   8.613  0.6552 -0.6669  0.8379
 8236SOL    HW236342   0.899   0.932   8.617 -0.2274 -0.8539 -0.9160
 8237SOL     OW36343   2.452   2.601   1.642  0.5105 -0.3701  0.2616
 8237SOL    HW136344   2.439   2.506   1.640  1.6726 -0.5354  0.3956
 8237SOL    HW236345   2.371   2.625   1.687 -1.1662 -2.0726 -1.9008
 8238SOL     OW36346   3.143   1.457   4.785 -0.4366  0.4135 -0.0277
 8238SOL    HW136347   3.174   1.471   4.874  0.1709  0.3877 -0.2369
 8238SOL    HW236348   3.068   1.398   4.792 -0.1699  0.1656  0.6546
 8239SOL     OW36349   0.543   2.650  12.069 -0.3127  0.0856  0.4683
 8239SOL    HW136350   0.485   2.725  12.059 -2.5573 -1.6251  0.6967
 8239SOL    HW236351   0.497   2.571  12.040  0.9392 -0.5119  0.1205
 8240SOL     OW36352   1.856   2.137   8.901  0.4044 -0.2969  0.1198
 8240SOL    HW136353   1.842   2.046   8.925  0.8681 -0.2700  0.4842
 8240SOL    HW236354   1.939   2.168   8.938  0.5770 -2.0205  1.1853
 8241SOL     OW36355   0.492   2.731   5.479  0.2636  0.2000 -0.1538
 8241SOL    HW136356   0.519   2.794   5.411  1.8390 -0.5888 -0.2401
 8241SOL    HW236357   0.401   2.756   5.493  0.7409  2.0843 -0.3835
 8242SOL     OW36358   1.171   0.550   7.043 -0.6294  0.0063  0.1324
 8242SOL    HW136359   1.226   0.498   6.985  0.8345  3.1050 -1.2583
 8242SOL    HW236360   1.213   0.635   7.026 -0.0843 -0.3107 -0.0996
 8243SOL     OW36361   3.713   3.541   8.205 -0.0326  0.6514  0.0072
 8243SOL    HW136362   3.685   3.603   8.138  0.0856  1.7237  0.9395
 8243SOL    HW236363   3.753   3.472   8.153  1.2515  0.4146  1.2781
 8244SOL     OW36364   0.457   3.508   2.053 -0.5756 -0.6419 -0.7478
 8244SOL    HW136365   0.368   3.540   2.066  0.2805  1.2402  0.4121
 8244SOL    HW236366   0.471   3.425   2.100  2.5003  0.0024 -0.5275
 8245SOL     OW36367   3.322   4.286   4.248  0.0205 -0.2519 -0.3805
 8245SOL    HW136368   3.229   4.286   4.268  0.0985 -1.4521 -0.0268
 8245SOL    HW236369   3.365   4.261   4.330 -0.4617 -1.4758 -0.5141
 8246SOL     OW36370   2.886   0.438   2.270  0.2554 -0.3272 -0.0447
 8246SOL    HW136371   2.879   0.346   2.245  2.1062  0.6910 -4.2891
 8246SOL    HW236372   2.888   0.477   2.183  3.3300 -2.8916 -1.0993
 8247SOL     OW36373   3.362   3.049   6.699 -0.0900  0.0243 -0.2890
 8247SOL    HW136374   3.433   3.089   6.748 -0.1859  0.8917 -0.8489
 8247SOL    HW236375   3.398   3.023   6.614  1.2620  1.4784 -0.1488
 8248SOL     OW36376   0.277   3.067  11.513 -0.4063 -0.1819  0.7942
 8248SOL    HW136377   0.236   3.131  11.572 -1.1286 -0.1227  0.2291
 8248SOL    HW236378   0.260   3.108  11.428  0.5635  1.2967  1.3065
 8249SOL     OW36379   2.552   1.641   9.225  0.4758 -0.0300  0.4383
 8249SOL    HW136380   2.522   1.676   9.141 -0.9929  0.6116  1.2299
 8249SOL    HW236381   2.470   1.597   9.246  0.5666 -0.1345  0.5693
 8250SOL     OW36382   0.527   2.777   2.471 -0.0159 -0.5700 -0.5598
 8250SOL    HW136383   0.497   2.789   2.561 -0.8868  0.7235 -1.0247
 8250SOL    HW236384   0.552   2.864   2.441  0.3452 -0.8429 -1.0539
 8251SOL     OW36385   2.530   1.371  11.434  0.2014 -0.4175 -0.4908
 8251SOL    HW136386   2.599   1.349  11.496 -0.0861  1.6385  0.5727
 8251SOL    HW236387   2.486   1.447  11.473  0.4444 -0.9553  0.8027
 8252SOL     OW36388   0.323   1.780   3.813 -0.0437 -0.3386 -0.7560
 8252SOL    HW136389   0.398   1.836   3.795  1.4843 -1.6085  1.5888
 8252SOL    HW236390   0.259   1.820   3.753 -1.4753 -1.3015  0.1097
 8253SOL     OW36391   2.578   1.908   9.648  0.4700 -0.3786 -0.1055
 8253SOL    HW136392   2.617   1.898   9.561  1.4392  1.8695  0.0775
 8253SOL    HW236393   2.527   1.987   9.629 -0.7448 -1.2138 -0.3603
 8254SOL     OW36394   1.251   1.682   1.383  0.3305 -0.1582  0.2933
 8254SOL    HW136395   1.176   1.730   1.346  1.4967 -0.1029 -1.9570
 8254SOL    HW236396   1.305   1.744   1.432  0.6370 -0.7534  0.6981
 8255SOL     OW36397   3.367   4.137   3.061 -0.2492 -0.1418  0.9768
 8255SOL    HW136398   3.363   4.041   3.053 -0.5952  0.0342 -1.0787
 8255SOL    HW236399   3.444   4.158   3.114 -1.1427  4.5674  0.3401
 8256SOL     OW36400   0.174   2.798   6.898  0.3507  0.2475 -0.2642
 8256SOL    HW136401   0.225   2.827   6.974  1.4185 -3.3354  0.4037
 8256SOL    HW236402   0.084   2.812   6.926  0.8025  1.2598  0.7153
 8257SOL     OW36403   0.401   2.315   3.616 -0.3684 -0.1327 -0.2173
 8257SOL    HW136404   0.346   2.301   3.538  1.8401  0.1076 -1.8101
 8257SOL    HW236405   0.331   2.364   3.659  1.2770  0.1335  2.1150
 8258SOL     OW36406   3.460   0.633   4.108  0.0574 -0.2152 -0.8705
 8258SOL    HW136407   3.539   0.624   4.160 -0.5308  0.2534  0.0905
 8258SOL    HW236408   3.439   0.540   4.112  0.7705 -0.3341 -0.0268
 8259SOL     OW36409   1.598   3.888   5.830  0.1153  0.1194 -0.0081
 8259SOL    HW136410   1.600   3.981   5.853 -1.8223 -0.1897  1.3834
 8259SOL    HW236411   1.530   3.897   5.764 -0.1808 -1.6858  0.0637
 8260SOL     OW36412   1.960   4.323  16.221  0.0231 -0.6694 -0.3535
 8260SOL    HW136413   1.984   4.262  16.291  0.8370 -1.7976 -1.6251
 8260SOL    HW236414   1.901   4.273  16.166 -0.1803 -0.6151 -0.1816
 8261SOL     OW36415   0.452   0.730   0.760 -0.2714 -0.4735 -0.0344
 8261SOL    HW136416   0.407   0.768   0.835  1.6968  1.5690  0.1237
 8261SOL    HW236417   0.429   0.789   0.688  1.2092  0.9022  0.6283
 8262SOL     OW36418   1.941   2.739   6.679  0.8473 -0.1849  0.2661
 8262SOL    HW136419   2.035   2.734   6.661  1.1537  0.1578  1.8580
 8262SOL    HW236420   1.901   2.662   6.638  0.2198  0.2610  0.0496
 8263SOL     OW36421   0.582   3.371  16.795  0.4480 -0.0655 -0.2266
 8263SOL    HW136422   0.552   3.426  16.868 -0.4157  0.9731 -1.3582
 8263SOL    HW236423   0.594   3.451  16.743 -1.5030 -0.4291 -1.2283
 8264SOL     OW36424   3.312   1.927   3.265 -0.0646 -0.5850 -0.3696
 8264SOL    HW136425   3.285   1.910   3.356  0.7074 -0.3581 -0.1033
 8264SOL    HW236426   3.237   1.979   3.235  3.3377  4.4845 -0.0606
 8265SOL     OW36427   2.933   3.228   6.078 -1.0668  0.3651  0.2871
 8265SOL    HW136428   3.014   3.186   6.108  0.0473  1.2831 -1.4249
 8265SOL    HW236429   2.870   3.157   6.064  2.3472 -1.9268 -3.3261
 8266SOL     OW36430   1.627   3.697   7.915 -0.6558  0.0784  0.1972
 8266SOL    HW136431   1.557   3.635   7.935  0.2937 -1.1895 -0.4720
 8266SOL    HW236432   1.644   3.684   7.822 -0.9423  1.7318 -0.0958
 8267SOL     OW36433   1.258   1.878   2.722 -0.4295 -0.2781  0.1245
 8267SOL    HW136434   1.249   1.938   2.648 -3.9604 -2.6589 -1.3571
 8267SOL    HW236435   1.281   1.933   2.798 -0.2792  0.1290 -0.2141
 8268SOL     OW36436   0.335   1.745   8.821 -0.5319  0.0407 -0.1332
 8268SOL    HW136437   0.302   1.776   8.737 -0.0111 -1.1884 -0.7785
 8268SOL    HW236438   0.411   1.800   8.843 -0.6361 -0.5643  1.7820
 8269SOL     OW36439   2.663   4.293  12.868  0.2961  0.1340  0.5910
 8269SOL    HW136440   2.593   4.231  12.886  0.8398 -0.5347  0.3871
 8269SOL    HW236441   2.731   4.267  12.930  1.0505  0.4391 -0.1008
 8270SOL     OW36442   2.916   2.009   6.236 -0.5009 -0.1731  0.2107
 8270SOL    HW136443   2.849   2.015   6.303 -1.0850 -1.4259 -0.2531
 8270SOL    HW236444   2.981   2.071   6.267 -2.3627 -0.4008  4.5136
 8271SOL     OW36445   4.017   2.043  17.137  0.3332  0.0736 -0.2081
 8271SOL    HW136446   4.020   1.953  17.169  2.1534 -0.7136 -2.6236
 8271SOL    HW236447   4.093   2.048  17.079  1.0829  0.5098  0.8063
 8272SOL     OW36448   0.229   2.513   3.042 -0.3978  0.1272 -0.5923
 8272SOL    HW136449   0.161   2.447   3.054 -1.0770  1.1779  1.2109
 8272SOL    HW236450   0.252   2.518   2.949  0.5093 -0.4154 -0.3957
 8273SOL     OW36451   4.012   1.724   7.196 -1.3041  0.4322 -0.3384
 8273SOL    HW136452   4.080   1.691   7.254  0.9254  2.2707 -1.9338
 8273SOL    HW236453   3.950   1.652   7.209 -0.0936 -0.5986 -0.2914
 8274SOL     OW36454   0.243   2.353   7.941 -0.1553 -0.1091 -0.0864
 8274SOL    HW136455   0.279   2.442   7.944 -0.6406  0.0795  0.1775
 8274SOL    HW236456   0.269   2.321   8.027  3.6973 -1.7470 -1.8542
 8275SOL     OW36457   3.680   0.860   8.294 -0.4421 -0.2191 -0.1038
 8275SOL    HW136458   3.716   0.947   8.275 -1.3636 -0.5226 -3.2863
 8275SOL    HW236459   3.591   0.883   8.317  0.7886  1.3460  3.0615
 8276SOL     OW36460   4.256   1.299   5.157  0.2420 -0.3000  0.2328
 8276SOL    HW136461   4.166   1.300   5.191 -0.0623 -1.6534 -0.5448
 8276SOL    HW236462   4.252   1.355   5.080 -1.3293  1.4505  1.5939
 8277SOL     OW36463   3.419   2.918   5.508 -0.2333  0.4515  0.8969
 8277SOL    HW136464   3.390   3.007   5.528  1.4371  0.9936  0.9711
 8277SOL    HW236465   3.352   2.867   5.553  0.1777 -0.7618  0.1233
 8278SOL     OW36466   3.698   4.201  13.637  0.5023  0.4951  0.1254
 8278SOL    HW136467   3.630   4.229  13.576 -0.0770 -2.6740 -0.6878
 8278SOL    HW236468   3.782   4.221  13.595  2.1765 -3.0173  1.7901
 8279SOL     OW36469   3.064   1.207  12.295  0.3870  0.4159  0.0206
 8279SOL    HW136470   3.034   1.282  12.244 -0.3012  1.0477  1.3692
 8279SOL    HW236471   3.157   1.231  12.284  0.1742  0.1445 -2.4180
 8280SOL     OW36472   3.503   2.363   4.508  0.6209 -0.0634 -0.2446
 8280SOL    HW136473   3.415   2.339   4.536  0.4389 -0.4433 -1.1462
 8280SOL    HW236474   3.510   2.322   4.422  0.9124 -0.4580 -0.0324
 8281SOL     OW36475   3.758   4.426   8.386  0.0964 -0.1740  0.7180
 8281SOL    HW136476   3.729   4.504   8.338 -0.8135 -1.2607 -0.5149
 8281SOL    HW236477   3.835   4.404   8.333 -0.7153 -0.8350 -0.1955
 8282SOL     OW36478   1.533   1.707   6.965 -0.3562 -0.4175  0.4763
 8282SOL    HW136479   1.605   1.769   6.974  0.2985 -0.9807 -0.9840
 8282SOL    HW236480   1.582   1.629   6.990  0.7205 -1.8580 -6.1059
 8283SOL     OW36481   1.817   0.859   3.531 -0.2610 -0.5809  0.4622
 8283SOL    HW136482   1.869   0.845   3.453  0.2810  0.2839  0.6735
 8283SOL    HW236483   1.843   0.951   3.540 -2.2203 -0.0295  0.5389
 8284SOL     OW36484   1.715   3.735   4.903  0.5877  0.2149  0.2265
 8284SOL    HW136485   1.790   3.785   4.936  0.9607  0.0914 -0.4356
 8284SOL    HW236486   1.729   3.647   4.937 -1.7379 -0.8530 -1.5774
 8285SOL     OW36487   2.726   2.055   1.536 -0.3174  0.2158 -0.7573
 8285SOL    HW136488   2.667   2.029   1.606  1.7965 -2.7123 -0.0568
 8285SOL    HW236489   2.661   2.061   1.466 -2.6947  2.2457  1.6160
 8286SOL     OW36490   4.477   2.723   2.595 -0.1151  0.5328  0.1999
 8286SOL    HW136491   4.494   2.643   2.544 -0.0491  0.9205 -0.3873
 8286SOL    HW236492   4.555   2.775   2.577  0.1206 -0.0661 -0.5684
 8287SOL     OW36493   1.843   1.311   5.470  0.0898 -0.3435  0.2090
 8287SOL    HW136494   1.754   1.304   5.505  0.4654  1.4168  1.5027
 8287SOL    HW236495   1.824   1.371   5.398 -0.2824 -0.0863  0.5235
 8288SOL     OW36496   0.983   2.643   3.596 -0.2613 -0.0184  0.1273
 8288SOL    HW136497   1.075   2.670   3.590 -0.4041  0.2194 -0.9895
 8288SOL    HW236498   0.936   2.710   3.547 -1.8026 -0.3085  1.2282
 8289SOL     OW36499   2.931   2.114   2.029  0.2967 -0.1545  0.1247
 8289SOL    HW136500   3.024   2.128   2.010 -0.5448  1.7875 -2.5441
 8289SOL    HW236501   2.944   2.080   2.118 -0.0378 -0.0333  0.2180
 8290SOL     OW36502   2.628   3.501   2.456 -0.0405  0.7667 -0.7757
 8290SOL    HW136503   2.639   3.534   2.367  0.7254  1.2140 -0.5183
 8290SOL    HW236504   2.718   3.488   2.486 -0.7459 -1.9082  0.2258
 8291SOL     OW36505   1.212   3.664   6.147 -0.1124  1.0998 -0.0500
 8291SOL    HW136506   1.274   3.695   6.213  1.1713 -2.0728  0.2083
 8291SOL    HW236507   1.274   3.665   6.075 -0.0096 -2.8815  0.0174
 8292SOL     OW36508   2.023   4.105  16.379 -0.2342  0.0256  0.0400
 8292SOL    HW136509   2.042   4.112  16.472  0.0520 -0.2154 -0.0000
 8292SOL    HW236510   2.108   4.075  16.346  0.3038  1.6666 -0.0594
 8293SOL     OW36511   1.298   2.066   5.105  0.2427  0.3640 -0.0604
 8293SOL    HW136512   1.299   2.147   5.054  0.7486  0.5306  0.2239
 8293SOL    HW236513   1.213   2.058   5.148  1.2716 -1.8201  1.5529
 8294SOL     OW36514   3.880   2.049   2.540 -0.5753 -0.4039 -0.4385
 8294SOL    HW136515   3.792   2.011   2.536 -0.7820 -0.1778  2.0046
 8294SOL    HW236516   3.904   2.087   2.456  0.2077 -1.7122 -0.8072
 8295SOL     OW36517   0.617   3.870   4.829  0.3930 -0.2971  0.0772
 8295SOL    HW136518   0.522   3.861   4.823  0.2467  0.3706  1.2665
 8295SOL    HW236519   0.632   3.837   4.741  0.2903  2.1084 -0.8285
 8296SOL     OW36520   1.988   3.684   6.161  0.4323 -0.0603 -0.5287
 8296SOL    HW136521   1.900   3.652   6.181  1.8558 -2.6081  1.6418
 8296SOL    HW236522   1.999   3.680   6.066 -0.3780 -2.3398 -0.5186
 8297SOL     OW36523   3.308   4.278   4.905 -0.3130  0.5405 -0.4597
 8297SOL    HW136524   3.266   4.212   4.962 -4.0394  1.4501 -2.1262
 8297SOL    HW236525   3.325   4.225   4.827  0.1552 -0.6982  0.4735
 8298SOL     OW36526   4.049   3.271   6.694 -0.4595  0.0132 -0.2612
 8298SOL    HW136527   4.046   3.234   6.782 -2.8987  1.0691  0.1096
 8298SOL    HW236528   4.076   3.362   6.710  1.8201 -0.6115 -0.6980
 8299SOL     OW36529   0.461   3.356   5.499  0.7085 -0.1446  0.3838
 8299SOL    HW136530   0.447   3.279   5.444  2.5149  0.4912 -0.9748
 8299SOL    HW236531   0.383   3.409   5.490  0.8595  0.0363  0.1255
 8300SOL     OW36532   0.163   1.187   7.019  0.8605 -0.1416  0.3397
 8300SOL    HW136533   0.226   1.115   7.024 -0.8852 -1.3417  4.9692
 8300SOL    HW236534   0.102   1.161   6.950 -0.7725  0.2160  1.6342
 8301SOL     OW36535   3.603   0.205   3.038 -0.0828  0.0935 -0.0358
 8301SOL    HW136536   3.558   0.138   2.985 -1.1980  0.2577  0.7144
 8301SOL    HW236537   3.573   0.179   3.125 -0.3607  1.2607  0.2180
 8302SOL     OW36538   3.755   0.996  12.031 -0.2260 -0.1640  0.2984
 8302SOL    HW136539   3.795   0.914  12.003  1.7979  0.3225  1.7400
 8302SOL    HW236540   3.707   0.977  12.112 -0.6370  3.0876  0.8228
 8303SOL     OW36541   2.179   3.384   7.951 -0.2893 -0.1192  0.2314
 8303SOL    HW136542   2.147   3.336   8.028 -1.1410  0.5505  0.2886
 8303SOL    HW236543   2.103   3.436   7.924  0.7128  1.2071  0.0298
 8304SOL     OW36544   1.499   3.703  15.043  0.3689 -0.1682  0.1070
 8304SOL    HW136545   1.448   3.691  15.123  1.1199 -1.2243  0.4337
 8304SOL    HW236546   1.550   3.781  15.065  0.2085 -0.1182  0.3010
 8305SOL     OW36547   1.133   3.096   8.998 -0.0578  0.0546  0.3502
 8305SOL    HW136548   1.126   3.027   8.932 -0.1247  0.3075  0.0930
 8305SOL    HW236549   1.220   3.130   8.975  0.6446 -1.8602  0.1067
 8306SOL     OW36550   3.951   3.404   0.696 -0.6616 -0.2094 -0.4520
 8306SOL    HW136551   3.916   3.354   0.770  0.8144 -0.4551  0.0650
 8306SOL    HW236552   4.040   3.419   0.725 -1.0674 -0.8376  1.1229
 8307SOL     OW36553   0.361   0.352   1.900  0.2235 -0.5995 -0.3877
 8307SOL    HW136554   0.444   0.364   1.855  0.6171 -1.4500  0.0977
 8307SOL    HW236555   0.388   0.290   1.969 -0.5638 -0.4711  0.0364
 8308SOL     OW36556   2.442   0.828   6.305  0.2572  0.1972  0.2617
 8308SOL    HW136557   2.433   0.833   6.400 -1.4999 -2.3997  0.2512
 8308SOL    HW236558   2.421   0.738   6.280  0.9990  0.3445 -0.8756
 8309SOL     OW36559   1.952   2.998   9.087  0.1513 -0.1081 -0.3976
 8309SOL    HW136560   1.886   2.986   9.018  1.6272  1.1442 -2.0280
 8309SOL    HW236561   1.910   3.073   9.128 -1.0376 -1.1589  0.3061
 8310SOL     OW36562   3.124   4.515   2.904 -0.1068 -0.3891 -0.0563
 8310SOL    HW136563   3.129   4.544   2.813 -0.5966 -3.6686 -1.1471
 8310SOL    HW236564   3.214   4.520   2.935  0.2427  0.6579 -1.2652
 8311SOL     OW36565   4.043   0.998  16.542  0.5685  0.2711 -0.1673
 8311SOL    HW136566   3.981   0.933  16.509  0.0019  0.7279  0.0111
 8311SOL    HW236567   4.062   1.044  16.460 -1.6852  1.8473  0.2026
 8312SOL     OW36568   0.359   3.518   9.057  0.1613  0.1425  0.1018
 8312SOL    HW136569   0.374   3.434   9.014 -0.6147 -0.7275  1.5283
 8312SOL    HW236570   0.440   3.566   9.039 -0.1217  0.5431 -0.0917
 8313SOL     OW36571   3.705   0.442   8.953 -0.3189  0.6654 -0.1026
 8313SOL    HW136572   3.793   0.451   8.990  0.1226 -1.8883 -0.5496
 8313SOL    HW236573   3.671   0.389   9.024  3.5527 -2.0793 -0.2901
 8314SOL     OW36574   3.115   3.572  14.282 -0.3596 -0.0105  0.3844
 8314SOL    HW136575   3.191   3.590  14.337 -1.8854 -0.9231  2.7628
 8314SOL    HW236576   3.163   3.560  14.200  2.9353 -1.6550  2.5553
 8315SOL     OW36577   2.497   2.067   8.536  0.1392  0.6541 -0.2327
 8315SOL    HW136578   2.551   2.140   8.504 -1.4797  1.1485 -1.8581
 8315SOL    HW236579   2.406   2.078   8.511  0.0126 -0.1541 -0.1218
 8316SOL     OW36580   0.659   1.157   0.476 -0.8520  0.0154 -0.7172
 8316SOL    HW136581   0.714   1.232   0.456 -1.3008  0.7447  0.8290
 8316SOL    HW236582   0.638   1.171   0.568 -0.6247  0.8752 -0.8009
 8317SOL     OW36583   4.617   2.120  13.509 -0.6922 -0.0993  0.3813
 8317SOL    HW136584   4.624   2.104  13.415  0.1165  1.2759  0.2009
 8317SOL    HW236585   4.707   2.149  13.525 -0.8294  0.2898  0.4421
 8318SOL     OW36586   3.547   0.721   6.108 -0.3645 -0.0311  0.0880
 8318SOL    HW136587   3.583   0.708   6.020 -1.1244 -1.8151  0.0374
 8318SOL    HW236588   3.618   0.776   6.142  0.9200  0.1634 -2.9275
 8319SOL     OW36589   3.680   0.008   8.868  0.2833  0.3055  0.2720
 8319SOL    HW136590   3.654   4.695   8.948 -0.8929 -1.9645 -1.3558
 8319SOL    HW236591   3.608   0.072   8.864  1.0550  1.1985  0.8775
 8320SOL     OW36592   0.027   1.559   3.732 -0.3958  0.3985  0.3073
 8320SOL    HW136593   0.012   1.624   3.801  0.0234 -0.0057  0.7810
 8320SOL    HW236594   0.036   1.475   3.776 -0.8641  0.6135  0.8181
 8321SOL     OW36595   1.284   3.623   5.328 -0.1646  0.0722 -0.9340
 8321SOL    HW136596   1.366   3.656   5.291 -0.3891  2.7331  0.8852
 8321SOL    HW236597   1.221   3.648   5.261 -0.7622  1.9228  0.2941
 8322SOL     OW36598   4.304   2.061  12.408 -0.2792 -0.4039 -0.4751
 8322SOL    HW136599   4.236   2.129  12.408 -0.0520 -0.1696  2.1373
 8322SOL    HW236600   4.373   2.106  12.359 -0.5398  1.6535  1.0484
 8323SOL     OW36601   2.121   4.425  10.533  0.5676  0.5585 -0.5002
 8323SOL    HW136602   2.189   4.478  10.492  0.2943  1.1365 -0.2277
 8323SOL    HW236603   2.043   4.482  10.532  0.3433  0.2668 -0.0468
 8324SOL     OW36604   2.271   3.132   5.159  0.0975 -0.4991 -0.1858
 8324SOL    HW136605   2.246   3.087   5.079  0.3548 -0.3487 -0.3529
 8324SOL    HW236606   2.213   3.092   5.224  1.4764  0.6607  1.7774
 8325SOL     OW36607   3.016   2.726  10.644 -0.3624 -0.4368  0.0086
 8325SOL    HW136608   3.023   2.812  10.601 -0.3664  0.3020  1.4993
 8325SOL    HW236609   3.017   2.740  10.738  2.5911 -2.1533  0.2297
 8326SOL     OW36610   2.436   2.806   6.168  0.2535  0.2128  0.3073
 8326SOL    HW136611   2.522   2.827   6.133  0.9436 -0.8071  1.4098
 8326SOL    HW236612   2.434   2.710   6.170  1.5301  0.1886  0.1858
 8327SOL     OW36613   3.666   3.742   7.999 -0.2464 -0.1133 -0.1692
 8327SOL    HW136614   3.574   3.765   8.015 -0.5922 -1.8782  0.4230
 8327SOL    HW236615   3.707   3.828   7.989  1.5737 -0.8037  1.3746
 8328SOL     OW36616   3.154   1.747   4.876  0.2755 -0.1932  0.3015
 8328SOL    HW136617   3.196   1.662   4.896  2.0190 -0.5099 -4.8575
 8328SOL    HW236618   3.174   1.762   4.784 -0.6801 -1.1418 -0.0551
 8329SOL     OW36619   1.259   3.026   5.477  0.3276 -0.3809  0.4702
 8329SOL    HW136620   1.275   3.011   5.384 -2.3225  0.1350 -0.0529
 8329SOL    HW236621   1.321   2.957   5.502 -0.3776 -0.9956  0.5297
 8330SOL     OW36622   1.298   1.597  16.548  0.0334  0.1976 -0.4607
 8330SOL    HW136623   1.305   1.534  16.620 -2.5413 -1.6538 -1.8406
 8330SOL    HW236624   1.309   1.678  16.598  1.3161 -0.2929  0.0700
 8331SOL     OW36625   4.666   0.596   2.804 -0.1197  1.1680  0.1451
 8331SOL    HW136626   4.573   0.592   2.781 -0.5544  1.0443  1.8778
 8331SOL    HW236627   4.665   0.692   2.813 -0.0999  1.2231 -0.4527
 8332SOL     OW36628   3.567   0.537   1.844 -0.6421 -0.2124  0.3148
 8332SOL    HW136629   3.660   0.535   1.863 -0.1469  0.3199 -2.1537
 8332SOL    HW236630   3.543   0.448   1.819  0.9033 -0.5286  0.0180
 8333SOL     OW36631   2.670   0.597  12.873 -0.2804 -0.0426  0.2630
 8333SOL    HW136632   2.686   0.588  12.779  2.4915 -1.9563  0.9297
 8333SOL    HW236633   2.695   0.689  12.880 -0.0190 -0.3058  2.5752
 8334SOL     OW36634   4.429   0.120   9.331  0.3778 -0.1646 -0.4903
 8334SOL    HW136635   4.351   0.150   9.285 -0.6284 -0.5450  0.9743
 8334SOL    HW236636   4.494   0.178   9.292 -0.5187  1.2793  0.1936
 8335SOL     OW36637   2.169   1.887  15.542 -0.2765  0.3836 -0.1401
 8335SOL    HW136638   2.228   1.956  15.572 -0.1696  1.0412 -1.8266
 8335SOL    HW236639   2.103   1.934  15.490  0.8558  1.8062 -0.3058
 8336SOL     OW36640   2.703   3.101   4.776 -0.3202 -0.2350 -0.3479
 8336SOL    HW136641   2.682   3.175   4.832  1.2727  0.1442 -0.2530
 8336SOL    HW236642   2.749   3.144   4.703  1.4482 -1.0552  0.2834
 8337SOL     OW36643   0.009   3.096   5.903 -0.0001  0.0316  0.4131
 8337SOL    HW136644   0.027   3.119   5.994  1.2469 -1.9978  0.6969
 8337SOL    HW236645   0.099   3.074   5.879 -0.1135  0.4433 -0.4001
 8338SOL     OW36646   0.305   1.827   4.669 -0.0748  0.2236  0.7685
 8338SOL    HW136647   0.305   1.771   4.591 -2.7199 -2.0161  2.3510
 8338SOL    HW236648   0.336   1.913   4.641 -0.7870 -0.4212 -2.0263
 8339SOL     OW36649   3.280   0.086  14.577  0.0484 -0.2574 -0.5926
 8339SOL    HW136650   3.193   0.077  14.615 -0.2006 -1.7562 -1.4934
 8339SOL    HW236651   3.304   4.726  14.560  0.8414 -0.8116  3.4061
 8340SOL     OW36652   4.077   1.542  13.036 -0.4444 -0.3575  0.1614
 8340SOL    HW136653   4.145   1.531  12.969  0.2747 -3.4697  1.3652
 8340SOL    HW236654   4.041   1.629  13.023  2.3031  0.8092  0.3203
 8341SOL     OW36655   3.727   1.161   7.486  0.4756 -0.3308 -0.3015
 8341SOL    HW136656   3.723   1.168   7.391  0.8910  1.3150 -0.1885
 8341SOL    HW236657   3.657   1.096   7.490 -0.6869  0.9765  0.5869
 8342SOL     OW36658   3.327   0.822   5.853 -0.2565  0.3524 -0.0003
 8342SOL    HW136659   3.386   0.829   5.928  0.5166  0.8461 -0.6536
 8342SOL    HW236660   3.290   0.909   5.843  0.2462  0.5391 -0.2294
 8343SOL     OW36661   4.527   1.319   0.296 -0.3769 -0.7119 -0.1467
 8343SOL    HW136662   4.462   1.389   0.294  1.5364  1.0522 -0.6361
 8343SOL    HW236663   4.580   1.333   0.218 -1.9173  0.6797 -0.9241
 8344SOL     OW36664   2.603   2.455   4.662  0.3183 -0.0111 -0.4733
 8344SOL    HW136665   2.624   2.454   4.756  1.3157 -2.1080 -0.7229
 8344SOL    HW236666   2.675   2.503   4.622 -0.1693 -0.4560 -1.8858
 8345SOL     OW36667   1.784   3.536   2.068  0.4874  0.2068  0.3577
 8345SOL    HW136668   1.852   3.577   2.014  0.5584  0.9818  1.0231
 8345SOL    HW236669   1.710   3.598   2.072  0.1198 -0.2147  0.0308
 8346SOL     OW36670   2.167   4.038   5.537  0.5388  0.6397  0.2974
 8346SOL    HW136671   2.188   4.050   5.444  0.9274 -1.1451  0.1544
 8346SOL    HW236672   2.249   4.040   5.586  0.0896 -0.1152  1.0721
 8347SOL     OW36673   4.134   3.533  15.143  0.1778  0.3588  0.3005
 8347SOL    HW136674   4.200   3.465  15.125  1.1536  0.9210  1.7136
 8347SOL    HW236675   4.195   3.606  15.129  0.0899  0.3628 -0.0573
 8348SOL     OW36676   3.438   3.703   1.773 -0.1680 -1.0298  0.2818
 8348SOL    HW136677   3.533   3.700   1.785 -0.0355 -0.9873 -0.7230
 8348SOL    HW236678   3.427   3.794   1.745 -2.2540 -1.2561  0.3942
 8349SOL     OW36679   4.708   1.260   1.930 -0.6449  0.6326  0.1127
 8349SOL    HW136680   0.026   1.305   1.862 -0.1903  0.0004  0.0261
 8349SOL    HW236681   0.028   1.277   2.008 -0.5998 -0.8266  0.4046
 8350SOL     OW36682   3.702   0.837   5.034 -0.4503  0.5049 -0.7242
 8350SOL    HW136683   3.683   0.766   4.972  1.8115  0.5372 -1.4416
 8350SOL    HW236684   3.780   0.874   4.993  0.4546  0.6650  1.1263
 8351SOL     OW36685   2.873   3.374  14.480  0.4993  0.2708  0.1754
 8351SOL    HW136686   2.873   3.349  14.572 -1.0550  0.3971  0.2138
 8351SOL    HW236687   2.956   3.336  14.452  0.7051 -0.2116  1.4264
 8352SOL     OW36688   1.779   4.027   8.085  0.0211 -0.2872  0.1156
 8352SOL    HW136689   1.853   4.077   8.120 -0.7761 -1.0869  2.9823
 8352SOL    HW236690   1.729   4.003   8.163  0.6021  1.9815  1.2136
 8353SOL     OW36691   1.737   1.111  14.492  0.2463  0.1248 -0.2347
 8353SOL    HW136692   1.674   1.135  14.424 -0.1523  0.0953  0.1260
 8353SOL    HW236693   1.717   1.182  14.553 -0.0061  0.1636 -0.3628
 8354SOL     OW36694   0.202   1.783   5.935 -0.4173 -0.1771  0.0686
 8354SOL    HW136695   0.158   1.796   6.019 -3.6019  0.7548 -1.7588
 8354SOL    HW236696   0.287   1.822   5.956 -0.7529  0.0333  1.0370
 8355SOL     OW36697   0.687   4.442  17.627  0.1079  0.0236  0.6861
 8355SOL    HW136698   0.699   4.352  17.598 -3.0436  0.4010 -1.8013
 8355SOL    HW236699   0.775   4.477  17.640  0.6102 -0.8666 -0.2844
 8356SOL     OW36700   1.569   2.232   8.385  0.1099  0.4059 -0.5143
 8356SOL    HW136701   1.533   2.321   8.380  1.8455  1.2199  1.7042
 8356SOL    HW236702   1.490   2.180   8.365  0.7659 -0.6153 -0.4628
 8357SOL     OW36703   3.529   0.165   8.272  0.6026  0.1188 -0.5508
 8357SOL    HW136704   3.493   0.174   8.360  0.9966  0.5297 -0.4306
 8357SOL    HW236705   3.456   0.204   8.225  1.3816  2.0093 -0.1714
 8358SOL     OW36706   1.005   0.823   3.464 -0.0809 -0.5851  0.0947
 8358SOL    HW136707   0.938   0.771   3.509  2.0248 -1.2937  2.4591
 8358SOL    HW236708   1.036   0.881   3.534  0.6032 -3.0733  1.8624
 8359SOL     OW36709   1.591   3.019  11.869  0.8724  0.3039  0.3124
 8359SOL    HW136710   1.564   3.022  11.961  2.0633  1.2976  0.6260
 8359SOL    HW236711   1.670   2.964  11.872  0.7017 -0.0464 -2.1788
 8360SOL     OW36712   4.664   0.644   7.903 -0.1081  0.1971  0.2432
 8360SOL    HW136713   0.011   0.693   7.876 -0.4080  0.2104 -0.5952
 8360SOL    HW236714   4.601   0.710   7.875 -3.8347 -3.3023  0.2943
 8361SOL     OW36715   2.205   2.393   3.882  0.2692  0.3668 -0.4565
 8361SOL    HW136716   2.214   2.461   3.815 -0.0612  1.1834  0.3329
 8361SOL    HW236717   2.129   2.426   3.929 -0.3024  0.4703 -1.4553
 8362SOL     OW36718   1.590   1.681   2.774 -0.5469 -0.4535  0.3073
 8362SOL    HW136719   1.569   1.733   2.851 -0.1524  0.8613 -0.4767
 8362SOL    HW236720   1.502   1.647   2.755 -0.4128 -0.5161 -0.2024
 8363SOL     OW36721   1.905   3.984   5.826 -0.2408 -0.3660 -0.4134
 8363SOL    HW136722   1.833   3.924   5.845 -0.2486 -0.0114  0.6740
 8363SOL    HW236723   1.942   3.928   5.757 -0.7757 -1.2939  0.0608
 8364SOL     OW36724   3.427   2.673  15.341 -0.0356 -0.0433 -0.3748
 8364SOL    HW136725   3.482   2.665  15.419  1.3271 -1.9442 -1.5256
 8364SOL    HW236726   3.483   2.729  15.288 -0.0131 -1.2425 -1.6220
 8365SOL     OW36727   3.540   3.806   6.521 -0.5160  0.5992  0.5075
 8365SOL    HW136728   3.534   3.902   6.517  1.7682  0.7329  0.1583
 8365SOL    HW236729   3.460   3.788   6.571 -0.5651  0.3592  0.3420
 8366SOL     OW36730   3.030   2.627   6.644  0.1753 -0.1022 -0.1652
 8366SOL    HW136731   3.050   2.578   6.723  2.2022  1.5458  0.3497
 8366SOL    HW236732   3.021   2.717   6.673  1.1395 -0.1512  0.2894
 8367SOL     OW36733   3.339   3.932   2.531 -0.1351 -0.2919  0.2741
 8367SOL    HW136734   3.356   3.881   2.452 -1.4062  0.1666 -0.3025
 8367SOL    HW236735   3.386   3.889   2.603 -1.3438 -1.5416  0.3248
 8368SOL     OW36736   1.419   2.153  11.816 -0.3078  0.3185 -0.0097
 8368SOL    HW136737   1.422   2.164  11.721 -0.2993 -2.2949 -0.3235
 8368SOL    HW236738   1.499   2.106  11.840 -0.2169  0.1286 -0.6648
 8369SOL     OW36739   3.210   1.766   6.944 -0.8540 -0.4560  0.3659
 8369SOL    HW136740   3.285   1.772   7.004 -0.6468 -2.0414  0.2734
 8369SOL    HW236741   3.136   1.762   7.005 -1.2946 -1.2129 -0.2117
 8370SOL     OW36742   4.407   4.288  16.418 -0.7858 -0.4848 -0.2760
 8370SOL    HW136743   4.412   4.198  16.452 -0.1050  0.4797  2.1704
 8370SOL    HW236744   4.328   4.322  16.459  0.2898 -0.3797  1.6814
 8371SOL     OW36745   3.618   1.000   5.853  0.2692  0.2551  0.1136
 8371SOL    HW136746   3.565   1.035   5.782 -2.1330  0.9479  2.2157
 8371SOL    HW236747   3.609   0.907   5.833  0.4294  0.5560 -1.3492
 8372SOL     OW36748   0.850   1.683   2.078  0.2814  0.2956  0.6506
 8372SOL    HW136749   0.804   1.604   2.107 -0.7414 -0.1868 -2.2803
 8372SOL    HW236750   0.937   1.657   2.109 -0.2037 -1.9140  0.1680
 8373SOL     OW36751   4.391   4.329  17.112  1.3083 -0.3942 -0.4075
 8373SOL    HW136752   4.475   4.335  17.067  0.7022  5.3615 -0.7426
 8373SOL    HW236753   4.381   4.235  17.127  1.3068 -0.2930  0.2133
 8374SOL     OW36754   3.012   1.053   6.952  0.2190  0.1138 -0.0343
 8374SOL    HW136755   2.921   1.023   6.953  0.8277 -1.7976 -2.7398
 8374SOL    HW236756   3.047   1.023   7.036  0.7680  2.7120  0.6413
 8375SOL     OW36757   4.339   0.246  15.902 -0.1576  0.1112  0.0992
 8375SOL    HW136758   4.400   0.320  15.897  1.8167 -1.5382 -0.1829
 8375SOL    HW236759   4.261   0.302  15.907 -0.1687  0.1767 -0.8270
 8376SOL     OW36760   1.646   2.390   5.367 -0.2331 -0.3194 -0.1767
 8376SOL    HW136761   1.685   2.407   5.282  0.5092 -1.0366  0.0224
 8376SOL    HW236762   1.691   2.311   5.396 -1.2186 -0.8273 -0.0332
 8377SOL     OW36763   2.047   2.445   6.842 -0.1823 -0.0586  0.3439
 8377SOL    HW136764   2.131   2.485   6.821 -0.4340  0.3415  0.0938
 8377SOL    HW236765   2.070   2.370   6.897 -0.7195 -1.6067 -1.5025
 8378SOL     OW36766   1.191   4.681  14.842 -0.1334 -0.2359 -0.1318
 8378SOL    HW136767   1.249   0.019  14.872  3.0448 -2.5209 -0.9642
 8378SOL    HW236768   1.187   4.643  14.930 -1.7216  1.7480  0.6457
 8379SOL     OW36769   2.032   1.478   6.066 -0.2904  0.1390 -0.5175
 8379SOL    HW136770   1.991   1.400   6.103 -0.2617  0.7565  0.8069
 8379SOL    HW236771   1.970   1.550   6.057 -0.5619  0.2893  2.5811
 8380SOL     OW36772   0.302   2.836   8.543  0.2986  0.2540  0.2859
 8380SOL    HW136773   0.217   2.872   8.568 -1.7835 -3.1274 -1.9419
 8380SOL    HW236774   0.291   2.748   8.578  0.9494  0.4944  1.0730
 8381SOL     OW36775   0.310   3.502   5.195  0.3232  0.5869  0.0789
 8381SOL    HW136776   0.264   3.521   5.113  0.4267  1.7319  0.2945
 8381SOL    HW236777   0.298   3.407   5.196  1.0533  0.4708 -1.8772
 8382SOL     OW36778   3.539   1.585  15.744  0.2143 -0.4267  0.0174
 8382SOL    HW136779   3.474   1.586  15.815  0.0787  0.7286 -0.1171
 8382SOL    HW236780   3.530   1.494  15.717  0.3771 -0.6941  0.8725
 8383SOL     OW36781   1.998   0.282  13.887 -0.1320  0.2283 -0.5835
 8383SOL    HW136782   2.020   0.192  13.913 -0.6916  0.5233  0.8798
 8383SOL    HW236783   2.063   0.331  13.937  0.0279 -0.0326 -0.5338
 8384SOL     OW36784   3.297   3.522  15.144  0.4377 -0.1843  0.4911
 8384SOL    HW136785   3.285   3.543  15.052  2.0555 -0.3923  0.2339
 8384SOL    HW236786   3.229   3.579  15.181  0.1208 -0.1078 -0.2127
 8385SOL     OW36787   4.254   0.641  17.476 -0.1749 -0.1134 -0.6572
 8385SOL    HW136788   4.192   0.691  17.529  0.6169  1.3268 -1.0882
 8385SOL    HW236789   4.230   0.550  17.490  0.0350 -0.3720 -2.0453
 8386SOL     OW36790   4.096   4.438   0.971  0.2316  0.0132  0.0867
 8386SOL    HW136791   4.130   4.411   0.886  0.7792  1.8801 -0.2875
 8386SOL    HW236792   4.108   4.359   1.024  2.4405  0.3670  0.1193
 8387SOL     OW36793   4.570   4.214   4.334 -0.3269  0.0103 -0.0020
 8387SOL    HW136794   4.495   4.163   4.366 -0.3096  0.2528  0.4129
 8387SOL    HW236795   4.615   4.238   4.414  0.9801  0.0252 -0.7510
 8388SOL     OW36796   1.655   1.684   1.783 -0.1353 -0.4624  0.7034
 8388SOL    HW136797   1.720   1.688   1.853  1.6174 -0.8050 -0.9368
 8388SOL    HW236798   1.660   1.594   1.752  1.1982  0.1252 -0.7490
 8389SOL     OW36799   1.255   3.901   9.951 -0.0738  1.1690  0.3572
 8389SOL    HW136800   1.235   3.807   9.948  0.4128  1.1228 -1.3860
 8389SOL    HW236801   1.339   3.886   9.995 -1.7693  2.2521  3.9125
 8390SOL     OW36802   2.002   0.560   4.383 -0.4903 -0.1878 -0.2386
 8390SOL    HW136803   2.080   0.518   4.418  0.9639  1.9607 -0.8933
 8390SOL    HW236804   2.020   0.587   4.293  1.2163  0.2779  0.2360
 8391SOL     OW36805   4.029   2.202   4.085  0.5083 -0.1923  0.1166
 8391SOL    HW136806   3.954   2.153   4.121 -1.3702  1.1412 -1.9469
 8391SOL    HW236807   4.087   2.126   4.087 -1.3351 -1.6246  0.2389
 8392SOL     OW36808   3.382   3.451   0.557 -0.3157 -0.3520  0.0950
 8392SOL    HW136809   3.300   3.477   0.516 -1.2994 -2.1251  0.9236
 8392SOL    HW236810   3.351   3.362   0.572 -0.4002 -0.1122  1.3346
 8393SOL     OW36811   2.087   4.273   2.948 -0.0737  0.2812 -0.2454
 8393SOL    HW136812   2.179   4.284   2.974 -0.3573 -0.1306  0.9470
 8393SOL    HW236813   2.045   4.237   3.026  0.7626  1.4327  0.7301
 8394SOL     OW36814   1.686   4.410   9.352 -0.3411  0.2859  0.1261
 8394SOL    HW136815   1.770   4.417   9.398  0.0900  2.4056 -1.0092
 8394SOL    HW236816   1.631   4.471   9.401  2.1423  1.5044  1.4362
 8395SOL     OW36817   0.117   0.238  13.792  0.0673 -0.3838  0.1532
 8395SOL    HW136818   0.090   0.215  13.703  4.6426 -1.9592 -0.8064
 8395SOL    HW236819   0.062   0.180  13.845  0.7076 -0.8115  0.3497
 8396SOL     OW36820   0.498   2.533   8.743  0.1430  0.1470 -0.3119
 8396SOL    HW136821   0.577   2.560   8.790  1.4483 -1.7232 -1.3868
 8396SOL    HW236822   0.540   2.487   8.670 -0.8111  0.7750 -1.2448
 8397SOL     OW36823   2.701   3.345   3.546  0.6775 -0.5361  0.0131
 8397SOL    HW136824   2.727   3.366   3.456  2.2196  0.5435  0.7059
 8397SOL    HW236825   2.768   3.393   3.595  2.0211 -0.0388 -2.3349
 8398SOL     OW36826   3.903   3.110   5.986  0.0478  0.3071 -0.0343
 8398SOL    HW136827   3.836   3.165   6.027 -1.8961 -2.7749  0.8801
 8398SOL    HW236828   3.979   3.161   5.958  0.4842 -0.8002 -0.8666
 8399SOL     OW36829   1.483   0.117   4.585 -0.0628 -0.0240  0.0974
 8399SOL    HW136830   1.527   0.142   4.666  0.2525  1.2764 -0.4762
 8399SOL    HW236831   1.561   0.099   4.533 -2.1734 -3.0781 -1.9823
 8400SOL     OW36832   1.331   1.438  12.635  0.0007  0.2000  0.5198
 8400SOL    HW136833   1.254   1.473  12.590 -0.2285  0.4710  1.1163
 8400SOL    HW236834   1.381   1.410  12.559  0.7677  0.4220  0.9341
 8401SOL     OW36835   3.944   4.538   4.324 -0.0067  0.0492 -0.7149
 8401SOL    HW136836   4.013   4.597   4.292  1.0659 -1.7056 -1.6876
 8401SOL    HW236837   3.979   4.450   4.341 -0.1743  0.2685  0.7699
 8402SOL     OW36838   1.706   3.526  17.547 -0.4488  0.5755 -0.1882
 8402SOL    HW136839   1.632   3.567  17.591  1.2332  1.8438  1.5086
 8402SOL    HW236840   1.660   3.456  17.501 -2.4436  0.2720  2.2333
 8403SOL     OW36841   2.890   3.878   4.021  0.2277 -0.4365  0.2146
 8403SOL    HW136842   2.893   3.788   4.055  0.7677 -1.4132 -2.4549
 8403SOL    HW236843   2.945   3.885   3.943 -0.2923 -1.3024 -0.2373
 8404SOL     OW36844   1.344   0.244   7.724  0.2269  0.4782  0.5433
 8404SOL    HW136845   1.328   0.151   7.704  1.6683  0.3990 -0.2455
 8404SOL    HW236846   1.262   0.277   7.761 -0.2869  1.9449 -1.9687
 8405SOL     OW36847   2.968   1.315   5.116  0.5182  0.0883  0.0065
 8405SOL    HW136848   2.941   1.320   5.024  0.0463 -0.0178  0.1376
 8405SOL    HW236849   2.921   1.394   5.141 -0.4006 -0.1909 -0.8516
 8406SOL     OW36850   2.689   2.777  13.145 -0.2168  0.0848  0.1956
 8406SOL    HW136851   2.626   2.705  13.136 -0.1070  0.1889 -1.3527
 8406SOL    HW236852   2.717   2.776  13.236  0.6486  1.5513 -0.0691
 8407SOL     OW36853   0.385   4.118  13.510  0.5259  0.2273 -0.1055
 8407SOL    HW136854   0.305   4.161  13.480  0.6324  0.2861 -0.3070
 8407SOL    HW236855   0.451   4.153  13.450  0.7825 -2.0275 -1.1465
 8408SOL     OW36856   2.960   1.366   3.501 -0.0605 -0.6542  0.2968
 8408SOL    HW136857   2.918   1.303   3.443 -0.6792 -0.8968  1.0076
 8408SOL    HW236858   3.038   1.316   3.525  0.5661  0.1085 -0.1063
 8409SOL     OW36859   1.001   3.421   3.579 -0.1736  0.1066  0.5446
 8409SOL    HW136860   1.096   3.430   3.572 -0.4191  3.1851  1.1572
 8409SOL    HW236861   0.984   3.330   3.603  0.3458 -0.0070  0.4682
 8410SOL     OW36862   2.367   2.729   0.671 -0.0820  0.0635  0.3408
 8410SOL    HW136863   2.315   2.756   0.595  0.4102  1.1482  0.3983
 8410SOL    HW236864   2.391   2.816   0.702 -0.6118 -0.0179  0.9888
 8411SOL     OW36865   2.845   2.882   7.557  0.4628 -0.2553  0.8943
 8411SOL    HW136866   2.809   2.910   7.473  0.4799  1.4899  1.4631
 8411SOL    HW236867   2.826   2.966   7.598 -1.8037  0.3213 -1.3593
 8412SOL     OW36868   1.732   1.986   6.049 -0.1901 -0.2348 -0.0259
 8412SOL    HW136869   1.681   2.067   6.047 -0.7738 -0.5486  2.0125
 8412SOL    HW236870   1.684   1.941   6.118  3.1691 -0.5216  2.1159
 8413SOL     OW36871   4.405   3.418   6.452 -0.2782 -0.8481  0.0882
 8413SOL    HW136872   4.310   3.411   6.450 -0.2219 -3.6634  4.3440
 8413SOL    HW236873   4.429   3.334   6.493 -0.7939 -2.1079 -2.2133
 8414SOL     OW36874   2.040   3.595  16.912  0.4152 -0.0111  0.4745
 8414SOL    HW136875   1.965   3.608  16.970 -0.1748  0.6707 -0.4494
 8414SOL    HW236876   1.989   3.573  16.834  0.1466 -0.0814  0.6710
 8415SOL     OW36877   3.331   2.442  11.719  0.5907 -0.1999  0.2628
 8415SOL    HW136878   3.321   2.519  11.663  0.4801 -0.4892 -0.1112
 8415SOL    HW236879   3.329   2.365  11.662  2.3384  0.1937 -0.3156
 8416SOL     OW36880   3.099   0.441  16.656 -0.5568 -0.6665 -0.1964
 8416SOL    HW136881   3.055   0.520  16.687  2.1266  1.4383 -1.8043
 8416SOL    HW236882   3.102   0.381  16.730 -1.1971 -0.0364  0.3424
 8417SOL     OW36883   1.675   3.528  12.553 -0.3832  0.8925  0.2487
 8417SOL    HW136884   1.762   3.496  12.579 -1.1620 -0.1797  1.5322
 8417SOL    HW236885   1.673   3.526  12.458  0.1323 -2.1036  0.2858
 8418SOL     OW36886   0.166   0.856   0.457  0.2730 -0.0938  0.6614
 8418SOL    HW136887   0.105   0.889   0.523  2.0364 -0.0870  2.2824
 8418SOL    HW236888   0.124   0.771   0.443 -0.2723  0.3977 -0.6727
 8419SOL     OW36889   2.025   3.441   8.251 -0.1912 -0.9767 -0.0862
 8419SOL    HW136890   2.016   3.524   8.204 -2.5076 -1.1892  0.0056
 8419SOL    HW236891   1.949   3.461   8.305  0.1420 -1.2887  0.4953
 8420SOL     OW36892   2.198   2.486   6.380  0.5835  0.1161 -0.1543
 8420SOL    HW136893   2.139   2.522   6.313  1.0181 -0.1383 -0.6725
 8420SOL    HW236894   2.165   2.396   6.386  0.2578  0.2052 -0.5584
 8421SOL     OW36895   2.247   1.623   4.428 -0.2923  0.1349  0.0582
 8421SOL    HW136896   2.308   1.697   4.423  1.4274 -1.0036  4.4006
 8421SOL    HW236897   2.171   1.665   4.389 -0.1416 -0.4849 -0.8815
 8422SOL     OW36898   1.390   1.849  10.823 -0.4684 -0.1807 -0.3358
 8422SOL    HW136899   1.480   1.817  10.833 -0.8909 -0.8093  1.4881
 8422SOL    HW236900   1.342   1.828  10.903 -0.8358 -1.7526 -0.9543
 8423SOL     OW36901   2.799   2.317   3.681  0.1307  0.1707  0.0175
 8423SOL    HW136902   2.803   2.360   3.596 -1.3174 -1.9725 -1.1357
 8423SOL    HW236903   2.728   2.373   3.713 -0.5917  0.0032 -1.3328
 8424SOL     OW36904   1.397   0.455   5.646  0.2734  0.0858  0.0935
 8424SOL    HW136905   1.416   0.469   5.553 -0.3909 -0.7425 -0.1727
 8424SOL    HW236906   1.474   0.403   5.669  0.3918  0.4664  0.5420
 8425SOL     OW36907   3.288   3.261   4.353 -0.0409 -0.3375 -0.5482
 8425SOL    HW136908   3.363   3.256   4.411  0.3055 -1.7330 -1.1162
 8425SOL    HW236909   3.311   3.181   4.305 -0.2554  0.0954 -1.3772
 8426SOL     OW36910   0.223   0.898   8.632 -0.2445  0.5156 -0.4566
 8426SOL    HW136911   0.187   0.916   8.545 -0.9915  0.7083 -0.1033
 8426SOL    HW236912   0.142   0.867   8.671 -0.6898  0.5496 -1.3630
 8427SOL     OW36913   4.438   4.409   8.300 -0.0221 -0.2109  0.0444
 8427SOL    HW136914   4.481   4.326   8.280 -0.8852 -0.8283  0.7435
 8427SOL    HW236915   4.355   4.393   8.256  0.1279 -0.8259 -0.0099
 8428SOL     OW36916   0.986   3.108  11.647 -0.1844 -0.4712 -0.1217
 8428SOL    HW136917   0.966   3.042  11.580 -0.1620 -0.9155  0.3145
 8428SOL    HW236918   1.059   3.069  11.695  0.9472  0.9495 -0.6882
 8429SOL     OW36919   2.712   3.901   1.698  0.0985 -0.1902 -0.1892
 8429SOL    HW136920   2.640   3.933   1.752 -0.0546 -1.7136  0.5048
 8429SOL    HW236921   2.670   3.923   1.615 -0.5019  0.5171  0.3026
 8430SOL     OW36922   3.559   0.181  14.380  0.3932 -0.1776 -0.2013
 8430SOL    HW136923   3.472   0.185  14.339  1.2440  1.2347 -1.8707
 8430SOL    HW236924   3.588   0.271  14.367 -2.2113  0.3736 -2.2841
 8431SOL     OW36925   4.193   2.349   2.313  0.7157  0.1915  0.2033
 8431SOL    HW136926   4.196   2.373   2.221 -0.4362 -0.7480 -0.0768
 8431SOL    HW236927   4.126   2.406   2.350 -0.4014  1.0109 -3.0725
 8432SOL     OW36928   0.453   0.969  12.461 -0.4351 -0.5416 -0.4372
 8432SOL    HW136929   0.534   1.011  12.493 -0.5486 -1.2164  0.7291
 8432SOL    HW236930   0.484   0.948  12.373 -1.4929  0.6307 -1.0858
 8433SOL     OW36931   0.347   3.143   2.835  0.4050 -0.7564  0.5711
 8433SOL    HW136932   0.430   3.179   2.867  0.6109 -0.3825 -0.3867
 8433SOL    HW236933   0.364   3.111   2.747  2.3803  2.1371 -0.1031
 8434SOL     OW36934   2.828   4.540   3.723  0.0097  0.3507 -0.2395
 8434SOL    HW136935   2.815   4.618   3.669  0.1651  0.8625  0.4677
 8434SOL    HW236936   2.788   4.564   3.806  2.7086  1.9669  0.5628
 8435SOL     OW36937   3.455   4.718   5.259  0.0580  0.1966  0.6135
 8435SOL    HW136938   3.441   4.623   5.260  1.4344 -0.0006  1.3710
 8435SOL    HW236939   3.537   4.721   5.210 -0.7554 -1.7777 -0.8657
 8436SOL     OW36940   4.009   3.967  15.282  0.2907  0.7683 -0.2097
 8436SOL    HW136941   3.983   4.057  15.302 -0.1491  0.9218 -1.4506
 8436SOL    HW236942   3.928   3.919  15.297 -0.5481  1.9575 -1.0052
 8437SOL     OW36943   1.813   0.927  15.659 -0.5116  1.0916 -0.0457
 8437SOL    HW136944   1.855   1.013  15.650  0.0021  0.7313 -1.1521
 8437SOL    HW236945   1.878   0.875  15.706 -0.1648  2.2134  0.7154
 8438SOL     OW36946   2.167   3.746   5.309  0.2350 -0.1357 -0.4430
 8438SOL    HW136947   2.076   3.733   5.333  1.3514 -1.3048  3.1397
 8438SOL    HW236948   2.176   3.695   5.228 -1.5529 -1.2133  0.0423
 8439SOL     OW36949   4.624   4.453  16.348 -0.1984  0.4804 -0.6652
 8439SOL    HW136950   4.568   4.377  16.361  1.1933 -0.4496 -0.1145
 8439SOL    HW236951   4.597   4.509  16.421 -0.5005  1.2117 -1.3380
 8440SOL     OW36952   0.601   3.148   2.925  0.3484 -0.0219 -0.2262
 8440SOL    HW136953   0.662   3.212   2.961  0.3443  0.3798 -0.9355
 8440SOL    HW236954   0.645   3.119   2.845 -1.1158 -1.0799 -0.6587
 8441SOL     OW36955   3.169   3.256   4.753  0.5282 -0.2268  0.1325
 8441SOL    HW136956   3.245   3.253   4.811  0.7412 -2.3308 -0.2718
 8441SOL    HW236957   3.123   3.181   4.791  0.1435 -0.9567 -1.7543
 8442SOL     OW36958   4.393   2.694   2.241  0.0009  0.2055 -0.1535
 8442SOL    HW136959   4.451   2.630   2.283  1.2500  2.2128  1.1783
 8442SOL    HW236960   4.446   2.774   2.247  0.9988 -0.3073 -1.9943
 8443SOL     OW36961   0.768   3.343   3.906 -0.7291  0.4764 -0.5168
 8443SOL    HW136962   0.827   3.340   3.982  0.2749  2.1572 -1.2533
 8443SOL    HW236963   0.797   3.422   3.861  0.5637  0.2603 -0.0857
 8444SOL     OW36964   3.842   1.072  14.152  0.0167  0.0302  0.5587
 8444SOL    HW136965   3.925   1.107  14.120 -0.2253 -0.1556 -0.2784
 8444SOL    HW236966   3.860   0.981  14.129 -0.7652  0.1364 -0.4270
 8445SOL     OW36967   0.255   3.618  13.579 -0.4153 -0.2567  0.1194
 8445SOL    HW136968   0.334   3.567  13.594  0.9301  2.4295  2.1761
 8445SOL    HW236969   0.284   3.682  13.514 -1.7787  0.9787  0.7088
 8446SOL     OW36970   2.485   4.602   0.199 -0.0376  0.2366 -0.0666
 8446SOL    HW136971   2.476   4.566   0.111 -4.0943  2.7465 -0.6431
 8446SOL    HW236972   2.511   4.694   0.189  1.2778  0.0603  1.6399
 8447SOL     OW36973   0.386   2.093   3.084  0.4251  0.1719  0.3140
 8447SOL    HW136974   0.476   2.060   3.088  0.9959  1.6272 -0.5603
 8447SOL    HW236975   0.387   2.182   3.120 -1.1494  0.2164  0.2821
 8448SOL     OW36976   2.441   0.306  11.289  0.0833  0.3765  0.3832
 8448SOL    HW136977   2.472   0.277  11.375  1.4842  0.4147 -0.1110
 8448SOL    HW236978   2.433   0.219  11.249  1.8271  0.4847 -0.2227
 8449SOL     OW36979   2.737   2.218  16.125  0.2940 -0.6872  0.6013
 8449SOL    HW136980   2.723   2.277  16.199 -0.7616 -0.5596  0.2880
 8449SOL    HW236981   2.715   2.137  16.170  1.7537 -0.5433  1.5722
 8450SOL     OW36982   1.518   0.909   3.866  0.0501  0.1279  0.7297
 8450SOL    HW136983   1.485   0.919   3.777 -0.2075  1.8403  1.0146
 8450SOL    HW236984   1.463   0.971   3.915 -0.1542  0.9167 -0.4912
 8451SOL     OW36985   0.031   2.709  15.123  0.2811  0.2033  0.2724
 8451SOL    HW136986   0.044   2.790  15.073  2.0158  0.9979  2.0464
 8451SOL    HW236987   0.121   2.695  15.152  0.0376  0.7971  1.3199
 8452SOL     OW36988   0.276   2.508   4.338 -0.5207 -0.3193  0.5597
 8452SOL    HW136989   0.243   2.455   4.266  0.4225  2.0303 -1.6106
 8452SOL    HW236990   0.209   2.495   4.406 -2.5649 -0.1195 -1.4202
 8453SOL     OW36991   4.650   4.324  10.280  0.2625  0.4648  0.4823
 8453SOL    HW136992   4.682   4.414  10.290  0.0101  0.3882  2.0592
 8453SOL    HW236993   4.592   4.315  10.356  1.3404  1.1101  1.3800
 8454SOL     OW36994   1.178   4.014   2.389 -0.0397 -0.3575  0.6085
 8454SOL    HW136995   1.266   4.017   2.352 -0.6468  0.6079 -0.7425
 8454SOL    HW236996   1.186   3.947   2.457 -2.5614 -1.2303  0.0242
 8455SOL     OW36997   4.050   2.478   2.996  0.0923 -0.0901 -0.1442
 8455SOL    HW136998   4.008   2.392   2.990 -0.8545  0.4191 -0.8911
 8455SOL    HW236999   4.110   2.456   2.924  0.1743  1.5802 -0.5911
 8456SOL     OW37000   1.782   0.495  16.269  0.1115  0.0216 -0.0898
 8456SOL    HW137001   1.836   0.574  16.275  2.0875 -1.0987 -3.1926
 8456SOL    HW237002   1.814   0.455  16.351 -1.0667  0.7263  0.7144
 8457SOL     OW37003   3.894   0.749   5.395  0.3064  0.0908 -0.2123
 8457SOL    HW137004   3.968   0.756   5.454 -0.8062  0.1872  1.1782
 8457SOL    HW237005   3.886   0.654   5.391  1.0940 -0.1178  2.9649
 8458SOL     OW37006   1.175   2.529   8.461  0.3034  0.8430  0.3263
 8458SOL    HW137007   1.147   2.615   8.431  2.1385  2.3052  2.7671
 8458SOL    HW237008   1.088   2.490   8.465 -0.6118  2.8423 -0.4118
 8459SOL     OW37009   4.243   0.456   9.548  0.1562 -0.1845  0.2504
 8459SOL    HW137010   4.325   0.453   9.598  0.0939 -0.5656  0.3303
 8459SOL    HW237011   4.237   0.363   9.527 -2.1078 -0.1476  0.7101
 8460SOL     OW37012   4.366   1.544   3.222 -0.3421 -0.1781  0.4714
 8460SOL    HW137013   4.388   1.636   3.207  2.3444 -1.3540 -2.7370
 8460SOL    HW237014   4.276   1.549   3.254 -0.1671  1.7101  0.7125
 8461SOL     OW37015   0.301   1.630  10.729  0.1311  0.3722  0.1667
 8461SOL    HW137016   0.234   1.593  10.671  1.4364  0.2165 -1.2398
 8461SOL    HW237017   0.314   1.717  10.691  0.0891 -0.4287 -1.7301
 8462SOL     OW37018   2.604   2.625   7.317  0.3769  0.2081  0.4799
 8462SOL    HW137019   2.678   2.668   7.275  1.4548 -2.2243 -0.1160
 8462SOL    HW237020   2.633   2.540   7.284  2.7327  1.3539 -0.3927
 8463SOL     OW37021   2.431   0.908   5.111 -0.0961  0.3596 -0.0380
 8463SOL    HW137022   2.369   0.950   5.051  0.1969  2.0529  0.8463
 8463SOL    HW237023   2.504   0.911   5.050  1.8395 -0.1544  2.2793
 8464SOL     OW37024   0.590   2.961   5.340  0.2520  0.4312  0.2018
 8464SOL    HW137025   0.655   3.028   5.320  0.4153  0.0311 -0.6002
 8464SOL    HW237026   0.514   3.019   5.331 -0.1379 -0.4218 -1.9944
 8465SOL     OW37027   1.850   0.452   5.740 -0.4196 -0.3418 -0.2890
 8465SOL    HW137028   1.817   0.511   5.808 -1.2952 -1.2145  0.0393
 8465SOL    HW237029   1.855   0.517   5.670 -0.0208 -0.2214 -0.1499
 8466SOL     OW37030   2.679   0.812  12.277 -0.0632  0.4005 -0.6494
 8466SOL    HW137031   2.630   0.811  12.195  0.6790 -0.1150 -1.0857
 8466SOL    HW237032   2.678   0.902  12.309  0.6395 -0.1295  0.8773
 8467SOL     OW37033   1.564   0.315   2.327 -0.3259  0.2725 -0.0209
 8467SOL    HW137034   1.593   0.256   2.397 -0.2946  0.0306 -0.2413
 8467SOL    HW237035   1.627   0.386   2.338 -0.4587  0.4794 -0.6357
 8468SOL     OW37036   0.507   2.083  15.864  0.8369 -0.3723 -0.0249
 8468SOL    HW137037   0.488   2.177  15.867 -2.1395 -1.0143  1.3762
 8468SOL    HW237038   0.433   2.047  15.913  1.8555 -1.7661  0.4962
 8469SOL     OW37039   3.880   3.922   3.976 -0.1388 -0.8837 -0.1814
 8469SOL    HW137040   3.862   3.897   4.066  2.8035 -1.5552  0.1877
 8469SOL    HW237041   3.790   3.928   3.942 -0.0862  1.2089  0.0610
 8470SOL     OW37042   1.437   0.111  10.967  0.5117  0.5171  0.6957
 8470SOL    HW137043   1.367   0.051  10.994  1.5410 -1.2214 -0.4852
 8470SOL    HW237044   1.497   0.058  10.914 -0.8506 -0.9066  0.5540
 8471SOL     OW37045   1.445   4.639   1.924  0.0531  0.0459  0.5317
 8471SOL    HW137046   1.394   4.699   1.978 -1.9719 -1.3472  0.2140
 8471SOL    HW237047   1.370   4.604   1.875 -0.4384 -0.3277  1.5489
 8472SOL     OW37048   1.938   3.672   4.363  0.3482  0.0338 -0.9283
 8472SOL    HW137049   1.917   3.579   4.374  0.5890  0.1923  0.8446
 8472SOL    HW237050   1.958   3.695   4.454 -0.0227  0.4883 -0.9630
 8473SOL     OW37051   0.572   0.435  17.627  0.2245 -0.1884  0.5310
 8473SOL    HW137052   0.519   0.514  17.638  0.0761 -0.3681  1.1306
 8473SOL    HW237053   0.502   0.379  17.594  1.8659 -2.6924  1.3071
 8474SOL     OW37054   3.216   3.565   1.935  0.3089 -0.5469 -0.3892
 8474SOL    HW137055   3.173   3.621   1.999  0.7319 -0.7788  0.1020
 8474SOL    HW237056   3.297   3.615   1.926 -2.7084  4.5575  1.4187
 8475SOL     OW37057   1.619   3.132   4.683  0.3613  0.3953 -0.1446
 8475SOL    HW137058   1.688   3.177   4.732 -0.9954  0.5316  1.6232
 8475SOL    HW237059   1.660   3.128   4.597  1.6436  0.3660  0.4603
 8476SOL     OW37060   2.338   1.824   4.038  0.7197  0.1310 -0.0112
 8476SOL    HW137061   2.429   1.816   4.010  0.7709  0.2094  0.1316
 8476SOL    HW237062   2.358   1.864   4.122  1.8580 -0.4279 -0.0139
 8477SOL     OW37063   0.905   1.790   7.882 -0.1617  0.1167 -0.1289
 8477SOL    HW137064   0.828   1.768   7.830 -1.1151  1.4657  0.7035
 8477SOL    HW237065   0.862   1.826   7.960  1.9212  0.5612  0.8173
 8478SOL     OW37066   1.818   0.188   7.673 -0.3465 -0.0919 -0.0840
 8478SOL    HW137067   1.860   0.102   7.676  0.1486  0.1402 -0.4311
 8478SOL    HW237068   1.899   0.236   7.658  0.2922 -0.9970  0.4875
 8479SOL     OW37069   0.169   2.189  13.500 -0.3026 -0.5920  0.3073
 8479SOL    HW137070   0.138   2.264  13.449 -0.4722  0.0747  1.3754
 8479SOL    HW237071   0.201   2.138  13.426 -1.9473  0.1708 -0.9513
 8480SOL     OW37072   2.718   3.092   2.950  0.4493  0.3326 -0.6370
 8480SOL    HW137073   2.640   3.118   2.901  0.1450 -0.3319 -0.5037
 8480SOL    HW237074   2.726   2.999   2.928 -2.6482 -0.0079 -0.4017
 8481SOL     OW37075   1.460   3.546   1.856 -0.4011  0.2229 -0.1922
 8481SOL    HW137076   1.454   3.521   1.948  1.0493  0.4037 -0.0474
 8481SOL    HW237077   1.520   3.480   1.822  0.6807  1.6347 -1.0257
 8482SOL     OW37078   0.159   1.932  11.253  0.0152  0.4154  0.5365
 8482SOL    HW137079   0.116   1.983  11.321  0.2575  1.7100 -0.2864
 8482SOL    HW237080   0.237   1.987  11.251  0.7865 -0.6376  1.4491
 8483SOL     OW37081   2.574   2.328   2.925 -0.4515 -0.2311  0.0666
 8483SOL    HW137082   2.641   2.329   2.856  1.3739 -0.9970  1.8302
 8483SOL    HW237083   2.524   2.249   2.902  1.6261 -1.4175 -0.3846
 8484SOL     OW37084   0.732   1.243   5.512  0.2901  0.0936 -0.8572
 8484SOL    HW137085   0.801   1.308   5.522  1.6507 -1.4356 -0.1891
 8484SOL    HW237086   0.751   1.188   5.588 -3.3852 -1.1933 -0.8715
 8485SOL     OW37087   0.559   1.284   9.208 -0.2087 -0.2469  0.3453
 8485SOL    HW137088   0.494   1.249   9.147 -1.3641  2.1651  0.2321
 8485SOL    HW237089   0.511   1.282   9.291  0.9926 -1.4811  1.0302
 8486SOL     OW37090   0.400   0.932   0.566  0.0537 -0.4844 -0.0531
 8486SOL    HW137091   0.330   0.905   0.506  0.2613  2.3425 -1.5169
 8486SOL    HW237092   0.447   0.984   0.502  0.4359  0.3351  0.8919
 8487SOL     OW37093   4.328   1.066   6.049 -0.2093 -0.1700 -0.5897
 8487SOL    HW137094   4.406   1.028   6.009 -0.6214 -1.5109 -0.1236
 8487SOL    HW237095   4.369   1.083   6.134 -1.5429 -1.8505  0.3966
 8488SOL     OW37096   3.414   1.386  10.452 -0.0980  0.2222 -0.2373
 8488SOL    HW137097   3.436   1.333  10.529 -0.9184 -0.8941 -0.7725
 8488SOL    HW237098   3.347   1.326  10.420  0.5955  0.6119 -2.4232
 8489SOL     OW37099   1.053   2.451  16.230 -0.1871  0.4885  0.0611
 8489SOL    HW137100   1.023   2.502  16.305  0.1198  0.7235  0.0242
 8489SOL    HW237101   0.982   2.390  16.213 -1.7319  2.5782 -0.9637
 8490SOL     OW37102   1.496   1.548   4.770  0.2939  0.9755 -0.3672
 8490SOL    HW137103   1.537   1.587   4.848 -0.2893 -0.3064  0.5881
 8490SOL    HW237104   1.417   1.520   4.816  0.6262  0.5994 -0.0174
 8491SOL     OW37105   0.495   2.566   7.413 -0.3684 -0.0580  0.7998
 8491SOL    HW137106   0.511   2.479   7.376  0.0729 -0.0225  0.8999
 8491SOL    HW237107   0.587   2.589   7.428  0.2714 -2.4776  0.6138
 8492SOL     OW37108   2.401   0.972  15.081 -0.2889  0.7574 -0.4960
 8492SOL    HW137109   2.365   1.054  15.113  0.3180  0.1425  1.7823
 8492SOL    HW237110   2.456   0.997  15.007 -0.1558  0.1223 -0.6139
 8493SOL     OW37111   3.123   0.284   7.173 -0.1520  0.0466  0.1955
 8493SOL    HW137112   3.081   0.305   7.089  0.5231 -0.3190 -0.2391
 8493SOL    HW237113   3.096   0.348   7.238 -1.0060  0.2542 -0.3612
 8494SOL     OW37114   4.670   0.767  17.384  0.5110 -0.1834 -0.7965
 8494SOL    HW137115   4.640   0.842  17.333 -0.5183 -0.2057 -0.2173
 8494SOL    HW237116   4.669   0.813  17.468  1.3665 -0.7345 -0.4820
 8495SOL     OW37117   0.289   4.323  10.234  0.0963  0.0699  0.6162
 8495SOL    HW137118   0.232   4.267  10.180 -1.2600  1.6304  0.4270
 8495SOL    HW237119   0.344   4.352  10.162 -1.0949  2.7435  0.8094
 8496SOL     OW37120   1.172   3.541  16.732  0.0566 -0.5756 -0.4413
 8496SOL    HW137121   1.254   3.511  16.772  0.4531  1.9244  0.6317
 8496SOL    HW237122   1.200   3.576  16.647  0.0217 -0.4718 -0.4100
 8497SOL     OW37123   3.430   4.587   8.723 -0.8348  0.5379 -0.1844
 8497SOL    HW137124   3.365   4.654   8.744 -1.0511  0.7324 -1.4630
 8497SOL    HW237125   3.391   4.551   8.643 -1.2576  0.5135  0.0314
 8498SOL     OW37126   2.823   0.632   7.195 -0.0076  0.6176 -0.1263
 8498SOL    HW137127   2.736   0.669   7.179 -0.4437  0.8323  2.7896
 8498SOL    HW237128   2.865   0.715   7.220  3.1026 -0.5327 -1.5655
 8499SOL     OW37129   1.561   4.063   9.398 -0.2077 -0.2790 -0.8719
 8499SOL    HW137130   1.550   3.969   9.415  0.8797 -0.3049 -0.3009
 8499SOL    HW237131   1.596   4.098   9.480  1.3774 -2.9396 -0.3757
 8500SOL     OW37132   0.011   3.076   6.964  0.0712  0.2501 -0.1982
 8500SOL    HW137133   0.064   3.124   6.901  0.8895  1.0456  1.0931
 8500SOL    HW237134   0.050   3.110   7.045 -0.0106 -0.8675  0.3267
 8501SOL     OW37135   4.397   0.525   4.652 -0.9805 -0.1344  0.6332
 8501SOL    HW137136   4.422   0.512   4.561 -3.7858  0.5207 -0.2420
 8501SOL    HW237137   4.401   0.620   4.661 -0.9819 -0.2100  1.4622
 8502SOL     OW37138   0.190   1.190   8.838 -0.3367  0.0543  0.3804
 8502SOL    HW137139   0.097   1.191   8.815  0.0357 -0.4882 -1.1497
 8502SOL    HW237140   0.181   1.259   8.904 -1.2968 -2.1118  2.5060
 8503SOL     OW37141   1.662   3.306   2.063 -0.4490 -0.0788  0.2803
 8503SOL    HW137142   1.707   3.391   2.059 -0.8015  0.0250 -1.5200
 8503SOL    HW237143   1.599   3.320   2.133 -1.3733 -1.6919 -0.2349
 8504SOL     OW37144   2.696   2.777  15.696 -0.4710  0.1022 -0.3636
 8504SOL    HW137145   2.781   2.810  15.667 -0.7789 -0.7906 -2.2433
 8504SOL    HW237146   2.728   2.711  15.758 -0.5930  3.4082  3.2351
 8505SOL     OW37147   0.257   3.508  17.337 -0.1732  0.0469  0.5761
 8505SOL    HW137148   0.305   3.508  17.254 -0.1775  1.5003  0.5745
 8505SOL    HW237149   0.246   3.416  17.362 -0.2463  0.6250  2.7052
 8506SOL     OW37150   4.009   3.588   1.852  0.2721  0.3569  0.1898
 8506SOL    HW137151   3.989   3.681   1.857 -1.7190 -0.0244 -0.5536
 8506SOL    HW237152   3.951   3.563   1.780 -0.0377  2.2064 -0.1995
 8507SOL     OW37153   2.398   3.474   6.378 -0.3939 -0.5380 -0.0815
 8507SOL    HW137154   2.323   3.517   6.337  0.2952  0.9317  0.2237
 8507SOL    HW237155   2.429   3.424   6.303  0.1414 -1.2442  0.6176
 8508SOL     OW37156   2.272   2.787   9.373 -0.0355  0.5015 -0.5583
 8508SOL    HW137157   2.201   2.734   9.335 -0.4377  0.8291 -0.2690
 8508SOL    HW237158   2.215   2.839   9.430  0.4098  1.0437 -0.6115
 8509SOL     OW37159   3.107   2.178   6.318  0.9925 -0.5266 -0.1221
 8509SOL    HW137160   3.117   2.222   6.403 -0.1439  1.3925 -0.9666
 8509SOL    HW237161   3.193   2.136   6.311  1.1172  0.0328 -1.8454
 8510SOL     OW37162   0.484   0.560   6.771  0.1622 -0.3219  0.2406
 8510SOL    HW137163   0.470   0.605   6.688 -3.4792 -2.5307 -0.3785
 8510SOL    HW237164   0.465   0.469   6.748  0.3008 -0.2274 -0.2416
 8511SOL     OW37165   2.950   0.709   6.826  1.3071  0.1224 -0.0470
 8511SOL    HW137166   2.865   0.683   6.791  0.4203 -0.1759  2.3267
 8511SOL    HW237167   3.015   0.715   6.756  1.5141  0.3767  0.1644
 8512SOL     OW37168   0.090   4.606   4.596  0.0806  0.4657 -0.0654
 8512SOL    HW137169   0.118   4.696   4.613 -3.3539  1.9251 -2.0902
 8512SOL    HW237170   0.019   4.599   4.660 -3.1111  1.7737 -3.4719
 8513SOL     OW37171   2.197   2.452  13.303  0.0611 -0.2536  0.1934
 8513SOL    HW137172   2.154   2.534  13.329  0.9717  0.7379 -1.4042
 8513SOL    HW237173   2.142   2.430  13.228 -0.7544  0.2105  0.6535
 8514SOL     OW37174   0.148   0.018  12.988 -0.1998 -0.1171  0.5866
 8514SOL    HW137175   0.207   0.084  12.953  0.0175 -0.1035  0.9849
 8514SOL    HW237176   0.165   0.024  13.082  3.1097 -0.6079  0.0235
 8515SOL     OW37177   0.505   0.924   1.852 -0.2304  0.1401 -0.2106
 8515SOL    HW137178   0.534   0.844   1.897 -0.9632  0.8959  1.5873
 8515SOL    HW237179   0.470   0.885   1.772  2.0618 -3.3251  0.4836
 8516SOL     OW37180   1.754   0.946   6.916 -0.6315 -0.2004  0.3249
 8516SOL    HW137181   1.729   0.854   6.923 -0.7325 -0.1441  0.7494
 8516SOL    HW237182   1.763   0.977   7.007  0.4190 -0.8091  0.4264
 8517SOL     OW37183   3.958   0.059   3.527 -0.0429 -0.1464  0.3662
 8517SOL    HW137184   3.967   4.714   3.585  1.4691  0.9698  1.6291
 8517SOL    HW237185   4.043   0.097   3.548 -0.2305  1.2110 -1.3446
 8518SOL     OW37186   1.990   0.324  16.724  0.6397 -0.7471 -0.0824
 8518SOL    HW137187   2.072   0.345  16.679  0.2825 -1.4201 -1.0502
 8518SOL    HW237188   2.004   0.231  16.742  0.9416 -1.0267 -1.7499
 8519SOL     OW37189   1.497   2.379   7.044  0.0232 -0.1878  0.6707
 8519SOL    HW137190   1.418   2.430   7.064  0.0996 -0.2324  1.0791
 8519SOL    HW237191   1.495   2.390   6.948  1.0517 -1.1830  0.5366
 8520SOL     OW37192   2.329   2.810   4.458  0.2869  0.5790 -0.1916
 8520SOL    HW137193   2.384   2.733   4.446 -0.0143  0.4602 -0.7952
 8520SOL    HW237194   2.386   2.867   4.509  1.9212 -2.0540  0.8819
 8521SOL     OW37195   0.377   1.110  16.867 -0.5350  0.1284 -0.2012
 8521SOL    HW137196   0.372   1.170  16.792  0.8724  0.8671  0.3001
 8521SOL    HW237197   0.469   1.093  16.887  0.3420  2.7509 -2.0276
 8522SOL     OW37198   0.716   2.463  15.816 -0.0442  0.2714 -0.5904
 8522SOL    HW137199   0.713   2.458  15.911  1.2072 -0.8085 -0.6063
 8522SOL    HW237200   0.811   2.469  15.814  0.1166 -2.7443 -1.6926
 8523SOL     OW37201   1.995   3.066   1.153  0.0364 -0.0073  0.0750
 8523SOL    HW137202   1.989   3.145   1.098 -2.7701 -0.7436 -0.6968
 8523SOL    HW237203   1.996   3.109   1.238  0.4930  0.2995 -0.0895
 8524SOL     OW37204   0.201   0.523   3.963  0.0489  0.0243 -0.1501
 8524SOL    HW137205   0.161   0.455   4.017  1.4496 -0.4955  0.2310
 8524SOL    HW237206   0.135   0.592   3.964  1.0858  1.0328 -0.4807
 8525SOL     OW37207   2.517   3.751   4.633  0.4512 -0.0987  0.1397
 8525SOL    HW137208   2.446   3.812   4.613  0.3845  0.2054  1.3433
 8525SOL    HW237209   2.576   3.776   4.561 -0.8249  2.2378 -0.0988
 8526SOL     OW37210   1.419   3.934   5.431 -0.1004 -0.1658 -0.3803
 8526SOL    HW137211   1.454   4.004   5.375 -1.6173  0.1555 -0.9480
 8526SOL    HW237212   1.494   3.877   5.441  0.3241  0.5495  0.5074
 8527SOL     OW37213   1.735   1.308   8.783  0.1748 -0.3393  0.0163
 8527SOL    HW137214   1.685   1.390   8.785 -1.8336 -1.5800  0.4589
 8527SOL    HW237215   1.787   1.310   8.702  0.3973  3.0628  0.2302
 8528SOL     OW37216   4.509   1.564   0.842  0.0188 -0.3319  0.1331
 8528SOL    HW137217   4.445   1.498   0.867  1.2753 -1.2678  0.8675
 8528SOL    HW237218   4.518   1.530   0.752 -1.7160 -1.1141  0.2561
 8529SOL     OW37219   1.556   2.590   3.942  0.4506  0.2669  0.4835
 8529SOL    HW137220   1.497   2.587   3.867 -1.5332 -3.3295  2.1939
 8529SOL    HW237221   1.569   2.497   3.964  0.5942  0.1191 -0.1975
 8530SOL     OW37222   1.060   3.901  16.958  0.1221 -0.6288 -0.1950
 8530SOL    HW137223   1.129   3.834  16.959 -0.9133 -1.7282 -1.0038
 8530SOL    HW237224   1.122   3.971  16.976  0.8830 -1.6488  1.2131
 8531SOL     OW37225   1.387   1.792   1.999 -0.4846  0.1697  0.2604
 8531SOL    HW137226   1.393   1.720   2.062  0.4042  0.3046  0.3258
 8531SOL    HW237227   1.348   1.751   1.922  0.5156 -2.0876  0.9451
 8532SOL     OW37228   1.339   4.158   9.792 -0.3805  0.2509  0.8955
 8532SOL    HW137229   1.327   4.064   9.800 -0.0052  0.0903 -0.4444
 8532SOL    HW237230   1.275   4.196   9.853 -2.1510  0.0700 -0.8556
 8533SOL     OW37231   4.241   2.065   7.965  0.3500 -0.4404 -0.2007
 8533SOL    HW137232   4.314   2.068   7.904 -2.9378  0.0210 -4.1223
 8533SOL    HW237233   4.174   2.069   7.897  0.9921  0.5254 -0.7714
 8534SOL     OW37234   4.157   2.910   4.073  0.8610  0.0773  0.6561
 8534SOL    HW137235   4.211   2.923   3.995 -0.7105 -3.7712 -1.0741
 8534SOL    HW237236   4.076   2.883   4.030 -1.4506  1.3530  4.1882
 8535SOL     OW37237   0.295   3.557   8.358 -0.2459 -0.0453  0.0542
 8535SOL    HW137238   0.270   3.596   8.274  1.2818  0.2277 -0.2624
 8535SOL    HW237239   0.210   3.529   8.394 -0.4594  0.7217  0.1498
 8536SOL     OW37240   0.642   1.573   1.002  0.2465  0.5658  0.5210
 8536SOL    HW137241   0.647   1.488   0.960 -0.3245  0.4156  0.7535
 8536SOL    HW237242   0.727   1.570   1.046  0.9924 -1.5397 -1.0974
 8537SOL     OW37243   2.029   3.252   3.552  0.3890 -0.0728 -0.2766
 8537SOL    HW137244   1.974   3.310   3.604 -0.8346 -0.9140 -0.6455
 8537SOL    HW237245   2.054   3.188   3.619 -3.8280 -3.1336 -1.5986
 8538SOL     OW37246   1.798   0.954  14.755 -0.5191 -0.2940 -0.2869
 8538SOL    HW137247   1.783   0.998  14.838  1.5905  1.0286 -0.6139
 8538SOL    HW237248   1.830   1.027  14.701  3.4166 -2.3444 -0.7028
 8539SOL     OW37249   0.007   1.149   2.789 -0.6727  0.3322  0.6337
 8539SOL    HW137250   4.719   1.207   2.863  1.3474  1.1379  0.5419
 8539SOL    HW237251   4.676   1.189   2.728  0.8873  1.6650 -0.0915
 8540SOL     OW37252   4.257   1.637   3.495  0.4927 -0.1700 -0.3891
 8540SOL    HW137253   4.185   1.589   3.453 -0.5257  1.8977 -0.9716
 8540SOL    HW237254   4.224   1.727   3.487  0.6234 -0.1661 -0.8818
 8541SOL     OW37255   0.650   1.017   7.486  0.0846  0.3690  0.0708
 8541SOL    HW137256   0.663   1.102   7.529  0.1959  0.0762  0.6159
 8541SOL    HW237257   0.700   0.958   7.542 -0.4558 -0.4131 -0.2796
 8542SOL     OW37258   1.145   1.809   3.152  0.4495  0.2168  0.3642
 8542SOL    HW137259   1.156   1.905   3.150 -0.5939  0.3536  1.5384
 8542SOL    HW237260   1.098   1.787   3.071  2.6541 -2.5301 -0.1565
 8543SOL     OW37261   1.059   0.040   4.893  0.2394  0.1248  0.3017
 8543SOL    HW137262   0.974   0.067   4.929  0.3467 -0.3532  0.9172
 8543SOL    HW237263   1.098   0.115   4.850 -2.1581  2.0839  1.5490
 8544SOL     OW37264   2.951   0.448   8.111 -0.2754 -0.4588 -0.3062
 8544SOL    HW137265   3.004   0.465   8.189  0.6053 -1.3456 -0.7221
 8544SOL    HW237266   2.931   0.357   8.131 -1.5643  0.1133  1.0468
 8545SOL     OW37267   4.703   1.273   5.416 -0.2232 -0.2384 -0.0673
 8545SOL    HW137268   4.662   1.262   5.502  0.1287  0.9501  0.2510
 8545SOL    HW237269   0.034   1.344   5.429 -0.6588  0.2264 -0.5026
 8546SOL     OW37270   3.617   1.387   4.691 -0.3268 -0.0802 -0.1913
 8546SOL    HW137271   3.601   1.387   4.785  0.6961 -2.2609 -0.0144
 8546SOL    HW237272   3.706   1.422   4.687 -0.4049  0.2266  0.9005
 8547SOL     OW37273   0.013   0.565   9.248  0.8894 -0.3984  0.3638
 8547SOL    HW137274   0.042   0.631   9.185  0.9815 -0.5625  0.2325
 8547SOL    HW237275   4.701   0.625   9.308 -1.3160 -0.9994 -0.6374
 8548SOL     OW37276   0.408   4.481   4.586 -0.2464  0.2169  0.1437
 8548SOL    HW137277   0.320   4.446   4.592  0.2700 -1.0752  0.2671
 8548SOL    HW237278   0.468   4.406   4.585 -1.2599 -0.5852  0.4206
 8549SOL     OW37279   2.256   1.459   6.621 -0.3898 -0.3110 -0.3312
 8549SOL    HW137280   2.325   1.487   6.561  1.6472  0.8703  2.5250
 8549SOL    HW237281   2.268   1.364   6.630  1.2293 -0.0724  0.0480
 8550SOL     OW37282   1.989   1.541   8.827  0.1293  0.1733 -0.1318
 8550SOL    HW137283   2.018   1.575   8.742  0.3578  1.0549  0.2886
 8550SOL    HW237284   1.898   1.571   8.830  1.2626  3.4263  2.1820
 8551SOL     OW37285   2.685   0.818   8.188 -0.2955  0.1395  0.0792
 8551SOL    HW137286   2.776   0.844   8.174 -0.6109  1.3991  0.4367
 8551SOL    HW237287   2.666   0.866   8.269  0.0819  0.9822 -0.3413
 8552SOL     OW37288   2.648   1.274  13.972 -0.0258 -0.3752  0.1653
 8552SOL    HW137289   2.598   1.347  14.008  2.0082  1.3521 -0.4868
 8552SOL    HW237290   2.738   1.303  13.989 -0.7203  1.6920  0.3495
 8553SOL     OW37291   3.344   1.585   2.441  0.1871  0.6784  0.6164
 8553SOL    HW137292   3.414   1.589   2.375 -0.8853 -1.9519 -0.6375
 8553SOL    HW237293   3.271   1.566   2.383 -0.2443 -0.8501  1.6830
 8554SOL     OW37294   4.657   2.611  10.428 -0.4126  0.5356 -0.2330
 8554SOL    HW137295   4.615   2.546  10.372 -0.7800  0.6575 -0.1002
 8554SOL    HW237296   4.618   2.691  10.392 -0.1269  0.4969 -0.6301
 8555SOL     OW37297   3.872   2.245   7.424  0.4272  0.2062  0.0967
 8555SOL    HW137298   3.942   2.187   7.455  0.6102  1.2651  1.6440
 8555SOL    HW237299   3.805   2.243   7.493  1.5343 -0.5582  1.1530
 8556SOL     OW37300   1.483   2.395   7.344  0.3462 -0.2972  0.2803
 8556SOL    HW137301   1.539   2.353   7.409 -2.1976 -0.7394  2.1875
 8556SOL    HW237302   1.455   2.321   7.290 -0.0655  0.6353 -0.7985
 8557SOL     OW37303   3.828   3.239  11.162 -0.0752 -0.4033  0.0456
 8557SOL    HW137304   3.745   3.193  11.153 -1.3791  1.3660  3.0603
 8557SOL    HW237305   3.828   3.251  11.257  0.1004 -0.7961  0.0942
 8558SOL     OW37306   0.008   2.900  11.859 -0.1856  0.1184  0.3062
 8558SOL    HW137307   0.041   2.816  11.826 -1.7782  0.7456 -2.9000
 8558SOL    HW237308   0.065   2.963  11.816 -0.1818  0.7687  1.2507
 8559SOL     OW37309   0.141   4.392  15.061  0.5214  0.4858  0.1421
 8559SOL    HW137310   0.204   4.459  15.033  0.1117  0.7570 -0.1262
 8559SOL    HW237311   0.202   4.319  15.055  0.4888  0.5158 -0.5497
 8560SOL     OW37312   1.758   2.221   8.187  0.1325  0.2982 -0.0836
 8560SOL    HW137313   1.726   2.295   8.239  1.7557  1.3012 -0.5004
 8560SOL    HW237314   1.702   2.149   8.218  0.5391 -0.2767 -0.6782
 8561SOL     OW37315   1.231   3.490  17.488  0.1610 -0.4258  0.7717
 8561SOL    HW137316   1.297   3.481  17.557 -1.7522 -1.5907  2.4354
 8561SOL    HW237317   1.266   3.570  17.449 -2.4588 -0.5834 -1.8603
 8562SOL     OW37318   2.349   3.826   8.553 -0.3797 -0.0832 -0.3522
 8562SOL    HW137319   2.346   3.731   8.547 -0.2410 -0.0492 -0.9689
 8562SOL    HW237320   2.293   3.838   8.476  0.3895 -0.1950 -0.9329
 8563SOL     OW37321   3.933   0.966  15.065  0.0625 -0.1838 -0.6581
 8563SOL    HW137322   3.838   0.967  15.058 -0.1387  2.5981  2.3583
 8563SOL    HW237323   3.939   0.903  15.137 -1.6383  0.9111  0.4519
 8564SOL     OW37324   3.288   2.519   8.468 -0.7193  0.2058 -0.3763
 8564SOL    HW137325   3.343   2.488   8.397 -0.8802 -1.8286  0.3779
 8564SOL    HW237326   3.347   2.566   8.527 -0.2662 -1.7920  0.7724
 8565SOL     OW37327   2.286   4.341   5.717  0.1587  0.2458 -0.2747
 8565SOL    HW137328   2.250   4.301   5.638  2.3287  0.1324 -1.2034
 8565SOL    HW237329   2.308   4.259   5.761 -0.4942  0.9048  1.2794
 8566SOL     OW37330   2.331   3.429   6.064  0.2767  0.4986  0.4210
 8566SOL    HW137331   2.353   3.422   5.971 -0.0775 -0.6300  0.4214
 8566SOL    HW237332   2.372   3.351   6.102 -0.2398 -0.2047 -0.4636
 8567SOL     OW37333   2.941   2.340  11.818 -0.5625 -0.7474 -0.3494
 8567SOL    HW137334   2.919   2.330  11.725 -0.2015  2.2292 -0.7389
 8567SOL    HW237335   2.983   2.255  11.836 -0.8803 -0.4266  1.8922
 8568SOL     OW37336   2.611   1.277   5.991  0.0084  0.0077  0.0872
 8568SOL    HW137337   2.644   1.245   5.907 -0.3078 -2.6556  0.9920
 8568SOL    HW237338   2.521   1.243   5.988  0.2926 -0.6257 -1.6880
 8569SOL     OW37339   2.147   1.515   1.505  0.5872 -0.3789 -0.6207
 8569SOL    HW137340   2.164   1.537   1.597  0.2081 -2.3033 -0.0972
 8569SOL    HW237341   2.060   1.477   1.512 -0.4054  2.0381  0.5654
 8570SOL     OW37342   1.194   2.109   5.529 -0.1351  0.4287 -0.5098
 8570SOL    HW137343   1.213   2.197   5.497  1.0247  0.3312 -0.1201
 8570SOL    HW237344   1.262   2.057   5.486 -0.8901 -1.6052  0.7493
 8571SOL     OW37345   2.010   2.358   5.560  0.5539 -0.0070 -0.0942
 8571SOL    HW137346   2.054   2.432   5.601 -2.6827  2.5337 -1.2252
 8571SOL    HW237347   1.938   2.340   5.620 -0.4014 -0.0448 -1.2664
 8572SOL     OW37348   0.963   4.029   3.868 -0.4086 -0.4163 -0.5082
 8572SOL    HW137349   1.030   4.095   3.885  0.6388 -1.9071  1.0430
 8572SOL    HW237350   1.008   3.949   3.894 -2.1941 -1.1474  0.3354
 8573SOL     OW37351   2.006   2.829  16.929 -0.0102  0.1160 -0.5084
 8573SOL    HW137352   1.976   2.907  16.975  0.4435  0.3838 -0.6596
 8573SOL    HW237353   2.099   2.827  16.954 -0.1227 -1.1061 -0.1517
 8574SOL     OW37354   0.816   2.300   2.439 -0.0836 -0.2519 -0.1340
 8574SOL    HW137355   0.816   2.244   2.361 -0.9750  0.0183 -0.3196
 8574SOL    HW237356   0.732   2.345   2.438  0.9076  1.6005  0.6793
 8575SOL     OW37357   0.115   4.662   6.630 -0.5511  0.3551  0.1912
 8575SOL    HW137358   0.096   0.021   6.609 -2.1522  0.0326  0.2792
 8575SOL    HW237359   0.039   4.652   6.688 -1.4854  1.3261 -0.8736
 8576SOL     OW37360   0.008   2.103   2.596 -0.3503  0.7512  0.1826
 8576SOL    HW137361   0.063   2.157   2.652  0.9947 -0.2887 -0.1424
 8576SOL    HW237362   0.009   2.151   2.513  2.0526  2.1860  1.0501
 8577SOL     OW37363   2.207   0.418  12.996  0.1392 -0.5304 -0.0661
 8577SOL    HW137364   2.252   0.453  12.920  0.2942  0.1235  0.3224
 8577SOL    HW237365   2.115   0.425  12.971  0.6572  0.0155 -1.7744
 8578SOL     OW37366   0.188   1.904   8.651  0.2769  0.1896 -0.0644
 8578SOL    HW137367   0.122   1.969   8.673  1.7264  1.4302  0.5538
 8578SOL    HW237368   0.133   1.835   8.614 -1.8374  2.7781 -1.7502
 8579SOL     OW37369   4.634   0.105   7.617  0.2257 -0.0534  0.6965
 8579SOL    HW137370   4.679   0.189   7.608  0.3870  0.1324  3.4873
 8579SOL    HW237371   4.689   0.073   7.688 -0.5526  1.8489  2.1490
 8580SOL     OW37372   0.647   0.738   9.413 -0.5419  0.5077  0.6977
 8580SOL    HW137373   0.613   0.785   9.337 -1.7534 -0.9180  0.3436
 8580SOL    HW237374   0.583   0.759   9.482  0.1514 -1.3305  1.9108
 8581SOL     OW37375   3.835   3.346   3.437  0.4377 -0.9531  0.4821
 8581SOL    HW137376   3.832   3.434   3.476 -1.7358 -1.1307  0.6994
 8581SOL    HW237377   3.811   3.294   3.513 -1.3248  2.1451  2.0710
 8582SOL     OW37378   2.264   0.660   8.928  0.5123  0.2828  0.0547
 8582SOL    HW137379   2.251   0.634   9.020  0.5643  2.3908  0.6672
 8582SOL    HW237380   2.337   0.721   8.940  0.2984  0.5571 -0.0577
 8583SOL     OW37381   3.627   1.229   7.244 -0.5101  0.4297 -0.2115
 8583SOL    HW137382   3.588   1.276   7.170  0.4746  1.0517 -0.3363
 8583SOL    HW237383   3.554   1.177   7.278  0.9184 -0.9664  0.7003
 8584SOL     OW37384   0.823   4.065   6.616 -0.0446 -0.0363  0.8072
 8584SOL    HW137385   0.866   4.001   6.673 -1.2382  0.2837  2.0879
 8584SOL    HW237386   0.806   4.005   6.544  2.0079  1.1979 -0.6851
 8585SOL     OW37387   4.438   1.636   7.045 -0.4106 -0.2994  0.1255
 8585SOL    HW137388   4.352   1.634   7.002 -0.7104  1.2354  0.6825
 8585SOL    HW237389   4.445   1.542   7.061 -0.8576 -0.7003 -1.9561
 8586SOL     OW37390   4.408   0.721   6.454  0.2064 -0.1910  0.2275
 8586SOL    HW137391   4.439   0.791   6.510 -1.4072  1.6322 -1.1381
 8586SOL    HW237392   4.406   0.646   6.513 -1.6562  0.9890  1.6643
 8587SOL     OW37393   3.375   3.215   2.108 -0.2420  0.1642 -0.0591
 8587SOL    HW137394   3.344   3.171   2.188  0.6470 -0.9178 -0.3157
 8587SOL    HW237395   3.322   3.176   2.039 -1.1538  1.4154 -0.0675
 8588SOL     OW37396   2.295   3.270   3.796 -0.3868  0.2733  0.1340
 8588SOL    HW137397   2.359   3.282   3.867 -0.7404 -0.7402  0.6252
 8588SOL    HW237398   2.348   3.308   3.727 -1.5377  1.3073 -0.1864
 8589SOL     OW37399   4.600   4.350   6.222 -0.4816 -0.3281 -0.0236
 8589SOL    HW137400   4.559   4.366   6.137 -2.1024  1.7145  1.1331
 8589SOL    HW237401   4.657   4.427   6.227 -0.0544 -0.6656  0.3766
 8590SOL     OW37402   2.707   4.493   2.298  0.3388 -0.0608  0.0825
 8590SOL    HW137403   2.618   4.462   2.315  0.6666 -1.1311 -0.1501
 8590SOL    HW237404   2.694   4.560   2.231 -0.3338 -2.2964 -2.0362
 8591SOL     OW37405   0.462   3.638   9.825 -0.6592  0.1244  0.0752
 8591SOL    HW137406   0.529   3.688   9.872  0.9815 -0.8697 -1.2145
 8591SOL    HW237407   0.489   3.548   9.840  1.8397  0.9576  0.5891
 8592SOL     OW37408   2.195   0.147   7.927  0.3417 -0.3823 -0.2193
 8592SOL    HW137409   2.214   0.066   7.975  0.3388 -1.1969 -1.5961
 8592SOL    HW237410   2.192   0.212   7.998 -0.3388  1.1003 -1.6205
 8593SOL     OW37411   2.945   1.534   4.214  0.0671 -0.0614 -0.1092
 8593SOL    HW137412   3.013   1.594   4.184  0.3200 -0.2013  0.1870
 8593SOL    HW237413   2.916   1.505   4.127  0.4591  0.5133 -0.4256
 8594SOL     OW37414   1.810   2.209   9.457 -0.0766  0.2628 -0.6592
 8594SOL    HW137415   1.773   2.224   9.370  1.4915 -0.2900 -1.4277
 8594SOL    HW237416   1.897   2.206   9.417  0.3853 -0.5747  0.4339
 8595SOL     OW37417   2.740   0.539  14.281 -0.5991 -0.2805  0.1538
 8595SOL    HW137418   2.648   0.522  14.303 -0.8720  0.5159 -0.3687
 8595SOL    HW237419   2.729   0.628  14.316 -0.0738  0.4722 -1.6251
 8596SOL     OW37420   4.145   3.260   6.435  0.5693  0.0492 -0.2024
 8596SOL    HW137421   4.218   3.217   6.479  1.4399  0.9864 -0.7338
 8596SOL    HW237422   4.087   3.276   6.510 -0.5389 -1.8385 -0.6620
 8597SOL     OW37423   3.481   3.666  16.498  0.8720  0.5141  0.1655
 8597SOL    HW137424   3.458   3.665  16.405  1.8220  3.0951 -0.0895
 8597SOL    HW237425   3.425   3.596  16.531  2.2461 -0.8872 -0.4744
 8598SOL     OW37426   1.199   0.537   6.616  0.0621  0.4096 -0.4597
 8598SOL    HW137427   1.185   0.620   6.663  0.1987  0.5888 -0.7362
 8598SOL    HW237428   1.291   0.520   6.636 -0.8605 -2.1339  1.6179
 8599SOL     OW37429   4.631   1.633   4.376  0.5102  0.3701 -0.9800
 8599SOL    HW137430   4.701   1.594   4.324  1.0425 -0.2935  0.2472
 8599SOL    HW237431   4.679   1.660   4.454 -1.4748  1.5198 -0.1577
 8600SOL     OW37432   4.237   4.294   7.556  0.2818 -0.4429 -0.1013
 8600SOL    HW137433   4.291   4.363   7.596  0.3752 -1.3039  1.2501
 8600SOL    HW237434   4.308   4.248   7.512  3.4386  3.7866  0.4879
 8601SOL     OW37435   3.595   0.889   2.850  0.1677 -0.1137  0.2200
 8601SOL    HW137436   3.519   0.850   2.807 -1.1343  1.5570  0.9772
 8601SOL    HW237437   3.606   0.971   2.801  1.3892 -1.0083 -0.9919
 8602SOL     OW37438   0.214   4.725   4.173  0.0626 -0.0078  0.4834
 8602SOL    HW137439   0.272   4.650   4.185  0.7507  0.2284 -1.3798
 8602SOL    HW237440   0.249   0.062   4.230  0.6195 -1.2285  1.5921
 8603SOL     OW37441   1.391   0.681   4.551  0.2011 -0.6505 -0.4366
 8603SOL    HW137442   1.417   0.770   4.574  1.2716 -1.1658  0.3815
 8603SOL    HW237443   1.456   0.620   4.587 -0.7815 -2.2812 -1.4174
 8604SOL     OW37444   2.946   3.623   5.011  0.2389 -0.3367 -0.0026
 8604SOL    HW137445   2.978   3.713   5.003  0.7928 -0.3290  2.2359
 8604SOL    HW237446   2.896   3.595   4.934  2.3702 -0.6386 -1.2706
 8605SOL     OW37447   1.094   0.796   1.333  0.2062  0.3167 -0.4988
 8605SOL    HW137448   1.042   0.720   1.359  2.1443 -0.3635  1.3346
 8605SOL    HW237449   1.146   0.752   1.265 -0.5552 -1.2224 -0.0763
 8606SOL     OW37450   4.569   4.034  16.351  0.3771 -0.1776  0.2503
 8606SOL    HW137451   4.545   4.013  16.261 -0.2803  0.3312  0.3052
 8606SOL    HW237452   4.500   3.981  16.391 -0.8158 -0.4741 -2.1986
 8607SOL     OW37453   0.141   4.512   6.917  0.4635  0.2208  0.2910
 8607SOL    HW137454   0.071   4.515   6.851  0.3353 -0.1857  0.4071
 8607SOL    HW237455   0.134   4.592   6.969 -0.4030 -0.0104  0.5295
 8608SOL     OW37456   3.264   3.472   4.970 -0.2043 -0.1387  0.0273
 8608SOL    HW137457   3.335   3.501   4.914 -0.8750  0.0407 -0.7336
 8608SOL    HW237458   3.266   3.376   4.964 -0.9815 -0.1786  0.2831
 8609SOL     OW37459   3.996   0.826   7.172  0.4696  0.1998  0.0075
 8609SOL    HW137460   4.005   0.732   7.189 -1.6521  0.3359  1.9244
 8609SOL    HW237461   3.900   0.827   7.168  0.4581 -0.9743 -0.2906
 8610SOL     OW37462   2.982   1.879   8.960  0.2115  0.3097  0.1129
 8610SOL    HW137463   2.996   1.882   8.865  0.5437 -0.8656  0.1241
 8610SOL    HW237464   3.028   1.797   8.976  0.2567  0.1932 -0.6014
 8611SOL     OW37465   3.875   0.535  17.203  0.0944  0.1877 -0.0898
 8611SOL    HW137466   3.925   0.548  17.122 -0.5266  0.8711 -0.3590
 8611SOL    HW237467   3.859   0.625  17.230 -2.2018 -0.6320  1.2100
 8612SOL     OW37468   2.822   4.264   1.505 -0.5564  0.0098  0.1619
 8612SOL    HW137469   2.769   4.344   1.499  1.7544  1.6407  1.3897
 8612SOL    HW237470   2.822   4.239   1.412 -0.3722 -2.3331  0.8128
 8613SOL     OW37471   2.460   1.679  11.509 -1.0115 -0.4729 -0.4668
 8613SOL    HW137472   2.377   1.694  11.464 -0.3856  0.0091 -1.4414
 8613SOL    HW237473   2.446   1.719  11.595  1.2160  0.1420 -0.3872
 8614SOL     OW37474   0.082   0.439   1.502  0.0245  0.6303  0.5004
 8614SOL    HW137475   0.046   0.439   1.591 -2.0226  1.8352 -0.3365
 8614SOL    HW237476   0.171   0.471   1.522  0.5126 -1.0982  1.0725
 8615SOL     OW37477   2.938   1.135   2.937  0.2636  0.2323  0.0538
 8615SOL    HW137478   3.028   1.141   2.968  1.4978  2.6033 -4.0066
 8615SOL    HW237479   2.891   1.211   2.970 -0.1146  0.4172 -0.9239
 8616SOL     OW37480   3.436   0.323   3.659  0.1334  0.1236 -0.0205
 8616SOL    HW137481   3.424   0.418   3.659  2.2770  0.3901  0.3957
 8616SOL    HW237482   3.452   0.312   3.753 -1.8869  0.8076  0.4014
 8617SOL     OW37483   1.962   0.318   3.753  0.4139  0.1676  0.2488
 8617SOL    HW137484   1.874   0.350   3.774 -0.4432 -2.1383  0.1668
 8617SOL    HW237485   1.941   0.235   3.710 -0.1552  0.4280  0.0294
 8618SOL     OW37486   0.918   2.621  14.962  0.3072 -0.0124 -0.5444
 8618SOL    HW137487   0.889   2.572  15.039 -1.8389  1.1184 -0.6196
 8618SOL    HW237488   0.834   2.654  14.930  0.9291  0.7625 -1.3705
 8619SOL     OW37489   2.982   1.630   9.246  0.2046  0.3942  0.4465
 8619SOL    HW137490   2.933   1.549   9.230  0.6111  1.1051 -4.2437
 8619SOL    HW237491   3.038   1.621   9.169 -0.1524 -0.5848  0.2941
 8620SOL     OW37492   4.485   3.404   7.155 -1.4490 -0.1684 -0.1217
 8620SOL    HW137493   4.419   3.350   7.198 -0.3110 -0.1040  1.6950
 8620SOL    HW237494   4.499   3.364   7.069 -0.0555 -1.3219  0.6358
 8621SOL     OW37495   3.042   4.466   4.162 -0.0924 -0.1412 -0.4916
 8621SOL    HW137496   3.037   4.559   4.186 -3.0716  0.0336 -1.7481
 8621SOL    HW237497   3.136   4.452   4.175 -0.2441 -1.8927 -1.1925
 8622SOL     OW37498   4.172   1.290  16.332  1.0793 -0.1340 -0.1386
 8622SOL    HW137499   4.244   1.304  16.270  1.5361  0.2380  0.4898
 8622SOL    HW237500   4.140   1.204  16.303  1.7558 -0.1389 -0.8609
 8623SOL     OW37501   0.844   4.403   2.538 -0.2176  0.4061 -0.2005
 8623SOL    HW137502   0.875   4.434   2.623  0.8917  0.1680 -0.5160
 8623SOL    HW237503   0.893   4.321   2.533 -0.5441  0.3556 -2.2987
 8624SOL     OW37504   3.198   1.121   3.044 -0.0562  0.2720 -0.0697
 8624SOL    HW137505   3.168   1.206   3.077  0.3965  0.0829  0.8156
 8624SOL    HW237506   3.286   1.146   3.015 -0.5886  0.5614 -1.4358
 8625SOL     OW37507   3.422   1.094   3.534  0.1944  0.6334  0.3787
 8625SOL    HW137508   3.422   1.000   3.557 -1.8297  0.2791 -1.1179
 8625SOL    HW237509   3.335   1.112   3.568  0.4522  1.5703  0.5234
 8626SOL     OW37510   3.888   2.348   3.911 -0.5143 -0.5942 -0.0535
 8626SOL    HW137511   3.953   2.308   3.968 -0.5770 -0.9753 -0.2476
 8626SOL    HW237512   3.872   2.279   3.847 -2.9666  0.6312 -0.7725
 8627SOL     OW37513   4.715   4.700  10.591 -0.1366 -0.0229 -0.0475
 8627SOL    HW137514   4.699   4.701  10.686 -0.6776  1.9344 -0.1596
 8627SOL    HW237515   4.701   0.062  10.574 -3.4328 -0.5967 -0.3255
 8628SOL     OW37516   0.944   2.242   5.336  0.0314 -0.1712 -0.6502
 8628SOL    HW137517   0.850   2.229   5.328  0.1260 -1.7473  0.7548
 8628SOL    HW237518   0.940   2.302   5.411 -1.4511 -1.3783  0.2301
 8629SOL     OW37519   3.384   4.441   2.971  0.2753 -0.1740 -0.4700
 8629SOL    HW137520   3.444   4.436   2.896 -0.2174  4.0182 -1.1249
 8629SOL    HW237521   3.432   4.397   3.042  0.5390  0.0135 -0.5297
 8630SOL     OW37522   2.848   0.808   8.872 -0.2499 -0.1289  0.3781
 8630SOL    HW137523   2.840   0.897   8.904 -0.4243  0.4219 -1.2032
 8630SOL    HW237524   2.776   0.798   8.810 -0.2609  1.1839  0.1877
 8631SOL     OW37525   0.743   3.831   1.531 -0.0015 -0.1897  0.0198
 8631SOL    HW137526   0.704   3.744   1.526  1.8831 -0.9445 -1.6345
 8631SOL    HW237527   0.735   3.855   1.623 -0.0830  1.6916 -0.4808
 8632SOL     OW37528   3.937   0.461   4.666 -0.0885  0.0785 -0.6412
 8632SOL    HW137529   3.936   0.370   4.636  0.8122 -0.3304  0.5973
 8632SOL    HW237530   3.958   0.449   4.759 -0.5152 -0.3067 -0.5923
 8633SOL     OW37531   0.116   2.155  11.918 -0.1385  0.9352 -0.2027
 8633SOL    HW137532   0.149   2.209  11.846 -1.1496  0.1266 -1.2824
 8633SOL    HW237533   0.194   2.120  11.961 -2.3364 -2.4785  1.0099
 8634SOL     OW37534   1.892   0.753   1.927 -0.1161 -0.0706  0.1074
 8634SOL    HW137535   1.893   0.795   2.013  0.2136 -3.5224  1.8146
 8634SOL    HW237536   1.935   0.675   1.962 -0.9629 -0.3470  0.5087
 8635SOL     OW37537   4.022   0.773   3.694  0.2912  0.1342  0.2493
 8635SOL    HW137538   3.984   0.722   3.622 -1.9513 -1.3699  2.4787
 8635SOL    HW237539   3.946   0.764   3.752  0.2168  0.6487  0.2271
 8636SOL     OW37540   2.851   0.016  14.418  0.3787 -0.2937 -0.3322
 8636SOL    HW137541   2.791   0.084  14.446  0.8932 -0.0318  0.1314
 8636SOL    HW237542   2.811   4.706  14.342 -1.9599  0.9860  0.1941
 8637SOL     OW37543   0.413   4.295   3.736  0.2357  0.5206  0.3767
 8637SOL    HW137544   0.436   4.337   3.819 -1.3129 -0.8622  1.5111
 8637SOL    HW237545   0.497   4.281   3.694 -0.2129  0.4314 -0.5036
 8638SOL     OW37546   3.809   1.562   8.036  0.0719  0.2676 -0.1723
 8638SOL    HW137547   3.879   1.627   8.032 -0.1356  0.4886 -0.1864
 8638SOL    HW237548   3.764   1.592   7.957  1.0987  2.4703  0.0817
 8639SOL     OW37549   2.167   4.419   1.187  0.3167  0.2010 -0.0628
 8639SOL    HW137550   2.090   4.366   1.207  1.0548 -0.0734  2.0577
 8639SOL    HW237551   2.128   4.507   1.184 -0.6046 -0.2063 -0.1106
 8640SOL     OW37552   2.399   0.992   4.286 -0.5329 -0.9142  0.2476
 8640SOL    HW137553   2.388   1.068   4.228  0.0156 -1.0583 -0.0472
 8640SOL    HW237554   2.311   0.992   4.322 -1.0355  0.4868 -0.9434
 8641SOL     OW37555   1.740   3.860   3.055  0.1083 -0.3089  0.6534
 8641SOL    HW137556   1.712   3.921   3.123  0.8015  1.9149 -1.0621
 8641SOL    HW237557   1.741   3.785   3.115  1.5332 -0.0320  0.9795
 8642SOL     OW37558   0.094   3.297   1.501 -0.2808  0.4215  0.2339
 8642SOL    HW137559   0.077   3.391   1.503 -0.6541  0.2887  2.4161
 8642SOL    HW237560   0.036   3.257   1.437 -0.1093 -0.5886  0.7108
 8643SOL     OW37561   1.239   3.139   9.781  0.0635 -0.5768  0.0940
 8643SOL    HW137562   1.166   3.150   9.721  0.0548  2.2537  0.5941
 8643SOL    HW237563   1.262   3.048   9.763 -1.4128 -0.9692  0.1966
 8644SOL     OW37564   3.505   3.562   2.129 -0.0544 -0.1816 -0.4398
 8644SOL    HW137565   3.521   3.648   2.090  0.0983  1.2565  2.7862
 8644SOL    HW237566   3.555   3.573   2.210  0.4767 -1.3905 -0.6070
 8645SOL     OW37567   4.712   1.027   7.433  0.0589 -0.0465  0.4756
 8645SOL    HW137568   4.652   1.039   7.506 -1.9220 -0.2173 -1.1354
 8645SOL    HW237569   0.061   1.012   7.483 -0.7645  0.1845  1.8869
 8646SOL     OW37570   4.450   4.131   3.644 -0.4374 -0.4101  0.0333
 8646SOL    HW137571   4.515   4.169   3.702 -1.5091  2.1279 -0.4230
 8646SOL    HW237572   4.371   4.171   3.680  1.3859  0.5708  2.8783
 8647SOL     OW37573   4.512   2.367   8.909  0.0246  0.4966 -0.2461
 8647SOL    HW137574   4.468   2.409   8.983  0.2815 -0.8336  0.6362
 8647SOL    HW237575   4.442   2.363   8.844  2.7899 -2.2592 -3.0554
 8648SOL     OW37576   3.790   1.327   6.944 -0.6049 -0.2239  0.2334
 8648SOL    HW137577   3.743   1.280   6.874  0.0575  0.1266 -0.4485
 8648SOL    HW237578   3.826   1.246   6.981 -0.8448 -1.6762 -2.7059
 8649SOL     OW37579   1.927   4.047   4.120  0.7211  0.3657 -0.2400
 8649SOL    HW137580   2.011   4.044   4.167 -0.1033 -2.0667  1.1004
 8649SOL    HW237581   1.872   4.061   4.198 -1.0887 -1.4888 -1.1785
 8650SOL     OW37582   3.325   4.073   4.039 -0.7904 -0.1203  0.0196
 8650SOL    HW137583   3.357   4.129   4.109  2.3012 -1.2444 -0.4564
 8650SOL    HW237584   3.261   4.128   3.994 -0.2793  1.2217  0.9720
 8651SOL     OW37585   2.183   2.443   2.114 -0.1113 -0.0922 -0.6999
 8651SOL    HW137586   2.206   2.368   2.170 -0.5029  0.5689  0.3506
 8651SOL    HW237587   2.087   2.444   2.121  0.1695  1.6758  2.8961
 8652SOL     OW37588   3.288   0.608   6.118 -0.0116 -0.2009 -0.8901
 8652SOL    HW137589   3.231   0.629   6.044 -0.1019 -2.1378 -1.3735
 8652SOL    HW237590   3.379   0.623   6.091  0.4439 -2.1602 -0.4530
 8653SOL     OW37591   4.128   4.695   4.234 -0.2075 -0.0139 -0.4285
 8653SOL    HW137592   4.172   0.048   4.218  0.8117 -0.2585  1.1081
 8653SOL    HW237593   4.185   4.641   4.180  1.2416  0.9074  0.1501
 8654SOL     OW37594   0.871   4.289   7.190  0.4525  0.8058  0.3302
 8654SOL    HW137595   0.931   4.294   7.265  1.5239  1.6036 -0.5775
 8654SOL    HW237596   0.914   4.344   7.123  0.4043 -0.7213 -0.9406
 8655SOL     OW37597   2.817   3.890  14.596  0.0976  0.1794  0.2371
 8655SOL    HW137598   2.865   3.850  14.523 -2.2164 -0.9010 -0.6729
 8655SOL    HW237599   2.871   3.851  14.665 -0.6192 -0.5158  0.4065
 8656SOL     OW37600   2.782   4.583   3.989 -0.9204 -0.0512 -0.2697
 8656SOL    HW137601   2.842   4.658   3.992 -0.2773 -0.6467  2.2111
 8656SOL    HW237602   2.830   4.520   4.042 -0.2547 -0.6935 -1.6540
 8657SOL     OW37603   0.179   0.944   8.352 -0.3191  0.2275 -0.0607
 8657SOL    HW137604   0.113   1.004   8.388  1.7542  2.8498 -0.6687
 8657SOL    HW237605   0.152   0.932   8.261  0.6871  1.0945 -0.4691
 8658SOL     OW37606   0.042   0.411   8.055 -0.0560 -0.4069 -0.2309
 8658SOL    HW137607   0.013   0.491   8.013 -2.2736 -1.8917 -1.5173
 8658SOL    HW237608   0.133   0.424   8.082 -0.4986  1.2632  0.4091
 8659SOL     OW37609   4.413   3.884   2.391  0.0508 -0.2528  0.0842
 8659SOL    HW137610   4.495   3.866   2.436  1.9513  2.3561 -2.3374
 8659SOL    HW237611   4.359   3.941   2.446 -0.4503  0.1145 -0.7911
 8660SOL     OW37612   3.677   1.708   7.210 -0.4533  0.0369 -0.0410
 8660SOL    HW137613   3.745   1.774   7.196  0.1450 -0.9625 -1.8118
 8660SOL    HW237614   3.723   1.628   7.185 -0.6225 -0.1209  0.1558
 8661SOL     OW37615   4.218   3.411   0.778 -0.0571  0.5693 -0.3178
 8661SOL    HW137616   4.254   3.499   0.783 -2.0673  1.3298  0.7868
 8661SOL    HW237617   4.270   3.372   0.707  1.3138 -0.5946  1.3115
 8662SOL     OW37618   4.170   3.897   4.003 -0.3564  0.3124  0.7580
 8662SOL    HW137619   4.077   3.896   3.982  0.1412 -0.5599 -1.4733
 8662SOL    HW237620   4.184   3.987   4.032  0.9662  0.1267  0.7208
 8663SOL     OW37621   1.160   0.703   8.912  0.1816 -0.0745  0.0555
 8663SOL    HW137622   1.150   0.724   8.820  0.0456 -3.0729 -0.6124
 8663SOL    HW237623   1.255   0.692   8.920  0.6730  2.5959 -2.0821
 8664SOL     OW37624   3.116   0.296   3.801 -0.1077 -0.0612 -0.2618
 8664SOL    HW137625   3.201   0.254   3.816 -0.1241  0.3642  1.1163
 8664SOL    HW237626   3.139   0.377   3.848  0.6627 -0.0472 -0.6553
 8665SOL     OW37627   2.604   1.996   1.790 -0.1759 -0.0084  0.3895
 8665SOL    HW137628   2.669   1.990   1.861  0.7298 -1.8860 -0.5893
 8665SOL    HW237629   2.550   2.065   1.828  1.2747  1.2898  0.1400
 8666SOL     OW37630   0.467   4.179   6.769 -0.5559 -0.0885  0.0053
 8666SOL    HW137631   0.466   4.131   6.685  0.8836  1.8905 -1.1363
 8666SOL    HW237632   0.426   4.258   6.735 -1.4588 -0.9767 -0.9957
 8667SOL     OW37633   3.401   2.975   2.485  0.1277  0.4288 -0.1966
 8667SOL    HW137634   3.333   3.018   2.433 -1.9415 -1.4505  0.9690
 8667SOL    HW237635   3.342   2.908   2.518  1.5404 -1.0764 -0.7395
 8668SOL     OW37636   1.333   3.511   8.370 -0.3424  0.2810 -0.1693
 8668SOL    HW137637   1.421   3.548   8.378 -0.5403  0.7543 -0.1347
 8668SOL    HW237638   1.282   3.565   8.431 -1.4401 -1.4268  0.4248
 8669SOL     OW37639   0.871   1.235  11.601 -0.1178  0.1813 -0.1912
 8669SOL    HW137640   0.965   1.233  11.616 -0.0893 -0.3923 -0.4229
 8669SOL    HW237641   0.878   1.256  11.507  2.2463 -0.8975 -0.2696
 8670SOL     OW37642   2.210   1.616   7.564 -0.4549 -0.6004  0.2483
 8670SOL    HW137643   2.174   1.560   7.632  2.0786 -3.9313 -1.1675
 8670SOL    HW237644   2.152   1.597   7.490 -0.9740  1.6902  0.0579
 8671SOL     OW37645   2.385   3.839   9.565 -0.0495 -0.1757  0.1828
 8671SOL    HW137646   2.367   3.926   9.600 -0.4186 -0.3828  0.5050
 8671SOL    HW237647   2.411   3.863   9.476  2.3229 -1.2655  0.5815
 8672SOL     OW37648   0.396   0.993   7.424 -0.0490  0.4637  0.0412
 8672SOL    HW137649   0.487   1.021   7.436 -0.5611  1.3828  1.7802
 8672SOL    HW237650   0.392   1.029   7.336  0.2203  3.7679  1.3704
 8673SOL     OW37651   0.452   3.213   2.155  0.1336 -0.0529  0.0993
 8673SOL    HW137652   0.369   3.253   2.128  0.9095  0.0872 -2.1038
 8673SOL    HW237653   0.432   3.120   2.140  3.0167 -0.7978  0.8433
 8674SOL     OW37654   2.897   3.457   2.497  0.6709  0.2521 -0.4537
 8674SOL    HW137655   2.923   3.526   2.559  0.0804 -2.4282  2.8138
 8674SOL    HW237656   2.965   3.394   2.520 -0.0199 -0.5316 -0.5927
 8675SOL     OW37657   3.001   1.336  11.239  0.4709 -0.3675 -0.1320
 8675SOL    HW137658   2.931   1.290  11.286 -0.2623 -0.0591 -0.9180
 8675SOL    HW237659   2.994   1.425  11.272 -3.1769 -0.4880 -0.5955
 8676SOL     OW37660   1.931   3.526   7.020 -0.3557 -0.4540 -0.5334
 8676SOL    HW137661   1.957   3.457   6.958 -0.6695 -3.0225  2.2097
 8676SOL    HW237662   1.859   3.477   7.060  1.1693 -1.5288  0.9177
 8677SOL     OW37663   3.238   0.127   2.848  0.3968 -0.3092 -0.7587
 8677SOL    HW137664   3.247   0.082   2.932  3.3059 -0.0313 -0.9217
 8677SOL    HW237665   3.331   0.116   2.827  0.2596 -0.7011 -1.1497
 8678SOL     OW37666   2.504   3.014   5.675 -0.2172 -0.5531 -0.1660
 8678SOL    HW137667   2.450   3.069   5.619 -2.3418 -2.1730  0.3140
 8678SOL    HW237668   2.585   3.066   5.676 -1.7810  1.8815  0.3553
 8679SOL     OW37669   0.277   0.398  17.670  0.3798 -0.3425  0.9537
 8679SOL    HW137670   0.230   0.330  17.718 -0.1344 -0.3926  0.3718
 8679SOL    HW237671   0.231   0.473  17.707  0.0388  0.6654 -1.5476
 8680SOL     OW37672   2.274   2.516   1.849  0.0006  0.4985 -0.2771
 8680SOL    HW137673   2.296   2.434   1.805  2.4637  0.0425  1.8286
 8680SOL    HW237674   2.227   2.486   1.927 -0.3113  0.5991 -0.4262
 8681SOL     OW37675   1.189   1.229   2.732  0.0709 -0.8868 -0.0659
 8681SOL    HW137676   1.263   1.208   2.790 -0.7800  0.1222  1.3684
 8681SOL    HW237677   1.239   1.251   2.654  1.9329 -0.7636  1.1552
 8682SOL     OW37678   0.011   0.212   6.326  0.5192  0.2348 -0.2084
 8682SOL    HW137679   0.055   0.206   6.411  1.2749  0.5426 -0.5757
 8682SOL    HW237680   4.654   0.177   6.336  0.2693  1.4296  1.6876
 8683SOL     OW37681   1.934   1.525  11.774 -0.1297 -0.3052  0.3037
 8683SOL    HW137682   1.850   1.551  11.736 -0.9468  0.7391  2.8031
 8683SOL    HW237683   1.922   1.553  11.864 -0.5074 -0.3526  0.2691
 8684SOL     OW37684   0.173   3.230   1.760  0.3851 -0.1060 -0.2500
 8684SOL    HW137685   0.106   3.273   1.707  0.9774 -0.7061 -1.4723
 8684SOL    HW237686   0.256   3.266   1.729 -0.9025  1.8658 -1.4177
 8685SOL     OW37687   1.499   1.115  16.626 -0.4000  0.0212  0.5325
 8685SOL    HW137688   1.554   1.140  16.700 -1.9307 -1.7494  2.2496
 8685SOL    HW237689   1.425   1.172  16.644 -1.6219 -1.4211  0.0886
 8686SOL     OW37690   3.766   0.402   9.634  0.5202 -0.0719  0.3078
 8686SOL    HW137691   3.685   0.450   9.652  0.2416 -1.2231  2.1161
 8686SOL    HW237692   3.800   0.448   9.557 -0.4305  0.2456  0.0758
 8687SOL     OW37693   0.355   1.360  16.720 -0.0978 -0.1445 -0.4974
 8687SOL    HW137694   0.281   1.421  16.726  0.0520 -0.0412  0.2543
 8687SOL    HW237695   0.422   1.428  16.720 -0.2746  0.0354  0.3657
 8688SOL     OW37696   1.158   2.447   9.312  0.5017 -0.5037 -0.4881
 8688SOL    HW137697   1.208   2.463   9.392  0.6630 -3.6943  0.0216
 8688SOL    HW237698   1.202   2.376   9.264  1.0064 -0.1173 -0.5985
 8689SOL     OW37699   1.505   3.107   0.967 -0.7594 -0.5713  0.0919
 8689SOL    HW137700   1.479   3.015   0.963  0.0394 -0.8425  1.2996
 8689SOL    HW237701   1.467   3.141   1.048 -3.2734  1.2640 -1.8637
 8690SOL     OW37702   4.366   2.972   6.782 -0.7162  0.5216 -0.6007
 8690SOL    HW137703   4.336   3.026   6.854 -0.0289  0.0660  0.0276
 8690SOL    HW237704   4.307   2.900   6.805 -0.5435  0.2700 -0.9224
 8691SOL     OW37705   0.665   2.917  14.486 -0.2137  0.1939 -0.6944
 8691SOL    HW137706   0.683   2.900  14.393  0.7273 -1.1607 -0.2632
 8691SOL    HW237707   0.617   3.000  14.487 -0.0897  0.2130  2.1232
 8692SOL     OW37708   4.690   4.081   6.144  0.0045  0.1972  0.7513
 8692SOL    HW137709   4.675   4.174   6.165 -0.8040 -0.3270  2.4791
 8692SOL    HW237710   4.619   4.066   6.081 -0.0747  0.6094  0.7420
 8693SOL     OW37711   0.232   3.576   2.525 -0.6145  0.3389  0.3677
 8693SOL    HW137712   0.214   3.555   2.617 -1.1487 -0.3840  0.0981
 8693SOL    HW237713   0.149   3.611   2.493  0.0959  0.4100 -1.3800
 8694SOL     OW37714   1.769   1.746   3.838  0.1946  0.2708 -0.2014
 8694SOL    HW137715   1.698   1.720   3.779  0.1883 -0.6957  0.2323
 8694SOL    HW237716   1.772   1.666   3.890 -1.9727  0.9126  0.8919
 8695SOL     OW37717   1.571   4.136   2.714  0.3301  0.0047 -0.0357
 8695SOL    HW137718   1.654   4.097   2.741  0.6554  1.0228  0.4247
 8695SOL    HW237719   1.546   4.175   2.798  2.3890  3.5484 -1.1032
 8696SOL     OW37720   3.506   1.926   0.326  0.0864 -0.1330 -0.4520
 8696SOL    HW137721   3.529   1.945   0.417 -0.3431 -1.6399 -0.0265
 8696SOL    HW237722   3.442   1.854   0.327 -0.7864  0.6811  1.4675
 8697SOL     OW37723   4.063   0.828  12.480 -0.5006  0.0751 -0.5667
 8697SOL    HW137724   4.081   0.869  12.395 -0.2463  0.5987 -0.2637
 8697SOL    HW237725   4.147   0.785  12.496 -0.3460  0.4838 -0.2814
 8698SOL     OW37726   0.906   2.276  16.978  0.0289  0.4215 -0.2296
 8698SOL    HW137727   0.930   2.271  16.886  1.5334 -0.6712  0.2160
 8698SOL    HW237728   0.986   2.315  17.012  0.5168  0.7441 -1.7491
 8699SOL     OW37729   4.557   2.502   7.600  0.7532  0.3365  0.0065
 8699SOL    HW137730   4.621   2.541   7.539 -1.1790  0.9419 -1.6224
 8699SOL    HW237731   4.617   2.465   7.665  0.2050 -0.9338 -0.2159
 8700SOL     OW37732   0.495   0.904   8.625 -0.1177 -0.3709  0.3350
 8700SOL    HW137733   0.405   0.878   8.604  0.1912  1.0613 -2.7239
 8700SOL    HW237734   0.534   0.829   8.669 -1.1759 -2.2727 -1.9648
 8701SOL     OW37735   4.236   3.548   2.178  0.0464  0.1906  0.0452
 8701SOL    HW137736   4.142   3.546   2.156  0.5196  1.6712 -2.1758
 8701SOL    HW237737   4.255   3.639   2.153 -0.8693  0.7357  1.3531
 8702SOL     OW37738   3.890   2.705   2.808 -0.3990 -0.6484 -0.0099
 8702SOL    HW137739   3.918   2.749   2.888 -3.2483  1.1012  0.0257
 8702SOL    HW237740   3.796   2.724   2.809 -0.6789 -2.0694  1.0645
 8703SOL     OW37741   4.628   1.834  11.572  0.5734 -0.4901 -0.0970
 8703SOL    HW137742   4.638   1.911  11.629 -0.8982  1.5126 -2.5037
 8703SOL    HW237743   4.570   1.873  11.506  0.1802  0.0007  0.5291
 8704SOL     OW37744   3.905   0.602   5.849 -0.4935  0.7968  0.1562
 8704SOL    HW137745   3.973   0.666   5.826 -1.4149  2.2820  1.5460
 8704SOL    HW237746   3.957   0.529   5.881 -0.8972  0.4804  0.0856
 8705SOL     OW37747   0.603   0.623   1.462  0.7976 -0.1727  0.1980
 8705SOL    HW137748   0.691   0.640   1.493  0.8813 -2.5879  1.2603
 8705SOL    HW237749   0.604   0.527   1.459 -0.7866 -0.3045  4.3205
 8706SOL     OW37750   1.083   4.521  16.418 -0.0729 -0.2739 -0.2650
 8706SOL    HW137751   1.034   4.580  16.360 -1.5268 -0.9715  0.2504
 8706SOL    HW237752   1.157   4.493  16.363 -0.6067 -1.0150 -0.6133
 8707SOL     OW37753   2.074   0.161   4.405 -0.2399 -0.4900  0.6226
 8707SOL    HW137754   2.061   0.163   4.500 -1.2000 -0.0671  0.4871
 8707SOL    HW237755   2.149   0.101   4.398 -0.2449 -0.5749  1.2538
 8708SOL     OW37756   3.078   0.221  13.000 -0.3634 -0.3423 -0.3515
 8708SOL    HW137757   2.997   0.272  13.004 -0.0008  0.2306 -0.2807
 8708SOL    HW237758   3.053   0.145  12.948 -2.2020  0.4746 -0.6467
 8709SOL     OW37759   1.945   4.503   8.033 -0.0412  0.2845 -1.0185
 8709SOL    HW137760   1.919   4.422   7.989 -0.6182 -1.4801  2.6212
 8709SOL    HW237761   1.901   4.499   8.118 -2.5070  1.3998 -2.2532
 8710SOL     OW37762   1.197   2.496   7.078 -0.1712  0.0595  0.1606
 8710SOL    HW137763   1.204   2.591   7.090 -1.5414  0.1917 -0.0120
 8710SOL    HW237764   1.102   2.497   7.062  0.0077  1.0125 -0.7920
 8711SOL     OW37765   1.434   3.522  11.233 -0.2846 -0.2721  0.4200
 8711SOL    HW137766   1.486   3.487  11.161 -2.0849 -1.8673 -0.0780
 8711SOL    HW237767   1.511   3.559  11.278 -0.5559  1.4639 -0.5399
 8712SOL     OW37768   3.043   1.777   2.706 -0.2036 -0.3632 -0.2268
 8712SOL    HW137769   3.093   1.849   2.666  0.1261 -0.1653  0.5348
 8712SOL    HW237770   3.115   1.713   2.702  1.3217  1.3335 -0.1581
 8713SOL     OW37771   3.251   4.145  13.288 -0.0283 -0.0894  0.4410
 8713SOL    HW137772   3.209   4.221  13.247 -2.6364 -1.9286 -0.2962
 8713SOL    HW237773   3.192   4.127  13.361  0.5722 -2.3471  0.3649
 8714SOL     OW37774   3.157   3.340   3.629 -0.2646  0.4043  0.5881
 8714SOL    HW137775   3.085   3.358   3.569  0.0366  1.2630  0.4948
 8714SOL    HW237776   3.139   3.249   3.654 -1.1749  0.6798  0.9378
 8715SOL     OW37777   4.608   1.116   7.151 -0.1423 -0.1999 -0.2577
 8715SOL    HW137778   4.643   1.081   7.233 -0.8874 -2.5100 -0.9254
 8715SOL    HW237779   4.691   1.125   7.104  0.2928  1.1225  0.7755
 8716SOL     OW37780   3.539   2.895   8.794 -0.4549  0.3961 -0.0394
 8716SOL    HW137781   3.577   2.963   8.738  1.2986 -0.6683 -0.1249
 8716SOL    HW237782   3.478   2.854   8.733  0.0047  0.4941 -0.5615
 8717SOL     OW37783   1.411   0.501   2.675  0.5440 -0.1787 -0.2312
 8717SOL    HW137784   1.416   0.464   2.764  0.2999  2.4563  0.8820
 8717SOL    HW237785   1.329   0.551   2.676  0.4354 -0.3911  1.4489
 8718SOL     OW37786   3.367   3.198   4.923 -0.6642 -0.0399  0.0194
 8718SOL    HW137787   3.360   3.121   4.979 -0.2918 -2.4853 -3.2888
 8718SOL    HW237788   3.457   3.230   4.923 -0.9923  0.8759  1.2266
 8719SOL     OW37789   1.633   3.325  15.781  0.7622  0.2158 -0.0940
 8719SOL    HW137790   1.595   3.412  15.789 -0.5257 -0.3277 -0.3846
 8719SOL    HW237791   1.632   3.318  15.685 -0.8874  2.6864 -0.2472
 8720SOL     OW37792   1.696   3.057   3.794 -0.2961 -0.1381  1.0657
 8720SOL    HW137793   1.610   3.048   3.753 -0.2965  1.0879  0.8175
 8720SOL    HW237794   1.746   3.086   3.718 -2.3014  0.2786 -0.0865
 8721SOL     OW37795   0.752   2.548   8.149 -0.0434 -0.2035  0.4670
 8721SOL    HW137796   0.795   2.632   8.134  0.5614 -0.7768 -1.0720
 8721SOL    HW237797   0.750   2.512   8.060  1.9234 -1.9246  1.0928
 8722SOL     OW37798   3.088   3.188  16.743 -0.9339  0.4534 -0.1728
 8722SOL    HW137799   3.163   3.211  16.688  1.2801  1.1900  3.1145
 8722SOL    HW237800   3.111   3.229  16.827  0.1738  1.3581 -0.9106
 8723SOL     OW37801   4.203   0.316   7.617  0.3542  0.3559  0.2721
 8723SOL    HW137802   4.145   0.264   7.561 -2.3388  2.9775  0.6267
 8723SOL    HW237803   4.268   0.259   7.657  0.4010  1.8817  2.3919
 8724SOL     OW37804   0.032   2.775  17.231 -0.0982 -0.3512 -0.0346
 8724SOL    HW137805   4.685   2.778  17.175 -0.9124 -0.8444  1.0895
 8724SOL    HW237806   0.016   2.706  17.295  2.0437 -0.4987  0.3609
 8725SOL     OW37807   2.707   3.126   7.935  0.7588 -0.6383 -0.0132
 8725SOL    HW137808   2.694   3.080   8.018  0.7426 -0.0794  0.2973
 8725SOL    HW237809   2.632   3.185   7.944  0.1570 -0.7840 -4.0938
 8726SOL     OW37810   1.638   0.203   6.827 -0.0339  0.2352  0.1103
 8726SOL    HW137811   1.622   0.201   6.921  1.0068 -0.2310  0.2781
 8726SOL    HW237812   1.705   0.271   6.837  1.3926 -1.1737  0.0386
 8727SOL     OW37813   3.766   1.555   3.715 -0.2937 -0.7195 -0.4391
 8727SOL    HW137814   3.790   1.463   3.701  0.4028 -0.9323  2.1490
 8727SOL    HW237815   3.736   1.546   3.805  0.0056  1.1526 -0.1490
 8728SOL     OW37816   1.810   0.666  11.919 -0.3109 -0.1974 -0.2165
 8728SOL    HW137817   1.790   0.715  11.839 -0.5520 -1.6345 -1.0436
 8728SOL    HW237818   1.753   0.593  11.896 -1.5786  0.5468  0.5399
 8729SOL     OW37819   0.446   0.342   1.024 -0.0168  0.6737  0.8514
 8729SOL    HW137820   0.375   0.297   0.977  1.4606  0.0971 -0.8241
 8729SOL    HW237821   0.389   0.410   1.060 -0.9671  0.2602  0.1584
 8730SOL     OW37822   1.098   3.674  10.446 -0.3254  0.0806  0.0603
 8730SOL    HW137823   1.065   3.762  10.465 -0.5826 -0.4900  2.2101
 8730SOL    HW237824   1.017   3.628  10.426  0.3579 -1.1440  0.0899
 8731SOL     OW37825   4.279   0.089   2.421  0.1484  1.1105  0.1704
 8731SOL    HW137826   4.291   0.053   2.509  1.0441  1.4318  0.1795
 8731SOL    HW237827   4.355   0.048   2.379 -2.0922  0.0793 -2.8907
 8732SOL     OW37828   4.416   1.930   9.947 -0.1020 -0.6602  0.0263
 8732SOL    HW137829   4.381   1.849   9.911 -0.7628 -0.9647  1.3676
 8732SOL    HW237830   4.500   1.932   9.901  1.1027 -1.0745  2.2155
 8733SOL     OW37831   1.104   1.697  14.021 -0.8594 -0.4061 -0.3651
 8733SOL    HW137832   1.154   1.709  13.941  0.0159 -1.0633  0.0874
 8733SOL    HW237833   1.020   1.669  13.985  0.6054 -1.7393 -2.6865
 8734SOL     OW37834   2.546   2.960   3.354 -0.1849  0.1918  0.5054
 8734SOL    HW137835   2.565   2.896   3.286  1.5971  1.3724 -0.1039
 8734SOL    HW237836   2.635   2.971   3.388 -0.0267 -0.9448  0.4541
 8735SOL     OW37837   2.895   4.319   7.290  0.4425  0.1519 -0.2173
 8735SOL    HW137838   2.895   4.405   7.333 -3.6356  0.5088 -0.9595
 8735SOL    HW237839   2.988   4.302   7.303  0.5871  1.0238 -0.0739
 8736SOL     OW37840   1.916   2.076   2.634  0.2570 -0.3313 -0.0316
 8736SOL    HW137841   1.974   2.039   2.700 -0.0173 -1.2558 -0.3101
 8736SOL    HW237842   1.832   2.035   2.652  0.0120  0.6606  1.0678
 8737SOL     OW37843   0.382   1.050  10.021  0.1412  0.1127 -0.0229
 8737SOL    HW137844   0.291   1.067   9.996 -0.2417  1.7863  2.5799
 8737SOL    HW237845   0.389   1.092  10.107 -0.5586 -0.2061  0.1942
 8738SOL     OW37846   0.664   3.511  14.133 -0.1281 -0.3244  1.2887
 8738SOL    HW137847   0.701   3.517  14.221  0.0088 -0.4845  1.2443
 8738SOL    HW237848   0.616   3.593  14.125 -0.2458 -0.4491  0.7097
 8739SOL     OW37849   4.021   0.020   5.959 -0.5937 -0.2900 -0.6686
 8739SOL    HW137850   4.104   4.704   5.955  0.4845  1.5721 -0.2333
 8739SOL    HW237851   3.985   4.714   6.040 -1.9906  0.4317 -0.9525
 8740SOL     OW37852   3.715   2.628  16.798  0.5811 -0.2983  0.1546
 8740SOL    HW137853   3.730   2.689  16.871  0.3439  0.3695 -0.3574
 8740SOL    HW237854   3.629   2.601  16.829  0.6200  1.3057  1.6568
 8741SOL     OW37855   1.966   4.605   5.335 -0.3241  0.2388  0.4010
 8741SOL    HW137856   2.001   4.691   5.360 -0.5952  0.9829 -1.8028
 8741SOL    HW237857   2.024   4.551   5.387 -0.2155  0.9804  1.0579
 8742SOL     OW37858   3.455   1.181  14.097  0.2305 -0.9471  0.2221
 8742SOL    HW137859   3.515   1.169  14.171  2.3366 -1.3417 -1.5353
 8742SOL    HW237860   3.386   1.119  14.120 -1.1624 -0.2420 -2.1047
 8743SOL     OW37861   2.186   2.264  16.084 -0.8036  0.3158 -0.0854
 8743SOL    HW137862   2.187   2.289  15.992  3.3233 -0.2727 -0.2320
 8743SOL    HW237863   2.117   2.319  16.120 -0.1516  0.6482  0.6603
 8744SOL     OW37864   4.246   4.136   2.431 -0.1835  0.1214 -0.0483
 8744SOL    HW137865   4.295   4.217   2.443 -1.9934  1.4649 -1.8511
 8744SOL    HW237866   4.161   4.176   2.445 -0.0360 -0.1795  1.7037
 8745SOL     OW37867   3.334   3.977   5.438  0.2094  0.8531 -0.2402
 8745SOL    HW137868   3.384   4.055   5.413  1.3271  0.1531 -0.1683
 8745SOL    HW237869   3.252   4.012   5.474 -0.8683 -0.9946 -0.8588
 8746SOL     OW37870   0.686   3.824   1.070  0.2988  0.1229  0.2884
 8746SOL    HW137871   0.668   3.795   1.160  0.0229 -2.3862 -0.5608
 8746SOL    HW237872   0.608   3.874   1.046  1.2377  0.6629 -1.6234
 8747SOL     OW37873   4.729   2.759   4.925 -0.1462 -0.5349  0.2374
 8747SOL    HW137874   0.028   2.808   5.001 -0.2187  1.2737 -0.8855
 8747SOL    HW237875   4.655   2.718   4.969 -0.6411  0.5381  0.4118
 8748SOL     OW37876   0.439   0.213   1.569 -0.0026  0.5303  0.5619
 8748SOL    HW137877   0.347   0.190   1.551  0.8578 -1.5434 -1.2833
 8748SOL    HW237878   0.461   0.143   1.631 -1.4316 -0.5599 -0.1324
 8749SOL     OW37879   2.837   0.976   9.522  0.0307  0.3918  0.2803
 8749SOL    HW137880   2.788   1.042   9.473  0.1276  1.4069  1.5470
 8749SOL    HW237881   2.780   0.900   9.520  1.4739 -0.7041  0.4591
 8750SOL     OW37882   1.022   0.649   9.248  0.0689 -0.5869 -0.3068
 8750SOL    HW137883   1.006   0.672   9.157  2.6905 -0.6448 -0.7847
 8750SOL    HW237884   1.110   0.611   9.246  1.1893  2.0277  0.2516
 8751SOL     OW37885   0.596   4.006   5.868 -0.2044  0.4659 -0.2348
 8751SOL    HW137886   0.684   4.010   5.829 -0.7800  1.9526 -1.3819
 8751SOL    HW237887   0.610   3.959   5.950 -1.6689  1.3182  0.4918
 8752SOL     OW37888   2.679   3.957  17.242  0.4515  0.4456 -0.0110
 8752SOL    HW137889   2.746   4.023  17.261  1.3905 -0.4668 -0.1358
 8752SOL    HW237890   2.691   3.935  17.149 -2.1480 -0.3358 -0.1426
 8753SOL     OW37891   2.882   2.438  10.589  0.1358  0.0520  0.5516
 8753SOL    HW137892   2.927   2.509  10.636  0.1793 -0.9700  2.0450
 8753SOL    HW237893   2.883   2.480  10.503 -0.3005 -0.8854  0.0855
 8754SOL     OW37894   1.458   2.786   8.212  0.4423 -0.1323 -0.1830
 8754SOL    HW137895   1.450   2.779   8.307 -0.7732  1.6452 -0.1491
 8754SOL    HW237896   1.378   2.837   8.195  0.3455 -0.4649 -0.7334
 8755SOL     OW37897   0.395   3.716   3.749  0.4886 -0.0985 -0.8032
 8755SOL    HW137898   0.397   3.758   3.835 -0.0986  0.4076 -1.0416
 8755SOL    HW237899   0.486   3.733   3.724  0.5753 -0.2499 -0.5882
 8756SOL     OW37900   3.241   1.348   2.829  0.6893 -0.1296 -0.2662
 8756SOL    HW137901   3.325   1.306   2.843 -0.5118 -2.4428 -0.0367
 8756SOL    HW237902   3.207   1.366   2.916  1.0136  1.3624 -0.4503
 8757SOL     OW37903   0.747   4.695   7.746  0.1073  0.1354 -0.0866
 8757SOL    HW137904   0.788   4.679   7.830  2.0495  1.4708 -0.7774
 8757SOL    HW237905   0.692   0.041   7.763 -0.7468 -0.4724 -0.1024
 8758SOL     OW37906   3.762   2.379   3.104  0.5493 -0.1098 -0.5244
 8758SOL    HW137907   3.802   2.465   3.089 -2.4926  1.6882  1.5979
 8758SOL    HW237908   3.801   2.318   3.041  0.1170 -2.7701  1.7846
 8759SOL     OW37909   1.855   1.014  11.673 -1.0757 -0.1734  0.2729
 8759SOL    HW137910   1.846   1.101  11.632  0.8956  0.0610  0.2944
 8759SOL    HW237911   1.948   1.029  11.693 -1.1222  1.5426 -0.7438
 8760SOL     OW37912   2.745   3.574  10.330  0.1555  0.4833  0.2172
 8760SOL    HW137913   2.690   3.547  10.404 -2.3331  0.5987 -1.5965
 8760SOL    HW237914   2.786   3.492  10.304  0.6885  0.1969  1.9503
 8761SOL     OW37915   4.710   2.356   0.758 -0.0548 -0.2483  0.2233
 8761SOL    HW137916   4.637   2.328   0.703  0.0752  1.6111 -0.9021
 8761SOL    HW237917   0.021   2.410   0.690 -0.3198 -1.5272 -0.9575
 8762SOL     OW37918   1.138   1.160  13.482 -0.6446 -0.7228 -0.0433
 8762SOL    HW137919   1.184   1.078  13.460 -0.0030 -0.6193  0.8839
 8762SOL    HW237920   1.185   1.226  13.431 -1.0282  0.1627  0.7647
 8763SOL     OW37921   0.906   3.066   6.617 -0.0809 -0.0835 -0.5743
 8763SOL    HW137922   0.849   3.117   6.559 -1.8593 -1.1708  0.2108
 8763SOL    HW237923   0.853   3.058   6.696  0.2648 -0.2901 -0.3653
 8764SOL     OW37924   1.466   2.927  10.280  0.2625  0.0962  0.8910
 8764SOL    HW137925   1.551   2.942  10.321  0.2080  2.0240  0.2691
 8764SOL    HW237926   1.457   2.833  10.298  1.1082  0.2565  2.1860
 8765SOL     OW37927   2.108   3.011   4.410 -0.6739  0.3115 -0.2613
 8765SOL    HW137928   2.191   2.978   4.445 -1.4965 -0.7640  0.6750
 8765SOL    HW237929   2.052   2.956   4.464 -0.6880  1.8375  1.2822
 8766SOL     OW37930   0.629   0.289   2.605  0.2055  0.1096  0.2549
 8766SOL    HW137931   0.597   0.199   2.595  0.8490 -0.0885  0.0151
 8766SOL    HW237932   0.673   0.302   2.521  0.3157 -0.4522  0.2299
 8767SOL     OW37933   0.454   1.430   7.860 -0.2698 -0.6252 -0.2176
 8767SOL    HW137934   0.518   1.502   7.860 -0.0860 -0.7898  1.8993
 8767SOL    HW237935   0.408   1.462   7.938 -0.0737 -1.2641  0.1558
 8768SOL     OW37936   0.949   0.606  10.774  0.0585  0.4075  0.1171
 8768SOL    HW137937   0.996   0.656  10.842 -2.1991  2.9167 -0.1623
 8768SOL    HW237938   0.858   0.629  10.788 -0.4993 -1.4740 -0.4674
 8769SOL     OW37939   1.051   1.877   1.864 -0.4231  0.4264 -0.5061
 8769SOL    HW137940   0.970   1.911   1.902 -0.0178 -0.2350  0.9153
 8769SOL    HW237941   1.018   1.860   1.776  0.3665 -0.9987 -0.5200
 8770SOL     OW37942   3.973   2.260  15.742  0.4141  0.2191 -0.1885
 8770SOL    HW137943   3.920   2.187  15.773  0.6423  0.5679  1.0536
 8770SOL    HW237944   3.924   2.302  15.672  0.8173 -1.0332 -1.2090
 8771SOL     OW37945   0.187   3.786   4.571  0.2332 -0.1011 -0.2353
 8771SOL    HW137946   0.138   3.761   4.492  1.2361 -4.1942  0.4506
 8771SOL    HW237947   0.187   3.881   4.568 -1.3180 -0.1078 -0.8034
 8772SOL     OW37948   3.720   3.064   2.165 -0.1387  0.1948  0.0555
 8772SOL    HW137949   3.780   3.111   2.108  2.3198 -3.9253 -0.7433
 8772SOL    HW237950   3.718   3.129   2.236 -1.0935 -3.0881  3.0621
 8773SOL     OW37951   1.793   0.859   8.655  0.7498 -0.3110  0.4468
 8773SOL    HW137952   1.774   0.939   8.605 -0.4635 -1.0175 -0.2217
 8773SOL    HW237953   1.808   0.803   8.579 -1.4791  0.5979 -0.6690
 8774SOL     OW37954   2.423   0.425   5.698  0.3450  0.1803 -0.8985
 8774SOL    HW137955   2.369   0.487   5.649 -1.1813  1.5232  2.4784
 8774SOL    HW237956   2.467   0.372   5.632  1.8972 -0.5853  0.7789
 8775SOL     OW37957   0.921   3.621   2.710  0.0695  0.2127  0.5593
 8775SOL    HW137958   0.846   3.578   2.751 -0.1474 -1.5487 -1.6522
 8775SOL    HW237959   0.976   3.649   2.783  1.2789  0.0474 -0.2847
 8776SOL     OW37960   2.210   3.128   2.389 -0.2437  0.4001 -0.0596
 8776SOL    HW137961   2.305   3.143   2.396  0.0280 -0.7367 -1.5409
 8776SOL    HW237962   2.194   3.103   2.480  0.6542  0.7159  0.1909
 8777SOL     OW37963   0.899   0.739   5.362 -0.0887  0.0116 -0.1303
 8777SOL    HW137964   0.924   0.719   5.272 -2.2468 -0.5485 -0.6029
 8777SOL    HW237965   0.908   0.835   5.359 -1.0290  0.0250 -2.8208
 8778SOL     OW37966   0.524   3.998   2.751 -0.5920  0.1230  0.2178
 8778SOL    HW137967   0.474   3.962   2.677 -0.4912  0.0438  0.1881
 8778SOL    HW237968   0.520   4.089   2.722  1.6638  0.3196  0.5326
 8779SOL     OW37969   0.788   4.628   4.792  0.0523  0.1097 -0.4344
 8779SOL    HW137970   0.704   4.620   4.748 -1.2600  0.4472  2.0016
 8779SOL    HW237971   0.833   4.678   4.724  0.3831 -2.1546 -1.8951
 8780SOL     OW37972   2.086   3.018   6.839 -0.2146  0.7492 -0.3780
 8780SOL    HW137973   2.165   3.051   6.797  0.7318 -0.8814  0.1195
 8780SOL    HW237974   2.110   2.930   6.867  1.5200  1.7639  1.2480
 8781SOL     OW37975   0.720   4.443   3.422 -0.5041 -0.5289 -0.3282
 8781SOL    HW137976   0.633   4.458   3.385 -0.2311  2.7114  0.3786
 8781SOL    HW237977   0.732   4.537   3.432 -0.9605 -0.4107 -0.8804
 8782SOL     OW37978   1.885   2.025   7.353 -0.4710  0.3929  0.1735
 8782SOL    HW137979   1.806   2.056   7.308  0.9566  0.4476 -2.2908
 8782SOL    HW237980   1.947   2.089   7.318 -0.2075  0.9980  1.7433
 8783SOL     OW37981   2.684   3.652   3.931  0.5046  0.0491 -0.6660
 8783SOL    HW137982   2.686   3.680   3.839  2.2777 -0.9415 -0.9257
 8783SOL    HW237983   2.600   3.693   3.954  0.3166  1.2703 -3.5038
 8784SOL     OW37984   4.547   2.976  15.782  0.3799 -0.5793  0.2014
 8784SOL    HW137985   4.628   2.988  15.734  0.7103 -0.6596  0.7385
 8784SOL    HW237986   4.483   3.013  15.721 -1.6132  0.5241  2.9636
 8785SOL     OW37987   3.665   0.899   1.797 -0.2362  0.0630  0.3188
 8785SOL    HW137988   3.727   0.830   1.775  0.3567  0.6690  0.0907
 8785SOL    HW237989   3.719   0.956   1.853  0.6412 -0.1998 -0.2687
 8786SOL     OW37990   1.858   1.317   8.552  0.1750  0.2220  0.2635
 8786SOL    HW137991   1.945   1.288   8.525 -1.5943 -3.5061 -1.3797
 8786SOL    HW237992   1.874   1.412   8.553  0.8912  0.0974  1.0919
 8787SOL     OW37993   3.966   1.832   8.783 -0.2310  0.0433  0.1591
 8787SOL    HW137994   3.970   1.879   8.699  0.7853  1.6808  1.1320
 8787SOL    HW237995   3.925   1.749   8.762  1.2039 -0.8922  1.0495
 8788SOL     OW37996   2.339   4.088   8.230 -0.3950 -0.1068  0.4782
 8788SOL    HW137997   2.408   4.032   8.264  0.5806  1.4271  1.0180
 8788SOL    HW237998   2.366   4.100   8.139  1.8519 -0.4351  1.1164
 8789SOL     OW37999   4.004   1.749   9.912 -0.6430 -0.3883  0.3474
 8789SOL    HW138000   3.963   1.680   9.963  1.8702 -1.1246  1.3230
 8789SOL    HW238001   4.085   1.716   9.874 -0.1897 -0.0219  1.0111
 8790SOL     OW38002   3.498   3.785  15.330  0.1173  0.1026 -0.3104
 8790SOL    HW138003   3.408   3.762  15.306 -0.9602  0.5848  3.2286
 8790SOL    HW238004   3.509   3.733  15.410  0.8870  0.9162  0.1054
 8791SOL     OW38005   3.711   2.671  17.677  0.2963  0.4192  0.0774
 8791SOL    HW138006   3.645   2.717   0.005  1.7387  1.2352  1.1938
 8791SOL    HW238007   3.650   2.626  17.620  0.7056 -1.5452  1.2032
 8792SOL     OW38008   1.482   1.995   2.477 -0.1281  0.5766 -0.9841
 8792SOL    HW138009   1.393   2.028   2.466 -0.0390  0.7265 -1.2690
 8792SOL    HW238010   1.536   2.048   2.419 -0.6383  1.1429 -0.9350
 8793SOL     OW38011   4.250   4.194   8.144  0.0154 -0.2847 -0.0516
 8793SOL    HW138012   4.206   4.165   8.064 -1.8836  0.0470  0.8744
 8793SOL    HW238013   4.338   4.195   8.106 -0.1984  0.7049 -0.5029
 8794SOL     OW38014   2.676   4.430  12.620  0.4894  0.2969  0.2608
 8794SOL    HW138015   2.616   4.397  12.686 -0.1461  0.2838 -0.3281
 8794SOL    HW238016   2.752   4.373  12.634  0.2016 -0.3790 -0.8728
 8795SOL     OW38017   3.435   0.844  15.730 -0.4346  0.6040 -0.3432
 8795SOL    HW138018   3.382   0.918  15.701 -0.7581 -0.4081 -2.3519
 8795SOL    HW238019   3.496   0.889  15.789  0.5897  0.0859 -1.0041
 8796SOL     OW38020   4.124   4.076   2.039 -0.8999  0.3051 -0.3974
 8796SOL    HW138021   4.195   4.130   2.076 -0.7647  1.3448 -2.1843
 8796SOL    HW238022   4.048   4.133   2.046 -0.7371  0.4268  0.4811
 8797SOL     OW38023   0.630   1.296  17.101  0.0808  0.1988 -0.2375
 8797SOL    HW138024   0.610   1.280  17.008 -0.7650 -0.1520  0.0063
 8797SOL    HW238025   0.687   1.224  17.124  0.9028  0.2826 -1.9935
 8798SOL     OW38026   1.136   3.307   2.627 -0.0917 -0.2586 -0.0232
 8798SOL    HW138027   1.156   3.228   2.677  1.8527  0.3489  0.1441
 8798SOL    HW238028   1.179   3.372   2.683 -0.7307 -0.0317  0.2035
 8799SOL     OW38029   1.058   4.721  16.734  1.0001 -0.2147  0.4106
 8799SOL    HW138030   0.970   4.689  16.715  0.5030  2.7058 -2.2382
 8799SOL    HW238031   1.064   0.079  16.699  2.3554 -0.9661 -1.3219
 8800SOL     OW38032   3.326   4.636   5.559 -0.0627  0.3147  0.2788
 8800SOL    HW138033   3.374   4.718   5.544  0.2434  0.5451  2.5534
 8800SOL    HW238034   3.243   4.645   5.512 -0.4739 -0.3866  0.8711
 8801SOL     OW38035   1.328   2.864   9.743  0.5823  0.1083  0.3662
 8801SOL    HW138036   1.253   2.859   9.683  1.2463 -0.8942 -0.3675
 8801SOL    HW238037   1.393   2.828   9.684 -0.7556  0.9725 -1.6423
 8802SOL     OW38038   0.079   0.598  10.901  0.9089 -0.5401 -0.9660
 8802SOL    HW138039   0.044   0.626  10.986 -0.6512 -2.3103 -1.0114
 8802SOL    HW238040   0.162   0.643  10.914  0.6957 -0.0891 -1.1934
 8803SOL     OW38041   2.565   0.398   5.247 -0.3285  0.3988  0.2837
 8803SOL    HW138042   2.646   0.394   5.299 -0.3645  0.6738  0.3592
 8803SOL    HW238043   2.591   0.461   5.181 -1.0097 -1.1061 -1.4145
 8804SOL     OW38044   0.349   3.529   4.165 -0.4279  0.4900  0.7358
 8804SOL    HW138045   0.285   3.557   4.231 -2.4514  0.7317 -1.3319
 8804SOL    HW238046   0.427   3.582   4.179  0.1398  0.3371 -1.8890
 8805SOL     OW38047   1.230   4.538   1.776  0.1650 -0.2833  0.3898
 8805SOL    HW138048   1.145   4.517   1.815  0.7805 -0.5677  1.5644
 8805SOL    HW238049   1.223   4.569   1.685  0.2153 -0.5111  0.3101
 8806SOL     OW38050   4.456   1.821   3.228 -0.0445  0.0311 -0.0525
 8806SOL    HW138051   4.382   1.877   3.205 -0.4435  0.4172  2.1849
 8806SOL    HW238052   4.521   1.890   3.221 -0.3987  0.2671 -1.1060
 8807SOL     OW38053   4.397   4.185   0.549 -0.1217 -0.2712 -0.0939
 8807SOL    HW138054   4.407   4.231   0.466  2.1610  1.2816  1.0130
 8807SOL    HW238055   4.464   4.228   0.602 -1.1938  1.5931 -0.2603
 8808SOL     OW38056   0.378   3.582  14.189  0.3594 -0.4123 -0.5318
 8808SOL    HW138057   0.420   3.630  14.118 -0.1735 -0.2515 -0.7433
 8808SOL    HW238058   0.332   3.519  14.134 -1.0477  1.2450 -1.2607
 8809SOL     OW38059   1.608   0.004   8.050  0.3985 -0.4132 -0.8687
 8809SOL    HW138060   1.614   4.688   8.133 -0.7210 -1.0240 -1.1333
 8809SOL    HW238061   1.696   0.005   8.014  1.1331  1.4075  0.9893
 8810SOL     OW38062   3.892   2.332   6.722  0.0735  0.0616  0.9057
 8810SOL    HW138063   3.914   2.268   6.654  3.2984  2.0484  0.0756
 8810SOL    HW238064   3.976   2.377   6.730  0.0775  0.2891 -0.3221
 8811SOL     OW38065   3.400   4.217  15.763 -0.3323  0.1924  0.7852
 8811SOL    HW138066   3.318   4.251  15.799 -0.5581  0.3571  0.1147
 8811SOL    HW238067   3.417   4.297  15.713 -0.6699  0.5739  1.2750
 8812SOL     OW38068   4.192   1.813   4.616 -0.2785 -0.0556  0.1873
 8812SOL    HW138069   4.116   1.866   4.593 -0.1540 -0.2425 -0.6470
 8812SOL    HW238070   4.152   1.748   4.674  0.6387  0.5081  1.4438
 8813SOL     OW38071   3.456   4.372   3.236 -0.2117  0.1413 -0.8134
 8813SOL    HW138072   3.393   4.314   3.278 -1.7436  0.8828 -2.0922
 8813SOL    HW238073   3.441   4.458   3.276 -0.6058  0.7207 -2.1986
 8814SOL     OW38074   1.680   3.496  13.100 -0.8467 -0.0490  0.2134
 8814SOL    HW138075   1.614   3.464  13.160 -0.0546 -0.4663  0.8635
 8814SOL    HW238076   1.653   3.454  13.018  1.7044 -2.8934  0.8154
 8815SOL     OW38077   2.763   0.951  11.068  0.2526  0.2450 -0.6827
 8815SOL    HW138078   2.711   0.892  11.122 -3.1667  1.2506 -2.8338
 8815SOL    HW238079   2.833   0.888  11.052 -0.8034 -1.4133  1.1225
 8816SOL     OW38080   3.842   2.126   5.832 -0.3526  0.3828  0.4588
 8816SOL    HW138081   3.917   2.185   5.829 -0.0980 -0.0169 -0.8066
 8816SOL    HW238082   3.894   2.054   5.795 -0.4615 -0.0834  1.1946
 8817SOL     OW38083   4.086   0.691  14.909  0.3325  0.2201 -0.4939
 8817SOL    HW138084   4.177   0.662  14.914  0.7175  1.5108 -0.1208
 8817SOL    HW238085   4.041   0.618  14.866 -0.1537 -1.9482  3.6693
 8818SOL     OW38086   0.296   2.566   7.604  0.0408  0.1724  0.3620
 8818SOL    HW138087   0.365   2.532   7.662  1.7297  1.7395 -0.7041
 8818SOL    HW238088   0.357   2.576   7.531  0.5272  1.0904  0.8939
 8819SOL     OW38089   1.389   3.917   3.248 -0.4575 -0.1628 -0.1753
 8819SOL    HW138090   1.401   3.863   3.170 -0.5709  0.5128 -0.6572
 8819SOL    HW238091   1.472   3.964   3.254  0.0770 -0.9675 -1.4216
 8820SOL     OW38092   4.281   1.761   1.491 -0.2026 -0.1769  0.5753
 8820SOL    HW138093   4.260   1.849   1.459 -1.4831 -0.5827  0.2918
 8820SOL    HW238094   4.289   1.792   1.581 -0.0109  0.3280  0.3858
 8821SOL     OW38095   2.110   3.257   7.645 -0.0996 -0.6057 -0.3294
 8821SOL    HW138096   2.056   3.294   7.714 -0.6680 -3.0810  0.5648
 8821SOL    HW238097   2.033   3.242   7.589 -0.7592 -0.3452  0.5011
 8822SOL     OW38098   3.336   2.011   6.349 -0.1650 -0.0047 -0.5486
 8822SOL    HW138099   3.383   1.985   6.270 -0.4383  3.2513 -1.7879
 8822SOL    HW238100   3.405   2.067   6.385 -1.3664  0.7769  0.5503
 8823SOL     OW38101   1.567   2.283   3.965  0.0684  0.6304 -0.0942
 8823SOL    HW138102   1.496   2.246   4.018  0.8211  0.2482  0.6493
 8823SOL    HW238103   1.552   2.237   3.882  0.9996 -0.0953  0.1441
 8824SOL     OW38104   2.720   4.100  16.507 -0.5097 -0.4859 -0.0660
 8824SOL    HW138105   2.787   4.163  16.534 -2.2198  1.0977  0.4227
 8824SOL    HW238106   2.642   4.155  16.511 -0.2287 -0.1246  0.5849
 8825SOL     OW38107   2.885   3.130   1.944 -0.2413  0.3143  0.2192
 8825SOL    HW138108   2.893   3.141   1.850 -2.4388 -0.3847 -0.0377
 8825SOL    HW238109   2.928   3.210   1.976  0.9162 -0.3368  0.2944
 8826SOL     OW38110   3.741   3.892   8.880 -0.6450  0.4835  0.5699
 8826SOL    HW138111   3.808   3.891   8.948  0.0053 -0.9432 -0.1014
 8826SOL    HW238112   3.701   3.805   8.881  0.0287  0.1642  0.1717
 8827SOL     OW38113   0.526   1.664   4.712  0.1442 -0.5137  0.0402
 8827SOL    HW138114   0.460   1.733   4.714  0.4139 -0.3214  2.2207
 8827SOL    HW238115   0.511   1.621   4.628  3.4230 -0.5368 -0.5265
 8828SOL     OW38116   2.332   2.570   0.331 -0.3283  0.4465 -0.4264
 8828SOL    HW138117   2.308   2.480   0.311 -1.8887  1.4307 -3.0160
 8828SOL    HW238118   2.247   2.612   0.343 -1.2582 -2.3699  2.6731
 8829SOL     OW38119   0.848   0.590   1.736  0.3293  0.2546 -0.0226
 8829SOL    HW138120   0.848   0.521   1.670 -3.5275  0.3913 -0.1554
 8829SOL    HW238121   0.873   0.539   1.813  1.2137  2.7938  1.3783
 8830SOL     OW38122   2.648   2.312  15.901 -0.2075 -0.2839 -0.2787
 8830SOL    HW138123   2.686   2.274  15.979  1.1716 -2.3785 -1.9700
 8830SOL    HW238124   2.567   2.262  15.889 -0.3600  0.4167 -2.2402
 8831SOL     OW38125   0.056   1.309   1.489  0.2098 -0.2823 -0.1915
 8831SOL    HW138126   4.694   1.297   1.505  0.2310  0.9581  0.9182
 8831SOL    HW238127   0.085   1.282   1.576 -1.6296 -0.4594  0.3607
 8832SOL     OW38128   0.848   0.527  14.066  0.4618  0.1971  0.5864
 8832SOL    HW138129   0.781   0.590  14.038  0.7673 -0.7452 -2.2369
 8832SOL    HW238130   0.874   0.563  14.151 -0.2621  0.8320  0.5349
 8833SOL     OW38131   2.235   2.653   0.867 -0.3268  0.1122  0.1199
 8833SOL    HW138132   2.193   2.738   0.876 -1.8578 -0.6515  0.1204
 8833SOL    HW238133   2.280   2.660   0.783  1.5466  0.1105  1.1250
 8834SOL     OW38134   0.736   0.402   6.267  0.2333  0.1345 -0.0023
 8834SOL    HW138135   0.784   0.433   6.190  1.2315  0.8504  0.9104
 8834SOL    HW238136   0.784   0.324   6.295  0.7918  1.4224  2.6002
 8835SOL     OW38137   0.410   3.771   9.300  0.3851 -0.0668 -0.1846
 8835SOL    HW138138   0.318   3.744   9.299  0.2983  0.1980  0.6412
 8835SOL    HW238139   0.435   3.742   9.388 -0.0756 -0.8976 -0.3216
 8836SOL     OW38140   1.415   0.230  10.696  0.0509 -0.0956 -0.4707
 8836SOL    HW138141   1.438   0.287  10.769 -0.7071  0.2723 -0.5259
 8836SOL    HW238142   1.396   0.146  10.737 -0.5103  1.6441  2.8391
 8837SOL     OW38143   4.223   2.058   5.058  0.1164 -0.6125  0.1018
 8837SOL    HW138144   4.187   2.140   5.093 -0.5470 -1.2881  1.0119
 8837SOL    HW238145   4.246   2.091   4.971  0.0438  0.0417  0.3272
 8838SOL     OW38146   1.829   2.461   1.406  0.2425 -0.6131 -0.3509
 8838SOL    HW138147   1.873   2.490   1.326  1.0701 -0.1722  0.2643
 8838SOL    HW238148   1.840   2.539   1.460 -1.7899  0.8738 -2.0841
 8839SOL     OW38149   0.434   1.918   5.066  0.1826 -0.1601  0.2504
 8839SOL    HW138150   0.348   1.878   5.056 -1.1753  3.4477 -2.6074
 8839SOL    HW238151   0.488   1.852   5.110  1.5283 -0.5526 -1.9997
 8840SOL     OW38152   4.654   4.442  15.209  0.5212 -0.7547 -0.1342
 8840SOL    HW138153   4.726   4.422  15.149  1.5998  1.4941  0.4083
 8840SOL    HW238154   4.694   4.502  15.271  1.0592 -0.8045 -0.4383
 8841SOL     OW38155   0.209   0.003   3.900 -0.0086 -0.3299  0.2497
 8841SOL    HW138156   0.230   0.004   3.993 -0.2208 -0.0254  0.2942
 8841SOL    HW238157   0.256   4.653   3.880 -0.1414 -0.6484  1.2198
 8842SOL     OW38158   4.001   2.970   6.901  0.1200 -0.1012  0.3574
 8842SOL    HW138159   4.052   2.968   6.820  0.5316  2.3644  0.5267
 8842SOL    HW238160   3.992   2.877   6.920  0.6462  0.3060  2.6245
 8843SOL     OW38161   0.322   3.272   9.842 -0.8487 -0.5826 -0.5222
 8843SOL    HW138162   0.283   3.335   9.903  1.8875 -1.2496  1.9240
 8843SOL    HW238163   0.251   3.237   9.788 -1.6237 -0.5178  0.4519
 8844SOL     OW38164   3.709   1.271   8.412 -0.8400  0.2047 -0.1418
 8844SOL    HW138165   3.760   1.318   8.346 -0.0884  0.3988  0.5736
 8844SOL    HW238166   3.723   1.180   8.386  0.5815  0.1894  0.6538
 8845SOL     OW38167   1.851   0.024   7.941 -0.2837 -0.7215  0.4067
 8845SOL    HW138168   1.874   4.668   7.971 -0.3874 -0.2783  1.7681
 8845SOL    HW238169   1.936   0.061   7.917 -1.2678  2.3129  1.5842
 8846SOL     OW38170   0.791   3.464  10.166  0.1306  0.6326 -0.3627
 8846SOL    HW138171   0.792   3.530  10.236  2.2816  1.9590 -1.6419
 8846SOL    HW238172   0.818   3.390  10.221 -0.8224  1.0325  0.6465
 8847SOL     OW38173   1.295   2.596   5.247 -0.1438 -0.0795 -0.1772
 8847SOL    HW138174   1.245   2.647   5.183 -0.3087 -2.3836 -1.9006
 8847SOL    HW238175   1.281   2.505   5.222  0.1808 -0.0948 -0.3013
 8848SOL     OW38176   4.474   4.665   4.257 -0.2099  0.1166 -0.0490
 8848SOL    HW138177   4.558   4.648   4.216 -0.0592 -1.0535  0.7522
 8848SOL    HW238178   4.416   4.666   4.181  1.1334 -0.2413 -1.0906
 8849SOL     OW38179   1.011   4.390   4.303 -0.0023 -0.2347  0.2511
 8849SOL    HW138180   0.940   4.332   4.278 -1.2271 -0.4149  4.0931
 8849SOL    HW238181   0.992   4.468   4.252  2.4389  1.8415  2.5032
 8850SOL     OW38182   3.349   4.003   5.850 -0.0486 -0.2932  0.4146
 8850SOL    HW138183   3.438   3.983   5.821  0.2388 -0.4420  1.3909
 8850SOL    HW238184   3.318   3.915   5.872 -0.1647 -0.2689  0.3497
 8851SOL     OW38185   1.085   1.709   9.002  0.4126  0.0966 -0.5115
 8851SOL    HW138186   1.051   1.774   9.063  0.9192 -0.0291 -0.0938
 8851SOL    HW238187   1.063   1.631   9.054 -0.6984  1.6600  1.3563
 8852SOL     OW38188   1.513   0.437   1.930 -0.0048  0.5239  0.2999
 8852SOL    HW138189   1.516   0.456   2.024  1.2223 -0.2808  0.4296
 8852SOL    HW238190   1.603   0.406   1.921 -0.6826 -1.3520 -0.0107
 8853SOL     OW38191   4.024   0.234   5.684 -0.4129 -0.3683  0.9025
 8853SOL    HW138192   4.091   0.295   5.655  0.4209 -1.8978 -0.4184
 8853SOL    HW238193   4.050   0.232   5.776  1.0640  0.4170  0.4909
 8854SOL     OW38194   4.182   4.497   8.190 -0.0931 -0.2130  0.1649
 8854SOL    HW138195   4.116   4.560   8.161  0.7508  0.5031 -0.1803
 8854SOL    HW238196   4.246   4.560   8.222  1.5992 -1.5441 -0.5766
 8855SOL     OW38197   2.944   1.855   3.682 -0.1365  0.1024 -0.1965
 8855SOL    HW138198   2.892   1.775   3.682 -1.2457  0.8305  2.4108
 8855SOL    HW238199   2.873   1.913   3.708 -0.9814  0.0900 -2.4666
 8856SOL     OW38200   2.190   1.143   2.454  0.3999  0.5497  0.1596
 8856SOL    HW138201   2.162   1.199   2.382  1.6853  0.4976 -0.3854
 8856SOL    HW238202   2.216   1.062   2.411  0.4751  0.6345  0.0462
 8857SOL     OW38203   1.095   0.365   2.959  0.3596  0.6420 -0.2804
 8857SOL    HW138204   1.095   0.279   2.999  1.2368  0.5683 -0.4490
 8857SOL    HW238205   1.020   0.366   2.899 -0.2700 -0.0564  0.5037
 8858SOL     OW38206   3.521   3.133  11.067  0.2212 -0.3095  0.0714
 8858SOL    HW138207   3.508   3.216  11.021 -0.5258 -0.2982  0.2974
 8858SOL    HW238208   3.594   3.098  11.016 -0.5183 -1.0707 -0.4518
 8859SOL     OW38209   3.467   1.554   7.296 -0.3430  0.0373  0.7732
 8859SOL    HW138210   3.473   1.483   7.231  0.1649  0.6048  0.2024
 8859SOL    HW238211   3.552   1.595   7.280 -0.0225 -0.8673  0.1380
 8860SOL     OW38212   1.836   2.396   7.478  0.0128  0.0264 -0.0194
 8860SOL    HW138213   1.851   2.334   7.408 -1.6819  0.6372 -0.9286
 8860SOL    HW238214   1.754   2.351   7.502 -1.1105  1.2657 -1.5601
 8861SOL     OW38215   4.606   1.085   4.579 -0.2656  0.6878 -0.2665
 8861SOL    HW138216   4.538   1.138   4.621  0.7276  0.9003  1.0976
 8861SOL    HW238217   4.595   1.100   4.485  1.7432 -0.6911 -0.7039
 8862SOL     OW38218   1.133   1.842   5.671  0.4501  0.2178 -0.1968
 8862SOL    HW138219   1.170   1.917   5.624 -1.0850  0.1752 -1.4883
 8862SOL    HW238220   1.148   1.856   5.764 -3.2373 -0.3136  0.4900
 8863SOL     OW38221   0.234   1.289   6.709 -0.3242  0.2840 -0.9360
 8863SOL    HW138222   0.309   1.237   6.680  0.5694  0.7936  0.4519
 8863SOL    HW238223   0.154   1.245   6.680  0.8961 -2.6576  0.1887
 8864SOL     OW38224   2.885   3.216   3.823 -0.0499 -0.3318  0.6856
 8864SOL    HW138225   2.853   3.241   3.909 -0.7691  0.5693  0.1538
 8864SOL    HW238226   2.861   3.293   3.771  0.0624 -0.5894  0.2551
 8865SOL     OW38227   2.978   3.928   2.219  0.1762 -0.1296  0.0999
 8865SOL    HW138228   3.031   3.978   2.280 -0.1986  1.0255 -0.5179
 8865SOL    HW238229   2.904   3.988   2.212  1.1960  1.2602  1.3100
 8866SOL     OW38230   3.459   3.459   4.740  0.0694 -0.4143 -0.1517
 8866SOL    HW138231   3.469   3.386   4.678  0.1525  2.0049 -2.9734
 8866SOL    HW238232   3.549   3.490   4.749 -0.0246 -0.8645  2.2387
 8867SOL     OW38233   3.877   1.525   6.536 -0.1865  0.1639  0.3480
 8867SOL    HW138234   3.920   1.572   6.465  0.2729 -0.2029  0.3875
 8867SOL    HW238235   3.782   1.516   6.526  0.2091 -1.9286 -1.3054
 8868SOL     OW38236   1.335   4.541   8.456  0.4241  0.1966 -0.4129
 8868SOL    HW138237   1.290   4.475   8.508  0.2772  0.9844  0.4601
 8868SOL    HW238238   1.257   4.560   8.403 -1.2782 -3.0599  0.9721
 8869SOL     OW38239   0.842   3.102   4.268  0.3348  0.0095 -0.0025
 8869SOL    HW138240   0.881   3.188   4.255  0.4152  0.2980  2.1095
 8869SOL    HW238241   0.921   3.052   4.290  0.1570  0.2520  1.1898
 8870SOL     OW38242   2.069   3.897   2.987  1.2955 -0.1352 -0.0908
 8870SOL    HW138243   2.094   3.831   3.052 -1.0103 -1.4421 -0.5041
 8870SOL    HW238244   2.019   3.849   2.921  1.5408  0.7963 -0.9415
 8871SOL     OW38245   3.791   1.390  13.673  0.2187 -0.0764 -0.0863
 8871SOL    HW138246   3.707   1.357  13.703  0.9700 -1.1361  0.8656
 8871SOL    HW238247   3.773   1.483  13.657 -1.4528 -0.3908 -0.0004
 8872SOL     OW38248   1.452   2.050   6.289  0.0831 -0.1925  0.2895
 8872SOL    HW138249   1.484   1.977   6.236  1.9029 -0.8095  2.2699
 8872SOL    HW238250   1.420   2.018   6.373  1.5969 -1.9825  0.1761
 8873SOL     OW38251   4.650   3.483   6.787 -0.1484  0.2816  0.1119
 8873SOL    HW138252   4.573   3.537   6.805 -0.1426 -0.8940  3.6693
 8873SOL    HW238253   4.696   3.540   6.725 -0.0965  0.2899  0.1577
 8874SOL     OW38254   0.864   4.410   4.923  0.2307  0.1313  0.3773
 8874SOL    HW138255   0.882   4.465   5.000 -3.9083 -1.4997  2.5192
 8874SOL    HW238256   0.846   4.473   4.853 -0.0051  0.4219  0.6946
 8875SOL     OW38257   3.411   0.670   4.418 -0.3202 -0.4672  0.1461
 8875SOL    HW138258   3.481   0.624   4.464 -0.2783 -0.9454 -0.3874
 8875SOL    HW238259   3.476   0.724   4.374 -1.6711 -0.8218 -2.3303
 8876SOL     OW38260   1.293   1.471   7.134  0.0423  0.1611 -0.4000
 8876SOL    HW138261   1.205   1.436   7.120  0.7636 -0.9516 -2.1101
 8876SOL    HW238262   1.334   1.387   7.153 -1.0374  0.1579  1.8754
 8877SOL     OW38263   0.548   2.451   9.037 -0.1256  0.5287  0.3960
 8877SOL    HW138264   0.529   2.540   9.066  0.8597  1.5812 -2.2213
 8877SOL    HW238265   0.485   2.439   8.966  2.1561  0.6615 -1.6477
 8878SOL     OW38266   4.090   1.765   9.538  0.0804  0.0572  0.1802
 8878SOL    HW138267   4.057   1.825   9.472 -1.6490  0.7252  1.6440
 8878SOL    HW238268   4.118   1.828   9.605 -0.2717  1.3673 -0.9050
 8879SOL     OW38269   2.867   0.674   9.674  0.5537 -0.1610 -0.9009
 8879SOL    HW138270   2.789   0.692   9.727  3.5134  2.6238  2.5440
 8879SOL    HW238271   2.918   0.755   9.686  2.5095 -1.7288  1.2224
 8880SOL     OW38272   3.281   1.664  12.615 -0.2157 -0.1648 -0.6962
 8880SOL    HW138273   3.258   1.573  12.598 -0.8287  0.0381 -0.9955
 8880SOL    HW238274   3.289   1.691  12.523  1.1385 -2.0769 -1.1190
 8881SOL     OW38275   1.309   0.295  15.869  0.7083  0.0601 -0.2287
 8881SOL    HW138276   1.330   0.342  15.949 -2.2345  1.7470 -0.4350
 8881SOL    HW238277   1.236   0.242  15.900  0.5292 -0.0922 -0.9094
 8882SOL     OW38278   3.913   1.624   3.473  0.0423  0.1130  0.1151
 8882SOL    HW138279   3.835   1.634   3.419 -0.0207  0.1239  0.2072
 8882SOL    HW238280   3.883   1.620   3.564 -0.9360  1.2253 -0.1525
 8883SOL     OW38281   1.996   2.551   3.998  0.2430 -0.3065  0.2125
 8883SOL    HW138282   1.960   2.607   3.929  0.9094 -0.7270 -0.4829
 8883SOL    HW238283   1.923   2.543   4.059  0.6487 -1.5635  0.5393
 8884SOL     OW38284   3.626   4.383   3.784  0.0282 -0.2622  0.4765
 8884SOL    HW138285   3.619   4.295   3.820 -2.7768 -0.5197 -0.7119
 8884SOL    HW238286   3.693   4.372   3.716 -0.5843 -0.3914 -0.0966
 8885SOL     OW38287   4.151   2.128   8.215  0.1440  0.2820 -0.8374
 8885SOL    HW138288   4.142   2.034   8.230 -1.4705  0.4946 -0.5188
 8885SOL    HW238289   4.192   2.121   8.128  1.2671 -1.0018 -0.1990
 8886SOL     OW38290   1.870   0.563   6.525  0.1382  0.0888  0.0693
 8886SOL    HW138291   1.843   0.472   6.530  0.6596 -0.1803 -2.0948
 8886SOL    HW238292   1.806   0.590   6.459  1.3242  0.1968 -1.0469
 8887SOL     OW38293   0.540   2.920   3.090 -0.0712  0.2648 -0.6080
 8887SOL    HW138294   0.536   3.015   3.096  0.1169  0.2971 -1.0051
 8887SOL    HW238295   0.609   2.909   3.024  1.0067  0.5411  0.4649
 8888SOL     OW38296   0.978   0.258  17.717 -0.2893 -0.3722  0.6173
 8888SOL    HW138297   0.889   0.234  17.693 -1.1058  1.3494  1.9784
 8888SOL    HW238298   0.964   0.341   0.039  1.7816  0.5844 -0.4159
 8889SOL     OW38299   4.226   3.258  15.928  0.1503 -0.1756 -0.2029
 8889SOL    HW138300   4.229   3.266  15.833  3.1793 -0.6844 -0.1438
 8889SOL    HW238301   4.297   3.312  15.963 -1.0082  1.9335 -1.1558
 8890SOL     OW38302   2.553   0.176   8.116  0.0778 -0.1757 -0.1866
 8890SOL    HW138303   2.540   0.263   8.154  2.0379 -0.4816  1.1877
 8890SOL    HW238304   2.559   0.203   8.025 -0.0480  2.2469  0.5256
 8891SOL     OW38305   0.420   3.250   6.462 -0.3086 -0.2700  0.7818
 8891SOL    HW138306   0.417   3.190   6.536 -1.8977 -0.0182  0.9181
 8891SOL    HW238307   0.374   3.325   6.501  1.8091  0.2161  2.3723
 8892SOL     OW38308   3.044   0.133   2.123  0.2741  0.0002 -0.4576
 8892SOL    HW138309   3.092   0.213   2.101 -0.1475  0.0980 -1.0300
 8892SOL    HW238310   2.952   0.151   2.107  0.4313  0.5930 -0.6912
 8893SOL     OW38311   0.552   2.047   9.734  0.0829  0.2364  0.0996
 8893SOL    HW138312   0.634   2.040   9.782 -1.0699  0.9146  2.1375
 8893SOL    HW238313   0.524   1.956   9.729  1.1999 -0.1206  0.3946
 8894SOL     OW38314   0.943   2.830   2.509 -0.0863 -0.6106 -0.1231
 8894SOL    HW138315   0.994   2.793   2.437  2.2536  0.2647  1.0502
 8894SOL    HW238316   0.903   2.908   2.470 -0.5333 -1.2218 -0.8692
 8895SOL     OW38317   0.055   3.536   7.128  0.2114  0.4757 -0.4380
 8895SOL    HW138318   0.070   3.549   7.222  0.2765  0.5352 -0.4562
 8895SOL    HW238319   4.700   3.497   7.119  0.3503  0.0509  0.0946
 8896SOL     OW38320   2.467   0.360   3.952 -0.0091 -0.2275  0.1888
 8896SOL    HW138321   2.409   0.291   3.983  0.3024  0.0875  1.5162
 8896SOL    HW238322   2.553   0.318   3.958  0.6135  0.4643 -3.7954
 8897SOL     OW38323   2.487   0.059   6.973  0.3638  0.2222  0.1463
 8897SOL    HW138324   2.578   0.090   6.981  0.1942  1.0133 -0.8447
 8897SOL    HW238325   2.508   4.699   6.952  4.4678  0.9412  1.1270
 8898SOL     OW38326   3.055   1.000   3.271  0.1028  0.1213 -0.2691
 8898SOL    HW138327   3.086   0.999   3.180  0.2714  1.1633 -0.2263
 8898SOL    HW238328   3.110   1.060   3.321  1.0094  0.2588 -1.4192
 8899SOL     OW38329   3.711   1.717   2.828  0.1832  0.9723  0.2774
 8899SOL    HW138330   3.786   1.682   2.780 -0.3446 -0.5186  0.5352
 8899SOL    HW238331   3.640   1.715   2.764  0.2738 -2.2716  0.2682
 8900SOL     OW38332   1.002   0.674   4.767 -0.2011 -0.0530 -0.6619
 8900SOL    HW138333   0.919   0.663   4.721  0.0194 -2.4892 -0.4831
 8900SOL    HW238334   0.981   0.744   4.830  0.1700  1.6170 -2.3968
 8901SOL     OW38335   3.883   4.201   4.096 -0.0249 -0.2937  0.6617
 8901SOL    HW138336   3.902   4.115   4.058 -2.5884 -0.6693  0.1876
 8901SOL    HW238337   3.791   4.191   4.120 -0.5163 -0.6853 -1.3746
 8902SOL     OW38338   3.279   2.839   4.845  0.2015  0.8357  0.2851
 8902SOL    HW138339   3.325   2.899   4.903 -0.3796  0.0131  1.6184
 8902SOL    HW238340   3.190   2.841   4.880  0.3970  4.1692  0.5168
 8903SOL     OW38341   2.392   3.546   9.340  0.2802 -0.0888  0.0095
 8903SOL    HW138342   2.466   3.571   9.394 -0.9766  0.2170  1.5923
 8903SOL    HW238343   2.438   3.543   9.256  0.5702 -1.3550  0.2129
 8904SOL     OW38344   3.969   3.562  14.179  0.0401  0.0560  0.0032
 8904SOL    HW138345   3.891   3.610  14.151  0.6064  0.1607 -1.4026
 8904SOL    HW238346   3.964   3.585  14.272  0.2234  0.7213 -0.1507
 8905SOL     OW38347   1.206   3.402   2.388 -0.2671  0.2286 -0.0607
 8905SOL    HW138348   1.180   3.329   2.445  1.6468 -0.5486 -0.1892
 8905SOL    HW238349   1.187   3.472   2.450  3.0095  1.6237 -0.6459
 8906SOL     OW38350   4.676   2.033   7.212  0.3830  0.1367 -0.4351
 8906SOL    HW138351   0.018   2.011   7.155  0.6610 -1.6094  0.6047
 8906SOL    HW238352   4.633   1.948   7.213  0.0894  0.2305 -4.7040
 8907SOL     OW38353   4.392   1.152   2.193 -0.4068  0.4733 -0.1676
 8907SOL    HW138354   4.482   1.180   2.214 -0.1624 -0.7135  0.3802
 8907SOL    HW238355   4.387   1.065   2.233  1.1963 -0.2889 -1.6317
 8908SOL     OW38356   0.423   3.986  13.193  0.1205 -0.4152  0.6352
 8908SOL    HW138357   0.361   4.029  13.135  0.4034  1.7421  1.9270
 8908SOL    HW238358   0.454   3.915  13.137  1.0472 -0.4405  1.1786
 8909SOL     OW38359   1.347   3.444   9.870  0.2992 -0.4910  0.7292
 8909SOL    HW138360   1.411   3.382   9.905  1.0098  0.1507  0.5559
 8909SOL    HW238361   1.271   3.386   9.864 -0.3803  0.3597  1.0450
 8910SOL     OW38362   3.660   0.195   6.308 -0.2566  0.1180 -0.0525
 8910SOL    HW138363   3.653   0.287   6.332  0.8190 -0.1063  1.1456
 8910SOL    HW238364   3.707   0.202   6.225  0.8004 -1.0403  0.4472
 8911SOL     OW38365   0.875   0.142   6.200  0.8096 -0.1435 -0.0457
 8911SOL    HW138366   0.910   0.056   6.178 -0.2170 -0.7287  0.5845
 8911SOL    HW238367   0.817   0.149   6.123  1.2343  3.0180 -0.0585
 8912SOL     OW38368   1.599   1.917   1.680  0.1073 -0.3604  0.3380
 8912SOL    HW138369   1.535   1.969   1.729  0.5050  0.6486 -0.2146
 8912SOL    HW238370   1.609   1.839   1.736  3.2756 -0.2517 -0.1241
 8913SOL     OW38371   2.149   2.961   5.776  0.3730 -0.0894 -0.2528
 8913SOL    HW138372   2.066   2.914   5.768 -0.1701  0.3119  2.8242
 8913SOL    HW238373   2.157   2.982   5.869 -0.3822  0.0177 -0.2190
 8914SOL     OW38374   2.218   2.205   1.237 -0.6298  0.7827  1.2003
 8914SOL    HW138375   2.125   2.188   1.243 -0.4763 -0.6381 -0.4942
 8914SOL    HW238376   2.247   2.128   1.188  0.0441  3.1360 -2.1370
 8915SOL     OW38377   4.226   1.767   9.235  0.1129 -0.0522  0.6381
 8915SOL    HW138378   4.148   1.797   9.281 -1.0744 -0.8393 -0.8951
 8915SOL    HW238379   4.189   1.734   9.153 -0.2385 -1.0305  1.2005
 8916SOL     OW38380   0.064   1.623  16.054  0.2224  0.3439  0.1028
 8916SOL    HW138381   0.082   1.709  16.092  3.2936 -0.7213  1.0907
 8916SOL    HW238382   0.120   1.616  15.976  0.3634  2.1411  0.0442
 8917SOL     OW38383   1.167   3.687   4.844  0.1657 -0.7874  0.0527
 8917SOL    HW138384   1.260   3.688   4.868  0.1755  2.3524 -0.1229
 8917SOL    HW238385   1.164   3.642   4.759  2.7746 -0.9670  0.0598
 8918SOL     OW38386   3.064   1.437  10.490  0.1692 -0.6452 -0.2503
 8918SOL    HW138387   2.983   1.387  10.477 -0.3836 -0.2660  1.7490
 8918SOL    HW238388   3.127   1.386  10.439 -0.4116 -0.2547 -1.3574
 8919SOL     OW38389   4.204   1.627  13.668 -0.7672 -0.1157 -0.1951
 8919SOL    HW138390   4.150   1.631  13.747 -3.5553 -1.0012 -2.0545
 8919SOL    HW238391   4.147   1.570  13.617  1.7697 -1.7759 -1.1851
 8920SOL     OW38392   2.600   3.754  10.539  0.1145 -0.5340 -0.2601
 8920SOL    HW138393   2.581   3.718  10.626 -0.0426 -1.4135 -0.6642
 8920SOL    HW238394   2.653   3.829  10.567 -0.4970  0.2973 -1.3483
 8921SOL     OW38395   4.437   2.795   1.053  0.0844 -0.2258 -0.3567
 8921SOL    HW138396   4.374   2.741   1.006 -0.1076 -0.2602 -0.0611
 8921SOL    HW238397   4.498   2.831   0.988 -0.2519  3.2674  1.2723
 8922SOL     OW38398   3.208   1.218  14.480 -0.2326  0.1986 -1.0202
 8922SOL    HW138399   3.128   1.250  14.522  1.0792  1.3502  0.6089
 8922SOL    HW238400   3.219   1.129  14.514  0.2059  1.5792  2.5095
 8923SOL     OW38401   4.015   2.979  16.102  0.0810 -0.2525 -0.4427
 8923SOL    HW138402   4.072   2.910  16.071  0.8495 -0.0167  0.4398
 8923SOL    HW238403   3.981   2.944  16.185 -1.5670 -1.2481 -1.5446
 8924SOL     OW38404   1.004   2.454   3.792 -0.3577  0.1316  0.5078
 8924SOL    HW138405   0.947   2.383   3.765 -0.4720 -0.2355  1.7308
 8924SOL    HW238406   0.981   2.521   3.727  1.4765  0.4414  0.1563
 8925SOL     OW38407   0.555   4.139  11.333  0.1487 -0.2456 -0.1349
 8925SOL    HW138408   0.577   4.106  11.421  0.8793  2.8115  0.8498
 8925SOL    HW238409   0.525   4.061  11.287 -2.0090  1.0974 -0.9554
 8926SOL     OW38410   3.377   2.591   7.039 -0.4016  1.1184 -0.3566
 8926SOL    HW138411   3.366   2.616   6.947  0.0031 -1.1009 -1.0111
 8926SOL    HW238412   3.335   2.507   7.055  1.1350  0.2377 -0.9004
 8927SOL     OW38413   4.112   1.499   7.894  0.5683  0.5396 -0.0005
 8927SOL    HW138414   4.139   1.451   7.973 -0.0192  0.0196 -0.1166
 8927SOL    HW238415   4.194   1.515   7.848  1.3266  0.8104  1.4433
 8928SOL     OW38416   0.353   2.350   3.195  0.4150  0.3879 -0.0820
 8928SOL    HW138417   0.342   2.438   3.160  2.6868 -0.5080 -3.0807
 8928SOL    HW238418   0.438   2.348   3.240  0.9811  1.4102 -1.0880
 8929SOL     OW38419   2.362   4.128   7.011 -0.7157 -0.4628  0.2431
 8929SOL    HW138420   2.377   4.126   7.105 -0.7423 -2.9932  0.1974
 8929SOL    HW238421   2.365   4.033   6.995  1.2137  0.3839 -4.5385
 8930SOL     OW38422   0.483   1.531   6.009  0.3367  0.4548 -0.4284
 8930SOL    HW138423   0.412   1.595   6.002 -1.8128 -1.9291 -0.6759
 8930SOL    HW238424   0.438   1.456   5.970 -2.8696  1.6906  0.8943
 8931SOL     OW38425   3.720   0.684  15.753 -0.2013  0.2135 -0.0687
 8931SOL    HW138426   3.743   0.708  15.842 -0.1603 -1.2357  0.3105
 8931SOL    HW238427   3.782   0.741  15.708  0.7183  0.5781  1.6760
 8932SOL     OW38428   0.364   1.778  16.868 -0.3938  0.0493  0.2712
 8932SOL    HW138429   0.391   1.816  16.785  0.6836 -0.4118  0.4135
 8932SOL    HW238430   0.341   1.691  16.834  1.8940 -1.0639  1.5618
 8933SOL     OW38431   1.033   2.520   6.563  0.1811 -0.5524  0.4141
 8933SOL    HW138432   0.977   2.595   6.585 -0.6124 -1.4267  1.3766
 8933SOL    HW238433   0.960   2.459   6.552  0.4072 -1.1728  2.3921
 8934SOL     OW38434   4.612   0.413   1.358  0.0790  0.2622  0.2114
 8934SOL    HW138435   4.700   0.422   1.393 -0.3912 -1.7472  1.9221
 8934SOL    HW238436   4.632   0.428   1.265 -0.3073 -0.0568  0.0743
 8935SOL     OW38437   3.744   2.010   8.525 -0.3821  1.2090  0.5430
 8935SOL    HW138438   3.825   1.968   8.555 -1.3802 -0.1050  1.3718
 8935SOL    HW238439   3.668   1.953   8.525 -0.6289  1.5334 -1.6765
 8936SOL     OW38440   2.528   4.576   3.977  0.7543  0.0223  0.0656
 8936SOL    HW138441   2.623   4.562   3.981  0.7901  0.2223 -0.0799
 8936SOL    HW238442   2.498   4.490   4.005 -0.9678  0.8804  0.8372
 8937SOL     OW38443   1.143   0.249   9.464  0.1111 -0.4877  0.8581
 8937SOL    HW138444   1.174   0.264   9.553  0.4338  0.0708  0.6556
 8937SOL    HW238445   1.055   0.284   9.475 -0.0030 -0.4907 -0.0122
 8938SOL     OW38446   4.312   2.465   5.806  0.0485 -0.3795 -0.4739
 8938SOL    HW138447   4.317   2.553   5.844  0.0295  0.1626 -1.7191
 8938SOL    HW238448   4.399   2.433   5.829  0.5737 -0.5281 -2.6592
 8939SOL     OW38449   1.748   1.650   9.114 -0.3677  0.0409  0.1244
 8939SOL    HW138450   1.686   1.584   9.146 -2.4797  2.0501  0.1864
 8939SOL    HW238451   1.834   1.611   9.130  0.5957  2.3242  0.4911
 8940SOL     OW38452   4.343   4.022  15.472  0.2071  0.2709 -0.7673
 8940SOL    HW138453   4.362   4.093  15.411  0.4655 -0.1710 -1.2010
 8940SOL    HW238454   4.302   4.073  15.542  2.8303  0.9003  0.3350
 8941SOL     OW38455   0.650   2.909  15.371  0.2501 -0.1418  0.5313
 8941SOL    HW138456   0.686   2.963  15.441 -2.8433  0.5560  1.5727
 8941SOL    HW238457   0.572   2.874  15.414  0.3705 -0.1315  0.7603
 8942SOL     OW38458   2.799   1.387  13.693 -0.5431  1.2375 -0.3240
 8942SOL    HW138459   2.792   1.474  13.731  2.7070  1.4762 -0.2997
 8942SOL    HW238460   2.708   1.369  13.670 -0.9526  3.0906 -0.1002
 8943SOL     OW38461   4.470   2.644   6.819 -0.1945  0.4549  0.1100
 8943SOL    HW138462   4.375   2.652   6.830 -0.2146 -1.9483  1.5387
 8943SOL    HW238463   4.489   2.573   6.880  1.2998  1.4161  0.7469
 8944SOL     OW38464   1.054   2.920   4.094 -0.0731  0.0088 -0.2632
 8944SOL    HW138465   1.046   2.828   4.068 -1.1402 -0.4843  1.7827
 8944SOL    HW238466   1.054   2.917   4.190 -2.5629  1.4023 -0.2048
 8945SOL     OW38467   2.628   3.886   4.435 -0.4629  0.2428 -0.1586
 8945SOL    HW138468   2.558   3.930   4.387  0.7059  0.4425 -1.6663
 8945SOL    HW238469   2.707   3.933   4.407 -0.2561  1.1271  1.9270
 8946SOL     OW38470   2.779   1.488   9.109 -0.1261  0.4667 -0.0232
 8946SOL    HW138471   2.724   1.503   9.031 -2.0392 -1.5852  0.9464
 8946SOL    HW238472   2.754   1.569   9.154 -1.3534  0.6775 -1.0638
 8947SOL     OW38473   2.363   1.136   9.435 -0.0940  0.4149  0.3491
 8947SOL    HW138474   2.336   1.219   9.475  1.8611  2.1530 -1.9535
 8947SOL    HW238475   2.302   1.124   9.362 -0.7338  3.4440  0.3779
 8948SOL     OW38476   0.016   3.969   3.532 -0.1965  0.0445  0.4947
 8948SOL    HW138477   4.704   3.940   3.612 -0.5462  0.3801  0.4268
 8948SOL    HW238478   0.090   4.023   3.561  0.7437 -0.6170 -0.7060
 8949SOL     OW38479   0.794   0.406   4.331 -0.0389 -0.1478 -0.1575
 8949SOL    HW138480   0.868   0.383   4.387 -0.8341 -1.4583  0.3561
 8949SOL    HW238481   0.801   0.502   4.332 -1.5187 -0.0397 -0.9691
 8950SOL     OW38482   0.694   0.578   5.790 -0.1946 -0.0371 -0.3902
 8950SOL    HW138483   0.629   0.613   5.729 -1.7071 -2.0361  0.0710
 8950SOL    HW238484   0.775   0.620   5.760  0.5322 -0.7244  0.6019
 8951SOL     OW38485   0.925   1.248   2.347 -0.5176 -0.3192 -0.7453
 8951SOL    HW138486   0.973   1.195   2.284 -1.4738 -2.2462  0.1566
 8951SOL    HW238487   0.985   1.320   2.364 -2.8869  1.1160  1.5147
 8952SOL     OW38488   2.997   2.880   6.784 -0.3198 -0.1470  0.2096
 8952SOL    HW138489   3.021   2.905   6.874 -0.8619  0.3933  0.2020
 8952SOL    HW238490   2.942   2.955   6.763  0.6776 -0.1377 -2.4066
 8953SOL     OW38491   1.965   4.070   2.635 -0.6342 -0.5477  0.0913
 8953SOL    HW138492   2.033   4.007   2.660 -0.8844 -0.4418  1.0651
 8953SOL    HW238493   1.934   4.096   2.722 -1.0309 -0.2105 -0.1523
 8954SOL     OW38494   3.135   3.713   2.156 -0.7907 -0.3873 -0.0068
 8954SOL    HW138495   3.100   3.802   2.162  3.2044  1.0495  1.9328
 8954SOL    HW238496   3.146   3.692   2.249 -1.2036  0.1857  0.1743
 8955SOL     OW38497   2.346   0.885   8.354  0.3801 -0.2463  0.0510
 8955SOL    HW138498   2.380   0.874   8.266 -0.6144 -1.8347 -0.1310
 8955SOL    HW238499   2.404   0.828   8.405  0.5823 -0.1814 -0.1074
 8956SOL     OW38500   1.772   0.096   4.483  0.3806  0.0581 -0.2394
 8956SOL    HW138501   1.799   0.090   4.575 -3.0137  0.4962  0.7971
 8956SOL    HW238502   1.841   0.138   4.432  0.0488  2.2337  1.1135
 8957SOL     OW38503   1.860   3.437  10.790  0.1455 -0.3918  0.5854
 8957SOL    HW138504   1.888   3.514  10.742 -1.6840 -1.3997 -2.1187
 8957SOL    HW238505   1.912   3.366  10.753 -0.0962 -0.0272 -0.4390
 8958SOL     OW38506   4.247   1.364  10.307 -0.0328  0.0027  0.0295
 8958SOL    HW138507   4.227   1.398  10.394  1.4560 -0.8879  0.7114
 8958SOL    HW238508   4.161   1.331  10.281  0.0624  0.2507 -0.5936
 8959SOL     OW38509   3.827   2.134   4.327 -0.2794 -0.4445  1.0010
 8959SOL    HW138510   3.773   2.126   4.248 -0.1221  0.3155  0.8207
 8959SOL    HW238511   3.767   2.083   4.381 -1.1839 -0.0888  0.3228
 8960SOL     OW38512   2.175   2.323   0.512  0.4425  0.6134  0.0813
 8960SOL    HW138513   2.235   2.358   0.445 -0.5241  1.4332 -0.3494
 8960SOL    HW238514   2.238   2.304   0.582 -0.9056 -0.9542  0.8613
 8961SOL     OW38515   3.147   1.918   3.488 -0.1669 -0.0811 -0.2948
 8961SOL    HW138516   3.063   1.907   3.533 -0.4765 -1.0477 -1.0920
 8961SOL    HW238517   3.187   1.977   3.551 -0.5544 -0.8727  0.6818
 8962SOL     OW38518   0.972   3.509   7.818  0.3295 -0.5614  0.1845
 8962SOL    HW138519   0.986   3.592   7.863  0.2881  0.8152 -2.3562
 8962SOL    HW238520   0.916   3.463   7.880  0.3754 -2.7159 -1.3497
 8963SOL     OW38521   3.766   0.164  12.293 -0.2419 -0.0573  0.2901
 8963SOL    HW138522   3.730   0.103  12.357 -2.0546  0.3114 -0.3841
 8963SOL    HW238523   3.846   0.118  12.268  0.0335  0.4428  0.2521
 8964SOL     OW38524   2.247   0.758  15.064  0.4469  0.5334 -0.6444
 8964SOL    HW138525   2.172   0.802  15.025  2.3533  2.4518 -2.1976
 8964SOL    HW238526   2.292   0.830  15.108  0.9547  0.2520 -0.6997
 8965SOL     OW38527   3.769   2.789   8.156 -0.4675 -0.2517 -0.1050
 8965SOL    HW138528   3.859   2.774   8.185 -0.3599  0.4743 -0.0687
 8965SOL    HW238529   3.785   2.860   8.094  0.1835  0.1635  0.5421
 8966SOL     OW38530   0.807   1.513   1.352  0.0375  0.2375  0.2982
 8966SOL    HW138531   0.815   1.489   1.260 -0.6578 -1.4388  0.6728
 8966SOL    HW238532   0.782   1.605   1.345  2.6454  1.1584  3.2749
 8967SOL     OW38533   2.465   3.841   3.922 -0.0685  0.2728  0.6823
 8967SOL    HW138534   2.472   3.934   3.904 -0.8150 -0.0639 -1.2515
 8967SOL    HW238535   2.466   3.805   3.833 -0.7473  0.2605  0.6767
 8968SOL     OW38536   4.254   2.169   1.708 -0.6455  0.4828 -0.4212
 8968SOL    HW138537   4.257   2.162   1.803 -3.6869  1.9029 -0.2432
 8968SOL    HW238538   4.289   2.256   1.692 -1.0217  1.0784  2.0060
 8969SOL     OW38539   0.342   0.668  10.278  0.0898 -0.0130 -1.0682
 8969SOL    HW138540   0.357   0.697  10.188  0.1281  2.9405 -0.1103
 8969SOL    HW238541   0.313   0.576  10.278 -1.6965  0.5508 -1.0983
 8970SOL     OW38542   2.317   3.350   1.384  0.2183  0.2225  0.2083
 8970SOL    HW138543   2.390   3.407   1.360  1.4843 -0.0550  3.4479
 8970SOL    HW238544   2.347   3.325   1.471 -0.3844  0.9956  0.6263
 8971SOL     OW38545   2.394   2.436   6.552  0.2666 -0.9687  0.2651
 8971SOL    HW138546   2.452   2.511   6.538 -1.4122  0.2008 -0.3647
 8971SOL    HW238547   2.334   2.451   6.479  1.8638 -2.5541 -1.3840
 8972SOL     OW38548   0.031   3.074  13.089  0.3149  0.3216  0.0169
 8972SOL    HW138549   4.731   3.163  13.079 -0.3209  0.0586 -0.2870
 8972SOL    HW238550   0.113   3.082  13.138  0.1796  2.8848 -0.2007
 8973SOL     OW38551   3.212   2.428   4.288 -0.0395  0.1469  0.3216
 8973SOL    HW138552   3.228   2.417   4.194 -1.5559  0.4888  0.0176
 8973SOL    HW238553   3.216   2.523   4.287 -2.0159  0.2468  0.3673
 8974SOL     OW38554   2.952   0.172  17.657  0.5905 -0.1275  0.0948
 8974SOL    HW138555   2.928   0.255  17.699  0.2226 -0.4687  0.5625
 8974SOL    HW238556   2.932   0.211  17.572 -0.6252 -1.5483 -0.2538
 8975SOL     OW38557   1.355   2.282   6.179 -0.9612  0.3632  1.0327
 8975SOL    HW138558   1.309   2.286   6.262 -0.3403  1.3552  1.3205
 8975SOL    HW238559   1.407   2.203   6.196  1.8458  2.3743  1.8591
 8976SOL     OW38560   3.120   4.488  14.930 -0.0305 -0.3001  0.0826
 8976SOL    HW138561   3.191   4.424  14.932 -0.0327 -0.3378 -0.9998
 8976SOL    HW238562   3.159   4.558  14.877 -0.6531 -0.8723 -1.1147
 8977SOL     OW38563   2.232   2.406   2.973  0.4559  0.4549  0.0011
 8977SOL    HW138564   2.236   2.325   2.922 -1.7826  0.3741 -0.0363
 8977SOL    HW238565   2.270   2.460   2.903 -0.0517  0.4828 -0.2564
 8978SOL     OW38566   4.525   1.797   5.010  0.9662 -0.4564  0.6986
 8978SOL    HW138567   4.583   1.777   4.936 -1.0133 -1.0212 -0.6885
 8978SOL    HW238568   4.530   1.719   5.065  2.1240 -0.9747 -0.1248
 8979SOL     OW38569   0.774   2.690   4.739 -0.3874  0.1108  0.2817
 8979SOL    HW138570   0.773   2.778   4.777 -0.8108 -0.6580  2.0464
 8979SOL    HW238571   0.691   2.653   4.769  0.1136  0.8501  2.5718
 8980SOL     OW38572   0.853   0.639  11.235 -0.1355 -0.3875 -0.0582
 8980SOL    HW138573   0.839   0.633  11.330 -0.3813 -0.2488 -0.0849
 8980SOL    HW238574   0.794   0.571  11.203 -1.4456  0.6789  0.0686
 8981SOL     OW38575   1.817   2.242   6.439 -0.2279  0.4492 -0.0565
 8981SOL    HW138576   1.895   2.235   6.383 -0.2017 -1.6205  0.2505
 8981SOL    HW238577   1.760   2.301   6.389 -0.2688  0.5720  0.1364
 8982SOL     OW38578   1.649   0.305   5.664  0.2218 -0.1186  0.4294
 8982SOL    HW138579   1.704   0.370   5.707 -1.6412  1.6252  0.1747
 8982SOL    HW238580   1.646   0.236   5.730 -2.2164 -0.0301  0.3768
 8983SOL     OW38581   0.240   0.829   4.167 -0.8275  0.1747  0.1981
 8983SOL    HW138582   0.299   0.865   4.100 -0.9730 -1.9251 -1.0624
 8983SOL    HW238583   0.286   0.865   4.243  1.8283  2.5296 -2.5089
 8984SOL     OW38584   4.712   2.266   3.767  0.3163 -0.7450  0.0203
 8984SOL    HW138585   0.043   2.328   3.728  0.3026 -1.0558 -0.4938
 8984SOL    HW238586   4.633   2.285   3.716  0.9488  1.8558 -0.0171
 8985SOL     OW38587   3.700   2.457  17.273 -0.0493  0.4153  0.0300
 8985SOL    HW138588   3.750   2.378  17.255 -0.7350  0.0459 -0.2343
 8985SOL    HW238589   3.771   2.521  17.265 -0.0619  0.5568  1.0172
 8986SOL     OW38590   1.919   3.143   2.971 -0.4951 -0.1784 -0.1684
 8986SOL    HW138591   1.928   3.060   2.923 -0.9380 -0.1527 -0.3029
 8986SOL    HW238592   1.828   3.141   3.004 -1.7073 -4.3048 -3.7368
 8987SOL     OW38593   0.898   0.719   3.108  0.2371 -0.2738  0.3314
 8987SOL    HW138594   0.889   0.692   3.017  0.0779  0.3637  0.1587
 8987SOL    HW238595   0.889   0.814   3.106 -0.4332 -0.3656 -0.9721
 8988SOL     OW38596   1.531   0.114   8.355 -0.1749  0.3210  0.3549
 8988SOL    HW138597   1.606   0.083   8.304 -0.9464 -0.7397 -0.1400
 8988SOL    HW238598   1.474   0.038   8.361 -0.3102  0.2437 -1.9372
 8989SOL     OW38599   4.041   1.342   3.112  0.1452  0.5988 -0.6113
 8989SOL    HW138600   3.952   1.325   3.142  1.8067  0.6772  4.2948
 8989SOL    HW238601   4.096   1.267   3.135 -1.6463 -0.2549  0.9147
 8990SOL     OW38602   0.553   1.271   5.044 -0.5737 -0.2159 -0.8747
 8990SOL    HW138603   0.549   1.211   4.970  0.9655 -0.5608 -0.6878
 8990SOL    HW238604   0.496   1.338   5.007 -2.0112 -0.1783  1.4332
 8991SOL     OW38605   0.529   0.062   8.244  0.2719  0.5458  0.1400
 8991SOL    HW138606   0.513   0.037   8.335  1.7347 -1.3547 -0.1155
 8991SOL    HW238607   0.440   0.044   8.212  0.4633  1.0177 -0.6694
 8992SOL     OW38608   3.845   0.102   6.909  0.7808 -0.1560 -0.1528
 8992SOL    HW138609   3.923   0.114   6.964 -0.1123 -1.7783  1.4717
 8992SOL    HW238610   3.808   0.017   6.935  1.9689 -0.2386  1.2487
 8993SOL     OW38611   2.649   0.578   5.019 -0.2183  0.3748  0.4222
 8993SOL    HW138612   2.729   0.617   4.982 -0.4888  1.4392  0.9589
 8993SOL    HW238613   2.583   0.628   4.971  0.8148  0.8848 -0.4629
 8994SOL     OW38614   4.200   2.658   6.858  0.3575 -0.0733 -0.1054
 8994SOL    HW138615   4.107   2.679   6.862  0.3232 -0.7320  2.4566
 8994SOL    HW238616   4.189   2.578   6.806 -1.2451  0.9198 -1.2716
 8995SOL     OW38617   4.111   3.024   8.487 -0.0047 -0.1651 -0.3499
 8995SOL    HW138618   4.035   3.068   8.449  0.0223 -0.2523 -0.5071
 8995SOL    HW238619   4.063   2.955   8.533  0.8698 -0.2267  0.4581
 8996SOL     OW38620   0.776   2.944  11.089 -0.2049 -0.1394 -0.0745
 8996SOL    HW138621   0.865   2.980  11.093  0.0975 -0.7783 -0.9552
 8996SOL    HW238622   0.756   2.954  11.182 -0.9818  0.8502 -0.3483
 8997SOL     OW38623   2.106   1.071  12.351  0.3928 -0.2841 -0.1832
 8997SOL    HW138624   2.149   1.073  12.266 -1.9780  0.6162 -1.3547
 8997SOL    HW238625   2.178   1.058  12.412  0.0691  0.2354  0.3136
 8998SOL     OW38626   3.923   4.266   6.470 -0.4439 -0.0655  0.2088
 8998SOL    HW138627   3.952   4.357   6.476  1.2481 -0.7068  1.8359
 8998SOL    HW238628   3.930   4.241   6.378  2.6948 -0.8411  0.6624
 8999SOL     OW38629   1.470   2.021   3.582  0.6133  0.0582  0.2515
 8999SOL    HW138630   1.414   2.059   3.514  2.4179 -0.1627 -1.3474
 8999SOL    HW238631   1.509   1.942   3.545  0.0537 -0.4241  0.6776
 9000SOL     OW38632   2.129   4.221   1.914 -0.1547 -0.4156 -0.3899
 9000SOL    HW138633   2.044   4.197   1.878 -1.1680  0.4265  1.4189
 9000SOL    HW238634   2.116   4.273   1.994  2.5498  1.5492 -1.2415
 9001SOL     OW38635   3.242   2.888   7.012  0.4893  0.0735 -0.4750
 9001SOL    HW138636   3.284   2.805   6.986  0.3822 -0.3015  0.5369
 9001SOL    HW238637   3.314   2.946   7.036 -0.3387  0.8912  0.0013
 9002SOL     OW38638   4.372   1.219  10.117  0.3062  0.1445  0.0398
 9002SOL    HW138639   4.329   1.258  10.193 -0.3404  1.5741 -1.0548
 9002SOL    HW238640   4.307   1.199  10.050 -2.0935 -1.1218  2.7908
 9003SOL     OW38641   0.723   2.779   1.621  0.6672  0.1903 -0.5728
 9003SOL    HW138642   0.745   2.687   1.603 -1.1976 -0.0417 -1.5981
 9003SOL    HW238643   0.702   2.773   1.715  0.4444 -1.4895 -0.7250
 9004SOL     OW38644   2.682   0.567   7.587 -0.1025  0.0965 -0.5022
 9004SOL    HW138645   2.591   0.565   7.559 -0.7261 -1.8580  1.6757
 9004SOL    HW238646   2.689   0.644   7.645 -1.2771 -1.8805  2.2500
 9005SOL     OW38647   4.510   2.111   4.676  0.4736  0.0365 -0.0484
 9005SOL    HW138648   4.544   2.200   4.664 -1.0472  0.2645 -2.6877
 9005SOL    HW238649   4.458   2.102   4.596  0.3585  0.2248  0.0048
 9006SOL     OW38650   0.336   2.768   4.326  0.0427  0.1311 -0.7040
 9006SOL    HW138651   0.419   2.754   4.281 -0.2532 -0.8688 -0.9180
 9006SOL    HW238652   0.294   2.682   4.321 -0.0058  0.1232 -0.1430
 9007SOL     OW38653   4.315   3.863   4.379  0.1007 -0.0613 -0.0210
 9007SOL    HW138654   4.310   3.777   4.421 -0.0336 -0.5197 -0.9701
 9007SOL    HW238655   4.338   3.918   4.454 -2.1098 -0.2613  0.7939
 9008SOL     OW38656   2.731   2.214   3.422 -0.2226 -0.3716 -0.1959
 9008SOL    HW138657   2.640   2.243   3.437 -0.7891 -2.7177  0.8313
 9008SOL    HW238658   2.711   2.121   3.412  1.8831 -0.6681 -1.5705
 9009SOL     OW38659   4.110   3.061   7.387  0.3708  0.0715  0.7113
 9009SOL    HW138660   4.136   2.971   7.405  1.4557  0.7086  2.3409
 9009SOL    HW238661   4.139   3.105   7.467 -2.4981 -0.2054  1.9067
 9010SOL     OW38662   2.237   2.243   2.284 -0.0889  0.2647 -0.0282
 9010SOL    HW138663   2.297   2.187   2.235 -1.7958 -3.1412  1.7645
 9010SOL    HW238664   2.173   2.181   2.320 -1.6215  1.6022 -0.4870
 9011SOL     OW38665   0.607   4.086   4.493  0.0509  0.2431 -0.1613
 9011SOL    HW138666   0.648   4.023   4.552 -0.3735  0.0045 -0.1194
 9011SOL    HW238667   0.675   4.153   4.494  2.1494 -1.9252  2.5112
 9012SOL     OW38668   1.788   1.987   9.969  0.2926  0.1740  0.1858
 9012SOL    HW138669   1.797   2.065   9.915  0.8508 -1.3114 -1.8796
 9012SOL    HW238670   1.802   2.025  10.056 -0.9413  2.0560 -0.4480
 9013SOL     OW38671   1.005   2.712   5.396 -0.0734 -0.1459 -0.0370
 9013SOL    HW138672   1.056   2.786   5.362  0.7642 -1.4610 -1.6870
 9013SOL    HW238673   0.970   2.661   5.322  0.0455 -0.5630  0.1926
 9014SOL     OW38674   1.790   1.629   7.711  0.0204  0.1698  0.7320
 9014SOL    HW138675   1.734   1.662   7.641  0.3828  1.9244  1.2542
 9014SOL    HW238676   1.818   1.704   7.763  1.1318  1.4683 -1.7460
 9015SOL     OW38677   4.034   3.362   8.186 -0.2704 -0.1898 -0.0274
 9015SOL    HW138678   4.002   3.375   8.097 -1.7687 -3.2137  0.0464
 9015SOL    HW238679   4.054   3.453   8.206 -1.0796  0.4291 -2.0550
 9016SOL     OW38680   1.714   0.383   3.833 -0.4783 -0.3618 -0.1236
 9016SOL    HW138681   1.667   0.378   3.750  0.4536 -0.9474 -0.6239
 9016SOL    HW238682   1.689   0.472   3.857  2.4706  0.7213 -1.0507
 9017SOL     OW38683   3.822   2.327  14.797 -0.2854  0.8361  0.5851
 9017SOL    HW138684   3.805   2.358  14.708  0.8108  0.1507  0.1282
 9017SOL    HW238685   3.768   2.382  14.853 -2.9164 -0.6522 -0.5378
 9018SOL     OW38686   4.172   2.413   6.722 -0.0184  0.1544  0.3576
 9018SOL    HW138687   4.197   2.363   6.800 -0.4956 -0.1790  0.2953
 9018SOL    HW238688   4.231   2.374   6.656 -0.3297  0.1400  0.0871
 9019SOL     OW38689   1.355   3.127   6.567  0.2947 -0.7147  0.0837
 9019SOL    HW138690   1.351   3.125   6.471 -0.0914  0.6453  0.0761
 9019SOL    HW238691   1.288   3.191   6.589 -2.3783 -3.1613 -0.9830
 9020SOL     OW38692   4.420   3.490  13.016  0.4434 -0.5128  0.2472
 9020SOL    HW138693   4.342   3.461  12.969  0.6183  1.5146 -1.2919
 9020SOL    HW238694   4.414   3.585  13.011  2.6465 -0.4438 -1.0793
 9021SOL     OW38695   0.229   1.406  11.158 -0.0196  0.3620 -0.0007
 9021SOL    HW138696   0.246   1.499  11.166  0.1068  0.4278 -1.1020
 9021SOL    HW238697   0.286   1.370  11.226 -0.8702  0.3751  0.7219
 9022SOL     OW38698   2.071   3.422   4.096  0.8695 -0.1217 -0.0897
 9022SOL    HW138699   2.143   3.478   4.127  0.4686  0.4173 -0.1330
 9022SOL    HW238700   2.064   3.465   4.010 -1.7360 -0.5315 -0.0573
 9023SOL     OW38701   4.599   0.362   5.737  0.2751  0.3411 -0.0820
 9023SOL    HW138702   4.651   0.297   5.689  0.7167  2.0720 -1.9293
 9023SOL    HW238703   4.669   0.423   5.762  2.3133 -1.5390 -1.1523
 9024SOL     OW38704   2.385   2.371  13.102  0.1352 -0.1168 -0.0904
 9024SOL    HW138705   2.326   2.355  13.176  1.8995  1.2984  1.6116
 9024SOL    HW238706   2.315   2.397  13.042  0.1356 -0.4956 -0.2516
 9025SOL     OW38707   0.191   1.692   2.505  0.2323 -0.2669 -0.4612
 9025SOL    HW138708   0.203   1.728   2.593 -2.3339 -1.9041  0.5595
 9025SOL    HW238709   0.096   1.702   2.500  0.5794  3.6826  0.7205
 9026SOL     OW38710   1.442   4.091   6.514 -0.0726 -0.4722 -0.5489
 9026SOL    HW138711   1.350   4.087   6.543 -0.5637 -3.3360 -2.4418
 9026SOL    HW238712   1.422   4.088   6.420 -0.2703  0.2407 -0.5295
 9027SOL     OW38713   4.655   2.548   3.209  0.5680 -0.2889 -0.0050
 9027SOL    HW138714   4.698   2.468   3.178 -2.1743 -1.6482 -0.2195
 9027SOL    HW238715   4.710   2.571   3.284 -3.3735  0.7845  2.5570
 9028SOL     OW38716   1.006   2.038   6.265  0.0548 -0.0996  0.0946
 9028SOL    HW138717   0.919   2.004   6.245 -1.4552  2.9175  1.5246
 9028SOL    HW238718   1.036   2.078   6.183  4.7482 -2.7110  0.5216
 9029SOL     OW38719   2.519   1.956  12.217 -0.3789 -0.8943 -0.1197
 9029SOL    HW138720   2.550   2.035  12.261 -0.5493 -0.5164 -0.6766
 9029SOL    HW238721   2.540   1.901  12.292 -1.1317  0.2323  0.9215
 9030SOL     OW38722   1.852   1.296   9.303 -0.1447 -0.2990 -0.2213
 9030SOL    HW138723   1.940   1.269   9.328 -0.3527 -0.1739  0.6477
 9030SOL    HW238724   1.865   1.348   9.224 -0.1060  0.3379  0.2103
 9031SOL     OW38725   3.298   3.899  12.255 -0.1738  0.4079  0.0710
 9031SOL    HW138726   3.354   3.889  12.177  0.1070 -1.7668  0.5326
 9031SOL    HW238727   3.256   3.813  12.265 -1.5215  0.4343 -5.1983
 9032SOL     OW38728   2.273   4.308   2.719 -0.2359 -0.6139 -0.0799
 9032SOL    HW138729   2.272   4.245   2.648 -0.9461  1.1733 -1.6698
 9032SOL    HW238730   2.314   4.243   2.777 -2.5983 -1.2587  0.8731
 9033SOL     OW38731   2.366   3.443   0.957 -0.0296 -0.7270 -0.0094
 9033SOL    HW138732   2.392   3.405   1.041 -0.5134  0.6045  0.7590
 9033SOL    HW238733   2.310   3.372   0.926 -1.1930 -0.2561  1.0418
 9034SOL     OW38734   0.433   0.032   8.545 -0.2802  0.0949  0.5804
 9034SOL    HW138735   0.371   0.029   8.618  0.7450 -0.3093  1.4221
 9034SOL    HW238736   0.436   4.669   8.531 -2.1725  0.0843  0.1980
 9035SOL     OW38737   3.696   2.563  12.370  0.0834 -0.2036  0.5147
 9035SOL    HW138738   3.647   2.518  12.439 -0.5823 -1.8239 -1.0161
 9035SOL    HW238739   3.634   2.570  12.297  1.6226  0.8008 -0.6980
 9036SOL     OW38740   2.889   3.012  17.235 -0.3546  0.1932  0.1687
 9036SOL    HW138741   2.859   2.950  17.301 -1.6021  0.2843 -0.3060
 9036SOL    HW238742   2.822   2.988  17.171 -3.3276  0.0831  3.3480
 9037SOL     OW38743   0.030   2.136   8.686  0.2408 -0.4724 -0.6461
 9037SOL    HW138744   0.038   2.213   8.631 -0.0154  0.9746  1.3442
 9037SOL    HW238745   4.674   2.101   8.670 -0.2054  0.1488  0.4279
 9038SOL     OW38746   0.214   1.238   2.568 -0.3885  0.6401 -0.6033
 9038SOL    HW138747   0.147   1.281   2.622 -0.7898 -0.5277 -0.1566
 9038SOL    HW238748   0.156   1.166   2.542 -0.4988  0.2447  0.6949
 9039SOL     OW38749   3.104   1.510   5.354  0.1940 -0.0898  0.3518
 9039SOL    HW138750   3.054   1.546   5.428 -1.8011  1.7154 -1.8687
 9039SOL    HW238751   3.074   1.420   5.342 -1.2652  0.4763 -0.3046
 9040SOL     OW38752   3.016   0.454   0.954  0.2494  0.1650  0.1092
 9040SOL    HW138753   2.961   0.396   1.006  0.8306 -0.8439 -0.4085
 9040SOL    HW238754   2.999   0.530   1.011 -0.6625 -0.6844  0.9797
 9041SOL     OW38755   0.810   0.744   0.431  0.4330  0.0213  0.0618
 9041SOL    HW138756   0.898   0.708   0.428  0.3429 -0.2776  0.8884
 9041SOL    HW238757   0.776   0.687   0.500  1.4243 -0.3250  0.2547
 9042SOL     OW38758   0.814   3.497   3.399 -0.1041 -0.1629 -0.2109
 9042SOL    HW138759   0.869   3.458   3.467  1.8528  0.4555 -1.4403
 9042SOL    HW238760   0.748   3.429   3.385  0.4847 -0.5010 -1.3045
 9043SOL     OW38761   0.876   2.511   3.240 -0.1885 -1.4000 -0.1067
 9043SOL    HW138762   0.785   2.541   3.243  0.6091  0.8771  2.6400
 9043SOL    HW238763   0.915   2.587   3.197 -1.8703 -0.0287  0.7848
 9044SOL     OW38764   3.926   3.195   8.363  0.5652 -0.2097 -0.1335
 9044SOL    HW138765   3.965   3.254   8.299 -1.7086  0.5776 -0.7886
 9044SOL    HW238766   3.834   3.206   8.339  0.3576  0.7986  1.1393
 9045SOL     OW38767   0.703   1.237   3.523  0.5046  0.2608 -0.5762
 9045SOL    HW138768   0.672   1.283   3.601  2.4981 -0.1277  0.4304
 9045SOL    HW238769   0.786   1.279   3.502  0.7118 -0.5646 -1.4029
 9046SOL     OW38770   2.096   1.738   2.340 -0.2644 -0.2970  0.5128
 9046SOL    HW138771   2.009   1.711   2.310  0.4553 -0.4709 -1.4013
 9046SOL    HW238772   2.098   1.722   2.434  2.5571  1.2795  0.7078
 9047SOL     OW38773   1.981   2.842   4.567 -0.1833 -0.2919  0.4841
 9047SOL    HW138774   2.006   2.787   4.641 -1.4071  1.1077  1.9310
 9047SOL    HW238775   1.996   2.777   4.498  1.5558  0.0893  0.5062
 9048SOL     OW38776   1.967   0.132   3.435 -0.6207 -0.3817  0.9358
 9048SOL    HW138777   1.919   0.210   3.411  1.8222  1.0909  0.8471
 9048SOL    HW238778   1.918   0.094   3.508  0.7656 -0.7474  1.6764
 9049SOL     OW38779   3.307   3.779   6.669 -0.7070 -0.1684  0.6575
 9049SOL    HW138780   3.219   3.804   6.640  0.0505 -0.8401 -2.1978
 9049SOL    HW238781   3.308   3.800   6.763  2.3701 -3.6993  1.4018
 9050SOL     OW38782   4.647   1.443   5.721  0.0279  0.1793 -0.1261
 9050SOL    HW138783   4.573   1.502   5.705 -0.7693  0.6677  5.4459
 9050SOL    HW238784   4.697   1.510   5.768  2.1039 -1.5994  0.1871
 9051SOL     OW38785   1.826   1.484   3.082  0.5985 -0.6389  0.2192
 9051SOL    HW138786   1.866   1.491   2.995 -1.8884  1.3864 -0.7716
 9051SOL    HW238787   1.838   1.573   3.115 -1.1435 -0.3053 -0.0324
 9052SOL     OW38788   1.486   3.859   2.596 -0.0491 -0.3802 -0.5352
 9052SOL    HW138789   1.495   3.949   2.627 -2.5349 -0.4758  0.4332
 9052SOL    HW238790   1.572   3.825   2.623 -0.3772 -0.6856  0.1120
 9053SOL     OW38791   1.676   0.248   7.112  0.2170  0.4707  0.2072
 9053SOL    HW138792   1.719   0.275   7.192 -0.5504  1.1724  0.3848
 9053SOL    HW238793   1.702   0.156   7.110  0.8094  0.6966 -2.2931
 9054SOL     OW38794   0.486   3.440   4.821  0.2260  0.8192 -0.0085
 9054SOL    HW138795   0.393   3.449   4.840 -0.1477 -2.2385 -0.2663
 9054SOL    HW238796   0.526   3.465   4.904  0.3560 -0.5876  0.3644
 9055SOL     OW38797   1.781   0.981   3.901  0.2382  0.1633 -0.1350
 9055SOL    HW138798   1.689   0.953   3.901  0.1956  0.3202 -1.8424
 9055SOL    HW238799   1.763   1.075   3.902 -1.1894 -0.1322  1.0039
 9056SOL     OW38800   0.313   2.524  14.611 -0.2470  0.4254  0.4098
 9056SOL    HW138801   0.335   2.574  14.532  0.2576 -0.0122  0.2728
 9056SOL    HW238802   0.241   2.471  14.578  1.3115 -0.2150 -2.0133
 9057SOL     OW38803   2.013   2.414   9.945  0.0126 -0.0545  0.1368
 9057SOL    HW138804   1.977   2.486   9.894 -0.9465 -0.9319 -0.4202
 9057SOL    HW238805   2.108   2.420   9.957 -0.0823 -1.4083  1.5001
 9058SOL     OW38806   2.719   2.840  10.563 -0.2504  0.2680 -0.0061
 9058SOL    HW138807   2.700   2.842  10.657  2.0953  3.8043  0.4263
 9058SOL    HW238808   2.634   2.816  10.527 -0.7871  2.5567 -0.2723
 9059SOL     OW38809   1.856   0.648   1.376 -0.7179  0.4018 -0.1582
 9059SOL    HW138810   1.768   0.673   1.346  0.2802  2.2560 -1.5276
 9059SOL    HW238811   1.875   0.570   1.324  0.3438  1.2781 -1.0799
 9060SOL     OW38812   2.288   2.831   7.190  0.2547  0.5529 -0.0104
 9060SOL    HW138813   2.354   2.872   7.134 -0.9594 -0.1192 -1.9290
 9060SOL    HW238814   2.336   2.769   7.246 -0.9301 -0.9438 -0.6534
 9061SOL     OW38815   2.781   3.778   2.022  0.7527 -0.0822  0.2418
 9061SOL    HW138816   2.854   3.778   2.084 -0.0560 -0.1551  1.1894
 9061SOL    HW238817   2.738   3.860   2.046 -0.2649 -0.0721 -1.6518
 9062SOL     OW38818   3.137   1.607   8.250 -0.4953  0.1664  0.1154
 9062SOL    HW138819   3.220   1.606   8.298  0.5260  1.0771 -1.6071
 9062SOL    HW238820   3.163   1.594   8.159 -0.3642 -0.1692  0.2005
 9063SOL     OW38821   2.427   3.931  14.820  1.1798  0.1942  0.3728
 9063SOL    HW138822   2.388   4.012  14.853  0.2417  0.8960 -2.3775
 9063SOL    HW238823   2.352   3.882  14.785  1.1168 -0.1380  0.9795
 9064SOL     OW38824   2.779   2.723   3.965  0.1408 -0.6939  0.8779
 9064SOL    HW138825   2.868   2.757   3.963 -0.1674  0.0335 -0.1257
 9064SOL    HW238826   2.789   2.688   4.054  2.6364 -0.6071  0.6214
 9065SOL     OW38827   2.091   1.789   9.034 -0.1204  0.6041  0.0839
 9065SOL    HW138828   2.145   1.863   9.062 -0.0011  1.0816 -1.4297
 9065SOL    HW238829   2.144   1.722   9.078  1.0028  1.3977 -0.0805
 9066SOL     OW38830   2.017   3.724   2.737 -0.4379  0.0400 -0.2086
 9066SOL    HW138831   2.109   3.718   2.760 -0.6333 -0.8109  0.3907
 9066SOL    HW238832   2.000   3.633   2.710 -0.7346  0.5451 -1.6942
 9067SOL     OW38833   2.694   3.469   7.695 -0.3377 -0.4254  0.2004
 9067SOL    HW138834   2.788   3.463   7.710  0.0470  0.6502 -1.7727
 9067SOL    HW238835   2.656   3.479   7.782 -3.2727  2.4739 -1.3819
 9068SOL     OW38836   1.258   4.307  15.354 -0.3110  0.2896  0.2000
 9068SOL    HW138837   1.231   4.335  15.441  1.3813 -1.1309  1.1766
 9068SOL    HW238838   1.200   4.232  15.342  0.8104 -0.2985 -1.5629
 9069SOL     OW38839   4.728   2.377   7.774  0.6518  0.6812 -0.5493
 9069SOL    HW138840   0.073   2.417   7.815  0.3848  0.9802 -0.3465
 9069SOL    HW238841   0.006   2.283   7.791  1.8817  1.2782  2.0107
 9070SOL     OW38842   4.596   0.008  12.941 -0.2649  0.2645 -0.2014
 9070SOL    HW138843   4.577   0.010  13.034  1.3241 -0.1114  0.1284
 9070SOL    HW238844   4.691   4.730  12.942 -0.3769 -0.7887  0.2063
 9071SOL     OW38845   1.516   1.102   7.694  0.3581  0.7124  0.2693
 9071SOL    HW138846   1.425   1.075   7.696  0.5837 -0.1200 -0.9966
 9071SOL    HW238847   1.507   1.182   7.746  0.4244  1.0369 -0.2161
 9072SOL     OW38848   1.212   4.498  14.183 -0.4696 -0.1366  0.2465
 9072SOL    HW138849   1.288   4.497  14.125 -1.2883 -0.6803 -0.8334
 9072SOL    HW238850   1.261   4.514  14.263 -1.0243  4.2394 -0.3060
 9073SOL     OW38851   1.404   2.318   2.243 -0.4496 -0.2246 -0.2681
 9073SOL    HW138852   1.447   2.403   2.242 -1.3001  0.2665  3.1363
 9073SOL    HW238853   1.477   2.266   2.276 -0.5160 -1.2623 -1.7451
 9074SOL     OW38854   4.491   2.332   6.861 -0.5055  0.6358  0.3454
 9074SOL    HW138855   4.575   2.349   6.819 -0.0287 -0.4527  0.8669
 9074SOL    HW238856   4.514   2.298   6.947  0.0315  1.0881  0.3775
 9075SOL     OW38857   2.532   0.458  13.916 -0.0314  0.2714  0.5218
 9075SOL    HW138858   2.536   0.395  13.843  2.4009  1.2542 -0.2087
 9075SOL    HW238859   2.547   0.542  13.871 -0.9002 -1.0156 -2.2045
 9076SOL     OW38860   0.140   0.491  16.833  0.0203 -0.3318 -0.1390
 9076SOL    HW138861   0.149   0.498  16.929 -1.2681  2.9923 -0.2494
 9076SOL    HW238862   0.095   0.572  16.809  1.4285  0.1049 -1.2772
 9077SOL     OW38863   3.942   2.478   2.697  0.3096 -0.3611  0.3927
 9077SOL    HW138864   3.933   2.546   2.764  1.0030  0.8184 -0.7219
 9077SOL    HW238865   3.951   2.536   2.622 -0.7696  0.5097  0.9354
 9078SOL     OW38866   0.994   0.999   1.139  0.1751  0.2565 -0.2599
 9078SOL    HW138867   1.043   1.001   1.057 -0.5922  0.0614 -0.7276
 9078SOL    HW238868   1.050   0.960   1.206  0.4054  1.4010  0.2118
 9079SOL     OW38869   3.207   1.990  13.331 -0.9133  0.2538 -0.2065
 9079SOL    HW138870   3.187   1.904  13.367 -0.4940  0.5638  0.7695
 9079SOL    HW238871   3.214   2.050  13.406 -0.1759  0.5883 -0.5468
 9080SOL     OW38872   1.049   1.383   9.456  0.0438  0.1013 -0.5048
 9080SOL    HW138873   1.130   1.345   9.490 -1.2808 -2.0205  0.2566
 9080SOL    HW238874   0.993   1.307   9.441  1.1683 -0.3531 -2.4435
 9081SOL     OW38875   0.320   3.355  14.530 -0.0777  0.2628  0.2287
 9081SOL    HW138876   0.342   3.308  14.610  0.5557 -1.0219 -0.6891
 9081SOL    HW238877   0.354   3.442  14.548 -1.2339  0.8864 -0.5680
 9082SOL     OW38878   4.707   4.575   4.126  0.7617 -0.1490  0.1540
 9082SOL    HW138879   4.712   4.482   4.105  2.3759 -0.7720  3.3267
 9082SOL    HW238880   0.068   4.579   4.152  1.2033 -1.4285 -1.1837
 9083SOL     OW38881   3.248   3.518  17.190  0.1670 -0.0739  0.2825
 9083SOL    HW138882   3.185   3.569  17.139 -0.2412 -0.3186  0.5323
 9083SOL    HW238883   3.313   3.494  17.124  0.3444  1.0329  0.0643
 9084SOL     OW38884   1.774   2.673   1.606  0.2108  0.0195 -0.7357
 9084SOL    HW138885   1.741   2.753   1.647 -1.9170 -0.9350 -0.5883
 9084SOL    HW238886   1.742   2.606   1.667  0.7193  0.8203  0.4149
 9085SOL     OW38887   0.708   3.959   3.356 -0.1375  0.3291 -0.6417
 9085SOL    HW138888   0.742   3.997   3.437  2.3600 -0.0987 -1.4902
 9085SOL    HW238889   0.646   3.891   3.380 -2.3475  2.1020 -1.2953
 9086SOL     OW38890   3.745   3.244  12.402 -0.5341 -0.6249 -0.4666
 9086SOL    HW138891   3.744   3.189  12.480 -0.7754  0.2597  0.1478
 9086SOL    HW238892   3.823   3.203  12.364  0.0028  0.2941 -0.3484
 9087SOL     OW38893   1.646   2.627   9.628  0.0602  0.0194 -0.2312
 9087SOL    HW138894   1.597   2.546   9.614 -0.4060  0.2491  0.0631
 9087SOL    HW238895   1.606   2.695   9.575  0.6262  0.1815 -0.4517
 9088SOL     OW38896   4.562   1.383   3.259 -0.0285 -0.2560  0.1448
 9088SOL    HW138897   4.493   1.447   3.243  0.4251  0.0593 -0.5502
 9088SOL    HW238898   4.631   1.439   3.293 -0.0623 -1.3485  1.9940
 9089SOL     OW38899   2.793   0.292  14.122 -0.0797  0.7472  0.3510
 9089SOL    HW138900   2.714   0.243  14.099  0.1202  0.5673  0.0397
 9089SOL    HW238901   2.748   0.360  14.173  1.1444  1.8079  0.0177
 9090SOL     OW38902   0.134   3.389  12.933 -0.0019  0.1745  0.1904
 9090SOL    HW138903   0.150   3.462  12.873  2.7176 -1.9431 -1.6688
 9090SOL    HW238904   0.040   3.396  12.953  0.4078  1.7110  1.5722
 9091SOL     OW38905   1.754   4.202  16.488 -0.1783 -0.1943  0.0612
 9091SOL    HW138906   1.831   4.166  16.447 -1.8489 -2.4311 -1.0922
 9091SOL    HW238907   1.716   4.117  16.509 -0.3326  0.2741  1.7444
 9092SOL     OW38908   4.632   1.054   4.289  0.4979  0.2139  0.1452
 9092SOL    HW138909   4.675   1.038   4.206  1.2448  0.0827  0.5616
 9092SOL    HW238910   4.544   1.017   4.280  0.6120  0.1417 -0.6389
 9093SOL     OW38911   1.903   2.826   4.958  0.1235 -0.1407 -0.3570
 9093SOL    HW138912   1.949   2.759   4.908 -1.0894  0.5839 -2.4613
 9093SOL    HW238913   1.820   2.823   4.910 -0.1989 -2.0840  0.3194
 9094SOL     OW38914   1.064   2.062   8.755 -1.0414 -0.3658  0.4467
 9094SOL    HW138915   1.027   2.149   8.739 -2.2314 -0.5585  2.1034
 9094SOL    HW238916   1.062   2.015   8.672 -2.7893 -0.0201  0.2792
 9095SOL     OW38917   1.763   3.140   0.907 -0.2134  0.6788  0.2340
 9095SOL    HW138918   1.736   3.052   0.932 -0.9573  2.0255  4.2105
 9095SOL    HW238919   1.674   3.175   0.909 -0.2858  0.6564 -2.7907
 9096SOL     OW38920   1.219   1.686  10.622  0.2946  0.0487  0.1040
 9096SOL    HW138921   1.154   1.666  10.690 -0.1585  0.9613 -0.0495
 9096SOL    HW238922   1.294   1.713  10.676  2.0623 -1.9948 -1.3563
 9097SOL     OW38923   0.639   3.321   2.474 -0.4321  0.1132 -0.3873
 9097SOL    HW138924   0.689   3.292   2.397  1.3628 -0.3448  0.9468
 9097SOL    HW238925   0.601   3.405   2.447 -3.2261 -1.6005 -1.7945
 9098SOL     OW38926   3.651   0.626   9.227  0.0132  0.1470 -0.5029
 9098SOL    HW138927   3.588   0.692   9.200 -1.8984 -1.3586  0.2625
 9098SOL    HW238928   3.605   0.549   9.193  0.6882 -0.7144  0.5330
 9099SOL     OW38929   0.798   2.073   5.798 -0.2104 -0.2584  0.3459
 9099SOL    HW138930   0.837   2.142   5.744  0.5097 -1.1057 -0.2099
 9099SOL    HW238931   0.832   2.090   5.886 -2.4513 -0.4508  1.2367
 9100SOL     OW38932   1.610   3.323   4.387 -0.0196 -0.1805  0.4294
 9100SOL    HW138933   1.671   3.252   4.408 -0.3062 -0.2403  1.0690
 9100SOL    HW238934   1.674   3.390   4.363 -0.2747 -0.9323 -2.2654
 9101SOL     OW38935   4.469   1.109   9.268 -0.5008 -0.8105  0.1400
 9101SOL    HW138936   4.391   1.104   9.214 -0.0329 -1.8450 -0.4313
 9101SOL    HW238937   4.456   1.194   9.311 -0.4019 -2.2614  3.0756
 9102SOL     OW38938   3.533   3.719   7.320 -0.2520 -0.7333  0.2356
 9102SOL    HW138939   3.482   3.645   7.288 -0.8523 -1.5209  3.0216
 9102SOL    HW238940   3.604   3.744   7.261 -1.6034  0.1043 -1.0282
 9103SOL     OW38941   1.223   2.452   5.872  0.2858  0.1846  0.2330
 9103SOL    HW138942   1.136   2.491   5.884 -1.3835 -2.9766 -1.7034
 9103SOL    HW238943   1.255   2.500   5.949 -0.7358 -0.5843  1.1441
 9104SOL     OW38944   1.977   0.113   2.990  0.0391 -0.3600  0.2083
 9104SOL    HW138945   2.071   0.126   2.991 -0.0631  0.3892  0.1792
 9104SOL    HW238946   1.955   0.107   2.897  1.4530  0.8625 -0.1959
 9105SOL     OW38947   2.214   2.493  11.641  0.3928  0.3259  0.2299
 9105SOL    HW138948   2.175   2.576  11.613  1.5189  0.1643 -1.7446
 9105SOL    HW238949   2.291   2.485  11.585 -0.7603  0.5529 -1.3912
 9106SOL     OW38950   0.997   0.469   9.915 -0.0791 -0.2017  0.4760
 9106SOL    HW138951   1.045   0.415   9.852 -0.0266  0.2386  0.1401
 9106SOL    HW238952   0.950   0.401   9.963 -0.0394 -0.0133  0.7858
 9107SOL     OW38953   3.068   2.255   2.861  0.5336  1.1278 -0.0751
 9107SOL    HW138954   3.021   2.195   2.803  1.9071 -0.0615  0.0456
 9107SOL    HW238955   3.143   2.202   2.890 -1.1489 -0.5899  1.1578
 9108SOL     OW38956   1.074   2.568  17.695 -0.7917  0.1077  0.3677
 9108SOL    HW138957   1.023   2.568  17.614 -0.1260 -0.5057 -0.0471
 9108SOL    HW238958   1.106   2.478  17.701 -1.2330  0.0082  1.2149
 9109SOL     OW38959   1.260   2.029   3.406 -0.3681  0.2034 -0.3510
 9109SOL    HW138960   1.259   2.123   3.424 -0.7648 -0.4490  2.9384
 9109SOL    HW238961   1.208   2.033   3.325  1.0903  0.9115 -1.2579
 9110SOL     OW38962   0.226   0.654   1.641 -0.4820  0.7261  0.2611
 9110SOL    HW138963   0.262   0.730   1.687  0.5964  0.4374 -0.1174
 9110SOL    HW238964   0.148   0.689   1.597  1.1324  4.3665  0.2759
 9111SOL     OW38965   2.420   4.692   4.753  0.5879 -0.1204  0.4320
 9111SOL    HW138966   2.452   0.008   4.676 -0.4200  0.3580  0.3046
 9111SOL    HW238967   2.478   0.001   4.817  2.1800 -1.7112 -0.0177
 9112SOL     OW38968   1.209   2.780   7.040 -0.1925 -0.6453 -0.1412
 9112SOL    HW138969   1.189   2.764   6.948 -1.9987 -0.5638  0.2421
 9112SOL    HW238970   1.232   2.873   7.049  0.3665 -0.8579  0.5632
 9113SOL     OW38971   1.605   1.295   5.640  0.1112 -0.2409 -0.1278
 9113SOL    HW138972   1.518   1.327   5.665 -0.2867 -0.9341 -0.6451
 9113SOL    HW238973   1.636   1.297   5.731 -3.0807 -0.7311  0.9831
 9114SOL     OW38974   4.185   0.488   8.594 -0.0855  0.3673 -0.5612
 9114SOL    HW138975   4.101   0.495   8.638  0.8591 -1.5617  1.5907
 9114SOL    HW238976   4.187   0.394   8.573  1.7992  0.2728 -0.0094
 9115SOL     OW38977   2.472   1.058   8.534 -0.5828 -0.4554  0.1640
 9115SOL    HW138978   2.392   1.040   8.485 -1.4110 -0.3954  1.4890
 9115SOL    HW238979   2.468   1.153   8.543  1.1903 -0.2786 -0.9375
 9116SOL     OW38980   3.110   0.502   0.702 -0.3105  0.6668 -0.4113
 9116SOL    HW138981   3.136   0.411   0.685  1.1687  0.6661  1.8315
 9116SOL    HW238982   3.073   0.499   0.790 -0.4259  1.5538 -0.4363
 9117SOL     OW38983   1.651   1.250   3.073 -0.3503 -0.1837 -0.0192
 9117SOL    HW138984   1.679   1.196   2.998 -0.1508  1.0869 -0.8631
 9117SOL    HW238985   1.712   1.324   3.071 -0.9610  0.3251  0.2190
 9118SOL     OW38986   3.772   0.228   8.156 -0.4539  0.2005 -0.2465
 9118SOL    HW138987   3.764   0.281   8.077 -0.5027 -0.5973 -0.7876
 9118SOL    HW238988   3.687   0.222   8.199 -0.5519  2.3631 -0.1696
 9119SOL     OW38989   2.688   2.009   7.791  0.3053 -0.2625  0.5874
 9119SOL    HW138990   2.754   2.064   7.749 -2.8394  1.2188 -2.3892
 9119SOL    HW238991   2.693   1.929   7.739  0.1838  0.9612 -1.2885
 9120SOL     OW38992   4.716   0.710   3.596  0.3522  0.5624 -0.4250
 9120SOL    HW138993   4.681   0.623   3.616 -2.1562  1.1508 -2.2540
 9120SOL    HW238994   4.659   0.767   3.647  0.0531  0.1967 -0.3467
 9121SOL     OW38995   3.249   0.883   7.449 -0.2587  0.0448 -0.2539
 9121SOL    HW138996   3.177   0.897   7.510 -0.2597  0.3558 -0.3286
 9121SOL    HW238997   3.292   0.800   7.469 -0.4282  0.1862  0.6724
 9122SOL     OW38998   4.151   0.407  17.556 -0.7547  0.3866 -0.4350
 9122SOL    HW138999   4.085   0.388  17.489  0.6878  0.1252 -1.7975
 9122SOL    HW239000   4.090   0.449  17.616 -1.3405  1.8512 -2.0294
 9123SOL     OW39001   4.264   1.419   4.923  0.2495  0.2146  0.2419
 9123SOL    HW139002   4.177   1.428   4.882 -0.3349  0.0587  1.4540
 9123SOL    HW239003   4.318   1.453   4.851  0.6597  1.0400  0.9335
 9124SOL     OW39004   4.452   0.054  16.402 -0.2742  0.1564 -0.3934
 9124SOL    HW139005   4.432   0.099  16.320 -1.5821  2.5730  1.2171
 9124SOL    HW239006   4.502   0.118  16.454 -0.2379 -0.7771  0.7157
 9125SOL     OW39007   3.752   2.980   6.733  0.2663 -0.5711 -0.1425
 9125SOL    HW139008   3.829   2.981   6.790 -0.4675 -0.3039  0.8468
 9125SOL    HW239009   3.695   3.053   6.759  0.9554  0.3927 -1.3202
 9126SOL     OW39010   3.747   3.190  17.243  0.2105 -0.5698 -0.2319
 9126SOL    HW139011   3.779   3.144  17.166  1.4388 -1.0382  0.5525
 9126SOL    HW239012   3.831   3.213  17.283  0.5547  1.2330 -1.9631
 9127SOL     OW39013   1.613   2.527   2.459  0.0580  0.2676  0.0858
 9127SOL    HW139014   1.551   2.480   2.515  0.5562 -0.7886 -0.2442
 9127SOL    HW239015   1.681   2.525   2.526 -0.6809 -1.5579  0.7752
 9128SOL     OW39016   4.260   2.702   2.758 -0.6840  0.0721  0.0067
 9128SOL    HW139017   4.230   2.611   2.753  2.1687 -0.8298 -0.2757
 9128SOL    HW239018   4.344   2.697   2.713 -0.1063 -1.0568  1.2468
 9129SOL     OW39019   3.557   1.824  13.767 -0.4897 -1.0850 -0.2782
 9129SOL    HW139020   3.475   1.819  13.816 -0.4688 -2.2254 -0.3539
 9129SOL    HW239021   3.619   1.856  13.832 -0.6952  4.0719 -2.6282
 9130SOL     OW39022   1.671   0.463   2.585 -0.1599 -0.5634  0.3650
 9130SOL    HW139023   1.728   0.412   2.644  1.3733  0.3233 -0.3631
 9130SOL    HW239024   1.582   0.463   2.621 -0.6402  0.4256 -0.8446
 9131SOL     OW39025   3.124   1.736   4.263 -0.1463 -0.0974  0.1289
 9131SOL    HW139026   3.208   1.696   4.239 -0.8601 -1.0518 -0.7384
 9131SOL    HW239027   3.136   1.718   4.357 -1.6048 -0.2976  0.2703
 9132SOL     OW39028   0.102   2.830   8.200  0.1651 -0.9494  0.5431
 9132SOL    HW139029   0.196   2.814   8.196  0.1789 -0.6432 -0.4880
 9132SOL    HW239030   0.063   2.745   8.179 -0.6606 -0.3711 -0.2877
 9133SOL     OW39031   3.113   3.063   0.104  0.0665  0.2037 -0.5101
 9133SOL    HW139032   3.156   3.098   0.026  0.3607 -1.0020 -0.8917
 9133SOL    HW239033   3.102   2.969   0.092 -0.3130  0.5028 -2.4716
 9134SOL     OW39034   2.234   1.643  15.452 -0.0071  0.3288 -0.5100
 9134SOL    HW139035   2.148   1.649  15.410 -1.0311 -1.5599  1.3008
 9134SOL    HW239036   2.232   1.733  15.484 -0.2687  0.4902 -0.9840
 9135SOL     OW39037   2.069   4.123   3.537 -0.9348  0.5264 -0.7637
 9135SOL    HW139038   2.087   4.042   3.584  0.1225  0.0886 -1.9074
 9135SOL    HW239039   2.123   4.101   3.461  0.3178 -1.0906  0.6089
 9136SOL     OW39040   2.193   2.909   6.033 -0.1469 -0.5738  0.2940
 9136SOL    HW139041   2.165   2.819   6.015  1.0758 -0.9840  0.4530
 9136SOL    HW239042   2.273   2.896   6.083  0.3328 -2.2019 -0.8842
 9137SOL     OW39043   2.926   0.753  15.574  0.1948 -0.1105  0.0188
 9137SOL    HW139044   3.012   0.779  15.540  0.5633 -0.6241  0.5577
 9137SOL    HW239045   2.867   0.763  15.499  1.5380 -0.4248 -1.0927
 9138SOL     OW39046   3.486   4.717   2.890 -0.4763  0.0965  0.0052
 9138SOL    HW139047   3.575   4.687   2.906 -0.3584  0.0365 -0.7834
 9138SOL    HW239048   3.433   4.650   2.934  1.8566 -1.6541  0.1161
 9139SOL     OW39049   2.310   1.405   3.546 -0.1909  0.2447 -0.1708
 9139SOL    HW139050   2.260   1.472   3.592  0.6867 -0.1564  1.3534
 9139SOL    HW239051   2.370   1.461   3.498  0.6893 -0.2130  0.4048
 9140SOL     OW39052   1.458   1.210   2.578 -0.0315 -0.2636 -0.3413
 9140SOL    HW139053   1.434   1.134   2.525 -0.5325 -0.4426  0.1456
 9140SOL    HW239054   1.404   1.278   2.537  1.1619  0.3890 -0.8460
 9141SOL     OW39055   4.296   0.417   6.661  0.1113  0.1548 -0.1357
 9141SOL    HW139056   4.242   0.397   6.737  3.1689 -1.2953  1.6385
 9141SOL    HW239057   4.241   0.475   6.608  1.1494 -0.5083 -1.9504
 9142SOL     OW39058   4.406   1.403   5.470  0.0386  0.5087  0.3255
 9142SOL    HW139059   4.315   1.408   5.441  0.4184  3.1870 -0.3463
 9142SOL    HW239060   4.413   1.307   5.466  1.6470  0.5357  2.5323
 9143SOL     OW39061   3.183   4.055   7.192  0.1979  0.7566  0.4382
 9143SOL    HW139062   3.223   4.006   7.264  1.8651  0.1723 -0.8967
 9143SOL    HW239063   3.107   3.998   7.190 -1.2734  2.7477  0.3837
 9144SOL     OW39064   2.299   0.594   6.432  0.1894 -0.1857  0.4461
 9144SOL    HW139065   2.298   0.610   6.526 -0.6988 -2.3927  0.8182
 9144SOL    HW239066   2.322   0.501   6.426 -1.8743 -0.5474 -2.2436
 9145SOL     OW39067   1.014   4.165  16.402 -0.7034 -0.0437  0.0878
 9145SOL    HW139068   0.930   4.191  16.440 -0.9597 -2.4057  1.1850
 9145SOL    HW239069   1.058   4.249  16.393 -0.1021 -0.3149  0.5296
 9146SOL     OW39070   1.182   0.770   5.601 -0.2186 -0.4153  0.1779
 9146SOL    HW139071   1.261   0.797   5.648 -0.3510  2.5014 -1.2974
 9146SOL    HW239072   1.221   0.769   5.514 -0.6655 -2.4931  0.0109
 9147SOL     OW39073   3.464   1.011  13.294  0.0630 -0.8383  0.1380
 9147SOL    HW139074   3.481   1.056  13.211  0.1559 -1.3190 -0.1020
 9147SOL    HW239075   3.505   0.926  13.278  2.5150  0.5193 -0.8399
 9148SOL     OW39076   3.173   4.069   5.006  0.0460  0.5148  0.0272
 9148SOL    HW139077   3.127   4.065   5.089  1.3605  2.5236  0.8496
 9148SOL    HW239078   3.185   3.975   4.991  0.4018  0.1325  2.8345
 9149SOL     OW39079   4.304   1.324   1.424  0.3310 -0.1485  0.3341
 9149SOL    HW139080   4.340   1.381   1.356 -0.7986  0.2284  0.0499
 9149SOL    HW239081   4.247   1.267   1.372  1.0037 -0.4190 -0.1101
 9150SOL     OW39082   2.307   2.184   6.694  0.4713  0.4357 -0.8678
 9150SOL    HW139083   2.237   2.140   6.645 -0.4726  1.2296 -0.2095
 9150SOL    HW239084   2.311   2.273   6.659  1.9019  0.0281 -1.7170
 9151SOL     OW39085   2.647   4.178   7.383 -0.8477  0.2343 -0.6630
 9151SOL    HW139086   2.701   4.241   7.336  2.4557 -2.1706 -0.0402
 9151SOL    HW239087   2.668   4.202   7.473 -0.0524  0.4764 -0.9114
 9152SOL     OW39088   2.481   2.744  10.427 -0.1694  0.2614  0.2489
 9152SOL    HW139089   2.449   2.654  10.440  1.6522 -0.2838  0.8581
 9152SOL    HW239090   2.430   2.767  10.349 -0.4061  0.9501  0.6058
 9153SOL     OW39091   0.860   4.001   1.935 -0.0700  0.6013 -0.0192
 9153SOL    HW139092   0.910   3.993   2.016  0.4925  0.5869 -0.3654
 9153SOL    HW239093   0.774   4.027   1.966 -0.1765  0.4234 -0.1642
 9154SOL     OW39094   0.181   2.772  12.246  0.1759  0.8980 -0.2139
 9154SOL    HW139095   0.247   2.840  12.242 -0.5931  1.6229 -0.6666
 9154SOL    HW239096   0.190   2.736  12.334  3.2923  1.8067 -0.1676
 9155SOL     OW39097   3.952   2.563   7.924 -0.1658  0.8135 -0.7542
 9155SOL    HW139098   4.039   2.603   7.917 -0.1585  0.3553 -3.5343
 9155SOL    HW239099   3.894   2.629   7.961 -1.6687 -0.2247 -1.2520
 9156SOL     OW39100   3.055   2.356  15.471  0.1599  0.1254 -0.2905
 9156SOL    HW139101   3.071   2.363  15.565  1.2979  1.0296 -0.5540
 9156SOL    HW239102   3.079   2.442  15.437  0.9562 -0.0588 -0.1943
 9157SOL     OW39103   0.717   2.853  13.680 -0.4531 -0.2962 -0.6857
 9157SOL    HW139104   0.730   2.940  13.716 -2.0359  0.9259 -3.0688
 9157SOL    HW239105   0.791   2.842  13.620 -0.6839  0.2451 -1.0639
 9158SOL     OW39106   1.310   2.795   5.783  0.2150 -0.9086 -0.3698
 9158SOL    HW139107   1.275   2.877   5.819  0.0397 -1.1387 -0.0103
 9158SOL    HW239108   1.370   2.761   5.849  1.5885  0.8785 -0.7211
 9159SOL     OW39109   2.083   0.816   9.672 -0.0812  0.0539 -0.1089
 9159SOL    HW139110   2.141   0.867   9.729 -1.4788 -0.0191  1.3902
 9159SOL    HW239111   2.021   0.767   9.726 -0.0519  0.3746  0.2193
 9160SOL     OW39112   2.716   3.006  14.624  0.9548  0.2877 -0.0219
 9160SOL    HW139113   2.675   3.092  14.614 -0.1455 -0.3765 -1.2732
 9160SOL    HW239114   2.643   2.953  14.657  1.0658  0.0227 -0.2008
 9161SOL     OW39115   3.536   1.961  14.631 -0.3956  0.0850 -0.6468
 9161SOL    HW139116   3.441   1.947  14.631 -0.1217 -1.7555 -1.8736
 9161SOL    HW239117   3.532   2.026  14.560 -0.2791 -1.4821 -2.0936
 9162SOL     OW39118   4.638   3.917   7.076  0.0411  0.2765  0.1817
 9162SOL    HW139119   4.610   3.877   6.994  2.3664  0.9209 -0.9295
 9162SOL    HW239120   4.695   3.988   7.046  4.8858 -3.6968  0.0306
 9163SOL     OW39121   1.906   1.217   3.707 -0.0374  0.0760  0.0950
 9163SOL    HW139122   1.849   1.225   3.784  0.4971 -1.6384  0.6737
 9163SOL    HW239123   1.860   1.280   3.653  1.6411  1.2871  0.0837
 9164SOL     OW39124   0.880   0.608   1.314 -0.4195 -0.1733  0.0692
 9164SOL    HW139125   0.802   0.641   1.269  0.8091  0.9649 -1.2325
 9164SOL    HW239126   0.944   0.592   1.245  1.9287  0.7933  2.0364
 9165SOL     OW39127   0.420   2.797  14.497 -0.2733 -0.2352 -0.1445
 9165SOL    HW139128   0.512   2.825  14.496 -0.5602  0.7358  0.8314
 9165SOL    HW239129   0.382   2.879  14.466 -0.5444 -1.4074 -2.8759
 9166SOL     OW39130   3.118   3.822   4.265  0.4733 -0.2865 -0.0574
 9166SOL    HW139131   3.073   3.905   4.253  4.4567  1.7398 -1.1769
 9166SOL    HW239132   3.120   3.805   4.359  0.4457  1.0293  0.1822
 9167SOL     OW39133   4.357   4.587  11.075 -0.3059  0.2997  0.1072
 9167SOL    HW139134   4.442   4.552  11.047 -0.5454 -1.6635  1.8012
 9167SOL    HW239135   4.389   4.654  11.136  2.0045 -1.2194  0.5753
 9168SOL     OW39136   2.128   2.063  16.283 -0.4018  0.2400 -0.1918
 9168SOL    HW139137   2.151   2.123  16.212 -0.5779  0.6991  0.1384
 9168SOL    HW239138   2.124   1.977  16.242  0.6564 -0.1217  0.4407
 9169SOL     OW39139   1.690   2.414  10.174 -0.0605  0.0584 -0.0869
 9169SOL    HW139140   1.714   2.359  10.248 -0.0921 -1.4253 -1.1670
 9169SOL    HW239141   1.725   2.499  10.197 -1.1614 -0.2883  2.8195
 9170SOL     OW39142   4.255   2.092   5.393 -0.1633 -0.5468 -0.4915
 9170SOL    HW139143   4.295   2.026   5.336  2.6333 -0.1796  1.0682
 9170SOL    HW239144   4.187   2.130   5.338  1.7941  2.0893 -1.0901
 9171SOL     OW39145   3.729   4.093   5.426 -0.3119 -0.7396 -0.3431
 9171SOL    HW139146   3.818   4.124   5.412 -0.1895  0.2720  2.5652
 9171SOL    HW239147   3.734   4.071   5.519  1.0540 -0.5032 -0.3616
 9172SOL     OW39148   3.595   0.601   8.775  0.5016 -0.3295 -0.1422
 9172SOL    HW139149   3.631   0.542   8.841 -0.6145 -0.9233 -0.0655
 9172SOL    HW239150   3.646   0.574   8.699  0.3787  2.0064 -1.0458
 9173SOL     OW39151   3.001   1.986   2.244 -0.1996 -0.1628 -0.5598
 9173SOL    HW139152   2.985   2.023   2.331  0.9667 -3.1324  0.9031
 9173SOL    HW239153   3.051   1.909   2.272  1.2562  1.8462  2.4325
 9174SOL     OW39154   1.861   1.599   4.960 -0.2356 -0.4700 -0.8193
 9174SOL    HW139155   1.767   1.605   4.946 -0.0721  0.3228 -1.5801
 9174SOL    HW239156   1.870   1.590   5.055 -0.3682 -0.7545 -0.8342
 9175SOL     OW39157   1.825   4.322   0.498 -0.1526 -0.5867 -0.3932
 9175SOL    HW139158   1.881   4.371   0.438  0.4435  2.1054  2.3862
 9175SOL    HW239159   1.758   4.388   0.515  0.8652  0.5308 -0.7830
 9176SOL     OW39160   1.716   1.366   0.743  0.1465  0.6886  0.6319
 9176SOL    HW139161   1.724   1.454   0.706  3.2796  0.5665  1.0857
 9176SOL    HW239162   1.620   1.361   0.751  0.4043 -2.0715  2.0559
 9177SOL     OW39163   4.069   3.768   4.614  0.4699 -0.5010  0.0058
 9177SOL    HW139164   3.991   3.713   4.603  0.8958 -0.3839 -3.5279
 9177SOL    HW239165   4.044   3.833   4.548 -0.9284  1.0082  2.0338
 9178SOL     OW39166   3.444   1.350   4.490  0.1612 -0.0081 -0.3378
 9178SOL    HW139167   3.403   1.428   4.527 -0.4897 -1.1968  1.4710
 9178SOL    HW239168   3.514   1.327   4.552 -0.0266  3.0800  1.0180
 9179SOL     OW39169   3.020   3.904  15.149 -0.0349  0.1977  0.1120
 9179SOL    HW139170   3.031   3.811  15.168  2.2281  0.5177  0.3798
 9179SOL    HW239171   3.105   3.936  15.118 -1.2045  1.4527 -1.7981
 9180SOL     OW39172   0.963   0.966   0.706 -0.3703 -0.1777 -0.1720
 9180SOL    HW139173   0.945   0.953   0.613 -0.2443 -1.8415  0.0358
 9180SOL    HW239174   0.874   0.944   0.733  0.0016 -1.0176  0.3789
 9181SOL     OW39175   2.746   3.719  11.713 -0.1484 -0.3634  0.0650
 9181SOL    HW139176   2.698   3.799  11.692 -0.4849 -0.3471  0.8748
 9181SOL    HW239177   2.669   3.668  11.739  0.7646 -1.4563  0.6316
 9182SOL     OW39178   3.928   0.465   8.684 -0.3619  0.0888  0.1016
 9182SOL    HW139179   3.879   0.480   8.604 -2.3418  3.2409  1.8861
 9182SOL    HW239180   3.910   0.374   8.706 -2.4825  0.2738 -0.8547
 9183SOL     OW39181   0.983   3.488  11.204  0.1167  0.4763 -0.5349
 9183SOL    HW139182   0.963   3.539  11.282  2.8812  0.0788  0.4240
 9183SOL    HW239183   0.913   3.423  11.203 -0.6471  1.2793  1.6557
 9184SOL     OW39184   1.240   2.643   7.406  0.1847 -0.2017  0.7706
 9184SOL    HW139185   1.333   2.667   7.402  0.2513 -0.2236  2.2770
 9184SOL    HW239186   1.257   2.552   7.431  2.1630 -0.1430 -0.3487
 9185SOL     OW39187   4.462   0.434   9.718 -0.4741 -0.1136 -0.6737
 9185SOL    HW139188   4.435   0.401   9.804  5.7210  1.1314  1.7851
 9185SOL    HW239189   4.524   0.501   9.749  0.2800 -0.6648 -0.9953
 9186SOL     OW39190   1.164   2.540  10.098  0.3172 -0.2933  0.2118
 9186SOL    HW139191   1.248   2.498  10.118  0.7970  0.7316  0.3971
 9186SOL    HW239192   1.189   2.626  10.133  0.8239 -0.4579  0.2578
 9187SOL     OW39193   4.164   2.416   9.371  0.0672 -0.1598  0.5041
 9187SOL    HW139194   4.238   2.362   9.344 -0.8256 -0.0014 -2.3220
 9187SOL    HW239195   4.100   2.350   9.397  0.4818 -0.8812 -0.3051
 9188SOL     OW39196   1.856   0.243  17.223 -0.2403 -0.0439 -0.3776
 9188SOL    HW139197   1.860   0.181  17.150  0.6393  0.2257 -0.5615
 9188SOL    HW239198   1.906   0.323  17.205  0.2756 -0.2458  0.1415
 9189SOL     OW39199   4.552   2.665   5.138  0.0498 -0.2624 -0.2316
 9189SOL    HW139200   4.556   2.730   5.208 -0.2851  0.2974 -0.7291
 9189SOL    HW239201   4.526   2.587   5.187  2.9762 -1.0385  0.1171
 9190SOL     OW39202   3.249   3.569  11.678  0.6967  0.2039 -0.3487
 9190SOL    HW139203   3.217   3.501  11.738  0.2947  0.4732 -0.2630
 9190SOL    HW239204   3.216   3.544  11.592  1.1830  2.2244 -1.1114
 9191SOL     OW39205   0.503   4.578   7.772 -0.4489  0.0584 -0.0622
 9191SOL    HW139206   0.584   4.629   7.765 -0.6484  0.3804 -0.0143
 9191SOL    HW239207   0.532   4.492   7.802  0.4461  0.5040  0.3434
 9192SOL     OW39208   3.797   1.479   1.753 -0.5631 -0.0037  0.0401
 9192SOL    HW139209   3.815   1.502   1.661  2.0552 -1.6563  0.1439
 9192SOL    HW239210   3.823   1.558   1.801 -0.7273 -0.3240  0.6399
 9193SOL     OW39211   0.345   2.409   1.843  0.3865 -0.5225  0.1217
 9193SOL    HW139212   0.278   2.426   1.910 -1.3622 -0.0783 -1.7313
 9193SOL    HW239213   0.299   2.421   1.760 -1.0531 -1.7191  0.7488
 9194SOL     OW39214   4.598   2.172   8.222 -0.1641 -0.0813 -0.1159
 9194SOL    HW139215   4.608   2.224   8.142 -0.4952  1.5231  0.8773
 9194SOL    HW239216   4.576   2.238   8.288  2.1899  0.1225  0.4589
 9195SOL     OW39217   2.096   1.022   5.778 -0.0654  0.0952 -0.3713
 9195SOL    HW139218   2.095   0.991   5.868 -2.4127 -1.5306 -0.9354
 9195SOL    HW239219   2.078   1.116   5.780 -0.9968 -0.1298  1.9180
 9196SOL     OW39220   3.329   2.951  15.390  0.0673  0.2294  0.3693
 9196SOL    HW139221   3.404   2.948  15.450  0.4688 -0.1048 -0.1490
 9196SOL    HW239222   3.328   2.873  15.336 -3.8156  0.1679  0.5095
 9197SOL     OW39223   1.323   4.258   4.085 -0.7244 -0.2671 -0.0429
 9197SOL    HW139224   1.297   4.342   4.048  1.0242  0.8359  1.2160
 9197SOL    HW239225   1.258   4.258   4.156 -2.4004  0.4322 -1.5756
 9198SOL     OW39226   1.075   1.644   4.475 -0.5367 -0.0232 -0.0348
 9198SOL    HW139227   1.044   1.720   4.525 -2.0110  1.0936 -2.6881
 9198SOL    HW239228   1.128   1.605   4.545 -1.7282 -1.1975  0.2163
 9199SOL     OW39229   0.581   0.032   5.730  0.1641 -0.0755  0.6059
 9199SOL    HW139230   0.632   0.021   5.649  0.1606 -0.6204  0.6773
 9199SOL    HW239231   0.559   4.674   5.757  0.7871 -0.7817 -1.1994
 9200SOL     OW39232   4.606   3.679   7.723  0.4638 -0.2252  0.3405
 9200SOL    HW139233   4.546   3.680   7.649 -0.9959 -0.8191  1.5049
 9200SOL    HW239234   4.664   3.753   7.706  0.5561 -0.4273 -0.2098
 9201SOL     OW39235   4.262   4.701  12.760 -0.0185  0.0076  0.0178
 9201SOL    HW139236   4.223   0.056  12.774 -1.5416 -0.7781  0.5238
 9201SOL    HW239237   4.192   4.643  12.788  0.2648 -0.1013  0.4937
 9202SOL     OW39238   2.818   2.577  15.520 -0.3281 -0.0574 -0.6810
 9202SOL    HW139239   2.743   2.627  15.554  0.3099  1.4451 -1.5098
 9202SOL    HW239240   2.791   2.487  15.535  0.5404 -0.4582 -1.5575
 9203SOL     OW39241   3.287   1.298   2.348  0.0774 -0.7889 -0.5186
 9203SOL    HW139242   3.342   1.305   2.270 -1.8628  0.1929 -1.7755
 9203SOL    HW239243   3.357   1.302   2.414 -0.0607 -2.3323 -0.2813
 9204SOL     OW39244   0.682   0.767   4.958 -0.2996  0.1013  0.0964
 9204SOL    HW139245   0.696   0.701   4.890 -0.4289  0.3658 -0.1850
 9204SOL    HW239246   0.650   0.841   4.907 -0.7580  0.6134  1.1241
 9205SOL     OW39247   1.246   2.746  12.095 -0.4033 -0.5164  0.3117
 9205SOL    HW139248   1.329   2.789  12.112 -0.9335  1.1139 -1.2868
 9205SOL    HW239249   1.270   2.653  12.093 -0.2735 -0.4913  0.7047
 9206SOL     OW39250   0.086   2.492   2.007 -0.5709  0.1001 -0.2387
 9206SOL    HW139251   0.111   2.581   1.980 -0.4193 -0.0038 -0.4451
 9206SOL    HW239252   0.008   2.468   1.956  0.6949 -0.7349 -1.7753
 9207SOL     OW39253   2.754   3.820   6.670 -0.1586 -0.5849 -0.0217
 9207SOL    HW139254   2.679   3.783   6.623  0.5678 -0.2122 -1.4737
 9207SOL    HW239255   2.720   3.905   6.698  2.1717 -0.1899  1.5695
 9208SOL     OW39256   3.265   1.441  14.132  0.2914  0.3003 -1.0664
 9208SOL    HW139257   3.224   1.520  14.096  2.3134  1.8971  0.1261
 9208SOL    HW239258   3.274   1.396  14.048  2.4909 -0.2394 -0.5412
 9209SOL     OW39259   3.642   1.706   7.861 -0.1326 -0.2396 -0.2908
 9209SOL    HW139260   3.722   1.740   7.819 -0.0176  1.8309  1.6359
 9209SOL    HW239261   3.575   1.744   7.803 -0.3969 -2.2745 -1.3223
 9210SOL     OW39262   0.144   2.408  10.582  0.1357 -0.3969  0.3053
 9210SOL    HW139263   0.229   2.441  10.611  0.2589 -0.3645 -0.0949
 9210SOL    HW239264   0.154   2.313  10.588  2.1575 -0.2400 -0.7718
 9211SOL     OW39265   0.382   0.351   3.589  0.6927 -0.0585  0.1807
 9211SOL    HW139266   0.419   0.303   3.663 -1.3179 -1.1223  0.4902
 9211SOL    HW239267   0.464   0.393   3.565  0.5909 -0.4868 -0.8873
 9212SOL     OW39268   4.461   2.336   2.935  0.0176 -0.0898 -0.6926
 9212SOL    HW139269   4.481   2.281   2.860 -1.2881  1.2674 -2.0438
 9212SOL    HW239270   4.418   2.267   2.986 -1.9411 -1.0232 -3.6451
 9213SOL     OW39271   3.531   2.247   3.149 -0.3880  0.5559  0.2596
 9213SOL    HW139272   3.618   2.283   3.132  0.6601 -2.0428  0.1030
 9213SOL    HW239273   3.472   2.315   3.117 -0.5378 -0.4150 -1.5293
 9214SOL     OW39274   2.754   0.994   6.655  0.0473 -0.2644  0.2793
 9214SOL    HW139275   2.793   1.073   6.618 -0.2337 -0.3078 -0.1041
 9214SOL    HW239276   2.829   0.935   6.650 -0.4925 -0.7380 -2.0851
 9215SOL     OW39277   1.936   3.201   4.206 -0.2541  0.4245  0.0391
 9215SOL    HW139278   1.925   3.114   4.169  1.2990  1.3022 -2.4611
 9215SOL    HW239279   1.990   3.248   4.143 -0.3826  0.8535  0.2500
 9216SOL     OW39280   4.707   4.097  17.708  0.4764 -0.1950  0.1313
 9216SOL    HW139281   0.051   4.095   0.043  0.9182  1.7030 -0.3705
 9216SOL    HW239282   4.669   4.009  17.707  1.1448 -0.4847  0.7025
 9217SOL     OW39283   2.290   0.063  11.687  0.5327  0.3276 -0.3058
 9217SOL    HW139284   2.298   0.038  11.779  1.8434  0.1373 -0.4709
 9217SOL    HW239285   2.376   0.101  11.667  0.5331  0.7888  0.5971
 9218SOL     OW39286   4.401   1.230   2.887 -0.3767  0.4383  0.1061
 9218SOL    HW139287   4.335   1.191   2.830 -1.7059 -0.5221  2.3119
 9218SOL    HW239288   4.358   1.226   2.973  1.7087 -1.7169  1.0623
 9219SOL     OW39289   2.186   0.119   8.217 -0.0788  0.0906  0.3187
 9219SOL    HW139290   2.187   0.204   8.260  0.7472  1.5552 -2.6333
 9219SOL    HW239291   2.259   0.075   8.261 -0.1463 -1.7864 -1.4019
 9220SOL     OW39292   4.173   0.725   9.534  0.0881 -0.2546  0.3115
 9220SOL    HW139293   4.190   0.632   9.523  0.0486 -0.3868  1.3482
 9220SOL    HW239294   4.236   0.750   9.603 -0.9210  0.3280  1.0342
 9221SOL     OW39295   3.828   3.267   1.963  0.0917 -0.0495  0.2069
 9221SOL    HW139296   3.741   3.302   1.944 -0.3990 -0.7204  1.2174
 9221SOL    HW239297   3.857   3.260   1.872  0.4493 -1.2649  0.4082
 9222SOL     OW39298   2.576   2.163  14.334  0.4144 -0.7324 -0.3928
 9222SOL    HW139299   2.604   2.254  14.339 -1.0985 -0.2710 -0.4466
 9222SOL    HW239300   2.506   2.167  14.269 -0.3038  0.1063  0.4411
 9223SOL     OW39301   1.734   0.475   8.158  0.0637  0.2240 -0.6983
 9223SOL    HW139302   1.750   0.428   8.076 -3.6364 -2.8439  0.3847
 9223SOL    HW239303   1.751   0.566   8.131 -2.0304  0.6830 -0.4725
 9224SOL     OW39304   3.764   0.905   6.156  0.1348  0.0461 -1.0637
 9224SOL    HW139305   3.799   0.957   6.084 -0.5389  1.4009 -0.4134
 9224SOL    HW239306   3.784   0.964   6.229 -0.0348 -0.4957 -0.5681
 9225SOL     OW39307   0.267   1.869   7.928 -0.4438 -0.4534  0.4415
 9225SOL    HW139308   0.314   1.835   8.004  0.4974 -0.3304 -0.0863
 9225SOL    HW239309   0.208   1.930   7.973 -2.4318 -1.0382 -1.3377
 9226SOL     OW39310   3.290   3.116  14.811 -0.3167  0.7927  0.0090
 9226SOL    HW139311   3.380   3.141  14.832 -0.0345  1.3363 -1.7681
 9226SOL    HW239312   3.244   3.138  14.892  1.2580 -0.5785  1.2749
 9227SOL     OW39313   3.965   2.475   9.087 -0.9596 -0.5792 -0.1728
 9227SOL    HW139314   4.026   2.414   9.129  1.5457  0.6047 -2.1029
 9227SOL    HW239315   3.930   2.420   9.018 -0.0488 -1.9908  0.4959
 9228SOL     OW39316   1.122   0.265   1.211  0.0465 -0.4281 -0.0016
 9228SOL    HW139317   1.214   0.264   1.184 -0.3460  0.1307 -1.3678
 9228SOL    HW239318   1.076   0.230   1.134  1.4638 -1.1605 -0.5096
 9229SOL     OW39319   0.826   3.425   8.044  0.0413 -0.7054 -0.1479
 9229SOL    HW139320   0.873   3.347   8.075 -0.4888 -0.8557  0.2805
 9229SOL    HW239321   0.802   3.465   8.127  1.0111 -0.0783 -0.1765
 9230SOL     OW39322   1.488   1.785  17.292 -0.2219  0.3070  0.0357
 9230SOL    HW139323   1.431   1.708  17.285  2.1547 -1.3259 -1.1983
 9230SOL    HW239324   1.453   1.846  17.226 -2.3728  0.7190  1.5802
 9231SOL     OW39325   3.215   1.360   3.597 -0.0206  0.3483  0.2147
 9231SOL    HW139326   3.239   1.452   3.579  0.0231  0.4995  1.0593
 9231SOL    HW239327   3.287   1.342   3.658 -1.3446 -0.6245  1.4521
 9232SOL     OW39328   3.484   0.024   6.236  0.5498 -0.3659 -0.1398
 9232SOL    HW139329   3.550   0.083   6.275  1.2025  0.3048 -2.2435
 9232SOL    HW239330   3.510   0.016   6.144  1.0620 -0.2196 -0.0107
 9233SOL     OW39331   3.839   1.194   5.639  0.0974 -0.3544 -0.1454
 9233SOL    HW139332   3.798   1.120   5.595  0.7999  0.1380 -1.6580
 9233SOL    HW239333   3.766   1.256   5.630  0.8587  0.5564 -0.1011
 9234SOL     OW39334   4.695   3.641   2.530 -0.3800 -0.4001  0.4866
 9234SOL    HW139335   4.692   3.736   2.518  2.5366 -0.2766  0.9310
 9234SOL    HW239336   4.601   3.630   2.545 -0.3860 -1.8404 -0.5973
 9235SOL     OW39337   1.876   2.592   7.935 -0.0365  0.4904  0.1755
 9235SOL    HW139338   1.892   2.599   7.841 -0.7058  0.2627  0.0394
 9235SOL    HW239339   1.783   2.619   7.938 -0.0901  0.2901  0.2800
 9236SOL     OW39340   1.227   0.905   7.236  0.3250 -0.1886 -0.6549
 9236SOL    HW139341   1.254   0.881   7.325 -2.0706  1.1116  0.4260
 9236SOL    HW239342   1.253   0.828   7.185 -1.1630 -0.0150 -1.6759
 9237SOL     OW39343   0.646   0.358   4.685  0.2623 -0.0697 -0.0556
 9237SOL    HW139344   0.589   0.331   4.757  0.9392  0.0762  0.5362
 9237SOL    HW239345   0.620   0.296   4.617  0.1649  0.4547 -0.4917
 9238SOL     OW39346   1.697   2.142   9.155 -0.1603  0.1910  0.5047
 9238SOL    HW139347   1.611   2.109   9.132 -0.7731  0.2200  2.6996
 9238SOL    HW239348   1.735   2.143   9.068 -0.1496 -1.0165  0.4972
 9239SOL     OW39349   1.199   1.120  12.465  0.1454 -0.2252  0.3657
 9239SOL    HW139350   1.226   1.201  12.423 -0.8334 -0.7957 -1.3643
 9239SOL    HW239351   1.215   1.140  12.557  2.4989 -0.5592  0.0094
 9240SOL     OW39352   1.028   1.478  12.303 -0.8456 -0.1650  0.0931
 9240SOL    HW139353   0.934   1.464  12.317 -0.6333 -0.7502  0.9687
 9240SOL    HW239354   1.031   1.484  12.208 -0.1221 -3.3650 -0.0884
 9241SOL     OW39355   0.018   4.437   0.917  0.2183  0.0669  0.7954
 9241SOL    HW139356   0.045   4.507   0.857 -0.6089  1.0414  1.5332
 9241SOL    HW239357   4.656   4.462   0.918  0.9572  2.8441 -0.0935
 9242SOL     OW39358   3.700   1.937   2.146  0.3619 -0.1096 -0.0649
 9242SOL    HW139359   3.640   1.879   2.098  0.8420 -3.3731  3.3052
 9242SOL    HW239360   3.636   1.999   2.182 -0.3228 -1.5321  1.1740
 9243SOL     OW39361   0.021   4.056   4.519 -0.9396 -0.5074 -0.0861
 9243SOL    HW139362   4.718   4.053   4.608  0.8795 -1.6379  0.5778
 9243SOL    HW239363   0.052   4.146   4.505 -2.1467 -0.0536  0.2047
 9244SOL     OW39364   1.847   1.763   3.153 -0.4293  0.1352 -0.4585
 9244SOL    HW139365   1.938   1.792   3.149 -0.3150 -0.2273 -0.4221
 9244SOL    HW239366   1.807   1.820   3.088 -0.5907 -0.6910 -1.0789
 9245SOL     OW39367   4.535   1.937   5.534 -0.2018  0.3951  0.1331
 9245SOL    HW139368   4.596   1.877   5.575 -0.6235 -1.8579 -2.5230
 9245SOL    HW239369   4.484   1.877   5.479 -0.4482  0.4208  0.3355
 9246SOL     OW39370   2.085   3.495   8.743  0.6189 -0.0211 -0.4002
 9246SOL    HW139371   2.147   3.535   8.805  2.0678 -2.4489 -0.2524
 9246SOL    HW239372   2.136   3.500   8.662  1.5093 -0.0487  0.1578
 9247SOL     OW39373   1.550   3.968   2.097  0.2936  0.0996  0.0422
 9247SOL    HW139374   1.597   4.050   2.081 -0.0012  0.2389 -0.1269
 9247SOL    HW239375   1.544   3.951   2.003 -0.7052 -0.9281  0.2911
 9248SOL     OW39376   0.416   2.867  12.304  0.0836  0.1475 -0.9687
 9248SOL    HW139377   0.491   2.893  12.250  2.1044 -4.4709 -0.3182
 9248SOL    HW239378   0.413   2.932  12.374  1.3457  0.3557 -1.1097
 9249SOL     OW39379   1.747   1.873   7.101  0.1333  0.2521  0.4054
 9249SOL    HW139380   1.674   1.885   7.162 -1.0383  0.7799 -1.0840
 9249SOL    HW239381   1.806   1.947   7.111  0.7742 -0.2082  0.0539
 9250SOL     OW39382   3.928   0.325   6.586  0.1392  0.6783  0.1622
 9250SOL    HW139383   3.872   0.252   6.613  1.7653 -0.7565 -0.2729
 9250SOL    HW239384   3.994   0.315   6.654 -0.7598  1.2402  1.1062
 9251SOL     OW39385   0.389   3.037  14.422 -0.3293 -0.1469  0.2073
 9251SOL    HW139386   0.312   3.088  14.446  0.2316  0.0140  1.6763
 9251SOL    HW239387   0.462   3.091  14.451  0.7960 -1.0253 -0.9857
 9252SOL     OW39388   1.158   1.884   7.799 -0.4803 -0.1153 -0.5540
 9252SOL    HW139389   1.071   1.879   7.839 -0.3985 -0.9171 -0.4659
 9252SOL    HW239390   1.152   1.848   7.711  1.3198  0.5595 -0.9676
 9253SOL     OW39391   2.202   3.002  12.225  0.0151  0.0907 -0.3803
 9253SOL    HW139392   2.212   3.051  12.144 -3.8667  0.1270 -0.8099
 9253SOL    HW239393   2.276   3.039  12.274 -0.5281 -0.5643  0.9189
 9254SOL     OW39394   4.211   3.708   5.724  0.1853  0.2221 -0.3439
 9254SOL    HW139395   4.174   3.789   5.688  0.1843 -0.2440 -1.3694
 9254SOL    HW239396   4.300   3.741   5.730 -0.9548  3.1577  0.4090
 9255SOL     OW39397   2.632   4.506   0.720  0.1504 -0.0198  0.3383
 9255SOL    HW139398   2.583   4.499   0.638  1.7177  0.3063 -0.6444
 9255SOL    HW239399   2.675   4.421   0.716 -0.2524 -0.2582  1.2782
 9256SOL     OW39400   1.345   3.859  17.507  0.2389 -0.1511 -0.2656
 9256SOL    HW139401   1.345   3.866  17.411 -2.6309  0.4264 -0.2190
 9256SOL    HW239402   1.334   3.946  17.547  0.2285 -0.7835  1.0867
 9257SOL     OW39403   1.737   4.671  17.154  0.1379  0.0762  0.1611
 9257SOL    HW139404   1.774   4.654  17.241  0.2179  3.6783  0.8219
 9257SOL    HW239405   1.711   4.581  17.132 -0.4948  0.1769  0.4984
 9258SOL     OW39406   0.005   0.716   4.002  0.4064  0.4695  0.3394
 9258SOL    HW139407   0.009   0.728   4.097 -2.5684 -0.8068  0.6404
 9258SOL    HW239408   4.680   0.638   3.994 -0.9945  1.4297  0.6935
 9259SOL     OW39409   1.009   0.070   0.281  0.4021  0.1388  0.3113
 9259SOL    HW139410   1.070   0.031   0.219  1.6664  2.1662  0.2793
 9259SOL    HW239411   1.066   0.139   0.315  2.4124 -1.3091 -0.1220
 9260SOL     OW39412   2.540   2.395   4.266 -0.0526  0.7380  0.0100
 9260SOL    HW139413   2.524   2.381   4.172  1.1639  0.6001 -0.1734
 9260SOL    HW239414   2.632   2.370   4.260 -0.3266 -0.5812  1.3535
 9261SOL     OW39415   0.133   3.308   6.855 -0.4407  0.2655 -0.0172
 9261SOL    HW139416   0.072   3.372   6.818 -0.2205 -1.6763 -3.7106
 9261SOL    HW239417   0.204   3.369   6.875  1.8685 -2.0262 -1.2168
 9262SOL     OW39418   2.037   3.340   0.349  0.2740 -0.3142  0.3724
 9262SOL    HW139419   2.096   3.327   0.275 -0.6246  1.6582 -0.6919
 9262SOL    HW239420   2.097   3.297   0.410 -1.2658 -3.0055 -0.0038
 9263SOL     OW39421   2.797   4.582   0.084 -0.2058 -0.4033 -0.3864
 9263SOL    HW139422   2.831   4.600   0.171 -0.0261  0.4838 -0.6397
 9263SOL    HW239423   2.749   4.660   0.058  0.1796 -0.0366  0.0064
 9264SOL     OW39424   2.325   0.159   2.276 -0.1209 -0.4253  0.0752
 9264SOL    HW139425   2.366   0.101   2.339  0.0126 -1.1203 -0.6568
 9264SOL    HW239426   2.391   0.229   2.273 -4.4803  3.6821 -0.7818
 9265SOL     OW39427   4.634   1.187   5.657 -0.3943 -0.0561  0.1282
 9265SOL    HW139428   4.639   1.276   5.693  2.8173 -0.0460 -0.3847
 9265SOL    HW239429   4.689   1.138   5.719  0.5383  1.7977  0.7796
 9266SOL     OW39430   2.916   1.305   4.811 -0.3326  0.6139  0.3005
 9266SOL    HW139431   2.913   1.248   4.734  2.1168 -0.7347  1.2060
 9266SOL    HW239432   2.831   1.282   4.848 -0.6368 -1.7030 -1.8224
 9267SOL     OW39433   1.864   1.843   0.070 -0.7033 -0.0197 -0.0821
 9267SOL    HW139434   1.827   1.918   0.024  0.1964  2.0513  2.5814
 9267SOL    HW239435   1.813   1.772   0.031  0.8477  0.1192 -2.3678
 9268SOL     OW39436   3.889   0.729   8.121 -0.0631 -0.2926 -0.0526
 9268SOL    HW139437   3.919   0.749   8.032 -0.0415 -0.5437 -0.1045
 9268SOL    HW239438   3.810   0.780   8.135 -0.2407 -0.7731  0.7027
 9269SOL     OW39439   3.299   1.273   1.245  0.1311 -0.3155  0.0866
 9269SOL    HW139440   3.242   1.347   1.268  0.2829 -0.6036  1.4231
 9269SOL    HW239441   3.296   1.236   1.333 -1.7959 -2.3014 -0.8000
 9270SOL     OW39442   3.486   3.876   1.263  0.2753  0.0693  0.1385
 9270SOL    HW139443   3.404   3.854   1.306 -0.5609  0.3603 -1.2825
 9270SOL    HW239444   3.546   3.805   1.285 -1.2480 -1.6833 -1.3875
 9271SOL     OW39445   2.428   0.435   7.394 -0.6715  0.3603 -0.0997
 9271SOL    HW139446   2.421   0.420   7.488 -0.7481  2.5799  0.2536
 9271SOL    HW239447   2.335   0.438   7.370 -0.1483 -0.1440 -2.2157
 9272SOL     OW39448   3.099   3.787   2.613  0.0843 -0.5333 -0.7824
 9272SOL    HW139449   3.177   3.839   2.594 -0.9360  0.4606 -2.2512
 9272SOL    HW239450   3.101   3.730   2.536  0.0518 -0.6800 -0.6754
 9273SOL     OW39451   4.142   1.827   2.846 -0.0010  0.2568 -0.1456
 9273SOL    HW139452   4.233   1.810   2.823 -0.9547 -1.2560 -2.7742
 9273SOL    HW239453   4.163   1.889   2.916 -1.1361  2.1536 -1.4717
 9274SOL     OW39454   0.572   0.232  12.489 -0.0119  0.4630 -0.6362
 9274SOL    HW139455   0.509   0.270  12.550 -0.6380  0.5033 -1.3215
 9274SOL    HW239456   0.659   0.244  12.529 -0.2609 -1.1494  0.3936
 9275SOL     OW39457   3.401   4.542   4.163 -0.0809  0.1673  0.5507
 9275SOL    HW139458   3.438   4.581   4.243  0.2689 -1.2104  1.0629
 9275SOL    HW239459   3.377   4.455   4.196 -1.2228 -0.6244 -2.3646
 9276SOL     OW39460   1.060   4.261  15.967 -0.5092 -0.1753 -0.4623
 9276SOL    HW139461   0.994   4.221  15.910 -1.1360 -1.3924  1.1114
 9276SOL    HW239462   1.096   4.180  16.003 -1.4609  0.2585  1.4706
 9277SOL     OW39463   2.710   4.245   5.217 -0.3006 -0.5784  0.2054
 9277SOL    HW139464   2.629   4.289   5.191  1.3034  1.2420 -1.6785
 9277SOL    HW239465   2.726   4.291   5.299  0.5117 -2.1334  0.9153
 9278SOL     OW39466   3.297   2.671  11.502  0.3700 -0.1726 -0.4633
 9278SOL    HW139467   3.345   2.617  11.439 -2.2470  0.0818 -2.7129
 9278SOL    HW239468   3.331   2.760  11.504 -0.2165 -0.0113  1.9749
 9279SOL     OW39469   0.793   0.793   9.678 -0.5592  0.0733  0.7214
 9279SOL    HW139470   0.813   0.795   9.584 -0.9579 -1.9624  0.5781
 9279SOL    HW239471   0.779   0.699   9.693  0.4433 -0.6066 -2.4201
 9280SOL     OW39472   2.176   4.026   9.791  0.4800 -0.5957 -0.6350
 9280SOL    HW139473   2.257   4.064   9.758 -0.5758  0.8889 -1.5148
 9280SOL    HW239474   2.177   4.046   9.885 -1.1823 -1.1153 -0.5121
 9281SOL     OW39475   2.398   3.181   6.148  0.5135  0.2558  0.7112
 9281SOL    HW139476   2.491   3.161   6.146  0.3580 -0.4051  0.2560
 9281SOL    HW239477   2.374   3.107   6.093  2.4839  1.0001 -1.1662
 9282SOL     OW39478   3.675   0.565  15.480  0.3285 -0.1422 -0.2049
 9282SOL    HW139479   3.663   0.581  15.574 -1.8343  3.5548 -1.0859
 9282SOL    HW239480   3.610   0.628  15.450  0.3419  1.2996  2.7940
 9283SOL     OW39481   3.023   2.513   1.873 -0.2422  0.0517 -0.4522
 9283SOL    HW139482   2.977   2.597   1.863 -0.6489 -0.1505 -0.2697
 9283SOL    HW239483   3.030   2.483   1.783 -0.3781  0.6956 -0.6781
 9284SOL     OW39484   0.723   0.295   9.128 -0.4157  0.9587 -0.5325
 9284SOL    HW139485   0.761   0.363   9.183 -3.4320  0.8574  1.6769
 9284SOL    HW239486   0.628   0.302   9.141 -0.3168  0.4716  0.4316
 9285SOL     OW39487   3.809   1.749  14.764  0.3962  0.0913 -0.0166
 9285SOL    HW139488   3.888   1.748  14.711 -0.5115 -2.0905 -1.3056
 9285SOL    HW239489   3.818   1.673  14.822 -1.0107 -0.7428 -0.8772
 9286SOL     OW39490   2.441   3.949   5.094 -0.4256  0.5429  0.4465
 9286SOL    HW139491   2.524   3.908   5.116 -0.3966  1.3102  1.7681
 9286SOL    HW239492   2.398   3.873   5.054  0.1176 -0.5089  1.8864
 9287SOL     OW39493   4.606   3.396   0.722 -0.5977 -0.5924 -0.1364
 9287SOL    HW139494   4.558   3.470   0.685 -0.6591 -0.1060  0.9185
 9287SOL    HW239495   4.577   3.322   0.668  1.5863 -1.1144 -0.6013
 9288SOL     OW39496   4.399   0.196   9.001 -0.5017  0.4821 -0.4337
 9288SOL    HW139497   4.308   0.220   9.016 -0.4750  0.3868 -0.1155
 9288SOL    HW239498   4.392   0.183   8.906  2.2318  0.6071 -0.6609
 9289SOL     OW39499   3.243   1.201   4.368  0.0871 -0.0270 -0.2430
 9289SOL    HW139500   3.216   1.112   4.388  1.5092 -0.0480  1.6416
 9289SOL    HW239501   3.334   1.210   4.397  0.5446  0.0737 -1.6898
 9290SOL     OW39502   3.697   3.882  17.643 -0.1409 -0.5673  0.7678
 9290SOL    HW139503   3.779   3.857  17.685 -0.7021  0.7109  2.6419
 9290SOL    HW239504   3.732   3.959  17.598 -1.2863  0.9018  2.4119
 9291SOL     OW39505   4.175   0.052   5.393 -0.1691 -0.0123 -0.2176
 9291SOL    HW139506   4.259   0.065   5.437 -0.5166 -0.0575  0.4597
 9291SOL    HW239507   4.166   0.134   5.345  0.4365  0.9246  1.2620
 9292SOL     OW39508   3.995   0.613   7.539 -0.0013 -0.1837  0.6574
 9292SOL    HW139509   3.925   0.672   7.567  1.9762  1.3746  2.3209
 9292SOL    HW239510   4.004   0.561   7.619 -0.3025 -1.1502  0.0652
 9293SOL     OW39511   3.623   0.455   6.302 -0.1724 -0.3521  0.4303
 9293SOL    HW139512   3.640   0.456   6.208 -1.0614  0.7156  0.2813
 9293SOL    HW239513   3.562   0.528   6.311 -0.4511 -0.5564  0.1832
 9294SOL     OW39514   2.772   0.827  14.412 -0.2728  0.0866 -0.2851
 9294SOL    HW139515   2.708   0.890  14.445 -1.2896 -0.4547 -1.2142
 9294SOL    HW239516   2.761   0.838  14.317 -1.0387  2.1356  0.0397
 9295SOL     OW39517   1.128   2.957   8.750 -0.1243  0.1659 -0.2624
 9295SOL    HW139518   1.216   2.927   8.729 -0.3735  0.5324 -1.8396
 9295SOL    HW239519   1.126   3.040   8.703 -2.0569  0.6132  0.6003
 9296SOL     OW39520   1.085   0.543  16.748 -0.1444  0.5394 -0.3842
 9296SOL    HW139521   1.108   0.524  16.657  0.8322 -0.0278 -0.0130
 9296SOL    HW239522   0.991   0.529  16.759 -0.0184 -0.2416 -0.2521
 9297SOL     OW39523   3.431   2.557   8.879 -0.5814 -0.1449  0.3050
 9297SOL    HW139524   3.463   2.486   8.934 -0.7843 -0.1404  0.4267
 9297SOL    HW239525   3.420   2.619   8.951  1.6446 -0.1499  0.6588
 9298SOL     OW39526   3.677   1.739   9.841 -0.3796 -0.3569  0.0548
 9298SOL    HW139527   3.736   1.691   9.783  1.1287  0.6486  0.7644
 9298SOL    HW239528   3.645   1.665   9.894 -0.2452  0.0691  0.7226
 9299SOL     OW39529   4.268   2.948   3.252  0.5050 -0.4276 -0.6312
 9299SOL    HW139530   4.289   3.012   3.184  0.4772  1.0156  0.7131
 9299SOL    HW239531   4.252   2.873   3.196  0.6907  1.0719 -2.7035
 9300SOL     OW39532   2.939   1.965   5.836  0.8721 -0.2243  0.4273
 9300SOL    HW139533   2.951   2.049   5.880  0.8580 -0.3292  0.6327
 9300SOL    HW239534   3.027   1.931   5.821 -0.1665 -2.2647 -1.0118
 9301SOL     OW39535   3.471   2.187   5.380  0.0319 -0.9531  0.2111
 9301SOL    HW139536   3.519   2.267   5.358 -2.1170  0.0697 -0.7244
 9301SOL    HW239537   3.533   2.148   5.442  0.4006 -0.7998 -0.0566
 9302SOL     OW39538   2.568   4.509  13.011 -0.2996 -0.4573  0.1414
 9302SOL    HW139539   2.503   4.540  12.948  0.2607 -0.5918 -0.5042
 9302SOL    HW239540   2.586   4.426  12.967  0.2527  0.1557 -0.7792
 9303SOL     OW39541   2.868   0.842   9.943 -0.6152  0.5146  0.0207
 9303SOL    HW139542   2.779   0.818   9.915  0.0135  0.0138 -1.5328
 9303SOL    HW239543   2.850   0.866  10.034  1.0829  0.2484  0.4212
 9304SOL     OW39544   4.534   2.983   4.136 -0.0588 -0.3572 -0.2601
 9304SOL    HW139545   4.546   2.903   4.188 -0.7384 -0.1936  0.1475
 9304SOL    HW239546   4.534   2.937   4.052 -0.8585  1.4282 -1.2326
 9305SOL     OW39547   4.520   1.575  16.053  0.3435  0.2374  0.6148
 9305SOL    HW139548   4.493   1.660  16.087 -0.8550  0.4246 -0.7782
 9305SOL    HW239549   4.615   1.583  16.045  0.3501 -1.5495 -1.0243
 9306SOL     OW39550   1.109   2.812  11.795 -0.7892  0.4490 -0.5458
 9306SOL    HW139551   1.115   2.825  11.700 -0.0108  1.2516 -0.3906
 9306SOL    HW239552   1.198   2.839  11.818 -0.6221  0.0366 -0.7085
 9307SOL     OW39553   4.328   2.055   3.176  0.2160  0.1425 -0.3866
 9307SOL    HW139554   4.304   2.072   3.085 -1.4575 -1.5878 -0.2749
 9307SOL    HW239555   4.290   2.134   3.216 -1.1523 -1.5195  1.6082
 9308SOL     OW39556   4.691   4.037   4.805  0.2690  0.1603 -0.5829
 9308SOL    HW139557   0.023   4.091   4.853  1.2992 -1.3973 -0.2014
 9308SOL    HW239558   4.726   3.950   4.826  0.1402 -0.7783 -4.3224
 9309SOL     OW39559   1.113   0.502  12.611  0.2973 -0.6732 -0.2650
 9309SOL    HW139560   1.153   0.415  12.615  0.3035 -0.6618 -0.0868
 9309SOL    HW239561   1.065   0.513  12.693 -2.3657  0.0117 -1.9222
 9310SOL     OW39562   4.153   1.743  13.307 -0.0298 -0.9612 -0.6488
 9310SOL    HW139563   4.120   1.749  13.217 -1.5574  0.8774  0.0245
 9310SOL    HW239564   4.191   1.655  13.311  1.4473 -0.3822 -1.8146
 9311SOL     OW39565   1.869   4.715   9.776  0.1048 -0.2091 -0.9528
 9311SOL    HW139566   1.802   4.648   9.762  0.0469 -0.1638 -0.8873
 9311SOL    HW239567   1.941   4.669   9.820 -0.8979  0.2199  1.0861
 9312SOL     OW39568   2.375   3.541   4.345 -0.8870  0.0722 -0.0463
 9312SOL    HW139569   2.466   3.515   4.354 -1.2352 -0.3481  2.3988
 9312SOL    HW239570   2.347   3.465   4.295  0.9081 -0.8962  0.4312
 9313SOL     OW39571   2.889   4.338   0.847  0.2707 -0.2484  0.2698
 9313SOL    HW139572   2.845   4.269   0.797 -0.7355  0.7222 -0.2030
 9313SOL    HW239573   2.825   4.349   0.918 -1.3533  1.4559 -1.4387
 9314SOL     OW39574   3.306   1.848  13.853  0.0186 -0.6280  0.1813
 9314SOL    HW139575   3.254   1.857  13.934 -0.9105 -0.3360 -0.4521
 9314SOL    HW239576   3.258   1.773  13.817  0.2208 -0.1027 -1.1755
 9315SOL     OW39577   2.880   3.776  12.322 -0.0636 -0.0107 -0.0631
 9315SOL    HW139578   2.825   3.749  12.249  0.1974  0.4856 -0.4415
 9315SOL    HW239579   2.875   3.871  12.311 -0.5416 -0.1845 -1.2629
 9316SOL     OW39580   3.974   1.785  13.505 -1.0242 -0.6500 -0.7844
 9316SOL    HW139581   4.023   1.808  13.426  0.6370 -2.6461 -0.3631
 9316SOL    HW239582   3.993   1.691  13.509  1.5941 -0.0273  1.5009
 9317SOL     OW39583   0.954   0.266   6.926  0.6453 -0.5071 -0.0844
 9317SOL    HW139584   0.913   0.211   6.992 -1.1451  1.0596  0.1209
 9317SOL    HW239585   1.008   0.202   6.880  0.9744 -0.6468  0.5038
 9318SOL     OW39586   0.881   4.201  15.106  0.0406  0.0746 -0.5195
 9318SOL    HW139587   0.925   4.140  15.165 -0.5061 -1.3504 -1.5952
 9318SOL    HW239588   0.956   4.228  15.053  0.5477 -0.0738  0.1134
 9319SOL     OW39589   1.476   2.861  12.148  0.9027 -0.0462  0.0617
 9319SOL    HW139590   1.570   2.850  12.157  0.8855 -0.8287 -0.6177
 9319SOL    HW239591   1.449   2.834  12.236  3.3384 -1.0200  0.5149
 9320SOL     OW39592   1.814   2.797   1.316  0.1973 -0.2390  0.1115
 9320SOL    HW139593   1.817   2.811   1.221 -5.6612 -0.7140 -0.1699
 9320SOL    HW239594   1.905   2.783   1.342  0.7327  0.0546 -1.6164
 9321SOL     OW39595   3.657   4.389   2.509 -0.3557 -0.2661  0.3506
 9321SOL    HW139596   3.675   4.344   2.426  0.7346 -0.9197  0.9519
 9321SOL    HW239597   3.722   4.459   2.513 -1.7397  0.7778  3.9400
 9322SOL     OW39598   0.148   0.113   1.531 -0.0428  1.2222  0.0907
 9322SOL    HW139599   0.113   0.119   1.442 -0.7477 -0.4456  0.2733
 9322SOL    HW239600   0.071   0.155   1.570  0.3895  2.2016 -0.1077
 9323SOL     OW39601   3.018   0.263   4.776  0.2547 -0.2986 -0.0173
 9323SOL    HW139602   2.984   0.179   4.747  0.7706 -1.0788  1.6623
 9323SOL    HW239603   2.957   0.273   4.849 -0.3233  4.6792 -1.1514
 9324SOL     OW39604   0.496   3.536   7.002  0.3680  0.0180 -0.0688
 9324SOL    HW139605   0.457   3.620   7.025 -0.4420 -0.0230 -1.3048
 9324SOL    HW239606   0.412   3.491   7.001  0.0619  0.5687  1.2394
 9325SOL     OW39607   1.821   0.056   8.261 -0.2033 -0.0307 -0.0873
 9325SOL    HW139608   1.856   0.112   8.191 -0.1259  0.2384  0.1656
 9325SOL    HW239609   1.889   0.042   8.327 -1.4876 -1.0333  0.9927
 9326SOL     OW39610   0.777   4.667  12.239 -0.1399 -0.0543 -0.9235
 9326SOL    HW139611   0.869   4.653  12.214 -0.2028 -1.0810 -0.5982
 9326SOL    HW239612   0.742   0.001  12.179 -0.3782  0.3136 -0.3790
 9327SOL     OW39613   0.687   2.971  11.321  0.3652  0.1416  0.0389
 9327SOL    HW139614   0.715   3.055  11.358  0.6539 -0.1355  0.4570
 9327SOL    HW239615   0.611   2.947  11.374 -0.4973  1.1607 -0.7430
 9328SOL     OW39616   3.763   1.964   3.847 -0.1437 -0.4291  1.0284
 9328SOL    HW139617   3.778   1.884   3.897 -2.0099 -0.8368  0.9158
 9328SOL    HW239618   3.698   1.929   3.787 -1.1339  0.0676  1.8063
 9329SOL     OW39619   3.522   1.341   4.944 -0.2032  0.1219  0.4497
 9329SOL    HW139620   3.476   1.332   5.028 -0.5588 -0.5378  0.1787
 9329SOL    HW239621   3.459   1.300   4.885 -1.1551  1.6339  0.4159
 9330SOL     OW39622   2.852   0.389  12.970  0.4232  0.2073  0.0576
 9330SOL    HW139623   2.767   0.382  13.015  0.3085 -2.3812 -0.5932
 9330SOL    HW239624   2.827   0.419  12.883 -0.0511 -1.0677 -0.2531
 9331SOL     OW39625   2.749   2.155   9.470  0.3762 -0.8703 -0.2054
 9331SOL    HW139626   2.796   2.217   9.415  1.7001 -1.6857  0.0195
 9331SOL    HW239627   2.825   2.126   9.520  0.8114 -0.2069 -0.4931
 9332SOL     OW39628   0.470   2.548   4.499  0.2138  0.4075 -0.7342
 9332SOL    HW139629   0.529   2.497   4.443  1.2415 -1.4144  2.0036
 9332SOL    HW239630   0.394   2.561   4.443  0.0540  0.7216 -0.4398
 9333SOL     OW39631   1.713   1.567   5.657  0.4713 -0.2112 -0.1658
 9333SOL    HW139632   1.635   1.596   5.705  0.0122  1.7180 -2.1008
 9333SOL    HW239633   1.672   1.495   5.609  1.1617 -1.1527  0.6616
 9334SOL     OW39634   1.110   1.066   5.033 -0.4755 -0.1914 -0.5057
 9334SOL    HW139635   1.144   1.015   5.106 -2.2038 -2.0715 -1.0444
 9334SOL    HW239636   1.043   1.010   4.995  0.5627 -2.5235  1.0969
 9335SOL     OW39637   4.075   4.376  16.019 -0.1543 -0.3842  0.2324
 9335SOL    HW139638   4.129   4.360  15.942 -0.9460 -1.0224 -0.1821
 9335SOL    HW239639   4.137   4.422  16.076 -0.6455 -0.4730  0.8394
 9336SOL     OW39640   1.602   0.131   5.319 -0.5890  0.3667 -0.0270
 9336SOL    HW139641   1.565   0.081   5.247  0.0297 -1.9503  1.2607
 9336SOL    HW239642   1.622   0.052   5.370 -2.0358  0.0934  0.1120
 9337SOL     OW39643   0.456   1.641   6.774 -0.4035  0.0622 -0.0859
 9337SOL    HW139644   0.383   1.668   6.717 -1.2250  0.8497  1.3382
 9337SOL    HW239645   0.412   1.564   6.810 -1.6540  1.4706  1.3953
 9338SOL     OW39646   0.662   1.065   9.678 -0.3346  0.2555 -1.0237
 9338SOL    HW139647   0.752   1.032   9.673 -0.4603 -0.1800 -0.4778
 9338SOL    HW239648   0.678   1.156   9.653  0.4562  0.4358  0.1559
 9339SOL     OW39649   4.522   1.598   1.398  0.2885  0.4949 -0.4077
 9339SOL    HW139650   4.457   1.628   1.462 -0.0527  0.9625 -0.9775
 9339SOL    HW239651   4.596   1.651   1.426 -0.1798  1.1885 -0.4717
 9340SOL     OW39652   0.558   1.724  17.074  0.1129 -0.4053  0.2539
 9340SOL    HW139653   0.474   1.735  17.031 -0.0767 -1.4852  0.3295
 9340SOL    HW239654   0.538   1.779  17.149 -0.6996 -2.2333  1.3766
 9341SOL     OW39655   4.424   3.632   2.997  0.1836 -0.0292  0.2433
 9341SOL    HW139656   4.506   3.638   3.046 -1.0397  0.7778  2.1882
 9341SOL    HW239657   4.366   3.578   3.050  0.6053 -0.8075 -0.1010
 9342SOL     OW39658   3.348   3.414   5.557  0.0610  0.5120  0.7210
 9342SOL    HW139659   3.426   3.466   5.543 -0.3072  1.3786  1.9600
 9342SOL    HW239660   3.273   3.474   5.554  0.1977  0.7275  1.7375
 9343SOL     OW39661   2.917   2.619   6.956 -0.0206  0.2832 -0.8044
 9343SOL    HW139662   2.991   2.645   7.011 -2.3617  3.0320  1.0002
 9343SOL    HW239663   2.922   2.524   6.967 -1.1441  0.3378  0.1187
 9344SOL     OW39664   3.582   0.005   7.427 -0.3840  0.0027  0.5348
 9344SOL    HW139665   3.524   4.705   7.496 -0.9620  0.0539  0.0712
 9344SOL    HW239666   3.614   0.083   7.471  0.6232 -0.5124  0.7201
 9345SOL     OW39667   1.900   1.247   6.113 -0.1754 -0.6994  0.5868
 9345SOL    HW139668   1.893   1.216   6.203  1.8299  0.9063  1.2994
 9345SOL    HW239669   1.968   1.195   6.069  1.0523  0.1565  1.4708
 9346SOL     OW39670   2.097   2.708  12.903  0.3915 -0.5168  0.0200
 9346SOL    HW139671   2.186   2.672  12.900  0.5400 -0.1897  0.5322
 9346SOL    HW239672   2.103   2.732  12.995 -0.2799 -0.0605 -0.0585
 9347SOL     OW39673   3.215   0.967   4.687  0.2065 -0.5793  0.0128
 9347SOL    HW139674   3.205   0.949   4.594  0.6992  1.8798 -0.5083
 9347SOL    HW239675   3.130   1.002   4.714 -0.4395 -2.0100 -0.1582
 9348SOL     OW39676   2.086   3.648  12.967  0.7393  0.9759  0.1412
 9348SOL    HW139677   2.090   3.558  12.935  1.4164  1.2714 -0.6104
 9348SOL    HW239678   1.991   3.659  12.964  0.5871  0.7271  3.5085
 9349SOL     OW39679   1.598   3.615   8.360 -0.0894  0.0745 -0.2140
 9349SOL    HW139680   1.671   3.613   8.422 -0.3329  3.3554  0.1343
 9349SOL    HW239681   1.645   3.658   8.289  0.8937 -1.6183 -0.6136
 9350SOL     OW39682   2.577   3.007   6.437  0.1875  0.1081 -0.3481
 9350SOL    HW139683   2.661   2.967   6.461 -0.6317 -1.0869  0.5474
 9350SOL    HW239684   2.609   3.097   6.446  0.5948 -0.0432 -0.2617
 9351SOL     OW39685   1.159   0.183  16.963 -0.0740  0.2811 -0.3588
 9351SOL    HW139686   1.124   0.195  16.875 -1.7340 -1.1614  0.1031
 9351SOL    HW239687   1.244   0.225  16.954  1.4020 -2.1550  2.0256
 9352SOL     OW39688   4.292   2.667   4.537  0.2057 -0.1245 -0.3028
 9352SOL    HW139689   4.266   2.681   4.446 -3.2034  0.0128  0.7056
 9352SOL    HW239690   4.302   2.572   4.533 -1.0646 -0.3187  1.1734
 9353SOL     OW39691   2.738   0.874   1.943  0.1464  0.0593  0.3580
 9353SOL    HW139692   2.691   0.838   2.018  0.5128  0.3564  0.7309
 9353SOL    HW239693   2.688   0.954   1.926 -0.6282 -0.0406  2.1399
 9354SOL     OW39694   4.394   3.241   4.744 -0.0581 -0.2229  0.2166
 9354SOL    HW139695   4.462   3.287   4.794 -0.9315  1.1431  0.1410
 9354SOL    HW239696   4.357   3.318   4.702  2.0421  1.6195  1.7539
 9355SOL     OW39697   3.975   3.133   1.659 -0.1952 -0.0019 -0.2343
 9355SOL    HW139698   3.973   3.062   1.723  0.6705  0.1527 -0.0309
 9355SOL    HW239699   4.054   3.115   1.609  0.2113 -0.8690  0.7330
 9356SOL     OW39700   3.615   4.515   5.599 -0.0944  0.3845  0.5768
 9356SOL    HW139701   3.574   4.600   5.583 -0.6203  0.0225 -0.0296
 9356SOL    HW239702   3.539   4.457   5.601 -0.5250  0.9826  1.3658
 9357SOL     OW39703   0.072   2.651   7.921  0.5726 -0.5028  0.0722
 9357SOL    HW139704   4.713   2.678   7.934  0.9558  1.6774 -1.7804
 9357SOL    HW239705   0.088   2.689   7.835  0.8877 -0.1379  0.2932
 9358SOL     OW39706   1.048   0.607   4.336 -0.2356 -0.2188 -0.1800
 9358SOL    HW139707   1.093   0.646   4.411 -0.3318 -0.6129  0.0901
 9358SOL    HW239708   1.101   0.529   4.322 -0.1453 -0.3561  0.9363
 9359SOL     OW39709   2.526   3.050   0.422 -0.0581 -0.8713  0.3676
 9359SOL    HW139710   2.464   3.054   0.349  0.7932  0.4581 -0.3017
 9359SOL    HW239711   2.473   3.019   0.495 -0.8965  0.4879  0.3326
 9360SOL     OW39712   2.532   2.609   3.628  0.3311  0.1913  0.0155
 9360SOL    HW139713   2.628   2.605   3.625  0.2377 -3.1059  1.0278
 9360SOL    HW239714   2.514   2.702   3.623 -0.2319  0.1263  0.8823
 9361SOL     OW39715   0.794   3.065   9.393  0.0557 -0.1113 -0.3720
 9361SOL    HW139716   0.815   3.157   9.378  0.1575 -0.2892 -1.3328
 9361SOL    HW239717   0.878   3.020   9.395 -0.0310 -0.2180  0.7844
 9362SOL     OW39718   3.788   1.013   8.787 -0.0098 -0.1849  0.1015
 9362SOL    HW139719   3.866   1.068   8.798  0.2180 -0.8649  1.9287
 9362SOL    HW239720   3.816   0.924   8.767  1.5553  0.1651  0.7079
 9363SOL     OW39721   4.286   3.242   8.479  0.3105  0.1528 -0.5800
 9363SOL    HW139722   4.237   3.163   8.499 -2.3097  2.0750  0.4905
 9363SOL    HW239723   4.212   3.302   8.485  0.2314 -0.1216  1.2372
 9364SOL     OW39724   4.357   0.071  15.678 -0.4567 -0.1746 -0.0043
 9364SOL    HW139725   4.366   0.113  15.763  0.2586 -0.1957 -0.0673
 9364SOL    HW239726   4.333   0.145  15.622  3.3600  0.8512 -0.3083
 9365SOL     OW39727   2.713   0.547   8.288 -0.2881 -0.1945  0.6675
 9365SOL    HW139728   2.748   0.482   8.228 -0.2484  2.5654 -2.2921
 9365SOL    HW239729   2.773   0.619   8.270 -2.2437  1.4095  0.5702
 9366SOL     OW39730   3.391   3.484   5.907 -0.1638  0.2366  0.0872
 9366SOL    HW139731   3.368   3.409   5.962  1.0503 -0.0811  0.1593
 9366SOL    HW239732   3.385   3.438   5.823 -3.0165  3.5578 -1.5142
 9367SOL     OW39733   4.418   2.420   1.768  0.0744  0.2842  0.1863
 9367SOL    HW139734   4.437   2.490   1.831 -2.2901 -0.0745  1.2749
 9367SOL    HW239735   4.487   2.355   1.780 -1.0035 -0.9603 -0.5229
 9368SOL     OW39736   3.166   0.572   3.891 -0.1768 -0.0377  0.1500
 9368SOL    HW139737   3.104   0.644   3.907 -2.7339 -2.0540 -0.6394
 9368SOL    HW239738   3.230   0.619   3.838 -0.0675  1.7184  1.8042
 9369SOL     OW39739   0.849   0.199   1.960  0.3238  0.7927  0.4012
 9369SOL    HW139740   0.830   0.205   1.867  0.2781 -1.6890  0.2333
 9369SOL    HW239741   0.852   0.292   1.979  0.4454  1.4501 -2.8862
 9370SOL     OW39742   4.716   3.034   4.449  0.3042  0.3292  0.1256
 9370SOL    HW139743   4.686   3.100   4.386 -4.5416 -0.9537  1.0546
 9370SOL    HW239744   4.666   3.057   4.527 -0.4041 -0.3433 -0.1288
 9371SOL     OW39745   0.211   0.957   5.222 -0.2228 -0.7327 -0.0946
 9371SOL    HW139746   0.192   0.949   5.128 -1.7092 -0.4429  0.1887
 9371SOL    HW239747   0.181   1.048   5.227 -2.4319 -1.5018  0.4975
 9372SOL     OW39748   2.457   3.924   2.498  0.7018 -0.0703  0.3046
 9372SOL    HW139749   2.526   3.926   2.564  0.2419 -3.1830  0.8516
 9372SOL    HW239750   2.493   3.872   2.426 -1.0270 -0.5051 -0.2248
 9373SOL     OW39751   0.583   0.457   9.427 -0.1598 -0.4429 -0.4624
 9373SOL    HW139752   0.595   0.552   9.436  1.6805 -0.7596  0.2658
 9373SOL    HW239753   0.670   0.420   9.418  0.7799  1.9716 -1.2141
 9374SOL     OW39754   1.010   1.370   1.482  0.2619  0.5693 -0.4146
 9374SOL    HW139755   0.994   1.278   1.466  0.2207  0.3270  0.9721
 9374SOL    HW239756   0.954   1.421   1.424  0.6893  0.3230 -1.0399
 9375SOL     OW39757   1.220   3.066   7.859 -0.1001  0.1647  0.2675
 9375SOL    HW139758   1.231   3.161   7.855  2.5218 -0.1377  0.2504
 9375SOL    HW239759   1.256   3.030   7.778  0.9407  0.9395  0.3962
 9376SOL     OW39760   3.082   3.308  14.324  0.2031  0.4153 -0.1444
 9376SOL    HW139761   3.105   3.401  14.322  1.8191  0.0323  1.2138
 9376SOL    HW239762   3.011   3.294  14.261 -0.2623  1.2745  0.1873
 9377SOL     OW39763   2.717   3.883   3.022 -0.0225 -0.3574 -0.4947
 9377SOL    HW139764   2.789   3.941   2.998  0.3280 -0.0611  1.3161
 9377SOL    HW239765   2.731   3.880   3.117 -0.5222 -1.2769 -0.4481
 9378SOL     OW39766   1.033   1.186   1.755 -0.0639  0.2068  0.3039
 9378SOL    HW139767   1.108   1.207   1.811  1.1647 -0.5726 -1.0479
 9378SOL    HW239768   1.063   1.211   1.667  0.4856 -0.0618  0.4139
 9379SOL     OW39769   0.597   4.064  12.243 -0.2424  0.3099 -0.8282
 9379SOL    HW139770   0.683   4.099  12.267 -0.3863  0.6014 -0.7328
 9379SOL    HW239771   0.553   4.145  12.216  0.3380  0.7071 -0.5804
 9380SOL     OW39772   4.430   3.854   5.103  0.3524 -0.1066  0.3859
 9380SOL    HW139773   4.348   3.810   5.127 -0.3016  0.2199 -1.2332
 9380SOL    HW239774   4.453   3.801   5.027 -1.2169  1.8373 -1.4374
 9381SOL     OW39775   3.843   3.304   6.394 -0.0886 -0.1191 -0.1293
 9381SOL    HW139776   3.929   3.326   6.358 -0.0793 -1.5158 -0.9378
 9381SOL    HW239777   3.852   3.351   6.477 -1.1091  0.0671 -0.1229
 9382SOL     OW39778   1.666   4.108   9.665 -0.3186  0.0187 -0.3029
 9382SOL    HW139779   1.692   4.176   9.727 -0.9874  1.6545 -1.8175
 9382SOL    HW239780   1.641   4.040   9.727  2.1536  0.3766  1.0780
 9383SOL     OW39781   0.473   2.236   6.389  0.1473  0.1423  0.2904
 9383SOL    HW139782   0.505   2.284   6.312 -0.7497  1.1465  0.5453
 9383SOL    HW239783   0.426   2.313   6.419  0.8706  0.2690  1.0774
 9384SOL     OW39784   1.914   4.453   3.311 -0.3930  0.4993  0.2641
 9384SOL    HW139785   1.847   4.484   3.373 -1.5430 -0.4636 -0.5000
 9384SOL    HW239786   1.919   4.523   3.246 -2.9769  2.5018  2.2161
 9385SOL     OW39787   0.227   1.885   9.736  0.2478  0.4047  0.4250
 9385SOL    HW139788   0.270   1.962   9.775 -3.2042  1.2580  2.6055
 9385SOL    HW239789   0.248   1.816   9.798  0.9305  1.6953  1.6447
 9386SOL     OW39790   3.280   3.284  16.593 -0.0975  0.5624  0.4042
 9386SOL    HW139791   3.267   3.358  16.534 -0.2453  0.4154  0.2525
 9386SOL    HW239792   3.331   3.228  16.535 -0.7452  2.1119 -1.6548
 9387SOL     OW39793   0.627   0.567   2.695  0.2018 -0.1214  0.3613
 9387SOL    HW139794   0.550   0.552   2.641 -0.1917 -0.0648  0.9111
 9387SOL    HW239795   0.668   0.481   2.687 -1.4976 -1.0442  1.4858
 9388SOL     OW39796   1.015   1.562   7.516  0.3219  0.5970 -0.2036
 9388SOL    HW139797   1.034   1.656   7.514 -2.1826  1.0595 -1.5138
 9388SOL    HW239798   1.051   1.554   7.604  0.9082 -1.1904 -0.6049
 9389SOL     OW39799   0.917   3.974   0.717 -0.3639 -0.5093 -0.5546
 9389SOL    HW139800   0.970   3.940   0.645  0.0939  1.6910 -1.2520
 9389SOL    HW239801   0.989   4.017   0.762  0.2643 -2.1769  0.0430
 9390SOL     OW39802   0.173   0.933   4.437  0.2636 -0.1466  0.5034
 9390SOL    HW139803   0.177   0.908   4.529 -1.7975 -0.6024  0.4676
 9390SOL    HW239804   0.109   1.003   4.445 -0.5388 -0.8412  0.1184
 9391SOL     OW39805   3.786   2.983  12.537 -0.4958  0.0398  0.3371
 9391SOL    HW139806   3.823   2.907  12.493  1.1858  0.8425  0.3545
 9391SOL    HW239807   3.721   2.929  12.581  0.1925 -1.2908 -0.2713
 9392SOL     OW39808   0.229   1.708   5.084  0.3554  0.5653 -0.0161
 9392SOL    HW139809   0.245   1.716   5.178  1.7154  0.7246 -0.2645
 9392SOL    HW239810   0.194   1.619   5.081  1.4725  0.1235  0.1708
 9393SOL     OW39811   3.515   2.172   4.250 -0.0424  0.0645 -0.3750
 9393SOL    HW139812   3.423   2.175   4.224 -0.0308 -0.3049 -0.4656
 9393SOL    HW239813   3.520   2.088   4.296 -0.3051  2.8267  4.6435
 9394SOL     OW39814   4.610   1.417  12.266  0.1536  0.2905  0.5496
 9394SOL    HW139815   4.549   1.488  12.287 -1.9429 -1.3581  0.0366
 9394SOL    HW239816   4.682   1.467  12.225  0.9070 -1.7620 -0.6154
 9395SOL     OW39817   0.425   2.856   3.494  0.1537 -0.5333  0.1996
 9395SOL    HW139818   0.490   2.791   3.521  0.6684  0.3326  1.0729
 9395SOL    HW239819   0.388   2.810   3.419  0.0689  0.8457 -0.6163
 9396SOL     OW39820   1.205   1.765   4.184  0.0345 -0.9580 -0.1228
 9396SOL    HW139821   1.223   1.843   4.237  0.2495  0.0314 -1.6583
 9396SOL    HW239822   1.227   1.801   4.098  1.1919  1.2169  1.0752
 9397SOL     OW39823   2.160   1.680   5.572 -0.1180  0.6071 -0.6306
 9397SOL    HW139824   2.139   1.767   5.606  1.6738  1.7564 -2.4832
 9397SOL    HW239825   2.230   1.704   5.511 -0.1158  2.2596  0.0183
 9398SOL     OW39826   1.480   2.784   9.462  0.1154  0.4013 -0.0859
 9398SOL    HW139827   1.389   2.761   9.441  1.0805 -2.0261 -1.6158
 9398SOL    HW239828   1.513   2.823   9.381 -2.0425  2.7772  0.1837
 9399SOL     OW39829   2.757   0.650   4.715  0.1116 -0.0703  0.1150
 9399SOL    HW139830   2.815   0.584   4.676  2.7456  2.3743 -0.0641
 9399SOL    HW239831   2.770   0.719   4.651 -0.2794  0.0268  0.1411
 9400SOL     OW39832   1.617   0.653   5.763  0.3863 -0.1704  0.2451
 9400SOL    HW139833   1.687   0.686   5.820  0.1095  0.1713  0.3926
 9400SOL    HW239834   1.662   0.650   5.679 -0.9831 -0.9413 -0.4702
 9401SOL     OW39835   2.067   1.976   1.383 -0.7280 -0.0733  0.2606
 9401SOL    HW139836   2.054   1.883   1.400 -0.8236 -0.2133 -0.5712
 9401SOL    HW239837   2.134   1.965   1.315 -1.8267  1.2585 -1.0271
 9402SOL     OW39838   1.999   4.218   7.518  0.1278 -0.1612  0.2097
 9402SOL    HW139839   1.996   4.124   7.498 -1.2967  0.2929 -1.6557
 9402SOL    HW239840   2.085   4.237   7.481  1.0351 -3.5900  0.5644
 9403SOL     OW39841   3.578   4.710   3.594  0.6772 -0.0148 -0.5862
 9403SOL    HW139842   3.492   4.682   3.628  0.0002  3.5532  0.6421
 9403SOL    HW239843   3.637   4.669   3.658 -0.1651  0.7896  0.7094
 9404SOL     OW39844   4.521   2.051   8.599  0.7623  0.2335  0.0945
 9404SOL    HW139845   4.464   2.083   8.529  0.9030  0.2191 -0.0281
 9404SOL    HW239846   4.516   1.958   8.577  0.2436  0.1416  0.6200
 9405SOL     OW39847   0.578   4.201   2.049 -0.0928 -0.0192 -0.5659
 9405SOL    HW139848   0.610   4.209   2.139 -1.5493 -1.2838  0.0737
 9405SOL    HW239849   0.559   4.107   2.049 -1.2017  0.1981  1.0224
 9406SOL     OW39850   3.827   1.484   7.180  0.3345  0.2338 -0.2720
 9406SOL    HW139851   3.848   1.440   7.262  1.7767  1.3837 -0.0274
 9406SOL    HW239852   3.820   1.415   7.113 -0.5085  1.7945 -1.7771
 9407SOL     OW39853   4.134   3.557   7.556 -0.4894  0.1330  0.8630
 9407SOL    HW139854   4.150   3.598   7.641  1.0459  1.5696 -0.1291
 9407SOL    HW239855   4.045   3.586   7.536 -0.4318 -0.0215  0.3938
 9408SOL     OW39856   1.761   1.938   8.243  0.1959 -0.0830  0.5213
 9408SOL    HW139857   1.749   1.918   8.336  1.0929 -2.0845  0.1998
 9408SOL    HW239858   1.668   1.936   8.218  0.2810  2.5157 -0.0027
 9409SOL     OW39859   3.699   3.562   4.848  0.0583  0.5630 -0.2707
 9409SOL    HW139860   3.726   3.495   4.911  0.9592  0.6068 -0.6094
 9409SOL    HW239861   3.657   3.621   4.911  0.3561 -0.1435  0.5901
 9410SOL     OW39862   2.296   3.656   8.224 -0.2662 -0.6439  0.5273
 9410SOL    HW139863   2.253   3.708   8.292  0.2067  0.4990 -0.0563
 9410SOL    HW239864   2.219   3.621   8.180 -1.6961 -0.4558  2.8340
 9411SOL     OW39865   2.885   0.270   4.079 -0.2482 -0.3299  0.3655
 9411SOL    HW139866   2.836   0.326   4.019 -1.1650  2.1511  3.3997
 9411SOL    HW239867   2.958   0.327   4.103 -0.1680 -0.3040  0.0655
 9412SOL     OW39868   2.050   2.329  11.835  0.4350 -0.6962  0.0306
 9412SOL    HW139869   2.125   2.279  11.866  0.4468 -1.0621 -0.5853
 9412SOL    HW239870   2.085   2.367  11.755 -0.3580 -0.9000 -0.4103
 9413SOL     OW39871   0.285   3.622   1.680 -0.2954  0.7664 -0.6031
 9413SOL    HW139872   0.341   3.555   1.719 -1.0904 -0.3052 -1.3126
 9413SOL    HW239873   0.340   3.699   1.698  1.3285 -0.5151 -0.1044
 9414SOL     OW39874   1.901   3.389  12.605  0.7882 -0.4187  0.0609
 9414SOL    HW139875   1.988   3.398  12.566  0.8632  0.7284  0.5130
 9414SOL    HW239876   1.925   3.414  12.694 -0.8456  1.0727  0.0772
 9415SOL     OW39877   1.466   2.989   2.853 -1.0022 -0.1728  0.2555
 9415SOL    HW139878   1.527   2.927   2.814  0.5601  1.1005  0.6615
 9415SOL    HW239879   1.419   2.925   2.906 -1.2918 -0.1046  0.0815
 9416SOL     OW39880   2.770   2.053   6.865 -0.0023  0.4707 -0.5304
 9416SOL    HW139881   2.827   2.100   6.925  1.5109 -0.2535 -1.4174
 9416SOL    HW239882   2.840   2.009   6.816  0.0451 -0.4004  0.3228
 9417SOL     OW39883   1.319   0.191  16.252 -0.3216 -0.2986  0.1297
 9417SOL    HW139884   1.388   0.191  16.319  0.5205  1.0130 -0.7475
 9417SOL    HW239885   1.329   0.282  16.226 -3.0050  0.7891  2.9884
 9418SOL     OW39886   0.162   2.123  10.573 -0.5521  0.2141 -0.5030
 9418SOL    HW139887   0.103   2.050  10.591  0.4772 -0.6072 -0.4918
 9418SOL    HW239888   0.196   2.100  10.486 -0.3925  2.1106 -0.9416
 9419SOL     OW39889   1.232   2.415   5.564 -0.1496 -0.6226  0.0875
 9419SOL    HW139890   1.232   2.469   5.643 -0.0483 -0.6359  0.0957
 9419SOL    HW239891   1.309   2.432   5.510  1.8324 -0.7210  2.8884
 9420SOL     OW39892   3.000   0.022   4.024 -0.6300  0.6230  0.2693
 9420SOL    HW139893   2.973   0.113   4.042 -1.1880 -0.3211  4.2062
 9420SOL    HW239894   3.051   4.730   4.101 -0.3199  1.5727  0.3529
 9421SOL     OW39895   1.323   3.742   8.024  0.9948 -0.8531 -0.1059
 9421SOL    HW139896   1.326   3.721   7.931  0.9693  0.2291 -0.3544
 9421SOL    HW239897   1.338   3.837   8.024  0.4783 -0.7619  2.1552
 9422SOL     OW39898   1.261   4.224  12.394 -0.2745  0.3015 -0.0156
 9422SOL    HW139899   1.181   4.223  12.447 -0.1602  0.7522  0.1637
 9422SOL    HW239900   1.288   4.314  12.410 -1.0011  0.7775 -1.5069
 9423SOL     OW39901   0.016   0.181   5.601  0.2838  0.1827  0.2129
 9423SOL    HW139902   4.694   0.110   5.566  1.3933  0.5292 -2.1547
 9423SOL    HW239903   0.090   0.128   5.631  2.1466  3.9274  2.3059
 9424SOL     OW39904   0.867   1.438   3.172 -0.1948  0.5898 -0.6932
 9424SOL    HW139905   0.870   1.533   3.175 -0.8320  0.5810  0.0813
 9424SOL    HW239906   0.951   1.418   3.213 -0.6604  0.1273  0.0428
 9425SOL     OW39907   1.034   2.091   9.181 -0.5549 -0.2042 -0.5384
 9425SOL    HW139908   0.990   2.069   9.099 -2.2319 -0.9461  0.5703
 9425SOL    HW239909   0.999   2.017   9.229  0.0007 -0.9081 -1.1988
 9426SOL     OW39910   0.116   0.358   4.181  0.5897 -0.3579 -0.1916
 9426SOL    HW139911   0.098   0.435   4.234 -1.3482  0.2683 -1.7337
 9426SOL    HW239912   0.184   0.308   4.226  1.6032 -0.5742 -1.9579
 9427SOL     OW39913   2.882   2.001   4.802  0.6127 -0.1135 -0.6732
 9427SOL    HW139914   2.806   2.004   4.861  1.1830  0.5474  0.0235
 9427SOL    HW239915   2.882   1.909   4.775  2.7037  0.3242 -2.1401
 9428SOL     OW39916   1.290   3.792   7.034  0.6804  0.2234  0.1945
 9428SOL    HW139917   1.339   3.766   7.112  1.2722  1.0924  0.1036
 9428SOL    HW239918   1.285   3.703   6.998  1.1147  0.9951 -1.8041
 9429SOL     OW39919   0.303   2.454   6.332  0.1427  0.1441  0.2996
 9429SOL    HW139920   0.293   2.468   6.238  1.4427  3.3109  0.6410
 9429SOL    HW239921   0.310   2.543   6.366  0.1434  0.3495 -0.2367
 9430SOL     OW39922   0.029   2.460  13.088 -0.0263 -0.1493  1.1283
 9430SOL    HW139923   0.029   2.509  13.006 -0.6218 -1.5870  0.2643
 9430SOL    HW239924   4.671   2.427  13.077 -0.5693  1.6275  0.3606
 9431SOL     OW39925   1.511   0.249   6.244  0.0295  0.5376 -0.6570
 9431SOL    HW139926   1.505   0.166   6.197  0.3021  0.9127 -1.3514
 9431SOL    HW239927   1.463   0.301   6.180  0.6973  1.7010 -0.2172
 9432SOL     OW39928   2.772   2.273   2.402  0.4085  0.0713  0.3994
 9432SOL    HW139929   2.700   2.276   2.339  1.2904  0.8908 -0.5882
 9432SOL    HW239930   2.769   2.366   2.426 -0.2065  0.4076 -0.9719
 9433SOL     OW39931   4.076   1.750   8.031 -0.8073  0.0481  0.9022
 9433SOL    HW139932   4.115   1.782   7.950 -1.8337 -1.8081 -0.3389
 9433SOL    HW239933   4.067   1.659   8.002 -0.6381  0.1013  0.6859
 9434SOL     OW39934   2.219   2.019   8.709 -0.5580 -0.1861 -0.0467
 9434SOL    HW139935   2.172   2.050   8.632  1.3375  2.8019  0.0191
 9434SOL    HW239936   2.291   1.964   8.678 -0.7803 -0.3325 -0.3094
 9435SOL     OW39937   3.505   2.627   6.557 -0.3265  0.1163 -0.0998
 9435SOL    HW139938   3.548   2.543   6.576 -0.2806  0.5717  1.8028
 9435SOL    HW239939   3.505   2.620   6.462  0.3678 -0.7208 -0.0424
 9436SOL     OW39940   3.518   2.733   9.477  0.4092 -0.1004 -0.4345
 9436SOL    HW139941   3.488   2.642   9.476  2.2208 -0.6950  1.1777
 9436SOL    HW239942   3.550   2.737   9.567  0.8361 -0.2631 -0.5825
 9437SOL     OW39943   1.422   0.773  16.556  0.3665  0.3922  0.3143
 9437SOL    HW139944   1.393   0.741  16.642 -1.4944 -0.4362 -0.6363
 9437SOL    HW239945   1.383   0.718  16.489  2.9847 -0.4194 -0.5287
 9438SOL     OW39946   3.175   2.237   7.841 -0.1213  0.2283  1.1973
 9438SOL    HW139947   3.083   2.247   7.866 -0.3801  0.5692  0.1095
 9438SOL    HW239948   3.216   2.318   7.870  1.5702  0.4671 -1.9002
 9439SOL     OW39949   0.935   0.763   7.734 -0.6244 -0.3466 -0.4204
 9439SOL    HW139950   0.991   0.733   7.662  1.4683  2.9433 -0.1491
 9439SOL    HW239951   0.985   0.737   7.811  1.6587  1.2305 -1.3654
 9440SOL     OW39952   0.834   4.265   5.620 -0.2654  0.0302 -0.1120
 9440SOL    HW139953   0.823   4.347   5.572  0.3532 -0.5658 -1.2769
 9440SOL    HW239954   0.889   4.206   5.569  2.6534  3.4933 -0.8913
 9441SOL     OW39955   1.838   2.495   6.609  0.4987 -0.2759 -0.0493
 9441SOL    HW139956   1.873   2.406   6.607 -1.7513 -1.1808  0.5446
 9441SOL    HW239957   1.794   2.502   6.524  0.1929 -0.9266  0.0505
 9442SOL     OW39958   3.427   4.264   4.536  0.1939 -0.1357  0.0992
 9442SOL    HW139959   3.360   4.323   4.570 -1.4261 -1.5507 -0.6098
 9442SOL    HW239960   3.433   4.193   4.600  1.0868 -1.2455 -1.1935
 9443SOL     OW39961   0.446   1.261   4.030  0.4708  0.0661  0.0116
 9443SOL    HW139962   0.404   1.344   4.005 -0.5673 -0.0706  1.2828
 9443SOL    HW239963   0.418   1.266   4.121  1.7421 -0.5527  0.4364
 9444SOL     OW39964   1.946   3.683  12.621  0.1716 -0.6525  0.0465
 9444SOL    HW139965   1.885   3.724  12.560  1.1060 -0.3072 -0.6522
 9444SOL    HW239966   1.918   3.707  12.710 -2.0890  0.6213 -1.0111
 9445SOL     OW39967   2.880   4.689   5.477  1.0802  0.2714 -0.1390
 9445SOL    HW139968   2.805   4.637   5.448  1.6791 -0.2761 -0.7052
 9445SOL    HW239969   2.848   0.046   5.460 -1.5012 -1.0175 -2.0004
 9446SOL     OW39970   3.154   4.067  14.601  0.2942  0.1472 -0.2186
 9446SOL    HW139971   3.143   3.980  14.564 -0.9049  0.4401 -0.5547
 9446SOL    HW239972   3.166   4.117  14.520 -1.6597 -0.4768 -0.8867
 9447SOL     OW39973   2.618   3.939  11.224  0.2500 -0.3995  0.2925
 9447SOL    HW139974   2.602   3.884  11.147  2.7355 -0.4755 -0.1580
 9447SOL    HW239975   2.708   3.907  11.232 -0.3427 -2.3965 -0.7603
 9448SOL     OW39976   0.372   4.720  13.349 -0.4478  0.6553 -0.0752
 9448SOL    HW139977   0.424   0.016  13.273 -0.4381 -1.0309 -0.6718
 9448SOL    HW239978   0.293   0.040  13.329 -1.8045 -1.3237  0.1821
 9449SOL     OW39979   2.086   0.714   3.252 -0.1428  0.0990 -0.0267
 9449SOL    HW139980   2.034   0.795   3.261 -0.1420  0.0936  0.0249
 9449SOL    HW239981   2.049   0.672   3.174  2.9197 -2.7500  0.0501
 9450SOL     OW39982   0.355   4.477   1.877  0.1184 -0.0942  0.2191
 9450SOL    HW139983   0.291   4.520   1.934 -0.2229 -0.3556  0.0368
 9450SOL    HW239984   0.348   4.528   1.796  1.0474 -0.6449 -0.2069
 9451SOL     OW39985   4.574   2.535  16.037  0.3034  0.4196  0.2435
 9451SOL    HW139986   4.644   2.504  16.094 -0.9082 -0.3527  1.2879
 9451SOL    HW239987   4.632   2.584  15.978 -0.2048 -2.4671 -2.6299
 9452SOL     OW39988   2.955   1.031   6.228 -0.3070  1.2807  0.2609
 9452SOL    HW139989   2.955   1.060   6.137 -0.1801 -0.6542 -0.3485
 9452SOL    HW239990   2.862   1.035   6.253 -0.8014 -2.0627 -1.0614
 9453SOL     OW39991   0.569   3.796   0.231 -0.4908  0.1283  0.3354
 9453SOL    HW139992   0.568   3.710   0.190 -0.9245  1.0307 -1.5638
 9453SOL    HW239993   0.512   3.771   0.303  0.2776 -0.3460  0.7708
 9454SOL     OW39994   1.498   3.711  15.926 -0.1109  0.6256 -0.1566
 9454SOL    HW139995   1.530   3.688  15.838  1.0371  1.3028  0.0829
 9454SOL    HW239996   1.579   3.713  15.977  0.2076  0.9335 -0.6701
 9455SOL     OW39997   4.031   1.913  12.291  0.0549  0.2272 -0.5647
 9455SOL    HW139998   3.972   1.879  12.224  1.2237  1.3161 -2.1624
 9455SOL    HW239999   4.041   2.005  12.266 -2.1343 -0.1881 -2.9998
 9456SOL     OW40000   2.777   3.999   7.841  0.3018 -0.2421 -0.1207
 9456SOL    HW140001   2.754   3.909   7.864  2.4667 -1.0036 -0.9612
 9456SOL    HW240002   2.798   4.031   7.929  0.5636  1.7328 -0.9027
 9457SOL     OW40003   0.670   1.271   2.459 -0.4045  0.3009 -0.5204
 9457SOL    HW140004   0.746   1.226   2.423  1.9107  0.3690  4.3101
 9457SOL    HW240005   0.616   1.277   2.380  2.2341 -0.5777 -2.4045
 9458SOL     OW40006   2.369   0.066  10.535 -0.3384 -0.5100 -0.0564
 9458SOL    HW140007   2.393   4.714  10.576 -0.8465 -1.3423 -1.4723
 9458SOL    HW240008   2.318   0.024  10.466  1.1558 -0.4300 -1.2271
 9459SOL     OW40009   4.712   1.558   9.770 -0.3594  0.3809 -0.0523
 9459SOL    HW140010   0.075   1.550   9.751 -0.3878 -2.0682  0.7619
 9459SOL    HW240011   4.708   1.613   9.848  2.2415 -0.6076  0.7981
 9460SOL     OW40012   3.165   3.787   5.680 -0.3107  0.1481 -0.0687
 9460SOL    HW140013   3.124   3.711   5.639  0.2537 -1.0123  1.5202
 9460SOL    HW240014   3.143   3.769   5.771 -0.7469  0.2954 -0.1447
 9461SOL     OW40015   3.804   4.553   6.883  0.3666 -0.2773 -0.4899
 9461SOL    HW140016   3.836   4.471   6.921  0.1652  0.1701  0.6703
 9461SOL    HW240017   3.712   4.527   6.886  0.7698 -1.5825  0.7278
 9462SOL     OW40018   4.211   0.171   3.539  0.0083 -0.1777  0.2166
 9462SOL    HW140019   4.260   0.254   3.532  1.0026 -0.7642  0.1583
 9462SOL    HW240020   4.267   0.130   3.605 -1.2078 -0.3830  1.1114
 9463SOL     OW40021   1.805   1.650   6.090  0.0065 -0.5255  0.6450
 9463SOL    HW140022   1.845   1.684   6.170 -1.9282  0.3559  1.2491
 9463SOL    HW240023   1.713   1.666   6.109  0.5057 -0.4130  2.9315
 9464SOL     OW40024   1.387   2.321   1.234  0.3833  0.4401  0.2581
 9464SOL    HW140025   1.351   2.409   1.236  0.7934  0.6124  0.0314
 9464SOL    HW240026   1.405   2.311   1.140 -2.5657 -0.2889 -0.2346
 9465SOL     OW40027   3.760   3.276   6.128  0.1542 -0.0790 -0.2929
 9465SOL    HW140028   3.733   3.364   6.101 -0.4682 -0.4421 -0.8751
 9465SOL    HW240029   3.790   3.298   6.216  1.5289  0.5572 -0.9248
 9466SOL     OW40030   0.835   0.196   1.373 -0.0581  0.1077  0.3322
 9466SOL    HW140031   0.807   0.141   1.446  1.6132  0.6283  1.3571
 9466SOL    HW240032   0.930   0.191   1.384  0.1800  2.8957 -0.4030
 9467SOL     OW40033   1.555   4.105   7.610 -0.2182  0.3135  0.4553
 9467SOL    HW140034   1.578   4.184   7.562  0.6097 -0.0278  0.2934
 9467SOL    HW240035   1.632   4.101   7.666 -0.0331  1.4810  0.2687
 9468SOL     OW40036   4.453   0.018  11.246 -0.1213 -0.0530 -0.2527
 9468SOL    HW140037   4.432   0.110  11.262  1.3011  0.5296 -1.8030
 9468SOL    HW240038   4.546   0.028  11.267  0.4202 -0.1200 -2.6136
 9469SOL     OW40039   3.295   2.059  11.748  0.7476 -0.1119  0.1489
 9469SOL    HW140040   3.354   2.089  11.679 -0.7279  2.6643  0.0952
 9469SOL    HW240041   3.353   2.032  11.819  0.9337  1.0860  0.4518
 9470SOL     OW40042   2.773   3.404   7.196  0.0837 -0.0003 -0.0266
 9470SOL    HW140043   2.744   3.399   7.287  0.4396  0.5146  0.1172
 9470SOL    HW240044   2.853   3.456   7.209 -2.0017  3.1208  0.3153
 9471SOL     OW40045   3.306   3.152   8.734  0.6915 -0.6281 -0.9178
 9471SOL    HW140046   3.213   3.157   8.714  0.5624 -0.0367 -0.1639
 9471SOL    HW240047   3.334   3.233   8.691  2.6989 -1.8304 -1.9031
 9472SOL     OW40048   0.754   1.303   9.563  0.2856 -0.1488  0.7368
 9472SOL    HW140049   0.778   1.244   9.492 -1.4510 -0.9117  0.7738
 9472SOL    HW240050   0.708   1.374   9.520  0.1541  0.4551  1.8677
 9473SOL     OW40051   2.869   2.221   5.733 -0.4006  0.0233  0.1365
 9473SOL    HW140052   2.904   2.252   5.816  2.7357 -1.8939 -0.4615
 9473SOL    HW240053   2.953   2.198   5.693  0.2970 -1.0133  2.2174
 9474SOL     OW40054   4.079   2.931   4.552  0.5553 -0.0617  0.1168
 9474SOL    HW140055   4.095   2.920   4.645  0.4793  2.5740  0.4452
 9474SOL    HW240056   4.126   2.853   4.524  0.2467  0.2493 -1.2733
 9475SOL     OW40057   2.252   1.509   5.831  0.3576 -0.4907 -0.0474
 9475SOL    HW140058   2.190   1.523   5.760 -0.4436 -0.8947  0.5763
 9475SOL    HW240059   2.195   1.471   5.898  1.0062 -2.5025 -0.6515
 9476SOL     OW40060   4.095   1.524   3.304 -0.2854  0.3872  0.3429
 9476SOL    HW140061   4.014   1.557   3.342  0.2420  1.8784  0.1761
 9476SOL    HW240062   4.069   1.473   3.227  1.1194 -0.5800  0.5055
 9477SOL     OW40063   2.452   2.010   6.851 -0.4614  0.3543 -0.4678
 9477SOL    HW140064   2.507   1.986   6.777  0.5244 -0.2293  0.4489
 9477SOL    HW240065   2.396   2.074   6.807 -1.2883 -0.5943 -0.7977
 9478SOL     OW40066   1.183   4.248  12.743  0.6571 -0.1087 -0.0291
 9478SOL    HW140067   1.150   4.199  12.819 -2.0202 -0.6815 -1.5958
 9478SOL    HW240068   1.276   4.255  12.764  0.2251 -0.0764  1.8976
 9479SOL     OW40069   1.303   3.463   8.916  0.1839  0.3003  0.0254
 9479SOL    HW140070   1.208   3.462   8.914  0.2061 -2.5913  0.6760
 9479SOL    HW240071   1.315   3.550   8.877 -1.5228  1.1379  1.3587
 9480SOL     OW40072   2.245   4.098  16.233 -0.2901 -0.6589 -0.3469
 9480SOL    HW140073   2.244   4.183  16.189  0.8735  0.6094  2.1093
 9480SOL    HW240074   2.217   4.047  16.156 -1.8661  0.6445 -0.6399
 9481SOL     OW40075   4.028   4.140   7.634  0.1564 -0.8216 -0.3009
 9481SOL    HW140076   4.086   4.063   7.634  1.3995  0.1176 -2.0330
 9481SOL    HW240077   4.090   4.204   7.599 -1.6531  0.8747 -0.4155
 9482SOL     OW40078   1.726   1.152  16.048 -0.3835  0.6357  0.0390
 9482SOL    HW140079   1.656   1.207  16.011 -0.9652 -0.0308  0.1519
 9482SOL    HW240080   1.671   1.075  16.061 -0.4636  1.2596  3.2773
 9483SOL     OW40081   1.127   1.888   6.980 -0.3609 -0.0522  0.0020
 9483SOL    HW140082   1.164   1.976   6.981 -0.2846 -0.0378 -3.3308
 9483SOL    HW240083   1.195   1.843   7.031  0.2840  2.4569  1.3942
 9484SOL     OW40084   0.573   4.540   4.307  0.8683  0.1120  0.1602
 9484SOL    HW140085   0.579   4.550   4.402  1.2761  0.4434  0.0993
 9484SOL    HW240086   0.545   4.449   4.300 -1.9992  0.9421  0.9331
 9485SOL     OW40087   1.686   3.624   6.307 -0.3768  0.4296  0.6339
 9485SOL    HW140088   1.651   3.699   6.355  0.7725  1.3074  0.0959
 9485SOL    HW240089   1.772   3.608   6.345 -0.3307 -0.4213  0.1640
 9486SOL     OW40090   2.148   2.856   2.992 -0.1325 -0.0103 -0.2769
 9486SOL    HW140091   2.163   2.785   3.055  1.2869 -1.6148 -2.4313
 9486SOL    HW240092   2.056   2.843   2.973 -0.4728  0.4087  1.0685
 9487SOL     OW40093   0.670   2.987   3.337 -0.9763  0.6450 -0.5002
 9487SOL    HW140094   0.631   2.950   3.258 -2.3281  0.7576  0.1037
 9487SOL    HW240095   0.599   2.973   3.400 -0.6758 -3.8738 -1.1618
 9488SOL     OW40096   2.302   4.389   6.005  0.2398  0.1875 -0.3804
 9488SOL    HW140097   2.319   4.389   5.911 -0.8162 -1.7861 -0.5789
 9488SOL    HW240098   2.208   4.377   6.020  0.8937  2.2257  5.2070
 9489SOL     OW40099   0.942   4.203   7.603 -0.1438  0.6116 -0.5958
 9489SOL    HW140100   0.861   4.189   7.554 -1.7955  3.2100  1.3877
 9489SOL    HW240101   0.998   4.222   7.528  1.3981  1.0861  0.6838
 9490SOL     OW40102   1.726   1.084   8.496  0.0255 -0.0391 -0.3669
 9490SOL    HW140103   1.776   1.165   8.507 -0.7849  0.1227  2.0852
 9490SOL    HW240104   1.641   1.110   8.531  0.0624 -0.2407 -0.1264
 9491SOL     OW40105   0.753   2.293   6.765 -0.3598 -0.3563  0.0376
 9491SOL    HW140106   0.796   2.213   6.736  1.4145  1.9981 -3.8168
 9491SOL    HW240107   0.757   2.345   6.685 -2.3464  0.6122  0.5674
 9492SOL     OW40108   3.516   1.395  15.305 -1.0780 -0.0125 -0.0412
 9492SOL    HW140109   3.431   1.436  15.289 -0.5096  0.8214 -0.9022
 9492SOL    HW240110   3.491   1.315  15.351 -0.0236  0.6275  1.6309
 9493SOL     OW40111   2.894   1.292  10.733  0.1383  0.2874  0.1768
 9493SOL    HW140112   2.861   1.236  10.803 -0.6712  2.2444  1.3639
 9493SOL    HW240113   2.982   1.308  10.766  0.3474  1.8994 -1.1851
 9494SOL     OW40114   4.399   4.151   3.210 -0.0107  0.2629 -1.0808
 9494SOL    HW140115   4.331   4.217   3.221 -0.9362 -0.5673 -1.8007
 9494SOL    HW240116   4.342   4.081   3.177 -0.9450  0.3776  0.2951
 9495SOL     OW40117   0.804   4.153   4.997 -0.1465 -0.0731  0.3404
 9495SOL    HW140118   0.841   4.237   4.969 -0.4342 -0.3026 -0.7363
 9495SOL    HW240119   0.833   4.101   4.922  1.6800  1.1788  0.2021
 9496SOL     OW40120   2.829   2.506   8.645 -0.5572 -0.9420  0.2172
 9496SOL    HW140121   2.903   2.446   8.638 -0.3484 -0.6900  0.2413
 9496SOL    HW240122   2.792   2.511   8.557 -0.6346 -1.9606  0.1905
 9497SOL     OW40123   0.325   4.148   8.017 -0.3702 -0.2676 -0.2007
 9497SOL    HW140124   0.233   4.139   7.992  0.7840  2.7312 -5.3725
 9497SOL    HW240125   0.328   4.059   8.052  0.0259  0.3016  1.2122
 9498SOL     OW40126   0.915   4.340   8.526  0.2133  0.3804  0.4201
 9498SOL    HW140127   0.828   4.348   8.565  0.5824 -1.1324  1.5514
 9498SOL    HW240128   0.945   4.431   8.528  0.8712  0.2024 -1.5986
 9499SOL     OW40129   3.694   1.618   3.311 -0.6050 -0.2806  0.0037
 9499SOL    HW140130   3.687   1.530   3.274 -1.0143 -0.3873  0.3419
 9499SOL    HW240131   3.657   1.671   3.242  0.8092 -2.0103 -2.0884
 9500SOL     OW40132   1.600   2.414   1.963  0.0403  0.4498 -0.5517
 9500SOL    HW140133   1.511   2.385   1.981  0.9993 -1.1806  1.6087
 9500SOL    HW240134   1.614   2.471   2.038  1.1556 -1.6810  0.8662
 9501SOL     OW40135   3.320   0.775   8.215 -0.0669  0.3922 -0.1827
 9501SOL    HW140136   3.363   0.861   8.216 -2.7237  1.7335 -1.3108
 9501SOL    HW240137   3.395   0.718   8.230  0.0264  1.0777  2.0543
 9502SOL     OW40138   4.722   3.108   3.414 -0.8793  0.5116 -0.0918
 9502SOL    HW140139   4.690   3.133   3.500 -1.2867 -0.2305 -0.0250
 9502SOL    HW240140   4.665   3.033   3.397 -1.6462  1.3145 -1.0953
 9503SOL     OW40141   4.727   0.388  11.224 -0.0253  0.3965 -0.6331
 9503SOL    HW140142   0.059   0.385  11.296  0.0181  0.8489 -0.6529
 9503SOL    HW240143   4.727   0.481  11.202 -0.6021  0.7331  0.8132
 9504SOL     OW40144   2.540   0.764   3.692 -0.2814  0.2417  0.1047
 9504SOL    HW140145   2.488   0.705   3.746  0.9129  1.2698  2.3604
 9504SOL    HW240146   2.480   0.838   3.694  0.4006  0.7954  0.0158
 9505SOL     OW40147   2.513   1.376   2.690  0.5008  0.2503  0.4419
 9505SOL    HW140148   2.453   1.304   2.708 -1.5017  2.4882  2.6447
 9505SOL    HW240149   2.598   1.336   2.709  0.8385  0.5981 -0.3162
 9506SOL     OW40150   0.642   4.329  12.264 -0.3126  0.2325 -0.2067
 9506SOL    HW140151   0.595   4.409  12.241  0.4875  1.6443  3.0961
 9506SOL    HW240152   0.730   4.344  12.230  0.1536 -1.5003  0.2170
 9507SOL     OW40153   3.253   1.107   6.777  0.3156 -0.1522 -0.5672
 9507SOL    HW140154   3.191   1.102   6.850  0.1154  2.7438 -0.5523
 9507SOL    HW240155   3.227   1.038   6.715  0.5446 -0.2885 -0.5100
 9508SOL     OW40156   4.358   1.588   7.799  0.0134  0.1534 -0.0961
 9508SOL    HW140157   4.384   1.499   7.824  2.3012  0.2338 -2.2158
 9508SOL    HW240158   4.431   1.612   7.742  2.0668 -1.2753  1.9085
 9509SOL     OW40159   1.080   1.575   7.783  0.1143  1.0577  0.0752
 9509SOL    HW140160   1.031   1.655   7.797 -1.5707 -0.3255  2.1169
 9509SOL    HW240161   1.133   1.572   7.863 -0.5805 -1.6098  0.4368
 9510SOL     OW40162   4.697   1.762   3.901 -0.5864  0.2173  0.1917
 9510SOL    HW140163   4.667   1.821   3.832  0.5100 -2.1210 -2.2447
 9510SOL    HW240164   4.620   1.713   3.929 -1.4083  0.6977 -1.2338
 9511SOL     OW40165   0.384   0.494   6.221  0.2781  0.5523 -0.7610
 9511SOL    HW140166   0.396   0.584   6.251 -0.2727  0.6724 -0.9047
 9511SOL    HW240167   0.456   0.487   6.158 -0.9702  0.6206 -2.2184
 9512SOL     OW40168   3.848   2.023   1.763 -0.4677 -0.5392 -0.4641
 9512SOL    HW140169   3.821   2.113   1.776 -0.1754 -0.7051  1.3245
 9512SOL    HW240170   3.782   2.002   1.697  0.2575 -0.9850 -1.0519
 9513SOL     OW40171   0.191   2.478   3.735 -0.1628  0.2707 -0.3821
 9513SOL    HW140172   0.152   2.495   3.820 -1.0482 -1.9705 -0.3404
 9513SOL    HW240173   0.228   2.564   3.712  1.1158 -0.5853 -1.5637
 9514SOL     OW40174   1.592   2.313  14.540 -0.5342 -0.2921  0.2591
 9514SOL    HW140175   1.591   2.392  14.594  1.1117 -0.9590  1.2635
 9514SOL    HW240176   1.500   2.310  14.512 -0.1335 -1.0436 -0.9482
 9515SOL     OW40177   3.674   1.870  13.264  0.4116  0.4222  0.0440
 9515SOL    HW140178   3.633   1.874  13.350 -0.1115  1.3389 -0.2516
 9515SOL    HW240179   3.752   1.922  13.277  1.0847 -0.0311 -2.1823
 9516SOL     OW40180   2.398   4.467  17.683  0.0447  0.2038 -0.0643
 9516SOL    HW140181   2.431   4.382  17.712 -0.6685  0.6031  1.9269
 9516SOL    HW240182   2.349   4.453  17.602  2.1884 -1.3640 -1.0983
 9517SOL     OW40183   0.758   4.663  12.669  0.0524  0.5572 -0.2423
 9517SOL    HW140184   0.663   4.656  12.660 -0.0365 -1.7282  2.3375
 9517SOL    HW240185   0.779   4.571  12.683 -1.1560  0.3375  0.1085
 9518SOL     OW40186   1.462   2.398   8.994  0.0555  0.6095  0.4801
 9518SOL    HW140187   1.534   2.343   8.962 -0.6935 -0.3363  0.4099
 9518SOL    HW240188   1.433   2.358   9.076 -1.0251 -1.2631 -0.7941
 9519SOL     OW40189   0.234   0.184   3.164  0.2109  0.5263 -0.1995
 9519SOL    HW140190   0.200   0.208   3.078 -0.3348 -0.4878 -0.2635
 9519SOL    HW240191   0.328   0.193   3.150 -0.0172  2.4990 -0.5246
 9520SOL     OW40192   2.172   0.654  10.534 -0.3065  0.2765  0.3400
 9520SOL    HW140193   2.137   0.571  10.568  0.5296 -0.1263  0.2028
 9520SOL    HW240194   2.171   0.700  10.618 -1.5819 -0.3291  0.6698
 9521SOL     OW40195   4.294   2.871   1.271 -0.1452 -0.7012 -0.2931
 9521SOL    HW140196   4.358   2.919   1.322 -0.1980 -1.5738  0.5874
 9521SOL    HW240197   4.340   2.847   1.190 -0.3678  0.3661 -0.7410
 9522SOL     OW40198   3.320   0.551  11.134 -0.3423 -0.3607  0.2464
 9522SOL    HW140199   3.265   0.476  11.111  2.1209 -2.6772  1.9201
 9522SOL    HW240200   3.384   0.543  11.063 -1.4111 -3.4066 -0.3738
 9523SOL     OW40201   3.076   2.704   5.853  0.2021 -0.4590  0.2882
 9523SOL    HW140202   2.982   2.689   5.862 -0.3572  3.5595  1.2474
 9523SOL    HW240203   3.109   2.627   5.900 -1.0046 -0.2778  1.4274
 9524SOL     OW40204   1.585   0.599   8.380  0.3297  0.4278 -0.2341
 9524SOL    HW140205   1.594   0.588   8.286  1.4335  2.1032 -0.3325
 9524SOL    HW240206   1.589   0.514   8.423  1.0413  0.9655  0.7505
 9525SOL     OW40207   2.758   4.346   3.549 -0.5700 -0.2325  0.7040
 9525SOL    HW140208   2.696   4.362   3.621  0.4732  0.8836  1.3509
 9525SOL    HW240209   2.833   4.393   3.585 -0.2725 -0.5097  0.4356
 9526SOL     OW40210   0.208   1.415   4.843  0.3652 -0.3734  0.1332
 9526SOL    HW140211   0.175   1.500   4.871 -2.1375 -1.0432 -0.8471
 9526SOL    HW240212   0.302   1.425   4.859  0.3496  0.0740 -0.0595
 9527SOL     OW40213   2.960   2.041   9.168  0.9162  0.7315  0.3726
 9527SOL    HW140214   3.037   2.098   9.170  1.5314 -0.1882  2.6984
 9527SOL    HW240215   2.974   1.992   9.087  0.3237  1.6615 -0.2899
 9528SOL     OW40216   1.722   2.356   9.891  0.0808  0.1673  0.7051
 9528SOL    HW140217   1.710   2.379   9.984 -0.0085  1.3095  0.4082
 9528SOL    HW240218   1.781   2.427   9.866  2.7938 -2.5901 -0.7163
 9529SOL     OW40219   4.130   1.215   4.278  0.1786  0.2842 -0.0782
 9529SOL    HW140220   4.071   1.153   4.235 -2.5107  0.9638  2.6065
 9529SOL    HW240221   4.076   1.289   4.304 -0.9329 -0.4418 -0.3335
 9530SOL     OW40222   2.448   0.985   2.238 -0.2560 -0.3198  0.1004
 9530SOL    HW140223   2.441   0.948   2.150 -0.5275  1.1103 -0.4762
 9530SOL    HW240224   2.374   0.942   2.282 -0.2349  1.8333  2.1961
 9531SOL     OW40225   4.409   0.592   2.081 -0.2178  0.1103 -0.3554
 9531SOL    HW140226   4.443   0.682   2.079 -1.9242  0.7231 -1.6337
 9531SOL    HW240227   4.418   0.571   2.174 -0.2688  1.6915  0.0034
 9532SOL     OW40228   3.744   1.203   7.748 -0.2850 -0.3445  0.3118
 9532SOL    HW140229   3.814   1.268   7.755 -1.2444  0.9098 -1.6583
 9532SOL    HW240230   3.750   1.182   7.654 -0.2864  2.1644 -0.2403
 9533SOL     OW40231   3.582   3.083   2.687  0.1799  0.1452 -0.7593
 9533SOL    HW140232   3.525   3.051   2.617 -2.0083  1.7359  0.2693
 9533SOL    HW240233   3.668   3.082   2.646  0.5232 -0.5336  0.0054
 9534SOL     OW40234   4.070   1.344  14.636 -0.1419  0.4574  0.4074
 9534SOL    HW140235   4.136   1.413  14.629  1.9939 -1.6411  0.0680
 9534SOL    HW240236   4.066   1.338  14.732 -2.0198  0.2147  0.3203
 9535SOL     OW40237   0.938   0.464   9.596 -0.0009 -0.0571 -0.2831
 9535SOL    HW140238   0.935   0.376   9.633  0.5702 -0.0236 -0.1546
 9535SOL    HW240239   0.863   0.495   9.646 -2.5221 -1.9622 -2.9128
 9536SOL     OW40240   2.004   3.264   2.722  0.0066 -0.0840  0.2701
 9536SOL    HW140241   1.951   3.243   2.799 -0.6072 -0.7744 -0.3492
 9536SOL    HW240242   2.062   3.333   2.754 -0.1277  0.3265 -0.3829
 9537SOL     OW40243   1.152   0.622   7.848 -0.7131  0.0123  0.4097
 9537SOL    HW140244   1.235   0.573   7.850 -1.1456 -0.7076  0.6388
 9537SOL    HW240245   1.110   0.599   7.766  2.0203  0.4191 -1.1019
 9538SOL     OW40246   2.226   3.672   6.294 -0.0796 -0.1451  0.0452
 9538SOL    HW140247   2.147   3.693   6.244 -0.2413 -2.4132 -0.6290
 9538SOL    HW240248   2.197   3.686   6.384  1.0088 -1.1009  0.5334
 9539SOL     OW40249   1.899   4.329  14.599 -0.2854  1.1505  0.0803
 9539SOL    HW140250   1.816   4.307  14.640 -0.7932 -0.3592 -1.7533
 9539SOL    HW240251   1.902   4.424  14.609 -0.4059  1.2421 -0.7857
 9540SOL     OW40252   1.249   0.705   3.390  0.3392 -0.1811 -0.0541
 9540SOL    HW140253   1.170   0.728   3.439 -0.1309  0.2793 -1.0435
 9540SOL    HW240254   1.238   0.763   3.315  1.5748 -1.1340 -0.9872
 9541SOL     OW40255   3.373   1.347   6.814  0.9100 -0.5897  0.3160
 9541SOL    HW140256   3.321   1.266   6.818  2.4508 -1.6138 -0.4634
 9541SOL    HW240257   3.447   1.307   6.768  1.6999 -0.5314  1.5469
 9542SOL     OW40258   2.045   4.635   6.036  0.1070 -0.1518 -0.2274
 9542SOL    HW140259   2.134   4.661   6.012  0.7926 -3.3044 -1.1263
 9542SOL    HW240260   2.044   4.542   6.012  3.2276  0.1328 -1.5664
 9543SOL     OW40261   2.253   2.746  17.015 -0.3404  0.4353 -0.4386
 9543SOL    HW140262   2.334   2.734  16.966 -0.0324 -1.1660  0.4277
 9543SOL    HW240263   2.212   2.665  16.984 -0.6766  0.9522 -1.3322
 9544SOL     OW40264   4.124   2.232   5.817 -0.3451  0.4525 -0.3174
 9544SOL    HW140265   4.201   2.200   5.770 -0.3845 -0.4570  0.2437
 9544SOL    HW240266   4.164   2.317   5.836 -0.3978 -0.0546  1.9988
 9545SOL     OW40267   1.521   0.499   7.363 -0.0501  0.0501 -0.0782
 9545SOL    HW140268   1.428   0.519   7.353 -0.4783 -0.7853  2.2745
 9545SOL    HW240269   1.513   0.428   7.427 -3.3572 -0.0690 -0.6367
 9546SOL     OW40270   3.067   4.533   0.980 -0.1385  0.1461 -0.8665
 9546SOL    HW140271   3.042   4.443   0.960 -3.5410  1.5184 -2.9029
 9546SOL    HW240272   2.994   4.553   1.039 -0.8488 -0.2140 -1.6160
 9547SOL     OW40273   3.186   1.926   8.412  0.4073  0.3458 -0.6552
 9547SOL    HW140274   3.205   1.875   8.490  0.3064  0.2978 -0.6618
 9547SOL    HW240275   3.175   2.015   8.445  1.5292 -0.5573  2.1361
 9548SOL     OW40276   3.631   3.571   2.384  0.8449 -0.3175  0.3034
 9548SOL    HW140277   3.709   3.534   2.423 -0.5197 -1.8356  1.5467
 9548SOL    HW240278   3.564   3.524   2.433 -0.2081  1.3339  0.4860
 9549SOL     OW40279   1.299   3.479   3.613  0.0163 -0.5276  0.0256
 9549SOL    HW140280   1.302   3.501   3.706 -1.2372  0.5054 -0.1736
 9549SOL    HW240281   1.370   3.532   3.576 -0.9567  0.2356 -0.7473
 9550SOL     OW40282   2.779   0.641   1.795 -0.2475  0.1119  0.4542
 9550SOL    HW140283   2.778   0.717   1.852  0.3020  0.4611 -0.0030
 9550SOL    HW240284   2.749   0.678   1.712  1.2234  0.0978 -0.0707
 9551SOL     OW40285   0.563   4.543   7.202  0.3423  0.4258  0.0628
 9551SOL    HW140286   0.554   4.527   7.296 -1.8921  0.3845 -0.1667
 9551SOL    HW240287   0.532   4.462   7.162 -0.0414 -0.2561  1.7816
 9552SOL     OW40288   3.276   1.901   0.677  0.6583  0.2460  0.3859
 9552SOL    HW140289   3.300   1.815   0.643  1.0886  1.2152 -1.7163
 9552SOL    HW240290   3.353   1.937   0.721  1.6707 -2.6539  0.9680
 9553SOL     OW40291   2.159   2.644   6.028 -0.0664 -0.0130 -0.1764
 9553SOL    HW140292   2.140   2.577   5.963  0.6874 -1.3451  0.9789
 9553SOL    HW240293   2.212   2.601   6.096 -0.3593 -1.2177 -0.7229
 9554SOL     OW40294   0.240   3.351   3.999 -0.2065  0.0679 -0.2258
 9554SOL    HW140295   0.281   3.406   4.065  1.8739 -1.2980 -0.3971
 9554SOL    HW240296   0.281   3.388   3.920 -1.0381 -1.7777 -1.5214
 9555SOL     OW40297   2.801   1.686   0.919  0.2000 -0.0631  0.6208
 9555SOL    HW140298   2.736   1.755   0.934  0.5613  0.6476 -1.0647
 9555SOL    HW240299   2.748   1.616   0.957 -0.0918  0.2621  0.8156
 9556SOL     OW40300   4.610   1.158  13.953 -0.2301 -0.2505 -0.0713
 9556SOL    HW140301   4.547   1.222  13.921  2.4011  2.6041  0.4874
 9556SOL    HW240302   4.560   1.078  13.938 -1.1871  0.4111 -0.3983
 9557SOL     OW40303   2.118   0.593  13.657  0.3135  0.1541  0.1974
 9557SOL    HW140304   2.038   0.548  13.631 -0.1622  0.6901  0.7016
 9557SOL    HW240305   2.175   0.569  13.584 -0.4539 -0.5057 -0.1852
 9558SOL     OW40306   4.289   0.809   8.958  0.3849  0.4260 -0.2872
 9558SOL    HW140307   4.377   0.842   8.975 -0.6774  1.5154  3.1522
 9558SOL    HW240308   4.289   0.716   8.978  0.6254  0.3405 -0.6843
 9559SOL     OW40309   3.923   4.329   5.503 -0.4268  0.0470 -0.1787
 9559SOL    HW140310   3.948   4.280   5.424 -0.4632 -3.3971  1.9538
 9559SOL    HW240311   3.829   4.320   5.511 -0.6043  1.3727 -0.8010
 9560SOL     OW40312   3.141   0.242  16.403 -0.1006  0.0619 -0.0762
 9560SOL    HW140313   3.166   0.155  16.373  0.2519  0.3089 -0.5075
 9560SOL    HW240314   3.045   0.244  16.404 -0.1143 -0.5773 -0.1582
 9561SOL     OW40315   2.063   2.680   0.311  0.5144 -0.4597 -0.0916
 9561SOL    HW140316   2.038   2.593   0.280 -0.0930 -0.3669  0.1376
 9561SOL    HW240317   1.980   2.711   0.347  1.8207 -0.0415  2.5739
 9562SOL     OW40318   1.508   3.297   9.010  0.1495 -0.1182  0.1685
 9562SOL    HW140319   1.430   3.352   9.010  0.2205 -0.0080 -1.2701
 9562SOL    HW240320   1.561   3.359   8.961  0.7192  0.5088  1.5898
 9563SOL     OW40321   1.295   2.161   1.576  0.6333 -0.3017  0.4426
 9563SOL    HW140322   1.209   2.191   1.607 -0.7086 -1.5209 -2.0930
 9563SOL    HW240323   1.343   2.241   1.551  1.4283 -0.9153  0.0098
 9564SOL     OW40324   3.291   4.042   7.602 -0.4157  0.0053 -0.2606
 9564SOL    HW140325   3.197   4.026   7.609 -0.7460  1.6042 -1.0617
 9564SOL    HW240326   3.313   4.057   7.694  0.4741 -0.0227 -0.4676
 9565SOL     OW40327   0.464   4.460   8.755 -0.1726 -0.0597 -0.0606
 9565SOL    HW140328   0.380   4.500   8.736 -0.7727 -0.1001  2.5339
 9565SOL    HW240329   0.499   4.519   8.823 -1.9607 -0.3917  1.1362
 9566SOL     OW40330   0.634   4.487   9.270 -0.0316  0.4705 -0.0976
 9566SOL    HW140331   0.665   4.433   9.197 -0.7404 -0.7281  0.4813
 9566SOL    HW240332   0.543   4.464   9.287  0.3965 -1.2142 -0.1061
 9567SOL     OW40333   2.951   3.026  14.477 -0.1185 -0.1515 -0.1494
 9567SOL    HW140334   2.959   2.939  14.438 -0.3576 -0.0511 -0.4250
 9567SOL    HW240335   2.863   3.017  14.514  0.1145 -0.1693  0.4116
 9568SOL     OW40336   3.338   3.146   5.595  0.4093 -0.4170 -0.5150
 9568SOL    HW140337   3.364   3.143   5.687 -1.1777 -0.9237 -0.0784
 9568SOL    HW240338   3.364   3.235   5.571  0.6286 -0.4615 -0.4475
 9569SOL     OW40339   4.288   4.363   6.353 -0.3968  0.5401  0.6429
 9569SOL    HW140340   4.198   4.347   6.323 -0.2173 -1.5959  1.2306
 9569SOL    HW240341   4.320   4.414   6.279 -0.0869 -0.0956  0.3360
 9570SOL     OW40342   1.426   0.899  10.431 -0.1788 -0.1135  0.5731
 9570SOL    HW140343   1.459   0.917  10.343 -0.0316 -1.1606  0.4056
 9570SOL    HW240344   1.411   0.805  10.416 -1.9106  0.6714 -2.7014
 9571SOL     OW40345   2.706   3.224   1.438  0.1379 -0.4370  0.0766
 9571SOL    HW140346   2.643   3.161   1.471  0.1743  0.1252  1.2144
 9571SOL    HW240347   2.727   3.271   1.518 -1.4423  1.5839 -0.6890
   4.73124   4.73124  17.72478
