Membrane in water
40347
    1TMC1    C1    1   2.461   2.591  11.809  0.0228  0.3635 -0.3699
    1TMC1    C2    2   2.489   2.715  11.755 -0.0461  0.3874 -0.4658
    1TMC1    C3    3   2.579   2.799  11.815  0.3280 -0.6140  0.6093
    1TMC1    C4    4   2.535   2.544  11.920 -0.4171  1.0498  0.4607
    1TMC1    C5    5   2.631   2.628  11.970  0.1848  0.7742  0.0403
    1TMC1    C6    6   2.655   2.753  11.920  0.1070  0.4907  0.2810
    1TMC1     C    7   2.336   2.531  11.769 -0.2971  0.1188  0.1067
    1TMC1     O    8   2.257   2.599  11.700  0.1293  0.0638 -0.1933
    1TMC1     H    9   2.434   2.752  11.670  0.5902  1.9493 -0.1951
    1TMC1    H1   10   2.508   2.452  11.971  1.2986  0.3336  0.0697
    1TMC1    H2   11   2.726   2.822  11.965 -0.2754  0.7164  0.5409
    1TMC1    C7   12   2.716   2.579  12.074  0.1685 -0.6143  0.1324
    1TMC1    C8   13   2.573   2.934  11.785 -0.2139  0.3417 -0.0413
    1TMC1    O1   14   2.679   2.503  12.158 -0.1484 -0.8993  0.1040
    1TMC1    O2   15   2.535   2.974  11.677  0.1422 -0.4951 -0.0325
    1TMC1    O3   16   2.847   2.593  12.030 -0.3341  0.1418  0.2598
    1TMC1    H3   17   2.848   2.632  11.940 -0.1370  1.7086  0.9350
    1TMC1    O5   18   2.525   2.988  11.896  0.1185  0.3709  0.2373
    1TMC1    H5   19   2.545   2.933  11.975 -0.0970 -1.1049 -0.7425
    2MPD2     C   20   2.048   2.110  11.700  0.8053  0.1973 -0.8500
    2MPD2    C1   21   2.017   2.240  11.711  0.4579 -0.5145  0.9138
    2MPD2    C2   22   2.115   2.338  11.738 -0.2237  0.3601 -1.0864
    2MPD2    C3   23   2.240   2.298  11.763  0.3740  0.1922  0.2167
    2MPD2    C4   24   2.267   2.164  11.743  0.4340  0.7381  0.9029
    2MPD2    C5   25   2.174   2.066  11.709 -0.5031  0.6215 -0.2960
    2MPD2     H   26   2.083   2.440  11.758 -1.5401 -0.5315  1.2553
    2MPD2    H1   27   2.371   2.135  11.751  0.0941 -1.0713 -1.3234
    2MPD2    H2   28   1.973   2.034  11.682 -0.9843  1.9004 -0.5589
    2MPD2    H3   29   2.193   1.960  11.701 -0.8696  0.8089 -3.8256
    2MPD2     N   30   2.345   2.390  11.789  0.1694  0.0646 -0.3376
    2MPD2    H5   31   2.431   2.353  11.829 -1.2565 -1.1656  1.6109
    2MPD2    N1   32   1.884   2.281  11.723 -0.1307 -0.2479 -0.2376
    2MPD2    H7   33   1.866   2.380  11.734 -2.2346 -0.5632 -0.7796
    3TMC1    C1   34   0.741   3.228  10.271 -0.4774 -0.0442 -0.0019
    3TMC1    C2   35   0.833   3.332  10.275  0.2113 -0.5415  0.0885
    3TMC1    C3   36   0.937   3.328  10.184 -0.0087 -0.2156  1.2526
    3TMC1    C4   37   0.763   3.124  10.185 -0.4877 -0.4041  0.6289
    3TMC1    C5   38   0.878   3.117  10.120  0.2804  0.4218 -1.0790
    3TMC1    C6   39   0.959   3.220  10.105  0.1613  0.1045 -0.3635
    3TMC1     C   40   0.618   3.238  10.341  0.0429 -0.2937  0.2611
    3TMC1     O   41   0.555   3.136  10.329 -0.0490  0.3556  0.1602
    3TMC1     H   42   0.816   3.419  10.338 -0.2988 -0.7193  0.1950
    3TMC1    H1   43   0.696   3.039  10.173 -2.0842  0.8192  0.7511
    3TMC1    H2   44   1.036   3.218  10.030 -0.4202  3.6460 -1.0440
    3TMC1    C7   45   0.916   2.996  10.045  0.1325  0.3431 -0.0059
    3TMC1    C8   46   1.044   3.425  10.196  0.2722  0.3705  0.2442
    3TMC1    O1   47   0.829   2.924  10.004  0.2806 -0.6021  0.3938
    3TMC1    O2   48   1.080   3.503  10.109  0.3672 -0.9476 -0.3718
    3TMC1    O3   49   1.043   2.959  10.072 -0.3146  0.1871  0.2528
    3TMC1    H3   50   1.089   3.011  10.142 -2.3472  0.5958  1.2750
    3TMC1    O5   51   1.060   3.430  10.334 -0.0920  0.3874  0.1350
    3TMC1    H5   52   1.041   3.341  10.371 -0.8835  0.6904  0.4399
    4MPD2     C   53   0.232   3.457  10.585  0.2355  0.2110  0.2343
    4MPD2    C1   54   0.347   3.532  10.609 -0.0652 -0.3271 -0.0402
    4MPD2    C2   55   0.461   3.496  10.547  0.3445  0.0713 -0.1858
    4MPD2    C3   56   0.464   3.390  10.461 -0.3420 -0.0818  0.5141
    4MPD2    C4   57   0.354   3.310  10.438 -0.5692  0.2938 -0.2539
    4MPD2    C5   58   0.237   3.345  10.499  0.8586  0.0827  0.0571
    4MPD2     H   59   0.560   3.540  10.553  0.8077 -0.8308 -1.0925
    4MPD2    H1   60   0.356   3.224  10.372  1.5043 -0.0907  0.2964
    4MPD2    H2   61   0.136   3.479  10.630 -0.2973 -0.3472 -0.6328
    4MPD2    H3   62   0.152   3.278  10.492  0.7749  0.1259  0.6500
    4MPD2     N   63   0.590   3.357  10.400  0.1781  0.5808  0.3734
    4MPD2    H5   64   0.669   3.417  10.415  0.0258  1.0370 -0.6209
    4MPD2    N1   65   0.354   3.648  10.695  0.4428  0.3370  0.6157
    4MPD2    H7   66   0.446   3.692  10.698  1.2019 -1.1563 -0.6284
    5TCq1    O1   67   4.578   0.743  11.551 -0.3151  0.4089  0.5938
    5TCq1    C1   68   4.690   0.680  11.595  0.4532 -0.1349  0.0120
    5TCq1    O2   69   4.699   0.578  11.663 -0.3421 -0.0319 -0.2411
    5TCq1    C2   70   0.057   0.708  11.500  1.2568 -0.3082 -0.6927
    5TCq1    C3   71   0.030   0.760  11.380 -0.3450 -0.2780 -0.2633
    5TCq1    C4   72   0.126   0.761  11.283 -0.3693 -0.1868 -0.8964
    5TCq1    C5   73   0.255   0.734  11.322  0.3605  0.1049 -0.0977
    5TCq1    C6   74   0.283   0.676  11.442 -0.0762  0.1829 -0.0986
    5TCq1    C7   75   0.182   0.669  11.537  0.7222  0.1791 -0.3873
    5TCq1    C8   76   0.418   0.672  11.487  0.6413 -0.0291 -0.4147
    5TCq1    O4   77   0.454   0.566  11.542  0.5294 -0.2710  0.7856
    5TCq1    C9   78   0.102   0.795  11.148 -0.3445 -0.4301  0.1374
    5TCq1    O5   79   4.728   0.813  11.109 -0.5066  0.1353  0.1818
    5TCq1    O6   80   0.202   0.812  11.073  0.2360 -0.2184  0.7260
    5TCq1    H1   81   4.598   0.830  11.510 -0.7945 -0.1941 -0.9204
    5TCq1    H2   82   4.671   0.778  11.341  0.1243 -0.5263 -1.5669
    5TCq1    H3   83   0.328   0.737  11.242 -0.2285 -1.1183 -0.6741
    5TCq1    H4   84   0.204   0.623  11.633  0.6382 -0.7759 -0.8308
    6MPD2     C   85   0.670   0.934  11.450 -0.3911 -0.4818 -0.9656
    6MPD2    C1   86   0.622   0.806  11.465 -0.1994 -0.1562 -0.2109
    6MPD2    C2   87   0.709   0.701  11.465 -0.0411  0.2162  0.2261
    6MPD2    C3   88   0.842   0.722  11.457  0.5560 -0.4002 -0.3977
    6MPD2    C4   89   0.891   0.857  11.458  0.4283 -0.1201  0.4926
    6MPD2    C5   90   0.801   0.959  11.457 -0.1972  0.5863 -0.3161
    6MPD2     H   91   0.668   0.600  11.465 -2.0739  1.0348  0.2152
    6MPD2    H1   92   0.995   0.887  11.459 -0.5183  3.1789  2.3167
    6MPD2    H2   93   0.600   1.016  11.443  1.0165  0.7357 -0.8618
    6MPD2    H3   94   0.825   1.065  11.453 -0.7632  0.6900 -0.9683
    6MPD2     N   95   0.928   0.604  11.438  0.4888 -0.2204  0.6183
    6MPD2    H5   96   0.885   0.513  11.439 -0.2864  0.1395 -0.4612
    6MPD2    N1   97   0.483   0.786  11.459  1.0437  0.3912  0.3482
    6MPD2    H7   98   0.436   0.871  11.429  0.2232 -0.5335 -0.9536
    7TCq1    O1   99   4.062   0.080  12.774 -0.1840  0.1939  0.2263
    7TCq1    C1  100   4.150   4.715  12.791  0.3430 -0.4462 -0.1948
    7TCq1    O2  101   4.247   4.695  12.725  0.3677  0.3976 -0.3007
    7TCq1    C2  102   4.069   4.604  12.844 -0.3104  0.6387 -0.4103
    7TCq1    C3  103   3.939   4.587  12.810 -0.9857 -0.1086 -0.1236
    7TCq1    C4  104   3.885   4.462  12.826  0.0638  0.6749  0.4690
    7TCq1    C5  105   3.949   4.358  12.882 -0.1077  0.0518 -0.5606
    7TCq1    C6  106   4.081   4.379  12.917  0.2940  0.7696 -0.7776
    7TCq1    C7  107   4.141   4.499  12.894 -0.0257  0.6587 -0.0755
    7TCq1    C8  108   4.164   4.263  12.964  0.0951 -0.1736  0.1552
    7TCq1    O4  109   4.179   4.175  12.881 -0.5948  0.6757 -0.1446
    7TCq1    C9  110   3.751   4.441  12.783 -0.7382 -0.3569 -0.0877
    7TCq1    O5  111   3.711   4.321  12.785 -0.2589 -0.0890  0.3766
    7TCq1    O6  112   3.673   4.540  12.770  0.2230 -0.0824 -0.5215
    7TCq1    H1  113   3.995   0.084  12.846  1.2952  0.3562  1.5998
    7TCq1    H2  114   3.887   4.653  12.742 -0.4656  0.2559 -0.1682
    7TCq1    H3  115   3.903   4.260  12.882  0.2944 -0.1354 -4.0051
    7TCq1    H4  116   4.246   4.513  12.918  0.1598 -1.4641  0.2917
    8MPD2     C  117   4.291   3.913  13.310 -0.4103 -0.5857 -0.5136
    8MPD2    C1  118   4.228   4.011  13.376  0.1991  0.1919  0.2908
    8MPD2    C2  119   4.179   4.115  13.304 -0.4909 -0.9300  0.0615
    8MPD2    C3  120   4.210   4.133  13.167 -0.3957  0.7059  0.3548
    8MPD2    C4  121   4.284   4.031  13.103 -0.4654  0.1599 -0.7612
    8MPD2    C5  122   4.314   3.920  13.176  0.1682 -0.1835  0.3662
    8MPD2     H  123   4.129   4.204  13.340  2.8570  0.7493  0.4911
    8MPD2    H1  124   4.318   4.039  13.001  1.7949  0.2551 -0.0055
    8MPD2    H2  125   4.348   3.840  13.366  1.2592  0.0623 -1.3660
    8MPD2    H3  126   4.374   3.843  13.130  1.1906  1.6963 -1.4168
    8MPD2     N  127   4.167   4.248  13.097  0.2620 -0.0626  0.4205
    8MPD2    H5  128   4.114   4.317  13.149  0.6484 -0.6037  1.5459
    8MPD2    N1  129   4.213   3.995  13.522 -0.1434  0.0760 -0.0261
    8MPD2    H7  130   4.226   3.901  13.560  0.8692 -0.1317 -0.8799
    9TMC1    C1  131   1.356   4.330  11.253  0.2027 -0.1902  0.0093
    9TMC1    C2  132   1.483   4.301  11.210 -0.5099 -0.1898 -0.2674
    9TMC1    C3  133   1.575   4.404  11.229  0.1422  0.0564 -0.2156
    9TMC1    C4  134   1.313   4.451  11.300  0.3858 -0.5642 -0.1560
    9TMC1    C5  135   1.410   4.547  11.302  0.7112 -0.1437 -0.6944
    9TMC1    C6  136   1.536   4.530  11.266 -0.1633  0.3926 -0.1852
    9TMC1     C  137   1.260   4.228  11.255 -0.5219 -0.0156  0.4509
    9TMC1     O  138   1.141   4.259  11.272  0.3165 -0.0542 -0.1905
    9TMC1     H  139   1.505   4.200  11.179  0.0211  0.0300 -0.6223
    9TMC1    H1  140   1.213   4.480  11.329  0.3253  3.5435 -4.4476
    9TMC1    H2  141   1.611   4.607  11.267  0.9916 -0.7206 -0.4912
    9TMC1    C7  142   1.371   4.654  11.383 -0.2695  0.0647  0.4342
    9TMC1    C8  143   1.706   4.386  11.165  0.2755 -0.0075 -0.8249
    9TMC1    O1  144   1.257   4.685  11.397 -0.1291  0.3337 -0.1933
    9TMC1    O2  145   1.762   4.478  11.104 -0.3527 -0.7644 -0.4319
    9TMC1    O3  146   1.460   4.669  11.485 -0.0515  0.1033  0.1648
    9TMC1    H3  147   1.556   4.651  11.477  0.1661  1.2011  0.3894
    9TMC1    O5  148   1.744   4.252  11.165 -0.6418  0.1535  0.2193
    9TMC1    H5  149   1.707   4.206  11.243 -3.3033  0.5714 -0.7821
   10MPD2     C  150   1.115   3.970  11.282 -0.0722 -0.1906 -0.0539
   10MPD2    C1  151   1.250   3.982  11.280  0.7436  0.1807  0.0638
   10MPD2    C2  152   1.327   3.867  11.313  0.1812  0.0494 -0.6619
   10MPD2    C3  153   1.268   3.755  11.352 -0.3899  0.2719  0.0360
   10MPD2    C4  154   1.134   3.738  11.341 -0.8681  0.2309  0.4949
   10MPD2    C5  155   1.058   3.846  11.304  0.5927  0.0756 -0.4598
   10MPD2     H  156   1.435   3.882  11.313  0.1176  0.5178  1.5313
   10MPD2    H1  157   1.085   3.644  11.362  0.1115 -0.2387  0.6852
   10MPD2    H2  158   1.052   4.055  11.257  1.5357  0.5816 -1.4641
   10MPD2    H3  159   0.951   3.827  11.293  0.3216  0.3933  1.6827
   10MPD2     N  160   1.334   3.645  11.404  0.1236 -0.2802 -0.0261
   10MPD2    H5  161   1.281   3.568  11.444  0.9939 -1.5682 -1.3459
   10MPD2    N1  162   1.320   4.104  11.259 -0.4607  0.1547  0.4525
   10MPD2    H7  163   1.420   4.094  11.272 -0.1966 -1.7074 -3.0161
   11TCq1    O1  164   1.864   3.600  14.692 -0.0936  0.0824  0.3553
   11TCq1    C1  165   1.966   3.510  14.704 -0.1179  0.5390 -0.5149
   11TCq1    O2  166   2.067   3.516  14.774 -0.2643 -0.2357  0.4851
   11TCq1    C2  167   1.953   3.396  14.619  0.4206  1.0563  0.8931
   11TCq1    C3  168   2.067   3.343  14.569  0.0692 -0.2023 -0.2363
   11TCq1    C4  169   2.053   3.237  14.482 -0.2688  0.3555 -0.8430
   11TCq1    C5  170   1.935   3.172  14.478  0.0603 -0.0931  0.6089
   11TCq1    C6  171   1.822   3.225  14.528  0.1352 -0.0638  0.2567
   11TCq1    C7  172   1.831   3.341  14.600 -0.1434  0.0030 -0.9051
   11TCq1    C8  173   1.696   3.151  14.537  0.6334 -0.1363  0.3869
   11TCq1    O4  174   1.606   3.204  14.596  0.3490 -0.1768 -0.2298
   11TCq1    C9  175   2.173   3.197  14.407  0.0125 -0.0479  0.8062
   11TCq1    O5  176   2.283   3.259  14.428  0.1323  0.0650  0.1368
   11TCq1    O6  177   2.159   3.084  14.353  0.3356 -0.4028  0.2407
   11TCq1    H1  178   1.816   3.576  14.610 -1.9205 -2.1634  2.0538
   11TCq1    H2  179   2.163   3.390  14.584  0.6793 -1.8673  0.9723
   11TCq1    H3  180   1.938   3.100  14.397 -0.4539  1.4745 -0.8163
   11TCq1    H4  181   1.745   3.393  14.642 -0.1010 -0.1528 -0.6265
   12MPD2     C  182   1.472   2.974  14.456 -0.6172  0.5066  0.5014
   12MPD2    C1  183   1.604   2.929  14.456 -0.1366 -0.4536  0.1353
   12MPD2    C2  184   1.630   2.809  14.403  0.3909  0.1139 -0.3153
   12MPD2    C3  185   1.531   2.718  14.359  0.0928  0.0596  0.6410
   12MPD2    C4  186   1.398   2.757  14.366  0.0157 -0.6132  0.0457
   12MPD2    C5  187   1.371   2.883  14.417 -0.3877 -0.3527 -1.1387
   12MPD2     H  188   1.735   2.780  14.400 -0.2267 -2.0777 -1.1319
   12MPD2    H1  189   1.315   2.693  14.340 -0.4500  0.3716 -0.9208
   12MPD2    H2  190   1.443   3.073  14.490 -1.2027  0.5320 -0.0838
   12MPD2    H3  191   1.266   2.910  14.417 -0.0081  1.1969  2.7976
   12MPD2     N  192   1.562   2.591  14.307  0.0037 -0.2259 -0.3740
   12MPD2    H5  193   1.479   2.538  14.283 -0.1232 -1.1002  2.0327
   12MPD2    N1  194   1.709   3.017  14.502 -0.1511  0.1992 -0.2764
   12MPD2    H7  195   1.803   2.982  14.491 -0.2023  0.6384 -2.2047
   13TCq1    O1  196   0.658   2.656  10.346 -0.2661  0.6148 -0.3375
   13TCq1    C1  197   0.788   2.683  10.341  0.8925 -0.1308 -0.2611
   13TCq1    O2  198   0.876   2.615  10.300 -0.6620 -0.4363  0.1812
   13TCq1    C2  199   0.810   2.804  10.420 -0.1060  0.1564 -0.0413
   13TCq1    C3  200   0.926   2.870  10.399 -0.8080 -0.1070 -0.0551
   13TCq1    C4  201   0.953   2.988  10.460 -0.1233  0.3307 -0.1484
   13TCq1    C5  202   0.866   3.033  10.555 -0.0415 -0.1601  0.0450
   13TCq1    C6  203   0.750   2.967  10.582 -0.3052  0.3041 -0.3313
   13TCq1    C7  204   0.720   2.845  10.515 -0.0703  0.6220  0.9351
   13TCq1    C8  205   0.644   3.038  10.661 -0.1843  0.7453 -0.1499
   13TCq1    O4  206   0.668   3.132  10.735 -0.2575 -0.2350 -0.3940
   13TCq1    C9  207   1.062   3.073  10.407  0.0094  0.1699  0.6737
   13TCq1    O5  208   1.122   3.040  10.298 -0.0849  0.5317  0.2516
   13TCq1    O6  209   1.067   3.197  10.443 -0.2550  0.4478  0.2735
   13TCq1    H1  210   0.599   2.735  10.350  0.3680  0.9781  2.2581
   13TCq1    H2  211   0.987   2.844  10.313  0.4907 -0.2259  0.9072
   13TCq1    H3  212   0.889   3.128  10.603 -0.3836 -0.2127  0.3094
   13TCq1    H4  213   0.638   2.782  10.548  0.5464 -0.4340  0.4672
   14MPD2     C  214   0.279   2.991  10.618 -0.0338 -0.0507 -0.2361
   14MPD2    C1  215   0.391   3.051  10.671 -0.3133 -0.4507 -1.7645
   14MPD2    C2  216   0.371   3.151  10.764 -0.4846 -0.1096  0.2867
   14MPD2    C3  217   0.242   3.197  10.799  0.0979  0.0177 -0.3324
   14MPD2    C4  218   0.132   3.137  10.739 -0.4774  0.2660 -0.1687
   14MPD2    C5  219   0.153   3.032  10.654 -0.3429  0.1870  0.1855
   14MPD2     H  220   0.457   3.198  10.809 -0.3069 -1.1620  1.0405
   14MPD2    H1  221   0.028   3.163  10.755 -0.8190 -0.5208 -1.1245
   14MPD2    H2  222   0.273   2.907  10.550 -1.6615  1.6456 -2.1872
   14MPD2    H3  223   0.063   2.980  10.622  0.3955 -1.6082  1.0764
   14MPD2     N  224   0.238   3.300  10.900  0.1815 -0.3163 -0.5099
   14MPD2    H5  225   0.322   3.352  10.925  0.1233 -0.9560  1.0157
   14MPD2    N1  226   0.518   3.005  10.623 -0.1950 -0.4262 -0.3544
   14MPD2    H7  227   0.517   2.942  10.543  0.2863  0.6228 -1.1936
   15TCq1    O1  228   2.374   2.528   1.615  0.1413 -0.3502  0.4612
   15TCq1    C1  229   2.399   2.660   1.594 -0.1870  0.5788  0.5874
   15TCq1    O2  230   2.320   2.740   1.641 -0.7474  0.5013  0.0399
   15TCq1    C2  231   2.539   2.677   1.602  0.5783  0.4589 -0.4999
   15TCq1    C3  232   2.596   2.752   1.700 -0.3071  0.0798  0.2689
   15TCq1    C4  233   2.731   2.752   1.698 -0.0597  0.6207 -0.2525
   15TCq1    C5  234   2.802   2.690   1.602  0.1543  1.3815  0.1879
   15TCq1    C6  235   2.739   2.606   1.515 -1.3152  1.1929  0.6542
   15TCq1    C7  236   2.601   2.598   1.515 -0.3341 -0.0525 -0.2135
   15TCq1    C8  237   2.815   2.510   1.449  0.1088 -0.5193 -0.3922
   15TCq1    O4  238   2.921   2.471   1.493 -0.5034  0.6955  0.0329
   15TCq1    C9  239   2.805   2.844   1.784  0.6896 -0.1198  0.3722
   15TCq1    O5  240   2.932   2.842   1.781  0.2684 -0.1936  0.1894
   15TCq1    O6  241   2.728   2.920   1.849 -0.9761  0.2783  0.0467
   15TCq1    H1  242   2.447   2.467   1.592 -1.2406 -1.7640 -0.2310
   15TCq1    H2  243   2.542   2.805   1.778 -1.3337  0.7727 -0.9085
   15TCq1    H3  244   2.910   2.685   1.608 -0.0125 -2.8559 -0.5271
   15TCq1    H4  245   2.537   2.546   1.444  0.4376  1.1333 -1.8030
   16MPD2     C  246   2.720   2.384   1.122 -0.6779 -0.0479 -0.0781
   16MPD2    C1  247   2.781   2.389   1.244  0.2848  0.1867  0.0535
   16MPD2    C2  248   2.851   2.278   1.286  0.8392  0.1461 -0.3678
   16MPD2    C3  249   2.879   2.169   1.201  0.4109  0.3191  0.6638
   16MPD2    C4  250   2.829   2.171   1.077 -0.2755  0.3050  0.1296
   16MPD2    C5  251   2.744   2.274   1.044  0.3429 -0.1797 -0.1994
   16MPD2     H  252   2.886   2.265   1.388  1.2747  2.0865 -0.2867
   16MPD2    H1  253   2.838   2.091   1.004 -1.7275  0.1327  0.1509
   16MPD2    H2  254   2.650   2.460   1.088 -0.0583  1.4277  1.9427
   16MPD2    H3  255   2.708   2.264   0.943 -1.4307  0.5079  0.3743
   16MPD2     N  256   2.950   2.058   1.250  0.5891 -0.0141  0.3550
   16MPD2    H5  257   2.995   2.074   1.340 -0.7335 -3.5074  1.6427
   16MPD2    N1  258   2.747   2.495   1.333  0.0330  0.6198  0.4453
   16MPD2    H7  259   2.676   2.561   1.303 -0.1678  0.0432 -0.3624
   17TMC1    C1  260   0.433   2.342  10.806 -0.5231  0.0897  0.2792
   17TMC1    C2  261   0.420   2.242  10.715 -0.0059 -0.1898 -0.0166
   17TMC1    C3  262   0.368   2.270  10.592  0.2049 -0.4144 -0.2160
   17TMC1    C4  263   0.400   2.469  10.774 -0.3091 -0.2307 -0.3650
   17TMC1    C5  264   0.358   2.490  10.648  0.4685 -0.0945 -0.4795
   17TMC1    C6  265   0.341   2.398  10.548  0.2825 -0.3763  0.2482
   17TMC1     C  266   0.483   2.301  10.937 -0.8997 -0.2507 -0.5734
   17TMC1     O  267   0.479   2.183  10.955  0.2885  0.0120  0.2258
   17TMC1     H  268   0.434   2.140  10.752  3.3960 -1.0796 -3.8070
   17TMC1    H1  269   0.378   2.542  10.851  2.5391  0.3882 -0.1287
   17TMC1    H2  270   0.316   2.419  10.445  0.3838  1.1988  0.5435
   17TMC1    C7  271   0.334   2.624  10.606  0.3024 -0.4191  0.3025
   17TMC1    C8  272   0.380   2.163  10.495 -0.4644  0.7024 -0.3206
   17TMC1    O1  273   0.272   2.645  10.502 -0.1434  0.2327  0.3578
   17TMC1    O2  274   0.450   2.067  10.525 -0.4055  0.1968  0.3231
   17TMC1    O3  275   0.431   2.698  10.670 -0.2489  0.5263 -0.1137
   17TMC1    H3  276   0.470   2.655  10.749  2.3027  1.0875 -1.0881
   17TMC1    O5  277   0.319   2.180  10.373 -0.0407 -0.4867  0.0538
   17TMC1    H5  278   0.257   2.256  10.363  2.9782  2.0140  0.4000
   18MPD2     C  279   0.600   2.275  11.204 -0.3956 -0.0211 -0.0317
   18MPD2    C1  280   0.605   2.399  11.141 -0.0691  0.1369  0.1865
   18MPD2    C2  281   0.670   2.508  11.195  0.0077  0.0045  0.2680
   18MPD2    C3  282   0.754   2.490  11.308  0.8583  0.1336 -0.1095
   18MPD2    C4  283   0.749   2.364  11.364  0.2380  0.0093 -0.2621
   18MPD2    C5  284   0.672   2.262  11.317  0.1068  0.5155 -0.3708
   18MPD2     H  285   0.680   2.593  11.129  3.4655 -0.5172  0.1115
   18MPD2    H1  286   0.821   2.347  11.443 -0.1141 -1.6978 -0.3256
   18MPD2    H2  287   0.532   2.193  11.181  1.7185 -1.7720 -0.0378
   18MPD2    H3  288   0.684   2.164  11.362  0.4485  0.9005  0.3606
   18MPD2     N  289   0.856   2.584  11.351  0.0617  0.2518 -0.6032
   18MPD2    H5  290   0.923   2.550  11.420  0.2815  2.1819  0.1277
   18MPD2    N1  291   0.538   2.412  11.012  0.2703  0.0654 -0.0779
   18MPD2    H7  292   0.544   2.504  10.970  0.6032 -0.1776 -0.5638
   19TMC2    C1  293   3.058   3.109  14.166  0.2820  0.5285  0.1544
   19TMC2    C2  294   3.033   3.205  14.258 -0.8066 -0.1739  0.3900
   19TMC2    C3  295   2.899   3.230  14.285 -0.6565  0.9318 -0.1841
   19TMC2    C4  296   2.957   3.029  14.109 -0.4259  0.8254 -0.1011
   19TMC2    C5  297   2.829   3.044  14.147  0.7887  0.0723 -0.2375
   19TMC2    C6  298   2.800   3.147  14.238 -1.1937 -0.1189 -0.4095
   19TMC2     C  299   3.195   3.093  14.131 -0.0772 -0.2388 -0.0662
   19TMC2     O  300   3.210   3.041  14.021  0.1097 -0.5731 -0.0327
   19TMC2     H  301   3.101   3.276  14.302  0.2994 -0.7054 -0.4636
   19TMC2    H1  302   2.984   2.944  14.048  2.1655  0.9161  0.9249
   19TMC2    H2  303   2.698   3.180  14.257 -1.0782  0.7165 -1.2701
   19TMC2    C7  304   2.749   2.923  14.141 -0.0257 -0.1084  0.5867
   19TMC2    C8  305   2.864   3.349  14.358 -0.1404 -0.1900 -0.2518
   19TMC2    O1  306   2.775   2.839  14.056 -0.4322  0.3453 -0.5314
   19TMC2    O2  307   2.759   3.355  14.420 -0.2439 -0.2020 -0.4510
   19TMC2    O5  308   2.934   3.454  14.311  0.3699 -0.0212 -0.3614
   19TMC2    H5  309   3.006   3.441  14.246 -1.3379 -1.3069 -1.9816
   20MPD2     C  310   3.476   3.052  14.124 -0.6441 -0.3644  0.2943
   20MPD2    C1  311   3.405   3.090  14.234 -0.1837  0.0078  0.1275
   20MPD2    C2  312   3.464   3.091  14.362  0.7375 -0.1527 -0.2470
   20MPD2    C3  313   3.590   3.032  14.382 -0.8389 -0.4153 -0.7528
   20MPD2    C4  314   3.649   2.975  14.272 -0.1498  0.2213  0.1557
   20MPD2    C5  315   3.588   2.983  14.148  0.3439  0.1401  0.1365
   20MPD2     H  316   3.404   3.131  14.442  0.7054 -1.0264  0.1587
   20MPD2    H1  317   3.746   2.926  14.276 -0.6331 -0.6789  0.6818
   20MPD2    H2  318   3.434   3.064  14.024  0.4036  1.6557  0.1113
   20MPD2    H3  319   3.644   2.931  14.071 -1.6488 -1.8561  0.0471
   20MPD2     N  320   3.646   3.016  14.508 -0.1437 -0.2195  0.1590
   20MPD2    H5  321   3.722   2.949  14.515 -2.8577 -3.0918  2.0419
   20MPD2    N1  322   3.271   3.123  14.232 -0.2097  0.1362  0.6446
   20MPD2    H7  323   3.229   3.137  14.323  0.0320 -0.0508  0.7825
   21TMC2    C1  324   0.389   3.473  15.365  0.8259  0.7839 -0.3902
   21TMC2    C2  325   0.375   3.355  15.439  0.2520 -0.3372 -0.1646
   21TMC2    C3  326   0.269   3.334  15.523  0.4786 -0.6417 -0.3275
   21TMC2    C4  327   0.297   3.575  15.380 -0.0636 -0.9358  0.1759
   21TMC2    C5  328   0.191   3.552  15.461  0.0825 -0.3615 -1.0088
   21TMC2    C6  329   0.168   3.430  15.532 -0.2753 -0.2853  0.2380
   21TMC2     C  330   0.493   3.474  15.270 -0.2043 -0.1485 -0.2096
   21TMC2     O  331   0.571   3.378  15.267 -0.3759 -0.3343  0.2566
   21TMC2     H  332   0.446   3.275  15.425  0.5541 -0.3799  1.5146
   21TMC2    H1  333   0.306   3.676  15.342  2.3681 -0.9651  0.6575
   21TMC2    H2  334   0.078   3.429  15.592 -0.2167 -1.6389  0.3213
   21TMC2    C7  335   0.089   3.652  15.476 -0.3867  0.7206 -1.0827
   21TMC2    C8  336   0.249   3.220  15.609 -0.1647  0.8318 -0.2203
   21TMC2    O1  337   0.026   3.650  15.581  0.3483 -0.1946  0.3702
   21TMC2    O2  338   0.352   3.161  15.643  0.0017 -0.2683 -0.1020
   21TMC2    O5  339   0.131   3.233  15.670  0.0126 -0.2289  0.1541
   21TMC2    H5  340   0.060   3.242  15.602 -1.2714  0.8128  1.6476
   22MPD2     C  341   0.748   3.675  14.869  0.0202  0.0835  0.4079
   22MPD2    C1  342   0.783   3.561  14.944  0.1321  0.2550 -0.4286
   22MPD2    C2  343   0.700   3.531  15.054 -0.0665 -0.6232  0.0481
   22MPD2    C3  344   0.588   3.607  15.085 -0.2789 -0.1181 -0.3337
   22MPD2    C4  345   0.552   3.702  14.995 -0.0060 -0.1574 -1.4768
   22MPD2    C5  346   0.631   3.745  14.893 -0.0285  0.1757  0.3192
   22MPD2     H  347   0.736   3.450  15.116  0.4666  0.1999  0.8046
   22MPD2    H1  348   0.466   3.765  15.017 -0.1774 -0.4557 -1.2816
   22MPD2    H2  349   0.795   3.707  14.776 -2.7730  1.0585 -0.6690
   22MPD2    H3  350   0.606   3.822  14.821 -0.2961 -1.2386 -1.0969
   22MPD2     N  351   0.495   3.581  15.187  0.2580  0.4662  0.6863
   22MPD2    H5  352   0.425   3.652  15.206  0.1350  0.1790  1.2956
   22MPD2    N1  353   0.906   3.492  14.916 -0.2023 -0.2374  0.2871
   22MPD2    H7  354   0.935   3.419  14.980  1.4118  0.7995  0.7327
   23TMC2    C1  355   2.336   0.206  14.541 -0.3023 -0.0718 -0.2805
   23TMC2    C2  356   2.435   0.281  14.476 -0.8689  0.5286  0.1649
   23TMC2    C3  357   2.397   0.383  14.402 -0.0868  0.0057 -0.7816
   23TMC2    C4  358   2.203   0.234  14.516  0.0261  0.4101  0.1429
   23TMC2    C5  359   2.169   0.338  14.435 -0.2661  0.7048 -0.1141
   23TMC2    C6  360   2.267   0.416  14.385 -0.5673  0.2479  0.3959
   23TMC2     C  361   2.372   0.069  14.585 -0.5157 -1.0080  0.4005
   23TMC2     O  362   2.292   0.015  14.658 -0.7820 -0.2203 -0.0545
   23TMC2     H  363   2.540   0.260  14.491 -1.2524  0.3907  2.5462
   23TMC2    H1  364   2.125   0.170  14.557  0.8240 -0.3498  0.4859
   23TMC2    H2  365   2.249   0.503  14.322  0.1596  1.6804  2.1493
   23TMC2    C7  366   2.030   0.361  14.387  0.4793 -0.0726 -0.3972
   23TMC2    C8  367   2.492   0.466  14.329  0.1986  0.0012 -0.4843
   23TMC2    O1  368   2.021   0.439  14.295  0.1568  0.3860 -1.0949
   23TMC2    O2  369   2.458   0.534  14.231 -0.0349  0.1767 -0.6644
   23TMC2    O5  370   2.620   0.462  14.383 -0.1018 -0.6444 -0.0936
   23TMC2    H5  371   2.636   0.422  14.471  2.5615 -0.6639 -0.5759
   24MPD2     C  372   2.764   4.524  14.753  0.2833 -1.2401 -0.4889
   24MPD2    C1  373   2.628   4.536  14.801 -0.1532  0.4152  0.0506
   24MPD2    C2  374   2.545   4.618  14.733  0.1738  0.2605  1.1465
   24MPD2    C3  375   2.591   4.690  14.623 -0.7784 -0.5429 -0.2358
   24MPD2    C4  376   2.718   4.675  14.577 -0.5538  0.1115  0.4365
   24MPD2    C5  377   2.808   4.592  14.643 -0.4348 -0.8969  0.1789
   24MPD2     H  378   2.440   4.621  14.758  0.4282 -1.2476  2.4249
   24MPD2    H1  379   2.764   4.733  14.498 -0.9735 -1.2894 -0.8559
   24MPD2    H2  380   2.842   4.464  14.796 -0.5066 -1.7275  0.2636
   24MPD2    H3  381   2.912   4.603  14.614 -0.7018  0.2210 -0.3603
   24MPD2     N  382   2.505   0.039  14.554  0.0333  0.1189 -0.3021
   24MPD2    H5  383   2.560   0.088  14.484  1.3003  0.4457  0.9135
   24MPD2    N1  384   2.583   4.457  14.914  0.0517  1.2500 -0.0395
   24MPD2    H7  385   2.497   4.495  14.952  0.4931  1.3667  0.8428
   25TMC2    C1  386   0.448   2.275  11.676 -0.4037 -0.3109  0.6538
   25TMC2    C2  387   0.577   2.240  11.705  0.0933 -0.8986 -0.5762
   25TMC2    C3  388   0.638   2.272  11.820 -1.1266 -0.1689 -0.4735
   25TMC2    C4  389   0.378   2.361  11.753 -0.5117 -0.2639  0.0426
   25TMC2    C5  390   0.447   2.396  11.873 -0.1885  0.7369  0.4973
   25TMC2    C6  391   0.578   2.356  11.909 -0.0454  0.2160 -0.3843
   25TMC2     C  392   0.388   2.232  11.551  0.1676 -0.2545 -0.0828
   25TMC2     O  393   0.305   2.312  11.501 -0.5995 -0.2423 -0.9961
   25TMC2     H  394   0.627   2.175  11.634  0.3853 -0.3125 -0.9031
   25TMC2    H1  395   0.275   2.381  11.726 -0.0073  0.0990 -1.6372
   25TMC2    H2  396   0.625   2.381  12.003 -3.4852  0.5716  1.2586
   25TMC2    C7  397   0.370   2.428  11.987 -0.1812 -0.0259  0.3532
   25TMC2    C8  398   0.784   2.267  11.811  0.6646 -0.1743 -0.1254
   25TMC2    O1  399   0.399   2.363  12.086 -0.1884 -0.1866  0.1013
   25TMC2    O2  400   0.842   2.259  11.707 -0.3256 -0.6722 -0.0078
   25TMC2    O5  401   0.842   2.286  11.929 -0.1929 -0.2145  0.7831
   25TMC2    H5  402   0.790   2.248  12.003  0.3364 -1.4270  0.5263
   26MPD2     C  403   0.295   1.910  11.164  0.2017 -0.5603  0.2157
   26MPD2    C1  404   0.341   1.836  11.270  0.7453  0.1077 -0.3428
   26MPD2    C2  405   0.363   1.901  11.390 -0.1647  0.1265  0.0203
   26MPD2    C3  406   0.351   2.034  11.404  0.4076  0.1710 -0.1855
   26MPD2    C4  407   0.308   2.109  11.299 -0.3890  0.8050  0.2247
   26MPD2    C5  408   0.275   2.041  11.183 -0.1367 -0.3407 -0.7405
   26MPD2     H  409   0.390   1.850  11.482 -0.9910  1.0763  0.8020
   26MPD2    H1  410   0.296   2.216  11.289 -2.3337  0.4444 -1.1551
   26MPD2    H2  411   0.273   1.863  11.070  0.9655 -0.6958  0.1036
   26MPD2    H3  412   0.235   2.098  11.100  1.2509  3.4973  1.2552
   26MPD2     N  413   0.402   2.097  11.523  0.5645  0.0335  0.0117
   26MPD2    H5  414   0.456   2.045  11.591  0.2967 -0.4023 -0.1126
   26MPD2    N1  415   0.358   1.693  11.256 -0.0830  0.2084  0.1352
   26MPD2    H7  416   0.337   1.648  11.167  0.5233 -1.1530  0.6928
   27TMC2    C1  417   4.618   4.147  12.196 -0.5561 -0.1651  0.3309
   27TMC2    C2  418   4.637   4.272  12.141  0.5036  0.6477  0.7428
   27TMC2    C3  419   4.669   4.379  12.217  0.1355 -0.4417 -0.7129
   27TMC2    C4  420   4.644   4.134  12.330 -0.4364  0.0569  0.3778
   27TMC2    C5  421   4.678   4.252  12.402 -0.1150  0.9243  0.6627
   27TMC2    C6  422   4.689   4.385  12.351  0.6587 -0.3506 -0.0931
   27TMC2     C  423   4.486   4.097  12.165 -0.6822  0.1149 -0.1472
   27TMC2     O  424   4.416   4.047  12.257 -0.5331 -0.4382 -0.0647
   27TMC2     H  425   4.615   4.276  12.034 -0.4233  3.4471  1.0359
   27TMC2    H1  426   4.619   4.049  12.392 -0.0553 -1.5676 -1.6942
   27TMC2    H2  427   4.723   4.473  12.403 -2.2769  0.2963  0.7332
   27TMC2    C7  428   4.657   4.240  12.544 -0.1479  0.9268  0.2605
   27TMC2    C8  429   4.712   4.496  12.138 -0.3591 -0.1845 -0.2518
   27TMC2    O1  430   4.690   4.135  12.600 -0.1765 -0.7465  0.0340
   27TMC2    O2  431   0.021   4.491  12.026  0.0037 -0.0443 -0.0307
   27TMC2    O5  432   4.660   4.607  12.196 -0.2528 -0.3285  0.4997
   27TMC2    H5  433   4.618   4.594  12.284  0.7459  1.1243  1.1856
   28MPD2     C  434   4.070   4.085  11.912  0.6569 -0.3631  0.3195
   28MPD2    C1  435   4.093   4.125  12.042 -0.1010 -0.3074 -0.2675
   28MPD2    C2  436   4.228   4.124  12.073 -0.8752 -0.1651 -0.1082
   28MPD2    C3  437   4.327   4.094  11.985 -0.2436 -0.3244  0.0928
   28MPD2    C4  438   4.301   4.061  11.859  0.2400 -0.0057  0.0671
   28MPD2    C5  439   4.169   4.055  11.819  1.0819  0.8839  0.7017
   28MPD2     H  440   4.252   4.167  12.169 -0.6024 -0.7498  0.0850
   28MPD2    H1  441   4.379   4.019  11.796 -1.3624 -1.5398 -0.8937
   28MPD2    H2  442   3.967   4.083  11.878  0.0069  0.0851  2.2735
   28MPD2    H3  443   4.144   4.027  11.717 -1.9573  1.8703  1.1865
   28MPD2     N  444   4.461   4.100  12.026 -0.4693 -0.0623 -0.9727
   28MPD2    H5  445   4.538   4.110  11.961  0.7036  0.1370  0.4479
   28MPD2    N1  446   3.982   4.171  12.116  0.3169 -0.8652  0.4133
   28MPD2    H7  447   3.894   4.186  12.069  0.8834 -1.7729 -0.9178
   29TMC2    C1  448   3.872   2.205  14.654  0.4659 -0.2835  0.6756
   29TMC2    C2  449   3.831   2.187  14.787 -0.2736 -0.8807 -0.5771
   29TMC2    C3  450   3.862   2.282  14.881 -0.2333  0.3239  0.4641
   29TMC2    C4  451   3.946   2.316  14.624 -0.6384 -0.1915  0.3654
   29TMC2    C5  452   3.962   2.411  14.724  0.3421 -0.0318 -1.0483
   29TMC2    C6  453   3.929   2.392  14.857  0.5524  0.7282 -0.0303
   29TMC2     C  454   3.872   2.091  14.560  0.1917  0.2917  0.3349
   29TMC2     O  455   3.858   1.980  14.607 -0.4332 -0.6242 -0.0833
   29TMC2     H  456   3.787   2.089  14.805 -1.2716 -0.1431  0.9707
   29TMC2    H1  457   4.004   2.327  14.533 -2.3900  0.4962 -0.6758
   29TMC2    H2  458   3.924   2.472  14.930  2.8869  0.7299  0.1263
   29TMC2    C7  459   4.025   2.536  14.694  0.2233  0.3452 -0.7894
   29TMC2    C8  460   3.858   2.234  15.017  0.0756 -0.4661  0.0441
   29TMC2    O1  461   4.020   2.582  14.581 -0.4643 -0.2429 -0.1326
   29TMC2    O2  462   3.780   2.149  15.053  0.0535 -0.4364 -0.6047
   29TMC2    O5  463   3.975   2.269  15.075 -0.1207  0.0809  0.6880
   29TMC2    H5  464   4.037   2.308  15.010 -0.6119  0.8083  0.6539
   30MPD2     C  465   3.925   1.869  14.113  0.1056  0.0740 -0.1868
   30MPD2    C1  466   3.934   1.824  14.238 -0.2610  0.1025  0.8518
   30MPD2    C2  467   3.923   1.913  14.345 -0.6389  0.2486 -0.0495
   30MPD2    C3  468   3.891   2.040  14.322 -0.1390  0.7723 -0.1701
   30MPD2    C4  469   3.872   2.085  14.191 -0.0931  0.3553  0.3895
   30MPD2    C5  470   3.889   2.000  14.084  0.0963 -0.3038  0.2680
   30MPD2     H  471   3.948   1.878  14.444  1.8403 -1.8225 -1.3975
   30MPD2    H1  472   3.844   2.186  14.162  1.1349  0.5265 -0.2068
   30MPD2    H2  473   3.933   1.801  14.029  0.4957 -1.3751  1.0281
   30MPD2    H3  474   3.878   2.046  13.986  1.2619 -2.1664 -0.7286
   30MPD2     N  475   3.884   2.135  14.427 -0.1592 -0.1078  0.1185
   30MPD2    H5  476   3.867   2.232  14.403 -1.1400 -0.4931 -0.7236
   30MPD2    N1  477   3.966   1.694  14.278 -0.5046  0.4410  0.1365
   30MPD2    H7  478   3.974   1.688  14.379 -1.7533  1.1255  0.2809
   31TMC2    C1  479   1.562   0.609  15.899  0.6885  0.3732 -0.0243
   31TMC2    C2  480   1.438   0.643  15.953  0.0082 -0.6758 -0.0600
   31TMC2    C3  481   1.413   0.613  16.081  0.1205 -0.0905  0.2049
   31TMC2    C4  482   1.654   0.542  15.975  0.0044 -0.0989 -0.5985
   31TMC2    C5  483   1.622   0.523  16.108  0.2404 -0.4172  0.7428
   31TMC2    C6  484   1.504   0.560  16.166  0.5205 -0.6093 -0.0311
   31TMC2     C  485   1.574   0.618  15.755 -0.7071  0.4986 -0.5976
   31TMC2     O  486   1.521   0.706  15.685  0.2196 -0.3212  0.1805
   31TMC2     H  487   1.356   0.678  15.892 -0.3931 -1.2195  0.1662
   31TMC2    H1  488   1.753   0.528  15.934 -0.2341 -1.3747 -0.7547
   31TMC2    H2  489   1.485   0.552  16.272 -1.7774  0.6593 -0.3316
   31TMC2    C7  490   1.732   0.488  16.202  0.3607 -0.6786 -0.3277
   31TMC2    C8  491   1.275   0.577  16.108 -0.4028  0.0325 -0.5988
   31TMC2    O1  492   1.817   0.405  16.175  0.4794  0.6826  0.0172
   31TMC2    O2  493   1.240   0.464  16.127  0.6056  0.2594  0.1736
   31TMC2    O5  494   1.195   0.675  16.066  0.2308 -0.3711  0.2063
   31TMC2    H5  495   1.246   0.759  16.064 -1.0071  0.3576 -0.3618
   32MPD2     C  496   1.787   0.380  15.337 -0.6314 -0.1417 -0.4496
   32MPD2    C1  497   1.705   0.489  15.349 -0.0881  0.0815  0.4008
   32MPD2    C2  498   1.646   0.531  15.463  0.4378  0.4222 -0.4144
   32MPD2    C3  499   1.666   0.463  15.580 -0.1457  0.2484 -0.4650
   32MPD2    C4  500   1.742   0.355  15.569  0.4412 -0.0835 -0.9370
   32MPD2    C5  501   1.807   0.308  15.452  0.0954 -0.8067  0.2562
   32MPD2     H  502   1.597   0.628  15.467 -0.4937  0.0496 -2.4626
   32MPD2    H1  503   1.764   0.291  15.654 -2.9600 -1.9398 -1.4570
   32MPD2    H2  504   1.844   0.359  15.248 -1.7641  1.1556 -1.4855
   32MPD2    H3  505   1.884   0.232  15.456  0.0746 -0.7464  1.8390
   32MPD2     N  506   1.626   0.500  15.711  0.3107 -0.2359  0.1091
   32MPD2    H5  507   1.642   0.431  15.784 -0.4371  0.5353  1.0085
   32MPD2    N1  508   1.688   0.562  15.233  0.5908 -0.2538 -0.0033
   32MPD2    H7  509   1.768   0.559  15.171 -1.4645  0.3631 -2.6947
   33TMC2    C1  510   1.104   3.586  10.832 -0.1731 -0.5450 -0.4580
   33TMC2    C2  511   0.972   3.591  10.799 -0.1167 -0.5464  0.0140
   33TMC2    C3  512   0.938   3.615  10.666  0.0812 -0.0606  0.5829
   33TMC2    C4  513   1.202   3.597  10.738 -0.4306 -0.0994  0.5017
   33TMC2    C5  514   1.165   3.616  10.601  0.7010  0.2817  0.1676
   33TMC2    C6  515   1.037   3.634  10.572 -0.2204 -0.4326  0.5753
   33TMC2     C  516   1.136   3.518  10.953 -0.5130 -0.1500 -0.7526
   33TMC2     O  517   1.054   3.429  10.974 -0.1740  0.4351 -0.2066
   33TMC2     H  518   0.893   3.564  10.868 -0.7665 -2.1871 -1.3750
   33TMC2    H1  519   1.305   3.584  10.769 -0.4156 -0.2772  0.3768
   33TMC2    H2  520   1.007   3.654  10.470 -3.9197 -1.0542  1.5359
   33TMC2    C7  521   1.270   3.629  10.495  0.3814  0.1636  0.3998
   33TMC2    C8  522   0.800   3.621  10.623 -0.5189 -0.4217 -0.1955
   33TMC2    O1  523   1.380   3.609  10.540  0.3658 -0.1633  0.2784
   33TMC2    O2  524   0.783   3.620  10.503 -0.6601  0.1232 -0.0511
   33TMC2    O5  525   0.730   3.701  10.702 -0.3707  0.2272  0.1944
   33TMC2    H5  526   0.786   3.731  10.777 -0.7631 -0.2592  0.6752
   34MPD2     C  527   1.495   3.235  11.163 -0.5327  0.2989  0.1664
   34MPD2    C1  528   1.361   3.216  11.167 -0.1682 -0.3741  1.0942
   34MPD2    C2  529   1.282   3.308  11.105  0.0300 -0.0028 -0.1786
   34MPD2    C3  530   1.336   3.427  11.047 -0.7674 -0.2679  0.0596
   34MPD2    C4  531   1.474   3.441  11.050  0.1863 -0.1993 -0.0377
   34MPD2    C5  532   1.550   3.341  11.103 -0.8725  0.1557 -0.9910
   34MPD2     H  533   1.176   3.290  11.100 -0.1415 -0.0857  4.1806
   34MPD2    H1  534   1.529   3.523  11.005  0.4953 -0.0211  0.6578
   34MPD2    H2  535   1.561   3.162  11.209 -0.5572  0.9271  1.1866
   34MPD2    H3  536   1.658   3.354  11.102 -0.6893 -1.1052  3.1212
   34MPD2     N  537   1.264   3.529  10.992  0.1728  0.2240  0.0008
   34MPD2    H5  538   1.316   3.611  10.959 -2.1957  2.1801  1.1098
   34MPD2    N1  539   1.323   3.101  11.231  0.7922 -0.4364  0.2853
   34MPD2    H7  540   1.386   3.029  11.266  1.9047  1.1694  1.5694
   35TMC2    C1  541   2.430   4.122  11.702 -0.1329 -0.0352  0.5128
   35TMC2    C2  542   2.308   4.170  11.668 -0.5415  0.3397  0.1756
   35TMC2    C3  543   2.205   4.085  11.648 -0.3512 -0.1604 -0.1624
   35TMC2    C4  544   2.459   3.986  11.707  0.0358 -0.8573  0.7937
   35TMC2    C5  545   2.351   3.902  11.679 -0.0893  0.5682 -0.0405
   35TMC2    C6  546   2.222   3.949  11.658  0.3158 -0.3898  0.2922
   35TMC2     C  547   2.532   4.224  11.707 -0.4091  0.9431  0.6437
   35TMC2     O  548   2.507   4.338  11.673 -0.0249  0.1034  0.0808
   35TMC2     H  549   2.299   4.277  11.660  2.0937  0.6334  1.1356
   35TMC2    H1  550   2.560   3.947  11.708  1.6673  3.3370 -0.3778
   35TMC2    H2  551   2.143   3.882  11.624  0.5183  0.4171 -1.8025
   35TMC2    C7  552   2.357   3.764  11.725  0.0137 -0.9808  0.1652
   35TMC2    C8  553   2.102   4.127  11.559  0.0568 -0.8849 -0.2970
   35TMC2    O1  554   2.263   3.695  11.683  0.0306  0.4116  0.4712
   35TMC2    O2  555   2.121   4.220  11.480  0.0371 -0.3896  0.6463
   35TMC2    O5  556   1.986   4.101  11.617 -0.0813  0.3049 -0.0390
   35TMC2    H5  557   1.992   4.034  11.689  1.4420  0.0056 -0.4441
   36MPD2     C  558   2.988   4.393  11.830  0.0647 -0.5328 -0.1241
   36MPD2    C1  559   2.988   4.258  11.862 -0.5471  0.1115  0.1511
   36MPD2    C2  560   2.870   4.187  11.838  0.1182  1.3406 -0.7663
   36MPD2    C3  561   2.769   4.245  11.771  0.0076  0.7666  0.1103
   36MPD2    C4  562   2.775   4.381  11.732  0.1811 -0.2996 -0.3423
   36MPD2    C5  563   2.885   4.450  11.765  0.3853 -0.0789  0.2015
   36MPD2     H  564   2.864   4.083  11.866  1.6157  1.1254 -1.2670
   36MPD2    H1  565   2.700   4.422  11.664  1.1202 -0.0500 -1.2358
   36MPD2    H2  566   3.070   4.462  11.848 -1.9300  1.2912  1.8543
   36MPD2    H3  567   2.895   4.554  11.734  1.8465  0.0318  1.0730
   36MPD2     N  568   2.649   4.172  11.753  0.1981 -0.1482 -0.0001
   36MPD2    H5  569   2.645   4.084  11.804  1.0342 -0.0218  0.2763
   36MPD2    N1  570   3.103   4.205  11.926 -0.1812 -0.4879 -1.1669
   36MPD2    H7  571   3.183   4.266  11.934 -2.1741  2.1509 -1.2922
   37TMC2    C1  572   0.407   4.736  12.151  0.3997 -0.4739  0.1111
   37TMC2    C2  573   0.305   0.078  12.127 -0.4888  0.1627  0.0543
   37TMC2    C3  574   0.312   0.163  12.020  0.0793 -0.1454  0.0000
   37TMC2    C4  575   0.516   0.000  12.071  0.6584  0.2779  0.2969
   37TMC2    C5  576   0.530   0.089  11.970 -0.3117  0.6451 -0.2038
   37TMC2    C6  577   0.427   0.174  11.945 -0.4893  0.3589  0.8449
   37TMC2     C  578   0.403   4.632  12.257  0.1577  0.5637  0.2845
   37TMC2     O  579   0.491   4.548  12.260  0.1365  0.0172 -0.2936
   37TMC2     H  580   0.221   0.091  12.194 -2.4686 -0.3974 -2.3151
   37TMC2    H1  581   0.594   4.667  12.087  0.2396 -0.7037 -2.1726
   37TMC2    H2  582   0.440   0.235  11.857 -0.9232 -0.5950  0.1287
   37TMC2    C7  583   0.668   0.144  11.954  0.2594  0.7775  0.5867
   37TMC2    C8  584   0.183   0.225  11.988 -1.0819 -0.2608  0.5989
   37TMC2    O1  585   0.757   0.067  11.993 -0.3509 -0.2195 -0.3036
   37TMC2    O2  586   0.080   0.211  12.052  0.3871  0.4554 -0.9813
   37TMC2    O5  587   0.203   0.318  11.897  0.1912  0.4856 -0.4268
   37TMC2    H5  588   0.298   0.327  11.874 -0.0134 -0.7970 -1.7437
   38MPD2     C  589   0.218   4.426  12.686  0.1772 -0.0621  0.2845
   38MPD2    C1  590   0.309   4.380  12.596  0.2071 -0.1440  0.4464
   38MPD2    C2  591   0.336   4.456  12.485 -0.5541 -0.6668 -0.4279
   38MPD2    C3  592   0.268   4.573  12.455  0.5121 -0.2005 -0.2870
   38MPD2    C4  593   0.164   4.611  12.538 -0.3247 -0.0545 -0.3839
   38MPD2    C5  594   0.148   4.545  12.658  0.0715  0.2167  0.6636
   38MPD2     H  595   0.409   4.424  12.412 -1.4056 -0.1864 -1.4813
   38MPD2    H1  596   0.110   4.702  12.515 -1.0272  0.3274  2.8797
   38MPD2    H2  597   0.204   4.386  12.785 -2.0725  1.0028  0.3926
   38MPD2    H3  598   0.071   4.572  12.729 -1.4705  2.8604 -2.0129
   38MPD2     N  599   0.300   4.655  12.345  0.5195 -0.3558  0.0963
   38MPD2    H5  600   0.242   4.739  12.343 -1.3353 -1.6199  1.1040
   38MPD2    N1  601   0.380   4.260  12.607  0.0758  0.0781  0.1217
   38MPD2    H7  602   0.448   4.241  12.535  1.2250  0.6177  1.0770
   39TMC2    C1  603   2.883   2.187   1.729 -0.4724 -0.6832 -0.4749
   39TMC2    C2  604   2.776   2.265   1.765  0.6846  1.1609 -0.0855
   39TMC2    C3  605   2.794   2.391   1.822 -0.8914  0.7045  0.3282
   39TMC2    C4  606   3.006   2.236   1.730 -0.4571  0.5433 -0.1015
   39TMC2    C5  607   3.024   2.365   1.775  0.2811  0.4020  0.3542
   39TMC2    C6  608   2.919   2.443   1.827  0.4638  0.6966 -0.2596
   39TMC2     C  609   2.849   2.074   1.646 -0.5551 -0.9230  0.1480
   39TMC2     O  610   2.734   2.069   1.601  0.2799  0.6204 -0.1106
   39TMC2     H  611   2.674   2.232   1.751  1.1453  0.1580 -1.0290
   39TMC2    H1  612   3.092   2.191   1.681 -1.5473 -2.3194  0.6320
   39TMC2    H2  613   2.941   2.539   1.872 -1.4501 -0.0851  2.3391
   39TMC2    C7  614   3.155   2.437   1.759 -0.1657  0.2998 -0.2964
   39TMC2    C8  615   2.678   2.451   1.869  0.4308 -1.1242 -0.1894
   39TMC2    O1  616   3.150   2.555   1.800  0.2038  0.0708 -0.3267
   39TMC2    O2  617   2.561   2.428   1.830 -0.4805 -0.5054  0.4321
   39TMC2    O5  618   2.702   2.521   1.983  0.0676  0.1504  0.3043
   39TMC2    H5  619   2.791   2.529   2.024  1.5257 -1.7849 -2.4903
   40MPD2     C  620   3.038   1.767   1.590 -0.0141  0.8485  0.5667
   40MPD2    C1  621   2.944   1.864   1.569  0.1297 -0.4980  0.1983
   40MPD2    C2  622   2.838   1.821   1.489 -0.3154  0.3569  0.1726
   40MPD2    C3  623   2.827   1.693   1.436 -0.0677 -0.3711  0.5817
   40MPD2    C4  624   2.936   1.611   1.446  0.2438 -0.3819  0.4077
   40MPD2    C5  625   3.039   1.647   1.530 -0.5131  0.5772 -0.0062
   40MPD2     H  626   2.757   1.891   1.468 -0.0890  0.2182 -1.1598
   40MPD2    H1  627   2.941   1.510   1.407  0.4185 -0.5845  0.9575
   40MPD2    H2  628   3.126   1.786   1.650  1.3291 -1.9067 -0.5230
   40MPD2    H3  629   3.120   1.578   1.553 -2.7189 -2.2710 -0.8483
   40MPD2     N  630   2.717   1.650   1.355 -0.3801  0.0759 -0.0005
   40MPD2    H5  631   2.729   1.566   1.300 -0.3213  0.6528 -0.8681
   40MPD2    N1  632   2.956   1.991   1.627  0.8096 -0.1423  0.4309
   40MPD2    H7  633   3.038   2.000   1.687  1.0341  0.2485  0.0619
   41TMC2    C1  634   3.308   4.463  13.916 -0.5009  1.1665 -0.2235
   41TMC2    C2  635   3.273   4.594  13.945  0.0640  0.7142 -0.0009
   41TMC2    C3  636   3.310   4.687  13.855  0.8000 -0.5308  0.3127
   41TMC2    C4  637   3.396   4.436  13.817  0.1236  0.3256 -1.0072
   41TMC2    C5  638   3.427   4.540  13.722 -0.2249  0.1474  0.0412
   41TMC2    C6  639   3.385   4.670  13.737  0.2478 -0.0613 -0.6805
   41TMC2     C  640   3.308   4.371  14.024  0.0366 -0.0285 -0.0691
   41TMC2     O  641   3.371   4.267  14.010 -0.1100 -0.0806 -0.6567
   41TMC2     H  642   3.217   4.628  14.031 -2.2066 -3.0575  0.0326
   41TMC2    H1  643   3.428   4.334  13.798 -2.4649 -0.3849 -1.5250
   41TMC2    H2  644   3.415   0.018  13.682  1.7997  0.3040  0.7638
   41TMC2    C7  645   3.498   4.497  13.604  0.4293  0.0370 -0.3552
   41TMC2    C8  646   3.256   0.078  13.867 -0.7210 -0.5702  0.2981
   41TMC2    O1  647   3.566   4.394  13.621 -0.6122 -0.4649 -0.1623
   41TMC2    O2  648   3.250   0.159  13.779 -0.3333  0.0005 -0.1197
   41TMC2    O5  649   3.282   0.110  13.997  0.0894  0.3416 -0.6613
   41TMC2    H5  650   3.322   0.037  14.049  1.9813  1.4979 -0.4876
   42MPD2     C  651   3.323   4.218  14.281 -0.2346 -0.7430 -0.1160
   42MPD2    C1  652   3.270   4.348  14.263  0.7103  0.2046 -0.4691
   42MPD2    C2  653   3.234   4.403  14.382  0.0567 -0.4484  0.3322
   42MPD2    C3  654   3.239   4.347  14.508  0.7221 -0.0130  0.2584
   42MPD2    C4  655   3.302   4.227  14.518 -0.6435 -0.0406 -0.1710
   42MPD2    C5  656   3.338   4.166  14.408  0.7047 -0.1902  0.1483
   42MPD2     H  657   3.221   4.511  14.381  0.0127 -0.4711 -1.5342
   42MPD2    H1  658   3.323   4.179  14.613  0.7357  0.0540 -0.4209
   42MPD2    H2  659   3.342   4.150  14.198  2.3111 -1.2865  0.9112
   42MPD2    H3  660   3.381   4.068  14.427 -0.4565 -0.7736 -0.2878
   42MPD2     N  661   3.215   4.413  14.628  0.3558  0.2429  0.2751
   42MPD2    H5  662   3.231   4.365  14.716 -0.9730 -0.1290  0.3217
   42MPD2    N1  663   3.256   4.420  14.141 -0.4292 -0.1852  0.1039
   42MPD2    H7  664   3.221   4.515  14.151 -1.5287 -0.3127 -2.8208
   43TMC2    C1  665   3.685   2.454   0.896  0.0500  0.0091 -0.0176
   43TMC2    C2  666   3.549   2.454   0.890  0.4685 -0.0449  0.2245
   43TMC2    C3  667   3.482   2.571   0.906 -0.4874  0.2602  0.1696
   43TMC2    C4  668   3.747   2.568   0.928  0.2702 -0.2163  0.4622
   43TMC2    C5  669   3.686   2.691   0.931  0.3147 -0.5427  0.0584
   43TMC2    C6  670   3.551   2.687   0.928  0.3233 -0.2773 -0.1042
   43TMC2     C  671   3.772   2.355   0.843 -1.0184  0.0499 -0.0688
   43TMC2     O  672   3.892   2.356   0.860  0.3264  0.1836 -0.4970
   43TMC2     H  673   3.494   2.365   0.861  0.7634 -0.6867  1.6256
   43TMC2    H1  674   3.855   2.565   0.922  0.1250 -1.7364 -1.6123
   43TMC2    H2  675   3.498   2.781   0.937 -0.5025 -0.6777 -0.8200
   43TMC2    C7  676   3.761   2.806   0.890  0.1664 -0.4355 -0.3819
   43TMC2    C8  677   3.334   2.571   0.897  0.3333  0.3931 -0.5980
   43TMC2    O1  678   3.873   2.783   0.846  0.2854  0.1513  0.2743
   43TMC2    O2  679   3.272   2.478   0.847  0.0308 -0.0940  0.2445
   43TMC2    O5  680   3.276   2.675   0.964  0.0577 -0.1598 -0.2855
   43TMC2    H5  681   3.337   2.748   0.989 -3.6376  2.6653  0.5113
   44MPD2     C  682   3.850   1.979   0.511 -0.1782 -0.4626  0.5374
   44MPD2    C1  683   3.937   2.074   0.556  0.1579 -0.5608 -0.4078
   44MPD2    C2  684   3.886   2.160   0.651 -1.0378 -0.1142  0.2918
   44MPD2    C3  685   3.754   2.164   0.684  0.2861  0.4133  0.0396
   44MPD2    C4  686   3.667   2.073   0.631 -0.1450 -0.5219  0.0993
   44MPD2    C5  687   3.714   1.985   0.541  0.1542 -0.3176 -0.7806
   44MPD2     H  688   3.948   2.243   0.681 -1.8946  0.8763 -0.6532
   44MPD2    H1  689   3.561   2.068   0.653  0.0957 -0.4381  1.2773
   44MPD2    H2  690   3.877   1.897   0.446 -0.6398 -2.1386  2.4229
   44MPD2    H3  691   3.658   1.898   0.509  1.3615 -1.3558 -0.0754
   44MPD2     N  692   3.701   2.268   0.756 -0.3620  0.2873 -0.4369
   44MPD2    H5  693   3.601   2.278   0.742 -0.7496  0.6113  2.6353
   44MPD2    N1  694   4.066   2.097   0.511  0.2412 -0.2869  0.5832
   44MPD2    H7  695   4.113   2.181   0.543 -1.4106  1.6642 -2.0816
   45TMC2    C1  696   4.168   4.565   9.997  0.2011 -0.4809  0.3756
   45TMC2    C2  697   4.062   4.643   9.956  0.9886 -0.1168  0.2465
   45TMC2    C3  698   4.071   0.036   9.973  0.5836 -0.0266  0.3269
   45TMC2    C4  699   4.284   4.620  10.046  1.1632  0.5234  0.4239
   45TMC2    C5  700   4.289   0.015  10.059  0.0562 -0.8583  0.4932
   45TMC2    C6  701   4.185   0.096  10.023 -0.6168  0.4273  0.2767
   45TMC2     C  702   4.159   4.424   9.980 -0.5229  0.5794  0.0750
   45TMC2     O  703   4.259   4.366  10.012  0.1154  0.6717  0.0597
   45TMC2     H  704   3.995   4.608   9.879  0.5073 -2.1011  1.5614
   45TMC2    H1  705   4.369   4.559  10.074 -0.6853 -2.4971 -0.5858
   45TMC2    H2  706   4.193   0.202  10.040  0.2513  0.2098  1.1992
   45TMC2    C7  707   4.412   0.089  10.083 -0.5503  0.3118  0.0073
   45TMC2    C8  708   3.966   0.122   9.906 -0.1616 -1.0168 -0.1277
   45TMC2    O1  709   4.409   0.193  10.148 -0.7551  0.2860 -0.0144
   45TMC2    O2  710   3.851   0.088   9.889 -0.3780 -0.7173 -0.3345
   45TMC2    O5  711   4.026   0.230   9.860 -0.1454 -0.6249 -1.0373
   45TMC2    H5  712   4.123   0.217   9.852  0.2427  1.5227  0.1339
   46MPD2     C  713   4.092   4.130   9.993 -0.0348 -0.5438  0.2387
   46MPD2    C1  714   4.005   4.235   9.974 -0.1417  0.3796 -0.6428
   46MPD2    C2  715   3.873   4.210   9.953  0.1469  0.2486  0.1388
   46MPD2    C3  716   3.821   4.082   9.946  1.0391 -0.8927 -0.4135
   46MPD2    C4  717   3.912   3.976   9.959  0.0051 -0.1437 -0.1044
   46MPD2    C5  718   4.049   4.000   9.982  0.2705  0.1603 -0.5220
   46MPD2     H  719   3.811   4.299   9.953 -0.9583 -0.5114  0.4173
   46MPD2    H1  720   3.878   3.873   9.948  0.9951 -0.6412  1.4011
   46MPD2    H2  721   4.200   4.134  10.009  0.4014 -0.5884 -2.7641
   46MPD2    H3  722   4.112   3.913   9.976  0.5728  0.4040 -0.8827
   46MPD2     N  723   3.683   4.057   9.907  0.2026  0.1826 -0.2005
   46MPD2    H5  724   3.617   4.134   9.914 -1.1598 -0.6779 -3.5207
   46MPD2    N1  725   4.030   4.375   9.966 -0.3805 -0.5596  0.4948
   46MPD2    H7  726   3.954   4.439   9.948 -0.1117 -0.6022 -0.7978
   47TMC2    C1  727   2.030   4.606   9.339  0.8033 -0.5600  0.3181
   47TMC2    C2  728   2.130   4.638   9.429  0.3150 -0.0550  0.0011
   47TMC2    C3  729   2.130   0.023   9.481  0.5954 -0.7466 -0.5768
   47TMC2    C4  730   1.934   4.693   9.305 -0.2848 -0.5052  0.3026
   47TMC2    C5  731   1.942   0.078   9.368  0.3068  0.6129 -0.0075
   47TMC2    C6  732   2.034   0.110   9.455  0.1949 -0.1854  0.2151
   47TMC2     C  733   2.060   4.496   9.246  0.0769 -0.1092 -1.0911
   47TMC2     O  734   1.977   4.477   9.159 -0.0340  0.4913 -0.8498
   47TMC2     H  735   2.217   4.577   9.453 -0.6429 -0.2536  3.0865
   47TMC2    H1  736   1.853   4.656   9.244  1.8864 -1.1908 -2.1444
   47TMC2    H2  737   2.024   0.207   9.502 -2.2673 -0.5151  0.4113
   47TMC2    C7  738   1.830   0.171   9.347  0.0992 -0.1868  0.4971
   47TMC2    C8  739   2.238   0.063   9.564 -0.5236  0.5044 -0.6297
   47TMC2    O1  740   1.811   0.248   9.439  0.4782 -0.7110  0.2378
   47TMC2    O2  741   2.315   4.730   9.615  0.3444 -0.3145  0.1923
   47TMC2    O5  742   2.243   0.195   9.569 -0.7751  0.2894 -0.0503
   47TMC2    H5  743   2.187   0.231   9.497  0.1365  0.6718 -0.5669
   48MPD2     C  744   2.185   4.301   9.068  0.6765  0.0060  0.4559
   48MPD2    C1  745   2.224   4.322   9.197  0.1019 -0.8623  0.1813
   48MPD2    C2  746   2.325   4.249   9.254  0.3081  0.4374  0.4881
   48MPD2    C3  747   2.380   4.147   9.184  0.4133 -0.1371  0.1041
   48MPD2    C4  748   2.344   4.120   9.049  0.2864  0.8789  0.5985
   48MPD2    C5  749   2.246   4.202   8.990 -0.5021  0.5046 -0.2471
   48MPD2     H  750   2.356   4.264   9.357 -1.3844  1.0541  0.9111
   48MPD2    H1  751   2.389   4.056   8.974 -0.3189  1.5894 -0.3798
   48MPD2    H2  752   2.116   4.369   9.020 -0.0495 -1.6085 -0.7805
   48MPD2    H3  753   2.219   4.188   8.886 -1.4982 -1.2078  0.2346
   48MPD2     N  754   2.483   4.071   9.238 -0.7019  0.2387  0.4913
   48MPD2    H5  755   2.520   4.085   9.331 -1.4907 -3.3507  1.3474
   48MPD2    N1  756   2.169   4.420   9.280 -1.1735 -0.4277  0.4430
   48MPD2    H7  757   2.208   4.421   9.373  1.0198 -3.2780 -0.4567
   49TMC2    C1  758   0.078   1.864  10.605 -0.3963  0.2516  0.3063
   49TMC2    C2  759   0.159   1.827  10.711 -0.1992  0.7027 -0.0416
   49TMC2    C3  760   0.169   1.690  10.737  0.3410  0.0026 -0.7370
   49TMC2    C4  761   0.010   1.774  10.528 -0.4257 -0.1084 -0.0027
   49TMC2    C5  762   0.025   1.641  10.557 -0.5747  0.1752  0.2224
   49TMC2    C6  763   0.106   1.594  10.658 -0.0974 -0.3379 -0.2116
   49TMC2     C  764   0.030   1.998  10.587  0.9799 -0.2805  0.7613
   49TMC2     O  765   4.723   2.023  10.476 -0.1140  0.1460  0.4351
   49TMC2     H  766   0.217   1.903  10.763  1.6647  0.4625 -1.7950
   49TMC2    H1  767   4.689   1.806  10.446  1.7444  2.5929 -0.5751
   49TMC2    H2  768   0.124   1.490  10.684 -3.9974 -0.9346  0.0979
   49TMC2    C7  769   4.677   1.545  10.499  0.3094  0.4884 -0.1901
   49TMC2    C8  770   0.233   1.650  10.857  0.1383 -0.1389 -0.0753
   49TMC2    O1  771   4.695   1.433  10.543  0.0799  0.0103  0.1526
   49TMC2    O2  772   0.214   1.543  10.903  0.1636 -0.1231 -0.6002
   49TMC2    O5  773   0.354   1.715  10.864 -0.0378 -0.1170 -0.8738
   49TMC2    H5  774   0.374   1.781  10.795  1.5246 -1.6079 -1.8569
   50MPD2     C  775   0.007   2.306  10.591 -0.3613 -0.3749  0.1292
   50MPD2    C1  776   0.035   2.218  10.704 -0.0983  0.0390 -0.5013
   50MPD2    C2  777   0.063   2.279  10.823  1.1884  0.1611  0.7403
   50MPD2    C3  778   0.058   2.417  10.839  1.0291  0.0843 -0.3287
   50MPD2    C4  779   0.026   2.492  10.729 -0.1708 -0.3442  0.3005
   50MPD2    C5  780   4.734   2.438  10.612  0.2573 -0.1622 -0.0769
   50MPD2     H  781   0.101   2.212  10.899  0.3674 -0.5370  0.5320
   50MPD2    H1  782   0.016   2.599  10.742 -0.6315 -0.5031  1.3057
   50MPD2    H2  783   0.003   2.268  10.490 -0.0572 -0.6502  0.2223
   50MPD2    H3  784   4.698   2.505  10.534 -1.3917 -0.1946  0.6511
   50MPD2     N  785   0.085   2.483  10.960 -0.1601 -0.1505 -0.0880
   50MPD2    H5  786   0.072   2.584  10.961 -0.0767 -0.1507  0.9700
   50MPD2    N1  787   0.053   2.075  10.695 -0.1795  0.3593 -0.3130
   50MPD2    H7  788   0.076   2.028  10.782 -0.0203  1.1368  0.0627
   51TMC2    C1  789   4.472   1.049   1.393 -0.1173 -0.1954  0.0585
   51TMC2    C2  790   4.332   1.073   1.395  0.6896 -0.6727  0.7023
   51TMC2    C3  791   4.296   1.207   1.401  0.6802 -0.0194 -0.0516
   51TMC2    C4  792   4.564   1.152   1.421 -0.2588 -0.4817  0.4171
   51TMC2    C5  793   4.523   1.278   1.415  0.2414  0.3286  0.4251
   51TMC2    C6  794   4.390   1.307   1.399  0.1720  0.1017  0.0439
   51TMC2     C  795   4.526   0.917   1.370 -0.2047 -0.3357  0.7459
   51TMC2     O  796   4.648   0.906   1.371  0.1833  0.7165  0.2701
   51TMC2     H  797   4.248   1.006   1.387  0.1426 -0.0154  0.9263
   51TMC2    H1  798   4.665   1.137   1.458  1.0510  2.6046 -1.9027
   51TMC2    H2  799   4.352   1.409   1.398 -0.5230 -0.1514  0.5308
   51TMC2    C7  800   4.624   1.368   1.377  0.0487 -0.2185  1.2373
   51TMC2    C8  801   4.162   1.247   1.440  0.3813 -0.4092  0.2682
   51TMC2    O1  802   4.730   1.312   1.349 -0.1940  0.5307  0.1844
   51TMC2    O2  803   4.124   1.358   1.403  0.1751  0.0487  0.1202
   51TMC2    O5  804   4.106   1.166   1.529  0.1377  0.6107  0.0066
   51TMC2    H5  805   4.170   1.110   1.577  0.7179  1.2080 -0.0808
   52MPD2     C  806   4.473   0.411   1.279 -0.3434 -0.4879  0.5063
   52MPD2    C1  807   4.595   0.494   1.285 -0.1278  0.0043 -0.2954
   52MPD2    C2  808   4.575   0.621   1.311 -0.2955 -0.1401  0.2133
   52MPD2    C3  809   4.450   0.685   1.328  0.0010 -0.2479 -0.5571
   52MPD2    C4  810   4.343   0.602   1.316  0.0052 -0.0419  0.0538
   52MPD2    C5  811   4.353   0.470   1.282 -0.0537 -0.5421  0.0883
   52MPD2     H  812   4.665   0.682   1.309  0.0166 -0.5502  1.3189
   52MPD2    H1  813   4.246   0.642   1.341  0.5632  1.6976 -0.5303
   52MPD2    H2  814   4.474   0.305   1.254 -1.2532 -0.4895  0.4782
   52MPD2    H3  815   4.260   0.415   1.282 -0.5424  0.2763 -3.2886
   52MPD2     N  816   4.427   0.823   1.348  0.1014  0.2504  0.4505
   52MPD2    H5  817   4.328   0.847   1.349 -0.3030 -1.3363 -0.6050
   52MPD2    N1  818   4.725   0.448   1.252  0.1431  0.2633 -0.7018
   52MPD2    H7  819   0.063   0.513   1.248 -0.6191  1.1924 -0.5202
   53TMC2    C1  820   1.352   0.303  12.141  0.3280  0.3363 -0.0575
   53TMC2    C2  821   1.490   0.283  12.118  0.3674  0.0055  0.4651
   53TMC2    C3  822   1.559   0.190  12.195  0.1893 -0.3262  0.0823
   53TMC2    C4  823   1.294   0.227  12.242 -0.3286 -0.0140  0.2288
   53TMC2    C5  824   1.365   0.123  12.298 -0.6617  0.2719  0.3564
   53TMC2    C6  825   1.496   0.105  12.278 -0.1704  0.2418  0.0129
   53TMC2     C  826   1.277   0.376  12.040  0.2918 -0.2892  0.6674
   53TMC2     O  827   1.322   0.468  11.974  0.6846 -0.1882  0.0515
   53TMC2     H  828   1.545   0.351  12.053  0.6357 -0.9919 -0.3408
   53TMC2    H1  829   1.187   0.239  12.255 -0.2413 -0.8911  1.6382
   53TMC2    H2  830   1.559   0.035  12.334  0.3038 -1.7862 -3.0505
   53TMC2    C7  831   1.282   0.027  12.369  0.0928 -0.0716  0.1996
   53TMC2    C8  832   1.698   0.169  12.163  0.5908  0.6036 -0.4186
   53TMC2    O1  833   1.175   0.081  12.402 -0.0189 -0.1782 -0.4571
   53TMC2    O2  834   1.775   0.264  12.146  0.4263 -0.5543  0.0095
   53TMC2    O5  835   1.732   0.037  12.170 -0.1196  0.0052 -0.0482
   53TMC2    H5  836   1.653   4.720  12.172 -1.4354  1.8613  1.2993
   54MPD2     C  837   1.036   0.494  11.906  0.4842 -0.3459  0.0565
   54MPD2    C1  838   1.037   0.365  11.959 -0.7272  0.3690 -0.1561
   54MPD2    C2  839   0.922   0.292  11.960  0.4303  0.2424  0.4190
   54MPD2    C3  840   0.803   0.338  11.903 -0.3207 -0.7379 -0.4920
   54MPD2    C4  841   0.796   0.470  11.857  0.1023  0.2831 -1.0282
   54MPD2    C5  842   0.914   0.545  11.866 -0.5446 -0.3293  0.1208
   54MPD2     H  843   0.934   0.191  11.998  1.5672 -0.2132 -1.1668
   54MPD2    H1  844   0.702   0.509  11.821 -0.3378 -0.2148 -0.4190
   54MPD2    H2  845   1.121   0.561  11.907  0.0996  0.1303  0.9710
   54MPD2    H3  846   0.907   0.648  11.831 -0.6424 -0.1971  0.5270
   54MPD2     N  847   0.685   0.270  11.905 -0.8694  0.0629  0.2495
   54MPD2    H5  848   0.602   0.320  11.874 -0.1706  1.1088  0.0975
   54MPD2    N1  849   1.150   0.323  12.038 -0.1354 -0.3659  0.3606
   54MPD2    H7  850   1.141   0.236  12.091 -1.3737 -0.5306 -0.1089
   55TMC2    C1  851   1.608   2.944   0.338 -0.4562  0.5743 -0.4438
   55TMC2    C2  852   1.711   3.030   0.301  0.2643  0.3147  0.4503
   55TMC2    C3  853   1.835   2.999   0.338  0.1498  0.5080 -0.3243
   55TMC2    C4  854   1.626   2.830   0.412 -0.2979 -0.1058  0.5194
   55TMC2    C5  855   1.752   2.810   0.459  0.0418 -0.6007  0.0003
   55TMC2    C6  856   1.853   2.899   0.424 -0.7824 -0.1580 -0.2890
   55TMC2     C  857   1.465   2.991   0.328  0.6655  0.3491  0.5110
   55TMC2     O  858   1.376   2.911   0.344 -0.4792 -0.5899 -0.0438
   55TMC2     H  859   1.689   3.111   0.233  1.1383  0.8189  0.7724
   55TMC2    H1  860   1.542   2.762   0.424 -0.2593  0.1796  2.3690
   55TMC2    H2  861   1.954   2.881   0.458 -0.3393  1.1992 -0.8852
   55TMC2    C7  862   1.786   2.698   0.547  0.5383  0.0772  0.3613
   55TMC2    C8  863   1.948   3.076   0.308  0.3102 -0.1772  0.2201
   55TMC2    O1  864   1.905   2.661   0.544 -0.1557  0.4417  0.0539
   55TMC2    O2  865   2.061   3.025   0.320  0.3570  0.3755  0.5538
   55TMC2    O5  866   1.919   3.208   0.308  0.3436  0.1849  0.6149
   55TMC2    H5  867   1.823   3.223   0.298 -0.0751 -1.7890  1.5993
   56MPD2     C  868   1.352   3.343   0.331 -0.1241 -0.1945  0.2405
   56MPD2    C1  869   1.337   3.207   0.334 -0.5576  0.4630  0.0780
   56MPD2    C2  870   1.212   3.149   0.353 -0.1469 -0.1017  0.8523
   56MPD2    C3  871   1.105   3.237   0.377  0.5335  0.4793  0.0126
   56MPD2    C4  872   1.126   3.376   0.392 -0.5543 -0.4621  0.0338
   56MPD2    C5  873   1.248   3.422   0.362  0.2340  0.0410 -0.0619
   56MPD2     H  874   1.191   3.043   0.359 -2.3184  0.3803  1.7409
   56MPD2    H1  875   1.047   3.447   0.417  0.7357  1.1848 -0.5748
   56MPD2    H2  876   1.447   3.391   0.314  0.4459 -1.5209 -0.2854
   56MPD2    H3  877   1.268   3.528   0.355  0.7490 -0.2173 -2.3788
   56MPD2     N  878   0.975   3.179   0.390  0.1755 -0.4371  0.1637
   56MPD2    H5  879   0.971   3.082   0.362  0.4971 -0.0941 -1.0551
   56MPD2    N1  880   1.456   3.129   0.325  0.0785  0.2204  0.4976
   56MPD2    H7  881   1.545   3.176   0.309  0.7344 -0.8349  0.9608
   57TMC2    C1  882   1.292   3.126  13.977  0.0951 -0.2938 -0.3137
   57TMC2    C2  883   1.203   3.060  13.898  0.1846 -0.7615  0.2331
   57TMC2    C3  884   1.233   3.035  13.766 -0.3027  0.6099 -0.8821
   57TMC2    C4  885   1.404   3.179  13.911  0.0556  0.1292 -0.5722
   57TMC2    C5  886   1.439   3.156  13.783  0.1600 -0.3777  0.0893
   57TMC2    C6  887   1.351   3.079  13.708  0.3761  0.0213 -0.1317
   57TMC2     C  888   1.239   3.181  14.094 -0.6459 -0.7248  0.4657
   57TMC2     O  889   1.118   3.176  14.119  0.7011 -0.4423 -0.2085
   57TMC2     H  890   1.115   3.016  13.945  0.3818 -0.4358  0.9054
   57TMC2    H1  891   1.462   3.257  13.959 -0.3207  1.0408 -1.5762
   57TMC2    H2  892   1.367   3.056  13.604  1.4652  2.0648 -0.4195
   57TMC2    C7  893   1.478   3.276  13.705  0.3632  0.1235  1.0293
   57TMC2    C8  894   1.155   2.950  13.678  0.2325  0.2377  0.0673
   57TMC2    O1  895   1.422   3.380  13.730  0.0631  0.0214  0.1095
   57TMC2    O2  896   1.195   2.894  13.576  0.0531 -0.0221  0.3161
   57TMC2    O5  897   1.020   2.972  13.705  0.2340  0.5069  0.1936
   57TMC2    H5  898   0.995   3.028  13.782 -1.3777  3.4269 -2.4545
   58MPD2     C  899   1.306   3.505  14.471  0.1031  0.2526  0.4011
   58MPD2    C1  900   1.196   3.449  14.425  0.2175  0.0560  0.6602
   58MPD2    C2  901   1.208   3.345  14.337 -0.1334  0.1983  0.0146
   58MPD2    C3  902   1.334   3.300  14.290 -0.6538  0.7427  0.1995
   58MPD2    C4  903   1.449   3.353  14.351  0.2791 -0.6332 -0.4950
   58MPD2    C5  904   1.429   3.457  14.444  0.4047  0.1288 -0.1147
   58MPD2     H  905   1.115   3.327  14.285 -0.0737 -1.5375  0.5321
   58MPD2    H1  906   1.547   3.328  14.313  1.1251  0.6767  0.8235
   58MPD2    H2  907   1.306   3.586  14.543  0.2881  2.9415 -2.6633
   58MPD2    H3  908   1.511   3.482  14.509  0.7360  3.1666 -1.7060
   58MPD2     N  909   1.346   3.226  14.167 -0.4130 -0.2437  0.4283
   58MPD2    H5  910   1.435   3.190  14.134  0.4580  0.8129  1.6393
   58MPD2    N1  911   1.071   3.508  14.468  0.3997 -0.4633 -0.4623
   58MPD2    H7  912   1.076   3.579  14.541 -1.5957 -0.1892 -0.5822
   59TMC2    C1  913   3.827   3.692  13.115 -0.2406  1.0695  0.0819
   59TMC2    C2  914   3.842   3.816  13.171 -0.0953 -0.3368 -0.3065
   59TMC2    C3  915   3.753   3.913  13.139 -0.0230  1.3522  0.4879
   59TMC2    C4  916   3.729   3.664  13.021  0.1107  0.0659 -0.4883
   59TMC2    C5  917   3.629   3.759  13.004  0.1384  0.4128  0.4944
   59TMC2    C6  918   3.639   3.885  13.065 -0.1848 -0.2753  0.1766
   59TMC2     C  919   3.942   3.599  13.108 -0.5525  0.5974 -0.3640
   59TMC2     O  920   3.952   3.532  13.005  0.3044  0.1728 -0.1088
   59TMC2     H  921   3.939   3.835  13.215  0.2391  0.0284 -1.2079
   59TMC2    H1  922   3.728   3.571  12.965  1.4514 -1.3626  1.8816
   59TMC2    H2  923   3.559   3.954  13.042  1.1248  1.5362  1.0632
   59TMC2    C7  924   3.505   3.723  12.937  0.1393  0.7688 -0.1387
   59TMC2    C8  925   3.785   4.046  13.182 -0.6065 -0.1508  0.0373
   59TMC2    O1  926   3.443   3.622  12.966  0.1367  0.3041 -0.2835
   59TMC2    O2  927   3.835   4.063  13.293  0.1166  0.0966 -0.0198
   59TMC2    O5  928   3.684   4.120  13.124 -0.1968  0.1753  0.3173
   59TMC2    H5  929   3.670   4.093  13.031 -2.9445  0.2571  0.7289
   60MPD2     C  930   4.214   3.470  13.133 -0.9892  0.4298  0.2674
   60MPD2    C1  931   4.149   3.545  13.231 -0.0484 -0.6060  0.6179
   60MPD2    C2  932   4.218   3.580  13.339  0.7887 -0.1819 -0.4057
   60MPD2    C3  933   4.346   3.547  13.362 -1.4468 -0.7023 -0.0563
   60MPD2    C4  934   4.409   3.473  13.262  0.2436  0.4461  0.1111
   60MPD2    C5  935   4.343   3.432  13.147  0.0749  0.4206  0.4795
   60MPD2     H  936   4.157   3.623  13.418  0.3640  0.7502 -1.2251
   60MPD2    H1  937   4.510   3.435  13.275  0.7156  1.6549 -0.0158
   60MPD2    H2  938   4.175   3.452  13.034 -1.1915 -0.1552  0.4511
   60MPD2    H3  939   4.393   3.373  13.071 -0.3080  1.3659 -0.5054
   60MPD2     N  940   4.416   3.573  13.483  0.5468 -0.4276 -0.4904
   60MPD2    H5  941   4.509   3.531  13.489  1.1603  0.9486 -0.3765
   60MPD2    N1  942   4.023   3.600  13.220 -0.2655 -0.0477 -0.0554
   60MPD2    H7  943   3.988   3.657  13.297  2.2591  1.3222  0.0824
   61TMC2    C1  944   3.603   0.050  15.415 -0.2294  0.4414 -0.9845
   61TMC2    C2  945   3.599   4.685  15.502 -0.2220 -0.1182 -0.1751
   61TMC2    C3  946   3.507   4.688  15.598  0.5561 -0.9411 -0.4444
   61TMC2    C4  947   3.520   0.163  15.425  0.3582 -0.0154  0.1210
   61TMC2    C5  948   3.427   0.157  15.523 -0.5295 -0.1861 -0.5714
   61TMC2    C6  949   3.408   0.043  15.594  0.0467  0.0036 -0.3844
   61TMC2     C  950   3.720   0.049  15.327  0.3298 -0.3377 -0.3440
   61TMC2     O  951   3.813   4.719  15.366  0.2645  0.1962 -0.1539
   61TMC2     H  952   3.672   4.606  15.501 -0.4067 -0.3378  2.8973
   61TMC2    H1  953   3.533   0.249  15.360 -1.0153  0.1821  0.0957
   61TMC2    H2  954   3.330   0.038  15.670  0.8487 -0.9886  0.3680
   61TMC2    C7  955   3.325   0.260  15.534  0.0341  0.8330 -0.5547
   61TMC2    C8  956   3.524   4.608  15.720 -0.8536 -0.0954 -0.1075
   61TMC2    O1  957   3.308   0.332  15.435 -0.0475  0.7211 -0.3103
   61TMC2    O2  958   3.624   4.535  15.742 -0.2566  0.3768  0.3066
   61TMC2    O5  959   3.477   4.677  15.817  0.2429  0.7508  0.1089
   61TMC2    H5  960   3.449   0.029  15.802  1.0403  0.9792  0.0528
   62MPD2     C  961   3.949   0.108  15.141  0.3002 -0.4814  0.9478
   62MPD2    C1  962   3.828   0.174  15.140  0.8574 -0.4475  0.1841
   62MPD2    C2  963   3.808   0.287  15.060 -0.5564  0.3079  1.0701
   62MPD2    C3  964   3.904   0.335  14.980 -0.2293  0.2325 -0.2621
   62MPD2    C4  965   4.026   0.266  14.975 -0.6702 -0.7834 -0.0145
   62MPD2    C5  966   4.045   0.159  15.053  0.4677 -0.6120  0.3287
   62MPD2     H  967   3.717   0.341  15.082 -1.2091 -0.3287 -0.0718
   62MPD2    H1  968   4.114   0.289  14.915  0.6414 -3.3295  0.9386
   62MPD2    H2  969   3.965   0.024  15.208  0.2395  0.0821  1.6773
   62MPD2    H3  970   4.143   0.113  15.049  0.6315 -0.3246  1.1380
   62MPD2     N  971   3.879   0.449  14.904 -0.5849  0.2527 -0.3978
   62MPD2    H5  972   3.790   0.497  14.911 -0.7577 -0.2310  0.6717
   62MPD2    N1  973   3.722   0.140  15.223  0.3229 -0.2252  0.4700
   62MPD2    H7  974   3.637   0.191  15.202  0.0678 -1.0967 -0.6401
   63TMC2    C1  975   2.562   4.619   9.865 -0.2462  0.0214 -0.5615
   63TMC2    C2  976   2.677   4.561   9.815 -0.3936 -0.0791  0.2157
   63TMC2    C3  977   2.791   4.628   9.834 -0.0082  0.7126 -0.7117
   63TMC2    C4  978   2.555   4.739   9.920 -0.4557  0.8896 -0.3217
   63TMC2    C5  979   2.679   0.058   9.950 -0.3847 -0.8473 -0.4517
   63TMC2    C6  980   2.795   0.003   9.900 -0.1478 -0.4488  0.1904
   63TMC2     C  981   2.445   4.538   9.877  0.0186 -0.3412 -0.0687
   63TMC2     O  982   2.412   4.460   9.787 -0.4348  0.0447 -0.0330
   63TMC2     H  983   2.684   4.456   9.788  1.2702  0.4266 -1.3406
   63TMC2    H1  984   2.453   0.032   9.933 -1.0497 -0.6597 -0.8916
   63TMC2    H2  985   2.890   0.053   9.915 -2.6998  4.6574 -0.8802
   63TMC2    C7  986   2.689   0.177  10.024 -0.4972  0.4926  0.2205
   63TMC2    C8  987   2.918   4.573   9.780  0.1078  0.4455 -0.0208
   63TMC2    O1  988   2.802   0.225  10.030  0.0746 -0.2869  0.2394
   63TMC2    O2  989   3.027   4.615   9.819 -0.0629  0.1407 -0.3844
   63TMC2    O5  990   2.908   4.503   9.667  0.5277  0.1263  0.0214
   63TMC2    H5  991   2.819   4.484   9.631 -0.6775 -1.0092  3.5861
   64MPD2     C  992   2.106   4.264  10.145  0.1766  0.3008 -0.2015
   64MPD2    C1  993   2.176   4.337  10.231 -0.1427  0.2606 -0.2701
   64MPD2    C2  994   2.272   4.430  10.183  0.3380  0.0711 -0.0242
   64MPD2    C3  995   2.290   4.446  10.048  0.7578 -0.6206 -0.0843
   64MPD2    C4  996   2.207   4.370   9.962 -0.0539  0.4656 -0.2449
   64MPD2    C5  997   2.107   4.292  10.013  0.4239 -0.4846  0.1486
   64MPD2     H  998   2.322   4.496  10.253  1.9670 -0.6869 -0.4718
   64MPD2    H1  999   2.202   4.392   9.856  0.7916  0.6964 -0.2356
   64MPD2    H2 1000   2.022   4.204  10.178  1.3131 -1.4561 -0.5114
   64MPD2    H3 1001   2.041   4.233   9.951  0.1884  2.1808 -2.1850
   64MPD2     N 1002   2.398   4.530  10.003 -0.4258  0.8953 -0.0775
   64MPD2    H5 1003   2.444   4.580  10.079  0.2427  2.3536 -1.4501
   64MPD2    N1 1004   2.179   4.315  10.370  0.4233  0.1183  0.1977
   64MPD2    H7 1005   2.228   4.382  10.429  0.7984  1.8470 -2.1065
   65TMC2    C1 1006   4.110   0.201  15.497  0.0120  0.3278  0.2025
   65TMC2    C2 1007   4.206   0.277  15.455 -0.0860 -0.3540 -0.1205
   65TMC2    C3 1008   4.181   0.385  15.373  0.0803  0.1084 -0.0230
   65TMC2    C4 1009   3.977   0.239  15.477 -0.2856  0.0219  0.4265
   65TMC2    C5 1010   3.952   0.349  15.406 -0.2179  0.0068 -0.4689
   65TMC2    C6 1011   4.055   0.425  15.351 -0.3266  0.0499 -0.1704
   65TMC2     C 1012   4.138   0.091  15.589  0.4772  0.0136 -0.0293
   65TMC2     O 1013   4.236   0.103  15.660  0.6640 -0.2006 -0.3396
   65TMC2     H 1014   4.308   0.249  15.477  0.3021  1.5987  0.5537
   65TMC2    H1 1015   3.892   0.182  15.515  1.2133 -2.7266 -0.3283
   65TMC2    H2 1016   4.022   0.519  15.307  1.4254 -0.4085 -2.4653
   65TMC2    C7 1017   3.832   0.423  15.423  1.0730  0.1506  0.0095
   65TMC2    C8 1018   4.270   0.487  15.404 -0.5843  0.0398  0.5205
   65TMC2    O1 1019   3.808   0.506  15.333 -0.0183 -0.1926  0.3939
   65TMC2    O2 1020   4.349   0.490  15.498 -0.0133 -0.0086  0.6202
   65TMC2    O5 1021   4.248   0.603  15.328  0.1542 -0.2033 -0.1985
   65TMC2    H5 1022   4.196   0.570  15.251  2.7161 -0.6151 -1.7568
   66MPD2     C 1023   4.106   4.590  15.766 -0.4105  0.4475 -0.0830
   66MPD2    C1 1024   4.030   4.615  15.662 -0.7280 -0.2837 -0.1098
   66MPD2    C2 1025   3.941   4.517  15.621  0.2488 -0.0771 -0.4514
   66MPD2    C3 1026   3.916   4.400  15.701  0.7157 -0.2869 -0.1452
   66MPD2    C4 1027   3.999   4.376  15.806  1.0310 -0.0198 -0.0872
   66MPD2    C5 1028   4.094   4.473  15.841  0.0664  0.2442 -0.3852
   66MPD2     H 1029   3.878   4.528  15.534 -1.1807 -0.6728  0.5145
   66MPD2    H1 1030   3.998   4.285  15.865 -1.0947  0.8112  1.1672
   66MPD2    H2 1031   4.172   4.666  15.806 -1.0425  1.4544 -0.9330
   66MPD2    H3 1032   4.144   4.445  15.933 -1.6095 -2.6421 -0.3453
   66MPD2     N 1033   3.817   4.310  15.660  0.2954 -0.0800  0.0839
   66MPD2    H5 1034   3.754   4.349  15.590 -1.2410 -0.2691  1.3805
   66MPD2    N1 1035   4.039   4.731  15.583 -0.0593  0.6795  0.6837
   66MPD2    H7 1036   3.974   4.732  15.505  0.1229  2.3071  0.5472
   67TMC2    C1 1037   3.677   3.725  14.599  0.5008  0.4633 -0.1391
   67TMC2    C2 1038   3.708   3.709  14.472 -0.2302 -0.4718 -0.1630
   67TMC2    C3 1039   3.833   3.656  14.437 -0.1322 -0.1022  0.2908
   67TMC2    C4 1040   3.763   3.701  14.701  0.4144  0.0697  0.2260
   67TMC2    C5 1041   3.881   3.646  14.662 -0.1119 -0.4110  0.2355
   67TMC2    C6 1042   3.921   3.622  14.536  0.9157 -0.1585  0.2417
   67TMC2     C 1043   3.545   3.771  14.635  1.2046 -0.1408 -0.0243
   67TMC2     O 1044   3.545   3.849  14.731 -0.0167 -0.1867  0.1950
   67TMC2     H 1045   3.636   3.737  14.395  0.7589 -1.0227 -1.2783
   67TMC2    H1 1046   3.725   3.704  14.802 -3.7101 -1.8458 -1.2317
   67TMC2    H2 1047   4.021   3.588  14.509  0.5867  0.6013 -1.9355
   67TMC2    C7 1048   3.998   3.635  14.754 -0.7026 -0.1050 -0.5440
   67TMC2    C8 1049   3.875   3.700  14.307 -0.0864  0.1330 -0.1928
   67TMC2    O1 1050   4.098   3.578  14.721 -0.4755  0.3735  0.3800
   67TMC2    O2 1051   3.827   3.803  14.258  0.2721  0.0920 -0.5192
   67TMC2    O5 1052   3.996   3.646  14.293  0.0619 -0.2223 -0.6637
   67TMC2    H5 1053   3.990   3.553  14.322  0.4052  0.0556  0.2947
   68MPD2     C 1054   3.268   3.903  14.641 -0.2718  0.3036  0.4614
   68MPD2    C1 1055   3.318   3.818  14.543  0.1629  0.8172 -0.0179
   68MPD2    C2 1056   3.240   3.791  14.434  0.0366  0.8339 -0.1970
   68MPD2    C3 1057   3.114   3.852  14.410 -0.6265  0.1683 -0.9363
   68MPD2    C4 1058   3.064   3.922  14.517  0.3216 -0.0166 -0.0861
   68MPD2    C5 1059   3.133   3.945  14.633 -0.6380  0.4045  0.2411
   68MPD2     H 1060   3.283   3.722  14.362  1.2772 -0.1536  1.4985
   68MPD2    H1 1061   2.962   3.957  14.522  0.0978 -0.6257 -0.4121
   68MPD2    H2 1062   3.319   3.919  14.735 -1.3535  0.6623  0.9889
   68MPD2    H3 1063   3.098   4.003  14.717 -0.4897 -0.9846  1.2753
   68MPD2     N 1064   3.032   3.829  14.296 -0.9329  0.2260  0.2364
   68MPD2    H5 1065   2.934   3.856  14.295 -1.2974 -1.0018  2.2977
   68MPD2    N1 1066   3.442   3.755  14.544 -0.2377 -0.0756  0.2303
   68MPD2    H7 1067   3.453   3.686  14.470 -0.9381 -1.1679  1.1550
   69TMC2    C1 1068   1.246   4.703  12.870 -1.3048  0.3100  0.2106
   69TMC2    C2 1069   1.170   4.737  12.979 -0.3327 -0.0730 -0.1763
   69TMC2    C3 1070   1.107   0.114  12.968 -0.2774 -0.2935 -1.0252
   69TMC2    C4 1071   1.257   0.041  12.756  0.7440  0.2420 -0.1004
   69TMC2    C5 1072   1.182   0.153  12.751 -0.4527 -0.1797  0.6700
   69TMC2    C6 1073   1.100   0.191  12.854 -0.3437  0.1548 -0.2007
   69TMC2     C 1074   1.326   4.582  12.881 -0.1643  0.2029 -0.0618
   69TMC2     O 1075   1.289   4.495  12.961  0.1889 -0.3226  0.4674
   69TMC2     H 1076   1.165   4.672  13.066  1.3242 -2.7604 -2.0708
   69TMC2    H1 1077   1.297   4.738  12.665  0.2488 -0.2164 -0.0973
   69TMC2    H2 1078   1.043   0.283  12.854  2.8648  2.1477 -2.1312
   69TMC2    C7 1079   1.223   0.259  12.660  0.3697 -0.2132 -0.3343
   69TMC2    C8 1080   1.037   0.155  13.089 -0.5862  0.2879  0.4477
   69TMC2    O1 1081   1.343   0.254  12.634 -0.4115  0.5421 -0.1884
   69TMC2    O2 1082   1.010   0.092  13.191  0.0345 -0.2603 -0.2861
   69TMC2    O5 1083   1.089   0.278  13.100  0.6989 -0.0473 -0.0811
   69TMC2    H5 1084   1.146   0.305  13.025  1.6985  1.3452  1.1814
   70MPD2     C 1085   1.578   4.418  12.671  0.3102  0.4180 -0.0390
   70MPD2    C1 1086   1.459   4.440  12.732  0.1124 -0.3629 -0.0747
   70MPD2    C2 1087   1.377   4.329  12.742  0.3064 -0.4689 -0.4697
   70MPD2    C3 1088   1.404   4.205  12.677 -0.4534 -0.4867 -0.2109
   70MPD2    C4 1089   1.527   4.197  12.611 -0.3144  0.9710  0.0360
   70MPD2    C5 1090   1.617   4.299  12.611 -0.2263 -0.1009  0.4039
   70MPD2     H 1091   1.285   4.339  12.799 -0.0855  1.7774 -1.5163
   70MPD2    H1 1092   1.559   4.113  12.550  0.4189  0.8875  0.5396
   70MPD2    H2 1093   1.643   4.504  12.659 -0.6097  0.7445 -2.7848
   70MPD2    H3 1094   1.706   4.292  12.549  0.0689 -0.6524  0.8859
   70MPD2     N 1095   1.317   4.090  12.665  0.5980  0.4432 -0.0333
   70MPD2    H5 1096   1.348   4.004  12.622  1.7148  0.0107  1.6662
   70MPD2    N1 1097   1.421   4.564  12.783  0.2919 -0.9984  0.4868
   70MPD2    H7 1098   1.456   4.649  12.740 -3.3701  0.0688 -0.3295
   71TMC2    C1 1099   2.425   1.269   1.333 -0.6157  0.2561  0.2734
   71TMC2    C2 1100   2.520   1.309   1.420  0.2450  0.2184 -0.1525
   71TMC2    C3 1101   2.481   1.356   1.548  0.1411 -0.5534  0.3316
   71TMC2    C4 1102   2.291   1.289   1.350  0.3066 -0.0700  0.7200
   71TMC2    C5 1103   2.259   1.338   1.477  0.1803  0.5954  0.1739
   71TMC2    C6 1104   2.350   1.367   1.577  0.2418  0.1515  0.7115
   71TMC2     C 1105   2.470   1.212   1.206  0.2934  0.1550 -0.0720
   71TMC2     O 1106   2.581   1.238   1.169 -0.4219 -0.2888  0.6514
   71TMC2     H 1107   2.622   1.280   1.397  0.2883  0.0223  0.2869
   71TMC2    H1 1108   2.219   1.267   1.272  0.7462 -0.8817  0.5430
   71TMC2    H2 1109   2.315   1.376   1.679  0.8496  0.4938  0.8908
   71TMC2    C7 1110   2.123   1.347   1.519  0.0146 -0.9164  0.2233
   71TMC2    C8 1111   2.591   1.381   1.643 -0.1974  0.2472  0.6717
   71TMC2    O1 1112   2.111   1.427   1.610 -0.6357  0.2153 -0.0678
   71TMC2    O2 1113   2.706   1.358   1.607 -0.0491  0.2147  0.2497
   71TMC2    O5 1114   2.550   1.490   1.708  0.4488  0.0960  0.3453
   71TMC2    H5 1115   2.456   1.518   1.718  0.8286  0.5813  2.5925
   72MPD2     C 1116   2.435   0.925   0.779 -0.2721 -0.1672 -0.0221
   72MPD2    C1 1117   2.539   1.000   0.835  0.4768 -0.2655  0.1385
   72MPD2    C2 1118   2.514   1.068   0.955 -0.1199  0.1692  0.1128
   72MPD2    C3 1119   2.393   1.063   1.021 -0.1645  0.1765 -0.6076
   72MPD2    C4 1120   2.293   0.978   0.966  0.1689 -0.3721 -0.1988
   72MPD2    C5 1121   2.317   0.915   0.845 -0.1172 -0.1620 -0.4680
   72MPD2     H 1122   2.599   1.126   0.990 -1.7514  1.4534  1.9360
   72MPD2    H1 1123   2.198   0.960   1.015  0.0464  0.9536  0.0522
   72MPD2    H2 1124   2.444   0.878   0.682  1.1888  0.0991 -0.0272
   72MPD2    H3 1125   2.244   0.850   0.798 -0.1451 -1.3726  1.2489
   72MPD2     N 1126   2.372   1.131   1.147 -0.0629  0.4076 -0.3392
   72MPD2    H5 1127   2.282   1.123   1.194  0.9496 -0.3033  1.4666
   72MPD2    N1 1128   2.664   1.006   0.779  0.6609  0.1968  0.2762
   72MPD2    H7 1129   2.724   1.068   0.832 -1.7889  2.2900  0.6057
   73TMC2    C1 1130   2.640   2.895  13.626 -0.2815  0.4357  0.0486
   73TMC2    C2 1131   2.657   2.816  13.739  0.0407  0.1115  0.0981
   73TMC2    C3 1132   2.700   2.688  13.718  0.6337  0.3965  0.1244
   73TMC2    C4 1133   2.651   2.847  13.498  0.2484  0.1295 -0.3838
   73TMC2    C5 1134   2.717   2.727  13.484 -0.9427 -0.3274 -0.7905
   73TMC2    C6 1135   2.734   2.641  13.594 -0.5392  0.4743 -0.3630
   73TMC2     C 1136   2.682   3.032  13.627  1.2463  0.7715 -0.7600
   73TMC2     O 1137   2.725   3.072  13.518  0.0135  0.5972 -0.3749
   73TMC2     H 1138   2.673   2.850  13.840  0.0862  0.6442 -0.0893
   73TMC2    H1 1139   2.629   2.908  13.411 -2.1021  1.1453  0.9321
   73TMC2    H2 1140   2.763   2.538  13.581 -0.1954  0.2845  1.7966
   73TMC2    C7 1141   2.821   2.723  13.380 -0.1579 -0.2244  0.2022
   73TMC2    C8 1142   2.693   2.598  13.830  0.8514  0.0857 -0.0338
   73TMC2    O1 1143   2.863   2.613  13.345 -0.1151 -0.4239  0.1765
   73TMC2    O2 1144   2.758   2.495  13.840 -0.0319  0.1015  0.0018
   73TMC2    O5 1145   2.565   2.601  13.876 -0.3250 -0.1875 -0.2533
   73TMC2    H5 1146   2.522   2.689  13.877  2.5390  1.2413 -1.4840
   74MPD2     C 1147   2.912   3.417  13.868  0.4031  0.1924 -0.0476
   74MPD2    C1 1148   2.922   3.375  13.739  0.1814  0.1357 -0.7302
   74MPD2    C2 1149   2.846   3.272  13.699  0.5850 -0.7217 -0.2070
   74MPD2    C3 1150   2.752   3.214  13.785  0.3675  0.0198  0.4692
   74MPD2    C4 1151   2.743   3.255  13.922  0.0292 -0.4477  0.1045
   74MPD2    C5 1152   2.826   3.355  13.962 -0.6485  0.4295 -0.3250
   74MPD2     H 1153   2.856   3.240  13.596  0.2838 -5.4928  1.2725
   74MPD2    H1 1154   2.670   3.216  13.993 -2.1624  0.7004 -1.4957
   74MPD2    H2 1155   2.987   3.487  13.902  1.1563  1.4753 -4.3588
   74MPD2    H3 1156   2.822   3.392  14.064  1.9807 -0.7575  0.2001
   74MPD2     N 1157   2.677   3.093  13.751 -0.2109 -0.1611  0.2149
   74MPD2    H5 1158   2.617   3.048  13.819 -1.2238 -1.3787 -1.4820
   74MPD2    N1 1159   3.025   3.428  13.652 -0.0686 -0.2527 -0.2048
   74MPD2    H7 1160   3.091   3.491  13.695  1.4702 -1.7164 -0.4241
   75TMC2    C1 1161   2.989   3.765  14.072  0.3513 -0.0052 -0.0578
   75TMC2    C2 1162   2.864   3.713  14.098  0.5382 -0.3828  0.5702
   75TMC2    C3 1163   2.770   3.705  14.002 -0.5512  0.2478  0.0798
   75TMC2    C4 1164   3.019   3.793  13.940 -0.3687 -1.0111  0.3127
   75TMC2    C5 1165   2.927   3.782  13.838 -0.5683  0.3030  0.4185
   75TMC2    C6 1166   2.802   3.737  13.867  0.7983  0.1291 -0.2045
   75TMC2     C 1167   3.082   3.795  14.177  0.1422 -0.1241 -0.1736
   75TMC2     O 1168   3.196   3.785  14.142  0.3953  0.1574 -0.5924
   75TMC2     H 1169   2.839   3.683  14.199 -1.6910 -2.3684 -0.5938
   75TMC2    H1 1170   3.121   3.823  13.918 -0.2106 -0.2093  2.1806
   75TMC2    H2 1171   2.723   3.718  13.795 -0.3833 -0.3470  1.1967
   75TMC2    C7 1172   2.962   3.789  13.701  0.1187  0.6899 -0.6827
   75TMC2    C8 1173   2.662   3.618  14.030  0.4502  0.0327  0.3471
   75TMC2    O1 1174   2.878   3.779  13.613  0.0560  0.1182 -0.0542
   75TMC2    O2 1175   2.654   3.544  14.130  0.2685 -0.2564 -0.3580
   75TMC2    O5 1176   2.555   3.655  13.958 -0.4318  0.0177  0.4657
   75TMC2    H5 1177   2.567   3.745  13.920 -1.0508  0.1412  0.5661
   76TMC2    C1 1178   2.383   4.621  12.137 -0.3180 -0.8790 -0.2632
   76TMC2    C2 1179   2.316   4.540  12.047 -0.8544  0.5966  0.2315
   76TMC2    C3 1180   2.293   4.418  12.101 -0.2673  0.3432  0.2655
   76TMC2    C4 1181   2.469   4.576  12.233 -0.2902  0.2645 -0.1888
   76TMC2    C5 1182   2.448   4.445  12.267  0.1224 -0.0845  0.6140
   76TMC2    C6 1183   2.362   4.361  12.202  0.4299  0.3926  0.0950
   76TMC2     C 1184   2.359   0.023  12.116 -0.7507 -0.3933 -1.1172
   76TMC2     O 1185   2.274   0.050  12.027  0.3967 -0.2947 -0.2695
   76TMC2     H 1186   2.265   4.574  11.957 -0.2582  2.2128  0.5095
   76TMC2    H1 1187   2.543   4.642  12.278  0.2149 -0.2006 -0.3307
   76TMC2    H2 1188   2.330   4.265  12.240  0.6306  0.2826 -0.0217
   76TMC2    C7 1189   2.520   4.383  12.379 -0.5625  0.9098  0.5942
   76TMC2    C8 1190   2.253   4.312  12.010 -0.6843  0.8968 -0.5298
   76TMC2    O1 1191   2.472   4.283  12.426 -0.3034  0.0125 -0.0927
   76TMC2    O2 1192   2.191   4.344  11.909  0.2443 -0.3214  0.4588
   76TMC2    O5 1193   2.357   4.224  12.004 -0.1224  0.4184  0.0559
   76TMC2    H5 1194   2.415   4.230  12.082  4.0035  0.1134 -2.9622
   77MPD2     C 1195   2.279   0.492  12.342  0.3567  0.5506  0.0282
   77MPD2    C1 1196   2.194   0.420  12.258  0.0213  0.3587 -0.6686
   77MPD2    C2 1197   2.238   0.294  12.211  0.3829  0.4747 -0.0983
   77MPD2    C3 1198   2.357   0.235  12.257 -0.3977 -1.0571  0.1982
   77MPD2    C4 1199   2.434   0.318  12.338 -0.2475 -0.0084  0.3307
   77MPD2    C5 1200   2.391   0.436  12.380  0.0876 -0.1524 -0.2175
   77MPD2     H 1201   2.180   0.237  12.140 -0.5534 -1.2834  2.0544
   77MPD2    H1 1202   2.530   0.291  12.380 -1.0647 -2.0336  0.8969
   77MPD2    H2 1203   2.255   0.594  12.370  2.3230  1.3243 -1.0907
   77MPD2    H3 1204   2.462   0.497  12.434 -0.2922  0.7795 -0.7753
   77MPD2     N 1205   2.405   0.109  12.221  0.2096 -0.1521 -0.1732
   77MPD2    H5 1206   2.472   0.067  12.284  2.0044 -0.1893 -2.0902
   77MPD2    N1 1207   2.062   0.462  12.222 -0.2431  0.2922  0.4316
   77MPD2    H7 1208   2.017   0.414  12.145 -0.7685 -0.7726  1.4042
   78TMC2    C1 1209   3.426   3.815   2.450  0.5652  0.3382 -0.1012
   78TMC2    C2 1210   3.498   3.867   2.552  0.3080 -0.9587  0.7652
   78TMC2    C3 1211   3.548   3.996   2.538  0.2759 -0.4705  0.8079
   78TMC2    C4 1212   3.403   3.885   2.334 -0.0281  0.2291  0.2251
   78TMC2    C5 1213   3.466   4.011   2.324 -0.1686 -0.2711  0.0955
   78TMC2    C6 1214   3.542   4.065   2.424  0.7783  0.6462 -0.7482
   78TMC2     C 1215   3.395   3.676   2.462  0.5902 -0.0424  0.6970
   78TMC2     O 1216   3.390   3.635   2.575  0.1616  0.4492  0.2774
   78TMC2     H 1217   3.505   3.811   2.644  1.7908  0.5250  1.5529
   78TMC2    H1 1218   3.340   3.841   2.258 -0.1038 -0.3003  0.5918
   78TMC2    H2 1219   3.590   4.163   2.424 -0.8691  1.4569  0.8258
   78TMC2    C7 1220   3.470   4.081   2.195 -0.4927 -0.2048  0.6203
   78TMC2    C8 1221   3.618   4.054   2.647 -0.3057 -0.3572  0.3180
   78TMC2    O1 1222   3.565   4.155   2.182  0.2976  0.1321  0.4156
   78TMC2    O2 1223   3.554   4.067   2.746 -0.3415  0.5042 -0.1515
   78TMC2    O5 1224   3.738   4.001   2.653 -0.2839  0.1946 -0.4059
   78TMC2    H5 1225   3.787   3.986   2.569  0.7643  1.5130 -0.0275
   79MPD1     C 1226   3.339   3.203   2.282  0.6657 -0.1070  0.5543
   79MPD1    C1 1227   3.335   3.247   2.410 -0.0016 -0.5349 -0.1856
   79MPD1    C2 1228   3.343   3.381   2.429  0.5205  0.0383  0.5734
   79MPD1    C3 1229   3.384   3.471   2.326 -0.4432  0.0084 -0.3882
   79MPD1    C4 1230   3.402   3.421   2.203  0.8178  0.6402  0.5176
   79MPD1    C5 1231   3.382   3.287   2.178  0.6612 -0.4648 -0.1138
   79MPD1     H 1232   3.327   3.433   2.522 -1.2730 -0.6813  0.6491
   79MPD1    H1 1233   3.445   3.475   2.119  2.2228 -1.9869 -0.4402
   79MPD1    H2 1234   3.332   3.097   2.259  0.3291 -0.2783  1.4262
   79MPD1    H3 1235   3.409   3.246   2.081 -0.3168  1.7500 -1.3176
   79MPD1     N 1236   3.405   3.609   2.343 -0.4080 -0.3969 -0.2172
   79MPD1    H5 1237   3.423   3.665   2.260 -2.1003  2.6500  1.4754
   79MPD1    N1 1238   3.273   3.159   2.505  0.0875 -0.3947  0.5856
   79MPD1    H6 1239   3.283   3.065   2.466  0.7834 -1.0229  2.2740
   79MPD1    H7 1240   3.313   3.172   2.598  2.7020 -0.7329 -0.4921
   80TMC2    C1 1241   1.345   3.672  12.195  0.6535  0.4433 -0.3214
   80TMC2    C2 1242   1.451   3.645  12.104 -0.3785  0.7039 -0.4213
   80TMC2    C3 1243   1.501   3.517  12.102  0.2252 -0.0555 -0.5620
   80TMC2    C4 1244   1.271   3.577  12.255 -0.0697  0.2438 -0.3267
   80TMC2    C5 1245   1.319   3.451  12.233 -0.5413  0.4075 -0.3701
   80TMC2    C6 1246   1.437   3.420  12.172 -1.1515  0.2353 -0.1398
   80TMC2     C 1247   1.294   3.809  12.184  0.1474  1.0871  0.0065
   80TMC2     O 1248   1.337   3.882  12.094  0.5168 -0.0222 -0.6446
   80TMC2     H 1249   1.496   3.729  12.052  1.3272  1.0527  1.5724
   80TMC2    H1 1250   1.179   3.595  12.309 -0.0775 -0.0562 -0.2435
   80TMC2    H2 1251   1.466   3.316  12.164 -1.5044  0.1406 -0.1644
   80TMC2    C7 1252   1.245   3.341  12.291 -0.3161  0.4773  0.3306
   80TMC2    C8 1253   1.558   3.483  11.974 -1.1079 -0.1299 -0.5661
   80TMC2    O1 1254   1.244   3.236  12.233  0.6312  0.1932  0.2491
   80TMC2    O2 1255   1.559   3.567  11.883  0.1922 -0.3369 -0.6188
   80TMC2    O5 1256   1.578   3.346  11.973 -0.4713 -0.3279  0.5202
   80TMC2    H5 1257   1.622   3.334  12.059  2.9690  2.6752 -0.7983
   81MPD2     C 1258   1.083   4.005  12.161  0.1823  0.1201 -0.3768
   81MPD2    C1 1259   1.099   3.929  12.274 -0.5152 -0.7615 -0.2277
   81MPD2    C2 1260   1.000   3.934  12.370  0.0881 -0.3810 -0.9161
   81MPD2    C3 1261   0.884   4.016  12.350  0.0929 -0.2664 -0.5156
   81MPD2    C4 1262   0.887   4.100  12.239  0.7005 -0.2766  0.2066
   81MPD2    C5 1263   0.986   4.096  12.141 -0.2763  0.4265 -0.2379
   81MPD2     H 1264   0.994   3.855  12.444  1.3703 -0.2942 -0.7138
   81MPD2    H1 1265   0.807   4.172  12.225  1.7179  0.8985  0.4204
   81MPD2    H2 1266   1.153   3.995  12.079 -1.0004  0.6900 -1.4334
   81MPD2    H3 1267   0.988   4.170  12.062  1.5549  0.4588 -0.1485
   81MPD2     N 1268   0.768   4.013  12.425  0.1098 -0.2858  0.0396
   81MPD2    H5 1269   0.696   4.080  12.399 -0.2606 -0.3496  0.9214
   81MPD2    N1 1270   1.191   3.826  12.276 -0.1437  0.2296 -0.0381
   81MPD2    H7 1271   1.191   3.772  12.361  0.4479 -1.0802 -0.8734
   82TMC2    C1 1272   4.315   2.933  11.569 -0.2213  1.0344 -0.1634
   82TMC2    C2 1273   4.454   2.926  11.584 -0.7495 -0.3522  0.4131
   82TMC2    C3 1274   4.504   2.799  11.608 -0.3057 -0.2739  0.5708
   82TMC2    C4 1275   4.233   2.828  11.581  0.3191 -0.4945 -0.4100
   82TMC2    C5 1276   4.293   2.705  11.601 -0.0152 -0.6211 -0.2594
   82TMC2    C6 1277   4.427   2.689  11.623 -0.1846  0.3000  0.1631
   82TMC2     C 1278   4.258   3.069  11.575 -0.0853 -0.1558 -0.3697
   82TMC2     O 1279   4.329   3.158  11.625  0.2234  0.0748  0.1526
   82TMC2     H 1280   4.515   3.015  11.583 -1.4893  0.1426 -2.9568
   82TMC2    H1 1281   4.126   2.843  11.568  0.5466  1.4000 -0.0962
   82TMC2    H2 1282   4.471   2.595  11.656  0.8999 -0.2754 -2.9357
   82TMC2    C7 1283   4.202   2.608  11.660  0.1741 -0.1473  0.0516
   82TMC2    C8 1284   4.641   2.788  11.644  0.9677 -0.4382 -0.2505
   82TMC2    O1 1285   4.086   2.641  11.680  0.2783 -0.2293 -0.2756
   82TMC2    O2 1286   4.710   2.700  11.592  0.2300  0.2172 -0.4190
   82TMC2    O5 1287   4.663   2.845  11.766  0.5847  0.6992  0.2609
   82TMC2    H5 1288   4.585   2.888  11.807 -0.3994 -0.4992 -0.3732
   83MPD2     C 1289   3.907   3.429  11.431  0.5182 -0.1287 -0.1739
   83MPD2    C1 1290   3.875   3.312  11.372  0.0978 -0.1844  0.5200
   83MPD2    C2 1291   3.955   3.199  11.398 -0.1798 -0.2762 -0.7520
   83MPD2    C3 1292   4.063   3.206  11.478 -0.5907 -0.3258  0.6073
   83MPD2    C4 1293   4.088   3.325  11.541 -0.5524  0.2240 -0.6198
   83MPD2    C5 1294   4.017   3.437  11.514  0.5757 -0.0634 -0.5553
   83MPD2     H 1295   3.924   3.104  11.358 -1.8138  0.0851 -0.3199
   83MPD2    H1 1296   4.164   3.327  11.618 -1.0767 -0.4565 -0.0882
   83MPD2    H2 1297   3.861   3.523  11.400 -0.5041 -0.6480 -0.2612
   83MPD2    H3 1298   4.037   3.534  11.558 -1.5518  1.8363 -3.7304
   83MPD2     N 1299   4.142   3.085  11.494 -0.0608  0.1911 -0.0739
   83MPD2    H5 1300   4.112   3.009  11.434 -1.8473  1.3397 -0.6348
   83MPD2    N1 1301   3.779   3.321  11.269  0.6377 -0.7355  0.5737
   83MPD2    H7 1302   3.744   3.410  11.236 -1.0071 -1.2332  0.9254
   84TMC2    C1 1303   0.077   2.708  11.295 -0.6224 -0.3044  0.1239
   84TMC2    C2 1304   0.195   2.729  11.361 -0.0485  0.9065  0.4833
   84TMC2    C3 1305   0.284   2.621  11.352  0.0419  0.0990  0.3109
   84TMC2    C4 1306   0.063   2.614  11.200 -0.1241  0.3444  0.0677
   84TMC2    C5 1307   0.166   2.530  11.179  0.1974 -0.2723 -0.3557
   84TMC2    C6 1308   0.277   2.522  11.259 -0.1158 -0.4073 -0.4590
   84TMC2     C 1309   4.720   2.818  11.303  0.2969 -0.1427 -0.3002
   84TMC2     O 1310   0.018   2.919  11.355  0.5262  1.1115 -0.3314
   84TMC2     H 1311   0.198   2.793  11.448  1.3392 -0.3336  1.3488
   84TMC2    H1 1312   4.713   2.602  11.143 -0.6639 -1.3002  1.2683
   84TMC2    H2 1313   0.356   2.452  11.234 -0.9315 -0.9744 -1.4425
   84TMC2    C7 1314   0.136   2.429  11.073 -0.1272  0.1533 -0.5849
   84TMC2    C8 1315   0.405   2.642  11.422 -0.0611  0.7219 -0.1320
   84TMC2    O1 1316   0.160   2.311  11.106  0.7006 -0.4189 -0.3481
   84TMC2    O2 1317   0.451   2.753  11.434 -0.8013  0.3874  0.1448
   84TMC2    O5 1318   0.463   2.520  11.440 -0.2736 -0.4669  0.3039
   84TMC2    H5 1319   0.395   2.449  11.449  0.8229 -1.3723  1.5450
   85TMC2    C1 1320   1.615   0.960  16.684 -0.7795 -0.1829  0.7212
   85TMC2    C2 1321   1.692   1.026  16.772 -0.0119 -0.1949 -0.1902
   85TMC2    C3 1322   1.793   1.108  16.725 -0.2262 -0.6780  0.4151
   85TMC2    C4 1323   1.631   0.982  16.550 -0.1503  0.1798  0.3845
   85TMC2    C5 1324   1.728   1.067  16.510 -0.5896 -0.5877  0.5039
   85TMC2    C6 1325   1.808   1.132  16.595  0.6295 -0.0025 -0.2055
   85TMC2     C 1326   1.567   0.830  16.731 -0.4255  0.0202 -0.0311
   85TMC2     O 1327   1.576   0.804  16.853 -0.1779  0.6070 -0.1044
   85TMC2     H 1328   1.685   0.998  16.877  1.4342 -1.6828 -0.4915
   85TMC2    H1 1329   1.574   0.936  16.469 -0.3923  0.8027  0.1979
   85TMC2    H2 1330   1.886   1.197  16.556  1.0155  0.1301  0.7952
   85TMC2    C7 1331   1.715   1.122  16.379  0.8857  0.1028 -0.1399
   85TMC2    C8 1332   1.852   1.215  16.807 -0.1532  0.1145 -0.6333
   85TMC2    O1 1333   1.696   1.053  16.284  0.1413 -0.2359  0.3798
   85TMC2    O2 1334   1.975   1.233  16.811  0.0307 -0.1797  0.1823
   85TMC2    O5 1335   1.759   1.229  16.910  0.4147  0.3745  0.1380
   85TMC2    H5 1336   1.671   1.221  16.866  0.2989 -0.2049  0.4807
   86MPD2     C 1337   1.335   0.361  16.706  0.1776  0.2785 -0.4128
   86MPD2    C1 1338   1.313   0.424  16.583  0.0576 -0.0987  1.3835
   86MPD2    C2 1339   1.369   0.553  16.563 -0.6488  0.1120 -0.0381
   86MPD2    C3 1340   1.440   0.622  16.661  0.0939 -0.1422  0.5311
   86MPD2    C4 1341   1.460   0.553  16.779 -0.5295 -0.1135  0.1447
   86MPD2    C5 1342   1.411   0.423  16.807  0.6017 -0.6787  0.4809
   86MPD2     H 1343   1.356   0.590  16.463 -2.3059 -0.1063  0.1004
   86MPD2    H1 1344   1.514   0.596  16.863 -0.1223 -1.1665  0.4292
   86MPD2    H2 1345   1.293   0.263  16.728  0.7844  0.0645 -0.2209
   86MPD2    H3 1346   1.432   0.377  16.903  0.1327 -0.8408  0.5033
   86MPD2     N 1347   1.506   0.746  16.636 -0.3862 -0.7560  0.2588
   86MPD2    H5 1348   1.485   0.793  16.548  0.6390  2.3446  1.6738
   86MPD2    N1 1349   1.233   0.367  16.481 -0.3349  0.1990  0.2366
   86MPD2    H7 1350   1.227   0.413  16.391 -0.1877  0.3617  0.3093
   87TMC2    C1 1351   3.012   4.113   0.617 -0.5968 -0.1080  0.0572
   87TMC2    C2 1352   2.905   4.035   0.661 -0.4010 -0.0481  0.4349
   87TMC2    C3 1353   2.788   4.099   0.675  0.6174 -0.3930  0.1551
   87TMC2    C4 1354   2.998   4.246   0.579 -0.2127 -0.1730 -0.0915
   87TMC2    C5 1355   2.872   4.298   0.591 -1.0065  0.5719 -0.2171
   87TMC2    C6 1356   2.766   4.231   0.645  0.2117 -0.0116 -0.6119
   87TMC2     C 1357   3.135   4.040   0.574 -0.8967  0.5836 -0.1474
   87TMC2     O 1358   3.225   4.117   0.547  0.3026  0.5445  0.5512
   87TMC2     H 1359   2.924   3.931   0.685 -0.7562 -0.2629 -0.1950
   87TMC2    H1 1360   3.079   4.307   0.542  0.0006 -1.8913 -2.4604
   87TMC2    H2 1361   2.663   4.264   0.635  0.2887  0.2727 -0.4705
   87TMC2    C7 1362   2.849   4.423   0.522 -0.1158 -0.1172 -0.4549
   87TMC2    C8 1363   2.676   4.018   0.712 -0.5405 -0.2944  0.2869
   87TMC2    O1 1364   2.921   4.450   0.424  0.3096  0.5206 -0.0743
   87TMC2    O2 1365   2.581   4.056   0.779  0.3120  0.1022 -0.2326
   87TMC2    O5 1366   2.662   3.924   0.610  0.0937  0.0140  0.0809
   87TMC2    H5 1367   2.747   3.907   0.566 -0.2611  1.3793 -1.1199
   88MPD2     C 1368   2.568   4.648   0.573  0.1246 -1.0112 -0.6759
   88MPD2    C1 1369   2.658   4.580   0.495 -0.0927  0.1959 -0.7296
   88MPD2    C2 1370   2.692   4.624   0.368 -0.5412 -0.1967 -0.1626
   88MPD2    C3 1371   2.643   0.004   0.318  1.0269  0.4121  0.0076
   88MPD2    C4 1372   2.562   0.083   0.399 -0.0130 -0.1001 -0.1657
   88MPD2    C5 1373   2.525   0.029   0.519  0.5089 -0.1054 -0.6046
   88MPD2     H 1374   2.761   4.568   0.306 -1.3433 -1.3241 -0.0422
   88MPD2    H1 1375   2.504   0.166   0.360 -2.2592 -1.5816 -0.0344
   88MPD2    H2 1376   2.534   4.610   0.668 -1.6678  0.8577 -0.5672
   88MPD2    H3 1377   2.460   0.097   0.573  1.3869  2.1794 -2.4153
   88MPD2     N 1378   2.672   0.050   0.188 -0.0030 -0.1853 -0.1240
   88MPD2    H5 1379   2.658   0.148   0.167  0.0755 -0.2702 -0.5715
   88MPD2    N1 1380   2.732   4.482   0.561  0.5155 -0.6986 -0.5391
   88MPD2    H7 1381   2.697   4.454   0.652  0.4823 -1.8774 -0.9048
   89TMC2    C1 1382   3.675   2.954   1.651  0.1986  0.1106  0.0210
   89TMC2    C2 1383   3.643   2.977   1.780  0.0936  0.4998  0.1249
   89TMC2    C3 1384   3.678   3.101   1.830 -0.7185 -0.2686  0.2312
   89TMC2    C4 1385   3.745   3.042   1.579 -0.0311  0.6298 -0.9564
   89TMC2    C5 1386   3.764   3.171   1.619 -0.0152 -0.2031 -0.2891
   89TMC2    C6 1387   3.734   3.203   1.749 -0.0702 -0.6927  0.2598
   89TMC2     C 1388   3.658   2.820   1.596  0.5775  0.4995 -0.2471
   89TMC2     O 1389   3.731   2.781   1.509  0.2234  0.1008  0.1895
   89TMC2     H 1390   3.608   2.897   1.844 -2.2112  1.1182 -0.3422
   89TMC2    H1 1391   3.767   3.000   1.482  0.7396  0.2903 -0.6289
   89TMC2    H2 1392   3.735   3.306   1.784 -2.7284 -0.4936 -0.2121
   89TMC2    C7 1393   3.870   3.255   1.558 -0.5893 -0.3002  0.4882
   89TMC2    C8 1394   3.655   3.140   1.967  0.0941  0.3192  0.4637
   89TMC2    O1 1395   3.913   3.340   1.633 -0.5555 -0.3249 -0.0616
   89TMC2    O2 1396   3.651   3.259   2.006  0.3140  0.3655  0.0450
   89TMC2    O5 1397   3.723   3.046   2.036 -0.0890 -0.1793 -0.3339
   89TMC2    H5 1398   3.735   2.967   1.979  0.2794  0.3572 -0.9963
   90MPD2     C 1399   3.476   2.343   1.615  0.3681  0.2071  0.5103
   90MPD2    C1 1400   3.388   2.424   1.681 -0.2921  0.5873  0.1112
   90MPD2    C2 1401   3.412   2.565   1.682  0.2776  0.0517 -0.3752
   90MPD2    C3 1402   3.535   2.614   1.642 -0.2870  0.1287  0.2594
   90MPD2    C4 1403   3.627   2.527   1.586 -0.3018  0.1560  0.4940
   90MPD2    C5 1404   3.594   2.398   1.577  0.1740  0.3285 -0.1576
   90MPD2     H 1405   3.350   2.640   1.731 -1.1351 -1.4509  0.1288
   90MPD2    H1 1406   3.726   2.561   1.557 -1.1467  0.5451 -1.9340
   90MPD2    H2 1407   3.465   2.235   1.617 -2.5734  0.5140  1.1417
   90MPD2    H3 1408   3.666   2.331   1.532  1.6501  0.5245  1.9007
   90MPD2     N 1409   3.556   2.753   1.662 -0.9065 -0.7681 -0.0779
   90MPD2    H5 1410   3.502   2.805   1.730 -0.8576  1.5415 -1.8367
   90MPD2    N1 1411   3.266   2.362   1.720  0.0792 -0.0838 -0.0432
   90MPD2    H7 1412   3.260   2.261   1.710  0.5172  0.0065 -1.2515
   91TMC2    C1 1413   1.050   1.863  16.716 -0.3108 -0.1740 -0.3287
   91TMC2    C2 1414   1.039   1.855  16.857 -0.4051  0.3383 -0.5710
   91TMC2    C3 1415   0.916   1.825  16.906  0.0095 -0.4672  0.3584
   91TMC2    C4 1416   0.944   1.843  16.638 -0.6757 -0.5391 -0.1378
   91TMC2    C5 1417   0.825   1.810  16.691  0.1013  0.5315 -0.8564
   91TMC2    C6 1418   0.816   1.793  16.826 -0.5271  0.0564 -0.7470
   91TMC2     C 1419   1.170   1.838  16.648 -0.3685  0.1834  0.2182
   91TMC2     O 1420   1.173   1.827  16.528 -0.1971 -0.1294  0.2746
   91TMC2     H 1421   1.126   1.882  16.915  0.5038 -3.3291 -0.1982
   91TMC2    H1 1422   0.951   1.822  16.532  1.4691 -1.4442  0.1840
   91TMC2    H2 1423   0.721   1.768  16.871 -0.2069  0.1756 -0.0046
   91TMC2    C7 1424   0.740   1.718  16.619 -0.5994  0.0706  0.0073
   91TMC2    C8 1425   0.896   1.818  17.047  0.8707 -0.0584  0.0732
   91TMC2    O1 1426   0.698   1.623  16.685  0.5169  0.4980  0.4713
   91TMC2    O2 1427   0.802   1.763  17.098 -0.4243 -0.2501  0.4610
   91TMC2    O5 1428   0.963   1.913  17.118  0.1184  0.0622  0.3959
   91TMC2    H5 1429   1.035   1.970  17.082  2.0989 -2.9850 -0.4829
   92MPD2     C 1430   1.456   1.776  16.565  0.4539 -0.3716  0.2732
   92MPD2    C1 1431   1.409   1.779  16.698  0.0654 -0.8021 -0.0423
   92MPD2    C2 1432   1.491   1.742  16.802  1.0373 -0.6192  0.2303
   92MPD2    C3 1433   1.625   1.703  16.778 -0.7128 -0.2163 -0.0125
   92MPD2    C4 1434   1.667   1.708  16.651 -0.1792  0.2075 -0.7120
   92MPD2    C5 1435   1.583   1.736  16.547 -0.5813  0.2560  0.1075
   92MPD2     H 1436   1.445   1.753  16.899  1.4577 -0.6854  0.4391
   92MPD2    H1 1437   1.770   1.694  16.620 -0.0149 -2.4231  1.0538
   92MPD2    H2 1438   1.387   1.793  16.483  1.9123  1.4426 -0.5828
   92MPD2    H3 1439   1.629   1.730  16.449  0.9915  0.5739  0.8282
   92MPD2     N 1440   1.704   1.672  16.885  0.4367 -0.5002  0.6803
   92MPD2    H5 1441   1.677   1.692  16.981 -0.4245  1.8833 -0.0702
   92MPD2    N1 1442   1.272   1.812  16.734 -0.0566  0.0937  0.1260
   92MPD2    H7 1443   1.248   1.813  16.833  0.7636 -1.0061  0.3380
   93TMC2    C1 1444   3.234   1.854  13.647  0.3489  0.2080 -0.6780
   93TMC2    C2 1445   3.213   1.740  13.571 -0.1257  0.0248  0.6985
   93TMC2    C3 1446   3.321   1.664  13.537  0.3436  0.2521  1.0389
   93TMC2    C4 1447   3.357   1.890  13.682 -0.5304  0.4674 -0.1050
   93TMC2    C5 1448   3.465   1.814  13.642  0.0124  0.5196 -0.8712
   93TMC2    C6 1449   3.452   1.699  13.568  0.0330  0.0973 -0.1098
   93TMC2     C 1450   3.131   1.958  13.657 -0.4079  0.3456 -0.2972
   93TMC2     O 1451   3.169   2.074  13.672  0.0284  0.1766  0.1420
   93TMC2     H 1452   3.113   1.720  13.534  0.1015 -0.1100  0.1530
   93TMC2    H1 1453   3.371   1.968  13.756  0.9011  1.2021 -1.1647
   93TMC2    H2 1454   3.540   1.644  13.537 -0.3466 -0.6882  0.2055
   93TMC2    C7 1455   3.597   1.873  13.631  0.2500  0.5758 -0.8363
   93TMC2    C8 1456   3.290   1.552  13.456 -0.7499 -0.1883  0.6484
   93TMC2    O1 1457   3.697   1.801  13.634 -0.1377 -0.4466  0.2818
   93TMC2    O2 1458   3.179   1.525  13.405 -1.1039  0.7211 -0.1153
   93TMC2    O5 1459   3.386   1.459  13.491  0.5101  0.0461  0.1714
   93TMC2    H5 1460   3.443   1.473  13.570  0.4084 -1.1717  0.4623
   94MPD2     C 1461   2.889   2.116  13.679  0.1439 -0.9461 -0.1748
   94MPD2    C1 1462   2.893   1.978  13.703 -0.3166  0.4491  0.2623
   94MPD2    C2 1463   2.777   1.920  13.745  0.3752  0.3870  0.2555
   94MPD2    C3 1464   2.657   1.988  13.746  0.3880 -0.9495 -0.1123
   94MPD2    C4 1465   2.647   2.121  13.708 -0.3870 -0.2022 -0.1323
   94MPD2    C5 1466   2.765   2.180  13.678 -0.0925 -0.7348 -0.1898
   94MPD2     H 1467   2.785   1.815  13.770  0.3261  0.6724  1.4793
   94MPD2    H1 1468   2.552   2.172  13.713  0.2015  0.9400 -0.5698
   94MPD2    H2 1469   2.973   2.173  13.640 -0.5761  0.1258 -0.1768
   94MPD2    H3 1470   2.757   2.284  13.651 -2.6796 -1.3100 -1.5995
   94MPD2     N 1471   2.532   1.933  13.786  0.4485  0.2792  0.2113
   94MPD2    H5 1472   2.454   1.990  13.753 -0.2098 -2.3497 -2.7744
   94MPD2    N1 1473   3.013   1.900  13.677  1.0376 -0.1710  0.1052
   94MPD2    H7 1474   3.014   1.800  13.694 -1.3155 -0.0081  1.1616
   95TMC2    C1 1475   3.034   0.127  15.418  0.2288 -0.5420  0.1500
   95TMC2    C2 1476   2.941   0.106  15.517 -0.3895  0.1734  0.0273
   95TMC2    C3 1477   2.848   0.205  15.551  0.3144 -0.3866  0.5219
   95TMC2    C4 1478   3.038   0.247  15.354  1.3201  0.1891 -0.3611
   95TMC2    C5 1479   2.942   0.342  15.388 -0.0003  0.7378  0.1341
   95TMC2    C6 1480   2.853   0.330  15.495  0.4552  0.5254  0.0474
   95TMC2     C 1481   3.127   0.020  15.397  0.7924 -0.0408 -0.1154
   95TMC2     O 1482   3.123   4.664  15.471 -0.4943 -0.2803  0.0403
   95TMC2     H 1483   2.920   0.006  15.550  0.3154 -0.4278 -1.3229
   95TMC2    H1 1484   3.112   0.269  15.279  0.1752  0.2624 -1.4627
   95TMC2    H2 1485   2.788   0.412  15.524 -0.1194  0.7396 -1.8642
   95TMC2    C7 1486   2.945   0.476  15.323  0.2066 -0.0442 -0.2605
   95TMC2    C8 1487   2.772   0.174  15.669 -0.6719  0.0573  0.1833
   95TMC2    O1 1488   3.035   0.505  15.248 -0.5416 -0.3664  0.0615
   95TMC2    O2 1489   2.802   0.089  15.747  0.2952  0.4971  0.8253
   95TMC2    O5 1490   2.697   0.282  15.697  0.5373 -0.1286  0.2399
   95TMC2    H5 1491   2.663   0.325  15.616  1.9997  0.9190  0.1990
   96MPD2     C 1492   3.517   4.545  15.130 -0.1147 -0.1601 -0.9415
   96MPD2    C1 1493   3.436   4.499  15.230  0.1840  0.0262 -0.6768
   96MPD2    C2 1494   3.328   4.567  15.282 -0.2636 -0.6740  0.1809
   96MPD2    C3 1495   3.299   4.694  15.236 -0.5908  0.0872 -0.0137
   96MPD2    C4 1496   3.380   0.002  15.133  0.1330 -0.5648  0.4143
   96MPD2    C5 1497   3.482   4.670  15.075 -0.7006 -0.4351  0.3319
   96MPD2     H 1498   3.253   4.523  15.348  0.4773 -1.9979  0.1457
   96MPD2    H1 1499   3.377   0.108  15.109 -0.2054 -0.3550  1.4220
   96MPD2    H2 1500   3.579   4.478  15.073 -1.2285 -1.7777 -0.2593
   96MPD2    H3 1501   3.549   4.722  15.008  0.5142 -1.7585  0.5388
   96MPD2     N 1502   3.200   0.040  15.284  0.1369  0.0244  0.1723
   96MPD2    H5 1503   3.188   0.129  15.236 -2.4777 -0.5173 -0.1923
   96MPD2    N1 1504   3.474   4.377  15.293 -0.7543 -0.4557 -1.1565
   96MPD2    H7 1505   3.556   4.329  15.257 -0.4577  0.5988 -1.8568
   97TMC2    C1 1506   0.510   0.779   0.753  0.3320  0.1149 -0.2646
   97TMC2    C2 1507   0.611   0.700   0.697  0.6033 -0.0952 -0.3076
   97TMC2    C3 1508   0.719   0.769   0.655  0.2232 -0.1823 -0.3394
   97TMC2    C4 1509   0.518   0.918   0.770 -0.3641 -0.3431 -0.1232
   97TMC2    C5 1510   0.628   0.976   0.720  0.0757 -0.5137 -0.6551
   97TMC2    C6 1511   0.728   0.912   0.656 -0.2872 -0.0280  0.1576
   97TMC2     C 1512   0.386   0.725   0.791 -0.4448  0.3582 -0.2779
   97TMC2     O 1513   0.296   0.806   0.816 -0.1560  0.5591 -0.5006
   97TMC2     H 1514   0.606   0.593   0.683 -0.0196 -0.0250 -0.6550
   97TMC2    H1 1515   0.441   0.969   0.827 -0.8686  1.3558 -2.3634
   97TMC2    H2 1516   0.805   0.956   0.593 -0.5584 -2.7671 -2.0777
   97TMC2    C7 1517   0.625   1.118   0.700  0.0228  0.2700  0.1765
   97TMC2    C8 1518   0.847   0.704   0.634 -0.0827  0.5019 -0.0454
   97TMC2    O1 1519   0.695   1.166   0.613 -0.0452 -0.2053 -0.3505
   97TMC2    O2 1520   0.944   0.761   0.581 -0.1027  0.8427 -0.1659
   97TMC2    O5 1521   0.836   0.572   0.679  0.2092  0.0840  0.6030
   97TMC2    H5 1522   0.759   0.563   0.739 -0.9846  0.2681 -0.8977
   98MPD2     C 1523   0.050   0.342   0.856  0.3367  0.3288  0.0698
   98MPD2    C1 1524   0.031   0.476   0.888  0.6647 -0.2848 -0.1775
   98MPD2    C2 1525   0.150   0.559   0.881 -0.8356 -0.1242  0.7873
   98MPD2    C3 1526   0.277   0.504   0.843  0.0875  0.3804  0.3029
   98MPD2    C4 1527   0.288   0.368   0.831 -0.2096  0.1093 -1.0335
   98MPD2    C5 1528   0.173   0.296   0.842 -0.2681  0.5383  0.2312
   98MPD2     H 1529   0.131   0.665   0.890  1.3036  0.0307  3.4234
   98MPD2    H1 1530   0.384   0.326   0.802 -0.1738  0.9268 -2.1280
   98MPD2    H2 1531   4.699   0.284   0.851  2.0384 -2.5091  1.8654
   98MPD2    H3 1532   0.188   0.190   0.827  0.8936  0.8103 -0.5252
   98MPD2     N 1533   0.388   0.589   0.815 -0.4251 -0.1242 -0.1050
   98MPD2    H5 1534   0.474   0.542   0.789  1.4385  2.2388  1.8211
   98MPD2    N1 1535   4.635   0.516   0.923  0.5005 -0.6162 -0.0580
   98MPD2    H7 1536   4.572   0.438   0.935  0.1802 -0.7517 -2.6673
   99TMC2    C1 1537   3.841   3.588   1.104 -0.1273 -0.6258 -0.7219
   99TMC2    C2 1538   3.858   3.725   1.081 -0.1119  0.1199 -0.9403
   99TMC2    C3 1539   3.808   3.811   1.180  0.3771 -0.0393  0.0587
   99TMC2    C4 1540   3.785   3.541   1.220 -0.6389  0.5718 -0.3782
   99TMC2    C5 1541   3.759   3.629   1.321 -0.6722  0.4387 -0.1278
   99TMC2    C6 1542   3.774   3.766   1.300 -0.1844  0.1505  0.3699
   99TMC2     C 1543   3.844   3.512   0.981 -0.9475 -0.7783 -0.4844
   99TMC2     O 1544   3.903   3.562   0.886  0.2120  0.0480 -0.1945
   99TMC2     H 1545   3.891   3.768   0.987  3.7938 -0.9739 -0.0689
   99TMC2    H1 1546   3.766   3.434   1.227 -0.3049  0.7935  3.6991
   99TMC2    H2 1547   3.742   3.832   1.380  0.2934  0.4483  0.3173
   99TMC2    C7 1548   3.680   3.588   1.436 -0.0077 -0.0070 -0.0706
   99TMC2    C8 1549   3.805   3.955   1.146  0.0097 -0.7231  0.5874
   99TMC2    O1 1550   3.686   3.664   1.527 -0.4671  0.1397 -0.3472
   99TMC2    O2 1551   3.905   3.999   1.089  0.2567 -0.1222 -0.2278
   99TMC2    O5 1552   3.745   4.020   1.250  0.0236 -0.0494  0.0968
   99TMC2    H5 1553   3.658   3.980   1.271 -0.9661  0.3656 -3.0477
  100MPD2     C 1554   3.904   3.276   0.816 -0.1430  0.2343 -0.6367
  100MPD2    C1 1555   3.807   3.274   0.920 -0.2873 -0.1016 -0.1825
  100MPD2    C2 1556   3.739   3.154   0.944 -0.0118 -1.1506  0.5270
  100MPD2    C3 1557   3.761   3.045   0.864  0.0117  0.5321  0.4883
  100MPD2    C4 1558   3.848   3.048   0.763  0.5221  0.3998 -0.2200
  100MPD2    C5 1559   3.918   3.166   0.738  0.4470  0.0729 -0.1787
  100MPD2     H 1560   3.676   3.140   1.032 -2.2701  2.5600 -0.4958
  100MPD2    H1 1561   3.864   2.961   0.700  1.0932  0.8791 -0.7336
  100MPD2    H2 1562   3.965   3.365   0.802 -0.5382  0.7143  0.7178
  100MPD2    H3 1563   3.992   3.176   0.659  0.7814  0.8057  0.2285
  100MPD2     N 1564   3.697   2.927   0.898 -0.1551  0.3722  0.0841
  100MPD2    H5 1565   3.616   2.942   0.958 -0.1591  0.4511  0.0593
  100MPD2    N1 1566   3.778   3.390   0.999 -0.7397  0.6696  0.7888
  100MPD2    H7 1567   3.724   3.372   1.083  1.3178 -3.0084  1.3374
  101TMC2    C1 1568   0.516   4.296  13.710  0.5032  0.1999  0.0420
  101TMC2    C2 1569   0.648   4.293  13.745 -0.0355 -0.0597  0.2383
  101TMC2    C3 1570   0.741   4.358  13.669  0.4626 -0.4108 -1.2349
  101TMC2    C4 1571   0.468   4.369  13.605  0.2510 -0.4703  0.8259
  101TMC2    C5 1572   0.565   4.418  13.523 -0.4895  0.1762 -0.0134
  101TMC2    C6 1573   0.700   4.428  13.559 -0.1327 -0.1735 -0.4387
  101TMC2     C 1574   0.430   4.185  13.735  0.0589 -0.0383  0.0583
  101TMC2     O 1575   0.316   4.216  13.758  0.7527  0.2387 -0.1753
  101TMC2     H 1576   0.689   4.242  13.832 -0.6422  0.2704  0.7216
  101TMC2    H1 1577   0.365   4.367  13.569  0.6205 -1.0666 -0.2084
  101TMC2    H2 1578   0.774   4.477  13.496  0.0024 -1.2203 -1.1109
  101TMC2    C7 1579   0.531   4.503  13.406  0.7624 -0.7625 -0.1772
  101TMC2    C8 1580   0.879   4.365  13.701 -0.8249  0.3053 -0.1052
  101TMC2    O1 1581   0.627   4.531  13.336  0.2458 -0.0431  0.6738
  101TMC2    O2 1582   0.922   4.391  13.811  0.7795 -0.3466  0.7013
  101TMC2    O5 1583   0.949   4.311  13.599 -0.5182 -0.6815  0.5040
  101TMC2    H5 1584   0.888   4.290  13.526 -1.9287  1.5926  1.0456
  102MPD2     C 1585   0.536   3.838  13.704  0.1552 -0.1082 -0.3439
  102MPD2    C1 1586   0.443   3.932  13.722 -0.5465  0.2151  0.6552
  102MPD2    C2 1587   0.316   3.899  13.754  0.5275  0.0035  1.1435
  102MPD2    C3 1588   0.276   3.766  13.746  0.7694 -0.4406  0.4226
  102MPD2    C4 1589   0.367   3.674  13.715 -0.1846  0.2573 -0.1953
  102MPD2    C5 1590   0.503   3.705  13.694  0.1340 -0.6021  1.1650
  102MPD2     H 1591   0.250   3.976  13.793  0.0469 -1.1981  2.6859
  102MPD2    H1 1592   0.349   3.567  13.722  0.2986  0.2536  1.0075
  102MPD2    H2 1593   0.641   3.863  13.695 -0.1589  1.1024 -0.5625
  102MPD2    H3 1594   0.576   3.627  13.680 -1.1827 -1.4589 -0.9315
  102MPD2     N 1595   0.145   3.725  13.781  0.4322  0.2130 -0.3152
  102MPD2    H5 1596   0.091   3.793  13.833  0.1997  1.7048 -2.4932
  102MPD2    N1 1597   0.498   4.065  13.721 -0.1401  0.2185 -0.4358
  102MPD2    H7 1598   0.597   4.065  13.699  0.1425  3.0449  0.7822
  103TMC2    C1 1599   3.216   4.689  12.650 -0.2043  0.4818 -0.2037
  103TMC2    C2 1600   3.305   4.732  12.560 -0.4212  0.1561  0.8372
  103TMC2    C3 1601   3.427   0.018  12.603  0.2108 -0.0772  0.5718
  103TMC2    C4 1602   3.244   4.673  12.783 -0.2154 -0.1564  0.1347
  103TMC2    C5 1603   3.367   4.705  12.830 -0.1153 -0.7696  0.4807
  103TMC2    C6 1604   3.459   4.736  12.735 -0.1856 -0.2070  0.3535
  103TMC2     C 1605   3.105   4.623  12.590 -0.1867  0.5818  0.5085
  103TMC2     O 1606   3.085   4.639  12.470  0.6404 -0.0856  0.3623
  103TMC2     H 1607   3.290   0.008  12.454  1.2827 -0.9209  0.4243
  103TMC2    H1 1608   3.159   4.664  12.851  0.2953 -0.9776  0.6633
  103TMC2    H2 1609   3.552   0.033  12.776  0.5962 -1.7610 -0.0036
  103TMC2    C7 1610   3.393   4.691  12.966 -0.7951 -0.1461  0.0513
  103TMC2    C8 1611   3.538   0.020  12.506 -0.1602  0.0991  1.2662
  103TMC2    O1 1612   3.314   4.739  13.051  0.3929 -0.2138  0.4022
  103TMC2    O2 1613   3.511   0.040  12.390  0.8540 -0.5664  0.5090
  103TMC2    O5 1614   3.607   4.663  12.549 -0.1269 -0.5102  0.4996
  103TMC2    H5 1615   3.614   4.661  12.647 -0.5051  0.1910  0.5405
  104MPD2     C 1616   2.912   4.328  12.710 -0.1847  0.9145  0.0322
  104MPD2    C1 1617   2.932   4.450  12.641 -0.5395 -0.4700  0.4451
  104MPD2    C2 1618   2.841   4.482  12.539  0.2835  0.3675  0.2809
  104MPD2    C3 1619   2.729   4.406  12.519 -0.6744 -0.4862  0.1444
  104MPD2    C4 1620   2.710   4.292  12.592 -0.5437 -0.6672  0.2177
  104MPD2    C5 1621   2.806   4.250  12.681 -0.3266 -0.7778 -0.5109
  104MPD2     H 1622   2.847   4.578  12.490 -1.4407 -0.9054 -2.4344
  104MPD2    H1 1623   2.628   4.223  12.576 -0.2558 -1.2486  1.2110
  104MPD2    H2 1624   2.974   4.293  12.792  0.8953  1.7701 -0.4123
  104MPD2    H3 1625   2.798   4.153  12.728 -0.4406  0.2422  1.5699
  104MPD2     N 1626   2.638   4.445  12.413 -0.4713 -0.1186  0.3115
  104MPD2    H5 1627   2.670   4.531  12.371 -2.0865  0.1444 -0.3910
  104MPD2    N1 1628   3.041   4.534  12.672 -0.4907  0.3210 -0.9555
  104MPD2    H7 1629   3.086   4.501  12.757  0.5258  4.6125  0.1548
  105TMC2    C1 1630   3.946   3.745   0.196  0.0158  0.2108  0.1909
  105TMC2    C2 1631   3.970   3.879   0.203 -0.3087 -0.8141  0.4353
  105TMC2    C3 1632   3.874   3.957   0.265 -0.6906  0.6141 -0.1938
  105TMC2    C4 1633   3.837   3.693   0.265 -0.4065 -0.0511 -0.2081
  105TMC2    C5 1634   3.753   3.774   0.334  0.4818 -0.0398 -0.2148
  105TMC2    C6 1635   3.770   3.908   0.339  0.2014  0.2044  0.3389
  105TMC2     C 1636   4.018   3.646   0.122 -0.1208 -0.3096 -0.1752
  105TMC2     O 1637   3.966   3.537   0.101 -0.1381  0.3996 -0.2338
  105TMC2     H 1638   4.045   3.934   0.147  0.1555 -1.3688  0.5149
  105TMC2    H1 1639   3.817   3.587   0.257 -0.6304 -0.1050  1.0215
  105TMC2    H2 1640   3.704   3.974   0.395  1.6014  0.8082  1.2648
  105TMC2    C7 1641   3.667   3.698   0.417  0.0365 -0.1031 -0.3563
  105TMC2    C8 1642   3.911   4.099   0.284  0.0048  0.7885  0.6747
  105TMC2    O1 1643   3.683   3.578   0.432 -0.4194 -0.4288  0.3507
  105TMC2    O2 1644   3.865   4.177   0.202  0.2268 -0.3214 -0.1028
  105TMC2    O5 1645   3.891   4.130   0.417  0.0701  0.2105  0.1128
  105TMC2    H5 1646   3.930   4.064   0.478 -0.9450  0.1836  0.7250
  106MPD2     C 1647   4.423   3.485  17.615  0.3043 -0.2557  0.6381
  106MPD2    C1 1648   4.425   3.625  17.614 -0.8199  0.5012 -0.1009
  106MPD2    C2 1649   4.331   3.688  17.691  0.2694  0.4915 -0.2126
  106MPD2    C3 1650   4.234   3.621   0.002  0.3682  1.0617  0.3494
  106MPD2    C4 1651   4.237   3.486  17.759  0.2516  0.1421 -0.1080
  106MPD2    C5 1652   4.345   3.415  17.705  0.4475  0.0079  0.5635
  106MPD2     H 1653   4.321   3.793  17.668 -1.2346  0.6598  1.2196
  106MPD2    H1 1654   4.167   3.416   0.043 -0.0367 -0.5560 -1.6159
  106MPD2    H2 1655   4.494   3.418  17.569 -0.4881  0.1153 -1.1377
  106MPD2    H3 1656   4.352   3.307  17.711  1.1511 -0.0767 -1.7233
  106MPD2     N 1657   4.139   3.696   0.070  0.2134  0.1990 -0.3567
  106MPD2    H5 1658   4.155   3.796   0.077  0.8048  0.0854 -0.0424
  106MPD2    N1 1659   4.514   3.702  17.535  0.3257 -0.5249  0.2483
  106MPD2    H7 1660   4.484   3.798  17.522 -0.4590 -0.5647  1.7675
  107TMC2    C1 1661   4.481   3.554  11.532 -0.1590  0.0811  0.2922
  107TMC2    C2 1662   4.528   3.670  11.470  0.2299 -0.3361  0.2641
  107TMC2    C3 1663   4.512   3.677  11.336 -1.1731  1.0296  0.5081
  107TMC2    C4 1664   4.418   3.456  11.463  1.2180 -0.6111  0.3925
  107TMC2    C5 1665   4.407   3.473  11.321  0.6223 -0.5442 -0.6645
  107TMC2    C6 1666   4.456   3.583  11.263  0.3855 -0.5094 -0.5027
  107TMC2     C 1667   4.454   3.559  11.675 -0.3183  0.3635  1.1424
  107TMC2     O 1668   4.364   3.492  11.715  0.9469 -0.0228  0.4252
  107TMC2     H 1669   4.574   3.750  11.528  0.6426  0.3183 -0.9563
  107TMC2    H1 1670   4.389   3.361  11.505 -1.7164  0.1422  0.1036
  107TMC2    H2 1671   4.444   3.602  11.158 -1.0683 -1.3188 -0.4715
  107TMC2    C7 1672   4.371   3.360  11.242  0.1796  0.4902  0.2224
  107TMC2    C8 1673   4.622   3.745  11.270 -0.2233  0.1666 -0.3058
  107TMC2    O1 1674   4.313   3.375  11.134 -0.0961  0.5471  0.1493
  107TMC2    O2 1675   4.680   3.693  11.177 -0.2349  0.3933  0.3680
  107TMC2    O5 1676   4.631   3.874  11.309 -0.3576 -0.4144  0.1362
  107TMC2    H5 1677   4.561   3.904  11.370 -0.8848  0.5671 -0.9593
  108MPD2     C 1678   4.627   3.780  11.923  0.1073  0.6706 -0.1084
  108MPD2    C1 1679   4.548   3.676  11.881 -0.5288 -0.2717  0.4934
  108MPD2    C2 1680   4.464   3.609  11.974  0.4743  0.4471  0.6695
  108MPD2    C3 1681   4.455   3.657  12.106 -0.0598 -1.0854  0.0838
  108MPD2    C4 1682   4.539   3.760  12.143 -0.2783  0.5265  0.0520
  108MPD2    C5 1683   4.612   3.819  12.052 -0.4842 -0.3375 -0.2187
  108MPD2     H 1684   4.410   3.519  11.947  3.2185 -0.7888 -0.6960
  108MPD2    H1 1685   4.530   3.809  12.239 -1.4073 -0.4582  0.4618
  108MPD2    H2 1686   4.697   3.830  11.858 -0.7378  0.3122 -1.2810
  108MPD2    H3 1687   4.674   3.904  12.078  0.2798 -0.9687  0.0213
  108MPD2     N 1688   4.375   3.600  12.203 -1.1249  0.0058 -0.2448
  108MPD2    H5 1689   4.394   3.636  12.296 -2.9403 -0.8445  0.4612
  108MPD2    N1 1690   4.541   3.651  11.736 -0.8003 -0.0045 -0.3545
  108MPD2    H7 1691   4.620   3.688  11.685 -0.1644  1.4652  1.7203
  109TMC2    C1 1692   3.454   0.057   0.631  0.0604  0.2057 -0.3264
  109TMC2    C2 1693   3.349   0.126   0.578 -0.1112 -0.7295 -0.3508
  109TMC2    C3 1694   3.376   0.258   0.533 -0.1748 -0.6223 -0.3816
  109TMC2    C4 1695   3.571   0.113   0.665  0.3293 -0.7927  0.5704
  109TMC2    C5 1696   3.587   0.242   0.625  0.1299  0.8266 -0.2194
  109TMC2    C6 1697   3.499   0.314   0.554  0.2338  0.0826 -0.4890
  109TMC2     C 1698   3.416   4.672   0.698  0.2759 -0.4845  0.1170
  109TMC2     O 1699   3.315   4.612   0.673 -0.2004 -0.2359 -0.7079
  109TMC2     H 1700   3.250   0.083   0.569 -0.6538  1.2231 -3.6776
  109TMC2    H1 1701   3.649   0.051   0.707 -1.0935 -3.2581 -0.4057
  109TMC2    H2 1702   3.523   0.406   0.501 -0.0576 -0.1766 -1.0764
  109TMC2    C7 1703   3.722   0.297   0.628 -0.0391 -0.2885  0.4157
  109TMC2    C8 1704   3.296   0.310   0.425  0.2547 -0.1692  0.0592
  109TMC2    O1 1705   3.732   0.419   0.618 -0.5815 -0.0745  0.7416
  109TMC2    O2 1706   3.350   0.345   0.318 -0.6364  0.4663  0.0260
  109TMC2    O5 1707   3.168   0.263   0.443  0.5646 -0.3292 -0.0467
  109TMC2    H5 1708   3.155   0.280   0.538  0.2619 -1.3476  0.0839
  110MPD2     C 1709   3.476   4.333   1.071 -0.0964  0.4315 -0.1947
  110MPD2    C1 1710   3.537   4.457   1.118 -0.5883 -0.3282 -0.4870
  110MPD2    C2 1711   3.548   4.562   1.022  0.0107 -0.3470 -0.4297
  110MPD2    C3 1712   3.483   4.554   0.897 -0.3871 -0.3098  0.3801
  110MPD2    C4 1713   3.418   4.440   0.866  0.8789  0.0865  0.2582
  110MPD2    C5 1714   3.415   4.331   0.948 -0.2086 -0.6510  0.1536
  110MPD2     H 1715   3.585   4.660   1.048 -1.6359 -0.6818  3.1664
  110MPD2    H1 1716   3.367   4.418   0.773  0.1332  0.5352  0.5692
  110MPD2    H2 1717   3.473   4.247   1.137 -0.8600  1.4730  1.1229
  110MPD2    H3 1718   3.358   4.243   0.921 -0.2482 -0.5605 -0.0543
  110MPD2     N 1719   3.495   4.659   0.806 -0.5146 -0.1489  0.2181
  110MPD2    H5 1720   3.562   4.731   0.830 -2.1466  1.6236 -0.5536
  110MPD2    N1 1721   3.577   4.472   1.252 -0.0495  0.2539 -0.2429
  110MPD2    H7 1722   3.547   4.398   1.315 -1.6937 -0.6767 -2.0666
  111TMC2    C1 1723   0.038   0.709  12.189 -0.3069  0.3180 -0.6267
  111TMC2    C2 1724   0.079   0.839  12.204  0.1962  0.5235 -0.7112
  111TMC2    C3 1725   0.217   0.861  12.206 -0.4420 -0.0737 -0.3462
  111TMC2    C4 1726   0.133   0.610  12.169  0.2904  0.0207  0.8674
  111TMC2    C5 1727   0.260   0.637  12.174 -0.2256  0.2776  0.2095
  111TMC2    C6 1728   0.312   0.764  12.185 -0.5991  0.1413  0.3518
  111TMC2     C 1729   4.658   0.688  12.108 -0.6457  0.0998 -0.2465
  111TMC2     O 1730   4.653   0.589  12.038  0.2573 -0.6246 -0.3416
  111TMC2     H 1731   0.012   0.924  12.211 -1.0980 -0.6126  0.6507
  111TMC2    H1 1732   0.104   0.507  12.148 -0.5963  0.3514  0.4952
  111TMC2    H2 1733   0.418   0.784  12.197  0.0953 -3.4378  0.0549
  111TMC2    C7 1734   0.340   0.525  12.212 -0.0223 -0.3989  0.4222
  111TMC2    C8 1735   0.256   0.992  12.247  0.1668  0.0914  0.1260
  111TMC2    O1 1736   0.292   0.416  12.245 -0.1614 -0.2425 -0.1364
  111TMC2    O2 1737   0.372   1.002  12.291 -0.3482 -0.3174  0.4557
  111TMC2    O5 1738   0.187   1.079  12.168  0.1406  0.0607 -0.2187
  111TMC2    H5 1739   0.097   1.051  12.140 -0.0475  0.0130  0.4271
  112MPD2     C 1740   4.208   0.817  11.915 -0.0171  0.9703 -0.3389
  112MPD2    C1 1741   4.308   0.748  11.852 -0.1055 -0.4531  0.3869
  112MPD2    C2 1742   4.426   0.729  11.925 -0.8635 -0.5138 -0.0887
  112MPD2    C3 1743   4.443   0.794  12.048 -0.0066 -0.0001 -0.1393
  112MPD2    C4 1744   4.343   0.869  12.104  0.5094 -0.1753 -0.1630
  112MPD2    C5 1745   4.227   0.884  12.035  0.2440 -0.3554  0.5727
  112MPD2     H 1746   4.511   0.687  11.873  1.3988  2.2864  1.2882
  112MPD2    H1 1747   4.347   0.908  12.205  0.5222 -1.2631  0.2571
  112MPD2    H2 1748   4.122   0.849  11.858 -0.9606  1.1363  1.1594
  112MPD2    H3 1749   4.168   0.965  12.078 -0.3815  2.0128 -4.7614
  112MPD2     N 1750   4.567   0.786  12.122  0.1461 -0.2044  0.2560
  112MPD2    H5 1751   4.571   0.846  12.204  1.0744  0.4076 -0.2423
  112MPD2    N1 1752   4.302   0.698  11.717 -0.5034  0.0410  0.2666
  112MPD2    H7 1753   4.386   0.661  11.674 -0.8014 -0.2807 -0.0379
  113TMC2    C1 1754   1.710   3.036   0.825  0.0363 -0.0951  0.8370
  113TMC2    C2 1755   1.582   3.042   0.878  0.1786 -0.2204 -0.2625
  113TMC2    C3 1756   1.545   2.940   0.960 -0.7874 -0.2196  0.2746
  113TMC2    C4 1757   1.796   2.937   0.864  0.8041 -0.1032  0.3738
  113TMC2    C5 1758   1.753   2.835   0.948 -0.7016  0.6358  0.4002
  113TMC2    C6 1759   1.622   2.830   0.989  0.4194  0.6609 -0.2396
  113TMC2     C 1760   1.753   3.132   0.727 -0.4769  0.0238  0.6108
  113TMC2     O 1761   1.870   3.125   0.695 -0.0844  0.1672 -0.4456
  113TMC2     H 1762   1.505   3.116   0.860 -0.1499 -0.5474 -0.1882
  113TMC2    H1 1763   1.902   2.951   0.847  1.0434 -0.6325  1.4300
  113TMC2    H2 1764   1.579   2.733   1.011  0.5446  0.4672 -0.8642
  113TMC2    C7 1765   1.850   2.729   0.983  0.9840 -0.6131  0.1068
  113TMC2    C8 1766   1.406   2.934   0.985  0.0038 -0.5259 -0.0002
  113TMC2    O1 1767   1.962   2.745   0.939 -0.1586 -0.1178  0.3860
  113TMC2    O2 1768   1.324   2.997   0.917  0.0191  0.1939 -0.3072
  113TMC2    O5 1769   1.393   2.889   1.107 -0.4138 -0.2491 -0.0459
  113TMC2    H5 1770   1.475   2.858   1.151 -0.0360 -1.2782 -1.4672
  114MPD2     C 1771   1.698   3.607   0.521 -0.0488  0.4579  0.2172
  114MPD2    C1 1772   1.809   3.525   0.536  0.6825  0.5051  0.2070
  114MPD2    C2 1773   1.803   3.402   0.597 -0.4454  0.1276 -0.1961
  114MPD2    C3 1774   1.677   3.358   0.635  0.4248  0.0045 -0.0175
  114MPD2    C4 1775   1.563   3.432   0.616  0.9632 -0.0040  0.0449
  114MPD2    C5 1776   1.580   3.553   0.555 -0.2272 -0.0848 -0.5246
  114MPD2     H 1777   1.887   3.340   0.626 -0.6584 -0.1717 -0.2207
  114MPD2    H1 1778   1.462   3.404   0.646 -0.0947  0.9804 -2.6036
  114MPD2    H2 1779   1.708   3.707   0.482 -1.6353 -0.3992 -2.3393
  114MPD2    H3 1780   1.491   3.615   0.542  1.4138  2.6706  1.4902
  114MPD2     N 1781   1.659   3.232   0.704 -0.4652 -0.2285  0.7316
  114MPD2    H5 1782   1.564   3.214   0.735 -1.1346  0.6511 -0.8201
  114MPD2    N1 1783   1.938   3.581   0.516  0.1339 -0.7687 -0.1994
  114MPD2    H7 1784   2.012   3.524   0.558 -0.1152  0.3704  1.7785
  115TMC2    C1 1785   3.882   0.928   0.051  0.4265  0.5174 -0.1731
  115TMC2    C2 1786   3.991   0.881   0.117 -0.3358 -0.4841  0.0618
  115TMC2    C3 1787   4.079   0.972   0.156  0.4751  0.4154  0.2611
  115TMC2    C4 1788   3.875   1.055   0.003 -0.0051 -0.2100 -0.4425
  115TMC2    C5 1789   3.965   1.146   0.053 -0.0747 -0.4297 -0.3721
  115TMC2    C6 1790   4.069   1.103   0.130 -0.2344 -0.1971 -0.5397
  115TMC2     C 1791   3.771   0.832   0.026 -0.6370 -0.4928  0.1371
  115TMC2     O 1792   3.789   0.712   0.012  0.0633  0.1878 -0.8459
  115TMC2     H 1793   3.989   0.780   0.158  1.5351 -0.4800  0.1595
  115TMC2    H1 1794   3.791   1.089  17.704 -0.2004  1.3428  0.7054
  115TMC2    H2 1795   4.154   1.166   0.156 -0.3789  0.4285 -1.5726
  115TMC2    C7 1796   3.995   1.261  17.729  0.1293 -0.1997  0.0690
  115TMC2    C8 1797   4.198   0.927   0.224 -0.0752 -0.0446 -0.2915
  115TMC2    O1 1798   3.960   1.256  17.616 -0.5994  0.4293 -0.0433
  115TMC2    O2 1799   4.268   1.004   0.280 -0.4102 -0.2979  0.4048
  115TMC2    O5 1800   4.233   0.806   0.161  0.0616 -0.1976 -0.3303
  115TMC2    H5 1801   4.171   0.763   0.097  1.2307  0.1915 -1.7053
  116MPD2     C 1802   3.273   0.738  17.690 -0.5758  0.1344  0.3080
  116MPD2    C1 1803   3.391   0.667  17.665  0.3237 -0.2136  0.3235
  116MPD2    C2 1804   3.516   0.714  17.686  0.4635 -0.2444  0.7437
  116MPD2    C3 1805   3.527   0.838  17.746 -0.2476 -0.4853 -0.6312
  116MPD2    C4 1806   3.413   0.909   0.016 -0.1282 -0.4377 -0.1589
  116MPD2    C5 1807   3.284   0.860  17.756 -0.0041  0.5815 -0.0042
  116MPD2     H 1808   3.602   0.657  17.654 -0.2987 -0.6615 -0.5566
  116MPD2    H1 1809   3.429   1.002   0.070 -0.8513 -0.5658  0.2791
  116MPD2    H2 1810   3.172   0.707  17.669 -1.6037  2.7009  1.4894
  116MPD2    H3 1811   3.206   0.928   0.026 -0.8506 -1.0940  1.5306
  116MPD2     N 1812   3.657   0.894   0.022 -0.1441 -0.0974 -0.1077
  116MPD2    H5 1813   3.652   0.986   0.065 -3.1749  0.4775 -1.6995
  116MPD2    N1 1814   3.367   0.538  17.622  0.3520  0.2078  0.0621
  116MPD2    H7 1815   3.268   0.514  17.620 -0.4417  3.4148  1.1163
  117TMC2    C1 1816   2.631   2.012  14.171  0.0331  0.5227 -0.2972
  117TMC2    C2 1817   2.754   1.966  14.128 -0.1113 -0.3229  0.1802
  117TMC2    C3 1818   2.857   2.054  14.111 -0.1175  0.1203  0.2770
  117TMC2    C4 1819   2.606   2.148  14.172 -0.0368 -0.0292 -0.2261
  117TMC2    C5 1820   2.710   2.239  14.151 -0.5254 -0.4844  0.6850
  117TMC2    C6 1821   2.836   2.194  14.118 -0.3503 -0.4229 -0.3569
  117TMC2     C 1822   2.540   1.907  14.223 -0.3057 -1.6209 -0.8366
  117TMC2     O 1823   2.572   1.791  14.197  0.1776 -0.4131 -0.1892
  117TMC2     H 1824   2.776   1.860  14.131  1.3228 -0.0505 -0.5611
  117TMC2    H1 1825   2.503   2.180  14.172 -0.1231 -0.3057 -1.5036
  117TMC2    H2 1826   2.914   2.269  14.114  0.9810 -1.6782  1.7965
  117TMC2    C7 1827   2.691   2.386  14.176  0.0305  0.2714 -0.5087
  117TMC2    C8 1828   2.990   2.003  14.092 -0.4947  0.1384  0.1689
  117TMC2    O1 1829   2.794   2.453  14.174 -0.1775  0.0861  0.2486
  117TMC2    O2 1830   3.016   1.888  14.121 -0.5464 -0.0770  0.8749
  117TMC2    O5 1831   3.057   2.093  14.022  0.0959 -0.5766  0.4496
  117TMC2    H5 1832   3.013   2.177  13.996 -1.7998 -1.7252 -0.0591
  118MPD2     C 1833   2.406   2.583  14.288 -0.5178 -0.3218  0.1017
  118MPD2    C1 1834   2.531   2.561  14.241 -0.6596 -0.1812  0.2985
  118MPD2    C2 1835   2.608   2.672  14.229  0.2200  0.2352 -0.6450
  118MPD2    C3 1836   2.566   2.803  14.248  0.2888  0.2384  0.1429
  118MPD2    C4 1837   2.441   2.818  14.299  0.0540 -0.6896  0.3716
  118MPD2    C5 1838   2.366   2.711  14.313 -0.6866  0.0611 -0.2499
  118MPD2     H 1839   2.714   2.659  14.212 -0.0742 -0.0861 -2.2161
  118MPD2    H1 1840   2.404   2.918  14.321  2.5112 -0.0651  1.7480
  118MPD2    H2 1841   2.329   2.510  14.310  2.3709 -2.4337  3.1656
  118MPD2    H3 1842   2.264   2.719  14.350 -1.4740 -0.0139 -2.4283
  118MPD2     N 1843   2.647   2.918  14.233 -0.4591 -0.1476 -0.7138
  118MPD2    H5 1844   2.601   3.004  14.264 -0.2702 -0.7291  1.1804
  118MPD2    N1 1845   2.565   2.435  14.206  0.0679  0.4980  0.5151
  118MPD2    H7 1846   2.495   2.363  14.219  1.6884 -1.2658 -0.3707
  119TMC2    C1 1847   0.715   3.527  13.947  0.4543  0.5933 -0.0347
  119TMC2    C2 1848   0.786   3.464  13.846 -0.2807  0.1638 -0.6031
  119TMC2    C3 1849   0.719   3.361  13.788  0.3856  0.0965 -0.4738
  119TMC2    C4 1850   0.587   3.483  13.972 -0.4547 -0.3372 -0.1848
  119TMC2    C5 1851   0.529   3.383  13.906  0.3804  0.2851 -0.0118
  119TMC2    C6 1852   0.596   3.315  13.809  0.3315 -0.7058 -0.3829
  119TMC2     C 1853   0.781   3.615  14.046 -0.1158 -0.2419  0.0948
  119TMC2     O 1854   0.705   3.680  14.116  0.3209 -0.1096 -0.4441
  119TMC2     H 1855   0.886   3.492  13.815 -0.0693  1.0074  0.8425
  119TMC2    H1 1856   0.534   3.532  14.053 -0.7480  0.0962 -0.6414
  119TMC2    H2 1857   0.550   3.256  13.731 -1.9143  0.3154  0.1780
  119TMC2    C7 1858   0.394   3.340  13.923 -0.0698 -0.6104  0.7333
  119TMC2    C8 1859   0.806   3.259  13.726 -0.2030 -0.7119 -0.1844
  119TMC2    O1 1860   0.327   3.301  13.826 -0.0330  0.1587 -0.0190
  119TMC2    O2 1861   0.765   3.197  13.629  0.0666 -0.1195  0.5351
  119TMC2    O5 1862   0.904   3.228  13.813  0.9047 -0.0154 -0.5165
  119TMC2    H5 1863   0.907   3.275  13.899  0.5979 -0.1446 -0.4354
  120MPD2     C 1864   1.180   3.870  14.226  0.0687  0.1777  0.2385
  120MPD2    C1 1865   1.051   3.866  14.268  0.3551  0.1313 -0.2602
  120MPD2    C2 1866   0.960   3.785  14.203 -0.6941  0.2679 -0.5721
  120MPD2    C3 1867   1.007   3.695  14.114 -0.7393  1.1938  0.0145
  120MPD2    C4 1868   1.140   3.694  14.077  0.0876 -0.2541 -0.1624
  120MPD2    C5 1869   1.226   3.782  14.134  0.1129  0.5740  0.8876
  120MPD2     H 1870   0.855   3.810  14.214 -0.5433  0.2074  0.8727
  120MPD2    H1 1871   1.168   3.621  14.002  0.9064  0.4793 -0.5558
  120MPD2    H2 1872   1.251   3.943  14.263  0.4137 -1.7587  3.3098
  120MPD2    H3 1873   1.330   3.791  14.104 -0.8007  0.2445 -2.4361
  120MPD2     N 1874   0.921   3.624  14.033  0.1664 -0.1632  0.7106
  120MPD2    H5 1875   0.954   3.570  13.954  2.3960  0.1019  1.4827
  120MPD2    N1 1876   1.009   3.956  14.372  0.2437 -0.1794 -0.1641
  120MPD2    H7 1877   1.075   4.033  14.380 -0.0105 -0.0463  0.6816
  121TMC2    C1 1878   2.240   0.769  14.554  0.3534 -0.4574 -0.3390
  121TMC2    C2 1879   2.166   0.704  14.648  0.4964  0.1817 -0.2444
  121TMC2    C3 1880   2.035   0.675  14.618 -0.3360  0.2262  0.2275
  121TMC2    C4 1881   2.189   0.805  14.435 -0.6706  0.0679 -0.6929
  121TMC2    C5 1882   2.059   0.763  14.408 -0.3127  0.0051  0.1442
  121TMC2    C6 1883   1.977   0.711  14.501  0.3584 -0.6511 -0.4996
  121TMC2     C 1884   2.380   0.754  14.563  0.2177 -0.3012 -0.0548
  121TMC2     O 1885   2.427   0.678  14.645  0.0049  0.5466  0.1053
  121TMC2     H 1886   2.210   0.684  14.745  0.0883  0.0100 -0.0957
  121TMC2    H1 1887   2.246   0.857  14.359 -0.4225  0.3809 -0.2919
  121TMC2    H2 1888   1.874   0.679  14.486 -0.0488  0.7283 -0.6696
  121TMC2    C7 1889   2.011   0.758  14.269  0.9778 -1.0737 -0.5080
  121TMC2    C8 1890   1.937   0.616  14.716  0.6039  0.5333  0.3288
  121TMC2    O1 1891   2.095   0.756  14.181  0.7480  0.6963  0.0416
  121TMC2    O2 1892   1.815   0.640  14.709  0.3417 -0.1166 -0.1467
  121TMC2    O5 1893   2.005   0.547  14.800  0.2437 -0.6357 -0.7340
  121TMC2    H5 1894   2.098   0.519  14.785  0.4893  0.4442 -1.2219
  122MPD2     C 1895   2.669   0.798  14.551 -0.3231  0.0873  0.3902
  122MPD2    C1 1896   2.578   0.843  14.453 -0.2239  0.1311  0.1842
  122MPD2    C2 1897   2.621   0.883  14.331 -0.2490  0.3979  0.1089
  122MPD2    C3 1898   2.761   0.877  14.303  0.6164 -0.1968  0.4052
  122MPD2    C4 1899   2.844   0.823  14.395  0.0280 -0.4539  0.2369
  122MPD2    C5 1900   2.804   0.793  14.521 -0.4996  0.2825  0.0541
  122MPD2     H 1901   2.549   0.912  14.255  0.1795 -0.9869 -0.8295
  122MPD2    H1 1902   2.950   0.825  14.370 -0.0435 -1.0210 -0.1190
  122MPD2    H2 1903   2.640   0.764  14.649 -1.3913 -2.2007 -0.7077
  122MPD2    H3 1904   2.880   0.763  14.592 -0.0707 -0.8506 -0.8827
  122MPD2     N 1905   2.816   0.924  14.175 -0.5691  0.2145 -0.2594
  122MPD2    H5 1906   2.912   0.902  14.151 -0.1304  1.3181  0.4976
  122MPD2    N1 1907   2.441   0.840  14.476  0.3292 -0.7569 -0.3843
  122MPD2    H7 1908   2.388   0.893  14.409 -1.0447 -1.2478  0.3176
  123TMC2    C1 1909   0.734   2.274  10.343 -0.0901 -0.1812 -0.0266
  123TMC2    C2 1910   0.855   2.223  10.306 -0.0207  0.3027  0.0631
  123TMC2    C3 1911   0.964   2.262  10.379  0.1579 -0.0729 -0.1809
  123TMC2    C4 1912   0.717   2.349  10.453  0.3333  0.1663  0.7026
  123TMC2    C5 1913   0.834   2.389  10.520  0.0274 -0.3584  0.9851
  123TMC2    C6 1914   0.960   2.360  10.470  0.0359 -0.0459  0.7135
  123TMC2     C 1915   0.633   2.255  10.242 -0.2471  0.2993  1.0981
  123TMC2     O 1916   0.629   2.155  10.176  0.1556 -0.3999 -0.4914
  123TMC2     H 1917   0.864   2.162  10.217 -0.8698  0.9502 -0.4632
  123TMC2    H1 1918   0.621   2.381  10.491 -0.2282 -2.2652  1.3404
  123TMC2    H2 1919   1.052   2.394  10.517  0.1242  0.8686 -0.1115
  123TMC2    C7 1920   0.811   2.473  10.636 -0.0197 -0.3026  0.3655
  123TMC2    C8 1921   1.091   2.215  10.332 -0.1770  0.7621 -0.4751
  123TMC2    O1 1922   0.695   2.483  10.668  0.7814  0.5316  0.7522
  123TMC2    O2 1923   1.099   2.166  10.219  0.2041 -0.5461  0.2631
  123TMC2    O5 1924   1.172   2.195  10.439  0.5558 -0.3860 -0.0532
  123TMC2    H5 1925   1.147   2.225  10.529 -0.7870  0.5585 -0.7366
  124MPD2     C 1926   0.248   2.464   9.959  0.7008  0.2285  0.3863
  124MPD2    C1 1927   0.310   2.557  10.038 -0.1506  0.2620 -0.6393
  124MPD2    C2 1928   0.411   2.526  10.130  0.6951 -0.0990 -0.0989
  124MPD2    C3 1929   0.450   2.396  10.144  1.3899 -0.1344 -0.3924
  124MPD2    C4 1930   0.384   2.301  10.067 -0.2178 -0.0563  0.2396
  124MPD2    C5 1931   0.283   2.334   9.979 -0.2412 -0.5932 -0.0406
  124MPD2     H 1932   0.463   2.592  10.199  0.2443 -0.0655  0.2094
  124MPD2    H1 1933   0.401   2.194  10.072 -1.9192 -0.3666 -1.0220
  124MPD2    H2 1934   0.172   2.485   9.884 -1.1050 -1.5254  1.7014
  124MPD2    H3 1935   0.242   2.256   9.917  0.5600 -0.8929 -0.2012
  124MPD2     N 1936   0.556   2.373  10.231  0.5866  0.1058  0.3560
  124MPD2    H5 1937   0.585   2.455  10.282 -0.6844 -0.2191  1.5907
  124MPD2    N1 1938   0.269   2.690  10.007  0.1339  0.0832 -0.1538
  124MPD2    H7 1939   0.194   2.704   9.940  1.7071  2.8888 -1.3177
  125TMC2    C1 1940   1.204   0.894   9.388 -0.0130  0.5796  0.3055
  125TMC2    C2 1941   1.232   0.894   9.520  0.2230 -0.5038 -0.2129
  125TMC2    C3 1942   1.272   0.772   9.574 -0.6422 -0.2351  0.4299
  125TMC2    C4 1943   1.226   0.787   9.303 -0.7034 -0.4492  0.2656
  125TMC2    C5 1944   1.258   0.670   9.364  0.2297  0.1564  0.2396
  125TMC2    C6 1945   1.289   0.658   9.499 -0.2290  0.3545  0.1391
  125TMC2     C 1946   1.174   1.018   9.321  0.0310  0.0931 -0.3130
  125TMC2     O 1947   1.150   1.013   9.201 -0.8376 -0.3753  0.4950
  125TMC2     H 1948   1.195   0.956   9.601 -0.3605 -0.2671 -0.6614
  125TMC2    H1 1949   1.228   0.807   9.197 -0.9774 -0.7040  0.2118
  125TMC2    H2 1950   1.320   0.563   9.540  0.5235  0.1183 -0.9771
  125TMC2    C7 1951   1.302   0.570   9.275 -1.4215 -0.1694  0.0174
  125TMC2    C8 1952   1.264   0.765   9.718 -0.8530  0.2634 -0.0340
  125TMC2    O1 1953   1.257   0.578   9.161 -0.4011 -0.1561 -0.1448
  125TMC2    O2 1954   1.288   0.859   9.792  0.2923  0.2546  0.8802
  125TMC2    O5 1955   1.181   0.668   9.759  0.1629 -0.5088  0.5684
  125TMC2    H5 1956   1.151   0.600   9.696 -0.3240 -0.4044  0.6837
  126MPD1     C 1957   1.084   1.518   9.281  0.0863  0.2789  0.2922
  126MPD1    C1 1958   1.105   1.484   9.415 -0.1076  0.6851 -0.3966
  126MPD1    C2 1959   1.131   1.352   9.454 -1.4020 -0.4917  0.7515
  126MPD1    C3 1960   1.143   1.257   9.356  0.1311 -0.4347  1.0310
  126MPD1    C4 1961   1.120   1.291   9.223  0.0171  0.3374  0.4216
  126MPD1    C5 1962   1.100   1.418   9.188  0.0982 -0.1528 -0.0078
  126MPD1     H 1963   1.155   1.330   9.557  1.3306  1.9122  0.6470
  126MPD1    H1 1964   1.131   1.224   9.138 -0.3810  1.8343 -0.8244
  126MPD1    H2 1965   1.066   1.619   9.246  1.2516  0.7969  1.1810
  126MPD1    H3 1966   1.098   1.449   9.085  2.6224 -1.8147 -0.5540
  126MPD1     N 1967   1.164   1.128   9.400  0.4645  0.0204  0.5003
  126MPD1    H5 1968   1.186   1.119   9.499 -0.2419  3.9338  0.9929
  126MPD1    N1 1969   1.073   1.575   9.518  0.1837  0.5446  0.1538
  126MPD1    H6 1970   1.078   1.673   9.491 -1.1058  0.6109  0.1159
  126MPD1    H7 1971   1.122   1.545   9.602  1.4539 -0.1639 -0.8478
  127TMC2    C1 1972   2.094   3.588   9.994 -0.0960  0.2735  0.0736
  127TMC2    C2 1973   2.098   3.464  10.056 -0.0251  0.7934 -0.2010
  127TMC2    C3 1974   1.987   3.425  10.124 -0.2884 -0.2744 -0.1720
  127TMC2    C4 1975   1.984   3.671  10.003 -0.1868  0.0393 -0.2428
  127TMC2    C5 1976   1.874   3.627  10.070  0.8382 -0.7094 -0.0314
  127TMC2    C6 1977   1.877   3.503  10.131 -0.0499 -0.1427 -0.0298
  127TMC2     C 1978   2.209   3.624   9.918  0.5978  0.4249 -0.1243
  127TMC2     O 1979   2.184   3.679   9.813  0.1610 -0.2516  0.0477
  127TMC2     H 1980   2.189   3.406  10.058  0.0135  0.9037  1.6774
  127TMC2    H1 1981   1.995   3.769   9.959 -0.6199  0.8690  1.4921
  127TMC2    H2 1982   1.784   3.452  10.156  1.4062 -2.1682  1.2819
  127TMC2    C7 1983   1.759   3.716  10.070 -0.0814 -0.0444 -0.0195
  127TMC2    C8 1984   1.986   3.281  10.154  1.1184 -0.4187 -0.4585
  127TMC2    O1 1985   1.755   3.791   9.973 -0.0632 -0.1915 -0.1574
  127TMC2    O2 1986   2.056   3.206  10.085  0.1361 -0.6320  0.1252
  127TMC2    O5 1987   1.960   3.258  10.286 -0.1492  0.0358  0.1857
  127TMC2    H5 1988   1.961   3.343  10.334 -0.9768  0.8305 -1.1893
  128MPD2     C 1989   2.546   3.659  10.050 -0.1912  0.1144 -0.8161
  128MPD2    C1 1990   2.447   3.672   9.957  0.9141  0.1189  0.3209
  128MPD2    C2 1991   2.474   3.742   9.843  0.5305 -0.4762  0.2101
  128MPD2    C3 1992   2.597   3.789   9.807 -0.6150 -0.2854  0.8573
  128MPD2    C4 1993   2.694   3.781   9.904 -0.1980  0.5937  0.4714
  128MPD2    C5 1994   2.669   3.715  10.024 -0.4887  0.6287 -0.0329
  128MPD2     H 1995   2.405   3.740   9.759 -0.6149  0.7785  1.1331
  128MPD2    H1 1996   2.799   3.801   9.892 -0.1464 -0.3023 -0.5057
  128MPD2    H2 1997   2.531   3.614  10.148  1.9278  1.4351  0.1044
  128MPD2    H3 1998   2.741   3.718  10.105 -0.7196 -2.1270  0.2833
  128MPD2     N 1999   2.619   3.822   9.670 -0.4804  0.0463 -0.1974
  128MPD2    H5 2000   2.542   3.801   9.608 -0.4331 -0.9741  0.0958
  128MPD2    N1 2001   2.322   3.620   9.992  0.6498 -0.3805  0.0492
  128MPD2    H7 2002   2.311   3.576  10.083  1.0791  0.9759  0.7608
  129TMC2    C1 2003   0.036   4.246   1.878 -0.6681  0.6675  0.0128
  129TMC2    C2 2004   0.122   4.286   1.973 -0.4870  0.2100  0.0026
  129TMC2    C3 2005   0.110   4.235   2.101  0.0851 -0.1563  0.0672
  129TMC2    C4 2006   4.676   4.157   1.901  0.1950 -0.0006 -0.6691
  129TMC2    C5 2007   4.664   4.115   2.034 -0.9685 -0.2352 -0.0989
  129TMC2    C6 2008   0.009   4.147   2.138  0.6274  0.2530  0.1403
  129TMC2     C 2009   0.092   4.229   1.747 -1.1489 -0.4701 -0.2777
  129TMC2     O 2010   0.077   4.121   1.690 -0.0933  0.6299  0.2068
  129TMC2     H 2011   0.215   4.326   1.934 -1.3640  2.6023  0.3874
  129TMC2    H1 2012   4.600   4.139   1.826 -0.0756 -0.8274 -0.1970
  129TMC2    H2 2013   4.726   4.130   2.242 -0.5587 -1.1140 -0.3470
  129TMC2    C7 2014   4.528   4.066   2.070 -0.1122  0.6919  0.2955
  129TMC2    C8 2015   0.205   4.272   2.201  0.0575  0.0312 -0.2785
  129TMC2    O1 2016   4.462   4.050   1.968  0.3899  0.0185  0.5317
  129TMC2    O2 2017   0.204   4.225   2.315 -0.1613 -0.8182  0.2415
  129TMC2    O5 2018   0.250   4.401   2.173  0.0261  0.1976  0.8291
  129TMC2    H5 2019   0.205   4.443   2.097 -0.4749 -2.2641 -0.2180
  130MPD2     C 2020   0.228   4.256   1.478 -0.1428 -0.1775 -0.8301
  130MPD2    C1 2021   0.193   4.361   1.564 -0.1314 -0.1235 -0.0143
  130MPD2    C2 2022   0.220   4.491   1.524  0.1489  0.1925 -0.6242
  130MPD2    C3 2023   0.260   4.516   1.399  0.7930 -0.7258 -0.1055
  130MPD2    C4 2024   0.301   4.411   1.322  0.4085  0.0843  0.1612
  130MPD2    C5 2025   0.275   4.280   1.356 -0.1772  0.6191  0.1646
  130MPD2     H 2026   0.193   4.572   1.592 -1.1729  0.2079 -1.1668
  130MPD2    H1 2027   0.345   4.419   1.223 -0.2793  0.2875 -0.1249
  130MPD2    H2 2028   0.217   4.151   1.499 -2.2629  0.2060  0.0158
  130MPD2    H3 2029   0.286   4.197   1.286  2.3023 -0.0068  1.3010
  130MPD2     N 2030   0.280   4.650   1.358  0.1400  0.0444  0.1765
  130MPD2    H5 2031   0.260   4.722   1.427  2.5337  0.7970  0.0754
  130MPD2    N1 2032   0.137   4.347   1.692  0.2443  0.6155  0.3582
  130MPD2    H7 2033   0.130   4.431   1.749  0.2158  1.1790 -0.4697
  131TMC2    C1 2034   0.407   3.897  10.359  0.2006 -0.3382 -0.0432
  131TMC2    C2 2035   0.292   3.914  10.434 -0.2060 -0.1892 -0.9243
  131TMC2    C3 2036   0.254   4.039  10.460  1.2208  0.3300 -0.9028
  131TMC2    C4 2037   0.476   4.008  10.314  0.4314  0.3819 -0.1444
  131TMC2    C5 2038   0.434   4.134  10.344  0.0494  0.3932 -0.9062
  131TMC2    C6 2039   0.317   4.151  10.417  0.2065 -0.3526 -0.1222
  131TMC2     C 2040   0.424   3.777  10.277 -0.5693 -0.2151 -0.4427
  131TMC2     O 2041   0.322   3.720  10.257  0.8766 -0.9307 -0.1734
  131TMC2     H 2042   0.230   3.827  10.455 -0.2117  0.1675  0.5749
  131TMC2    H1 2043   0.566   3.997  10.255 -0.4674 -1.4076 -1.2175
  131TMC2    H2 2044   0.270   4.243  10.451  1.2084 -0.2181  0.8814
  131TMC2    C7 2045   0.477   4.237  10.250 -0.2966  0.7186 -0.2026
  131TMC2    C8 2046   0.115   4.046  10.508  0.9738 -0.6824  0.3872
  131TMC2    O1 2047   0.529   4.198  10.147  0.7365  0.3896  0.2086
  131TMC2    O2 2048   0.075   3.983  10.608  0.3529  0.8188 -0.0252
  131TMC2    O5 2049   0.062   4.038  10.383  0.1973  0.4405 -0.2908
  131TMC2    H5 2050   0.128   4.068  10.317 -1.4128  0.3679 -1.9393
  132MPD2     C 2051   0.732   3.658  10.120 -0.4849  0.8510 -0.5600
  132MPD2    C1 2052   0.599   3.655  10.161 -0.1572  0.2962 -0.3588
  132MPD2    C2 2053   0.523   3.553  10.136 -0.5919  0.0395  0.4594
  132MPD2    C3 2054   0.566   3.452  10.043  0.3896  0.3967  0.3814
  132MPD2    C4 2055   0.688   3.460   9.984  0.2548  0.2171 -0.2131
  132MPD2    C5 2056   0.773   3.560  10.032 -0.0640 -0.1358 -0.5571
  132MPD2     H 2057   0.431   3.528  10.188 -0.4103  0.0772  0.7994
  132MPD2    H1 2058   0.731   3.380   9.925 -0.5989  2.0714 -3.3426
  132MPD2    H2 2059   0.799   3.742  10.134 -0.6398  0.8952 -0.0971
  132MPD2    H3 2060   0.876   3.565  10.000 -0.2208 -1.0222 -1.2142
  132MPD2     N 2061   0.473   3.349  10.017 -0.7499  0.6783  0.1414
  132MPD2    H5 2062   0.382   3.353  10.061  0.1737  0.9391  2.0156
  132MPD2    N1 2063   0.554   3.763  10.237  0.0535  0.1411  1.0124
  132MPD2    H7 2064   0.622   3.824  10.281  1.4882  0.5522 -1.7739
  133TMC2    C1 2065   3.227   4.634   9.125  0.3983  0.1978  0.1640
  133TMC2    C2 2066   3.190   4.607   8.992  0.7695 -0.0904  0.1868
  133TMC2    C3 2067   3.175   4.720   8.913 -0.3967 -0.8839 -0.2054
  133TMC2    C4 2068   3.241   0.020   9.182 -0.2849  0.5071 -0.4900
  133TMC2    C5 2069   3.227   0.129   9.095 -0.4539 -0.4472  0.0040
  133TMC2    C6 2070   3.185   0.104   8.968  0.0956  0.0692  0.0518
  133TMC2     C 2071   3.247   4.520   9.221  0.0623  1.1345  0.0650
  133TMC2     O 2072   3.243   4.541   9.340  0.2066 -0.3257  0.4014
  133TMC2     H 2073   3.194   4.505   8.955  0.6479 -0.3505  0.8922
  133TMC2    H1 2074   3.282   0.036   9.281  2.9408 -0.8927 -1.5866
  133TMC2    H2 2075   3.168   0.190   8.904 -1.6971 -0.8788 -0.7371
  133TMC2    C7 2076   3.244   0.268   9.128  0.2288  0.1736  0.1719
  133TMC2    C8 2077   3.155   4.705   8.771  0.0501  0.5173 -0.2382
  133TMC2    O1 2078   3.173   0.343   9.069  0.3366 -0.3191 -0.2177
  133TMC2    O2 2079   3.110   0.062   8.710  0.0606 -0.7064 -0.3086
  133TMC2    O5 2080   3.215   4.594   8.727 -0.2107  0.2346  0.2836
  133TMC2    H5 2081   3.282   4.547   8.782  1.5376  0.7419 -1.3939
  134MPD2     C 2082   3.286   4.167   9.118 -0.2827 -0.8473  0.1435
  134MPD2    C1 2083   3.271   4.269   9.210  0.5834  0.0197 -0.7157
  134MPD2    C2 2084   3.251   4.239   9.343 -0.1205 -0.1896  0.2402
  134MPD2    C3 2085   3.244   4.113   9.394  0.4076 -0.5974 -0.1154
  134MPD2    C4 2086   3.246   4.012   9.300 -0.2680 -0.3740  0.0130
  134MPD2    C5 2087   3.264   4.041   9.166 -0.1733  1.0525 -0.3794
  134MPD2     H 2088   3.250   4.325   9.408  1.4618 -0.2679  0.3823
  134MPD2    H1 2089   3.221   3.912   9.334 -3.8563 -0.2318 -2.2731
  134MPD2    H2 2090   3.307   4.182   9.013  2.2204  1.5664  0.9734
  134MPD2    H3 2091   3.274   3.962   9.093  1.8744  1.0994 -0.1286
  134MPD2     N 2092   3.233   4.093   9.533  0.0231  0.3091  0.2205
  134MPD2    H5 2093   3.224   4.179   9.586 -0.3679  0.7860 -0.6322
  134MPD2    N1 2094   3.261   4.401   9.158  0.1529  0.1602  0.2241
  134MPD2    H7 2095   3.261   4.414   9.058  0.9413  0.1317  0.2192
  135TMC2    C1 2096   1.633   1.012   9.919 -0.6367  0.6255 -0.8714
  135TMC2    C2 2097   1.606   1.074  10.033 -0.0198 -0.6536 -0.8017
  135TMC2    C3 2098   1.622   1.018  10.153  0.1394 -0.2882 -0.1777
  135TMC2    C4 2099   1.683   0.879   9.927  0.1226  0.8873  0.5073
  135TMC2    C5 2100   1.697   0.821  10.047 -0.3522 -0.4364  0.7574
  135TMC2    C6 2101   1.665   0.889  10.165 -0.0484 -0.9587 -0.6590
  135TMC2     C 2102   1.592   1.070   9.789 -0.1021  0.2815  0.0390
  135TMC2     O 2103   1.572   1.190   9.787  0.2049 -0.0448  0.4997
  135TMC2     H 2104   1.560   1.172  10.035 -0.0431 -0.7031  1.1937
  135TMC2    H1 2105   1.723   0.829   9.840  0.5573  2.0275  0.0576
  135TMC2    H2 2106   1.680   0.846  10.263 -3.1227 -1.2863 -0.3441
  135TMC2    C7 2107   1.767   0.696  10.051 -0.0887  0.0425  0.1798
  135TMC2    C8 2108   1.532   1.054  10.256 -0.4193  0.4264 -0.0916
  135TMC2    O1 2109   1.862   0.686   9.979  0.4359  0.2415  0.0073
  135TMC2    O2 2110   1.478   0.968  10.325 -0.0600  0.2839 -0.1456
  135TMC2    O5 2111   1.546   1.185  10.295 -0.7310  0.6764  0.4513
  135TMC2    H5 2112   1.602   1.245  10.241 -0.1146  0.4963  0.8875
  136MPD2     C 2113   1.533   1.122   9.499  0.0798 -0.7752 -0.6429
  136MPD2    C1 2114   1.568   0.997   9.550 -0.1159  0.0144  0.1364
  136MPD2    C2 2115   1.593   0.888   9.470 -0.1184 -0.6168  0.1206
  136MPD2    C3 2116   1.570   0.903   9.331  0.1709  0.2124  0.0199
  136MPD2    C4 2117   1.525   1.025   9.280 -0.5588  0.5570  0.6739
  136MPD2    C5 2118   1.512   1.131   9.363 -0.4298 -0.2643 -0.0228
  136MPD2     H 2119   1.625   0.792   9.510  1.2273  0.0258  0.5916
  136MPD2    H1 2120   1.503   1.022   9.174  1.9880 -0.7757  0.1787
  136MPD2    H2 2121   1.528   1.210   9.562 -0.9525  0.0589 -1.9004
  136MPD2    H3 2122   1.495   1.229   9.320 -0.1988 -0.3482 -0.3052
  136MPD2     N 2123   1.601   0.801   9.241 -0.4073 -0.2220  0.0390
  136MPD2    H5 2124   1.576   0.825   9.146  0.2058 -3.2850 -0.8951
  136MPD2    N1 2125   1.596   0.980   9.686  0.2951 -0.3894  0.2193
  136MPD2    H7 2126   1.611   0.885   9.719  3.9367 -0.2814 -1.0524
  137TMC2    C1 2127   1.479   0.307   9.988  0.1146  0.7865 -0.9567
  137TMC2    C2 2128   1.553   0.337   9.879  0.6188  0.0633 -0.4201
  137TMC2    C3 2129   1.568   0.474   9.857 -0.6849  0.2230 -0.6039
  137TMC2    C4 2130   1.399   0.386  10.062 -0.4499  0.5786  0.6885
  137TMC2    C5 2131   1.405   0.517  10.030  0.5115 -0.2209 -0.7942
  137TMC2    C6 2132   1.487   0.561   9.929 -0.0949  0.3976  0.7585
  137TMC2     C 2133   1.479   0.163  10.016 -0.4694 -0.4087 -0.4188
  137TMC2     O 2134   1.584   0.103   9.992 -0.1345 -0.1793 -0.3064
  137TMC2     H 2135   1.617   0.260   9.837  0.8163  0.7051 -1.2793
  137TMC2    H1 2136   1.350   0.336  10.145 -0.0439  1.1139  1.2474
  137TMC2    H2 2137   1.483   0.665   9.898 -2.3605 -0.6282 -2.3444
  137TMC2    C7 2138   1.343   0.625  10.113  0.0632 -0.9793 -0.5275
  137TMC2    C8 2139   1.602   0.526   9.731 -0.1326  0.7918 -0.0809
  137TMC2    O1 2140   1.385   0.739  10.111 -0.1768  0.1109 -0.6679
  137TMC2    O2 2141   1.604   0.646   9.720 -0.0977  0.1484 -0.0905
  137TMC2    O5 2142   1.517   0.454   9.656  0.3071 -0.1591 -0.1067
  137TMC2    H5 2143   1.529   0.357   9.660 -1.4657 -0.5175 -3.4370
  138MPD2     C 2144   1.206   4.728  10.177  0.3163  0.3719 -0.1699
  138MPD2    C1 2145   1.332   0.003  10.125  0.1479  0.3238  0.2766
  138MPD2    C2 2146   1.424   4.639  10.124  0.0629  0.1256 -0.1026
  138MPD2    C3 2147   1.382   4.520  10.186  0.6348  0.3440 -0.3815
  138MPD2    C4 2148   1.257   4.512  10.242 -0.1624 -0.9318 -0.6717
  138MPD2    C5 2149   1.167   4.613  10.236 -0.5405  0.3362  0.8577
  138MPD2     H 2150   1.528   4.650  10.095 -0.0015  0.2655 -0.2729
  138MPD2    H1 2151   1.225   4.417  10.283  2.1932 -1.3967  0.0477
  138MPD2    H2 2152   1.131   0.065  10.166  0.3903  0.4447 -0.1604
  138MPD2    H3 2153   1.061   4.603  10.255 -0.2003 -0.4429  2.2975
  138MPD2     N 2154   1.475   4.415  10.207  0.5639  0.2609 -0.4243
  138MPD2    H5 2155   1.573   4.441  10.199  0.8219 -0.9687 -1.3955
  138MPD2    N1 2156   1.356   0.125  10.061 -0.1112 -0.0488 -0.0926
  138MPD2    H7 2157   1.277   0.187  10.051 -0.7453 -0.9634 -0.7638
  139TMC2    C1 2158   2.093   3.696  13.712  0.1108  0.0510  0.3783
  139TMC2    C2 2159   2.180   3.681  13.609  0.5067 -0.4112 -0.1521
  139TMC2    C3 2160   2.219   3.789  13.528  0.3588 -0.2018  0.5077
  139TMC2    C4 2161   2.033   3.820  13.723 -0.2786  0.7782  0.1262
  139TMC2    C5 2162   2.078   3.928  13.652 -0.0068  0.0869  0.1846
  139TMC2    C6 2163   2.167   3.915  13.557  0.0199  0.1943 -0.2705
  139TMC2     C 2164   2.041   3.576  13.769  0.3483 -0.1209  0.5199
  139TMC2     O 2165   2.114   3.478  13.776 -0.4440  0.3892 -0.3795
  139TMC2     H 2166   2.231   3.585  13.613 -0.4452 -0.8585  1.1092
  139TMC2    H1 2167   1.958   3.825  13.801 -1.2757 -2.5850 -0.6345
  139TMC2    H2 2168   2.186   3.998  13.490 -1.7567 -0.2380 -1.3025
  139TMC2    C7 2169   2.046   4.062  13.692  0.1051 -0.5691  0.1582
  139TMC2    C8 2170   2.345   3.778  13.457  0.2048 -0.5698  0.4235
  139TMC2    O1 2171   2.112   4.152  13.641 -0.1340 -1.0880  0.1463
  139TMC2    O2 2172   2.403   3.879  13.420  0.3276 -0.3969 -0.1628
  139TMC2    O5 2173   2.365   3.652  13.405  0.3290  0.7197  0.0273
  139TMC2    H5 2174   2.290   3.590  13.416  1.2016 -0.2039  0.7729
  140MPD2     C 2175   1.720   3.575  13.934  0.2428  0.6114  0.0146
  140MPD2    C1 2176   1.834   3.517  13.895  0.2093 -0.3591  0.3876
  140MPD2    C2 2177   1.872   3.392  13.940  0.1987  0.4423 -0.1961
  140MPD2    C3 2178   1.784   3.317  14.011 -0.5284  0.0758  0.2491
  140MPD2    C4 2179   1.664   3.378  14.045  0.2932  0.5183 -0.2135
  140MPD2    C5 2180   1.628   3.505  14.008 -0.5950 -0.7666  0.2270
  140MPD2     H 2181   1.966   3.349  13.907  0.9490  0.3554  2.0566
  140MPD2    H1 2182   1.591   3.328  14.107  0.6661  0.1992 -0.0280
  140MPD2    H2 2183   1.696   3.672  13.891  2.5630  0.0947 -2.4767
  140MPD2    H3 2184   1.524   3.530  14.024 -0.3889 -0.0421  0.4176
  140MPD2     N 2185   1.823   3.191  14.056 -0.5337 -0.1891 -0.5578
  140MPD2    H5 2186   1.910   3.148  14.026 -0.1048 -0.5166  1.1463
  140MPD2    N1 2187   1.915   3.598  13.815 -0.1412 -0.1310  1.0450
  140MPD2    H7 2188   1.880   3.692  13.800  5.3639  2.2650  3.2171
  141TMC2    C1 2189   3.155   4.574  14.776  0.2642 -0.9879  0.0796
  141TMC2    C2 2190   3.115   4.480  14.869 -0.3559  0.2892  0.7230
  141TMC2    C3 2191   3.069   4.525  14.983  0.2936 -0.1954  0.4321
  141TMC2    C4 2192   3.150   4.711  14.795 -0.5144 -0.6372 -0.0569
  141TMC2    C5 2193   3.107   0.010  14.919  0.1916 -0.1286  0.0366
  141TMC2    C6 2194   3.064   4.659  15.012  0.0180 -0.1367 -1.3554
  141TMC2     C 2195   3.171   4.535  14.636 -0.6757  0.9417 -0.7164
  141TMC2     O 2196   3.157   4.627  14.555  0.5669 -0.2692  0.0765
  141TMC2     H 2197   3.110   4.373  14.851  2.4974  0.3723 -0.5515
  141TMC2    H1 2198   3.175   0.039  14.715  3.0148  0.1192  1.6771
  141TMC2    H2 2199   3.039   4.696  15.111  1.2622  1.2914 -1.5772
  141TMC2    C7 2200   3.135   0.136  14.967 -0.1793  0.3098  0.1688
  141TMC2    C8 2201   3.039   4.436  15.086 -0.1792 -0.1503  0.1435
  141TMC2    O1 2202   3.074   0.168  15.065  0.1152  0.2978 -0.1728
  141TMC2    O2 2203   3.104   4.341  15.123  0.1775 -0.1013  0.3860
  141TMC2    O5 2204   2.923   4.475  15.147  0.2748 -0.5225  0.0303
  141TMC2    H5 2205   2.878   4.545  15.095 -0.3043 -2.3018 -1.8960
  142TMC2    C1 2206   0.221   2.908  11.011 -0.2813  0.5291  0.2610
  142TMC2    C2 2207   0.233   2.982  11.124  0.3499  0.4914  0.2448
  142TMC2    C3 2208   0.357   3.000  11.185 -0.5363 -1.1234  0.0212
  142TMC2    C4 2209   0.327   2.850  10.949  0.0027 -0.0957 -0.0863
  142TMC2    C5 2210   0.453   2.872  11.008 -0.5343 -0.2929 -0.1555
  142TMC2    C6 2211   0.469   2.948  11.119 -0.3557  1.1210  0.1104
  142TMC2     C 2212   0.094   2.869  10.961 -0.5157  0.3783  0.2111
  142TMC2     O 2213   0.093   2.753  10.921 -0.2951 -0.0946  0.0105
  142TMC2     H 2214   0.145   3.033  11.163 -0.4269 -2.8348  2.8628
  142TMC2    H1 2215   0.319   2.809  10.849  0.6721 -1.0312  0.2398
  142TMC2    H2 2216   0.564   2.978  11.161 -0.4919 -0.1755  1.3592
  142TMC2    C7 2217   0.564   2.801  10.954 -0.0162  0.2599 -0.4944
  142TMC2    C8 2218   0.376   3.130  11.236  0.6860  0.4578  0.4051
  142TMC2    O1 2219   0.524   2.688  10.927 -0.3954  0.0182 -0.3962
  142TMC2    O2 2220   0.302   3.193  11.311 -0.4426 -0.0790 -0.2815
  142TMC2    O5 2221   0.437   3.185  11.133 -0.2942 -0.2909  0.1587
  142TMC2    H5 2222   0.515   3.136  11.100 -0.3564 -0.4280  0.2153
  143MPD2     C 2223   4.364   2.912  10.791  0.5083  0.5455  0.0806
  143MPD2    C1 2224   4.430   2.803  10.836 -0.7164  0.3063  0.2862
  143MPD2    C2 2225   4.557   2.822  10.884 -0.1210  0.6397  0.5367
  143MPD2    C3 2226   4.608   2.950  10.913 -0.5646 -0.5573  0.7573
  143MPD2    C4 2227   4.538   3.063  10.878  0.1628  0.4355 -0.2265
  143MPD2    C5 2228   4.409   3.037  10.829 -0.0983 -0.7620  0.3015
  143MPD2     H 2229   4.606   2.729  10.911 -0.9081 -0.2649 -1.1915
  143MPD2    H1 2230   4.577   3.162  10.898 -0.4427  1.2493 -3.1135
  143MPD2    H2 2231   4.271   2.911  10.736  0.7820  0.0553 -0.3780
  143MPD2    H3 2232   4.345   3.122  10.806  0.3273 -0.0102  1.8753
  143MPD2     N 2233   4.739   2.967  10.967 -0.3362  0.0225 -0.3297
  143MPD2    H5 2234   0.027   3.061  10.990  1.3016 -0.9539  1.5464
  143MPD2    N1 2235   4.391   2.676  10.790  0.0425 -0.3228 -0.4604
  143MPD2    H7 2236   4.311   2.679  10.728 -1.5317 -0.6112  1.5588
  144TMC2    C1 2237   3.005   2.001   0.753  0.1856  0.7834 -0.0525
  144TMC2    C2 2238   3.012   1.865   0.743  0.4377 -0.1452  0.7533
  144TMC2    C3 2239   3.135   1.802   0.761 -0.1946  0.2461 -0.3279
  144TMC2    C4 2240   3.118   2.072   0.791 -0.4111 -0.1712 -0.1729
  144TMC2    C5 2241   3.237   2.006   0.810 -0.5898 -0.5601  0.7082
  144TMC2    C6 2242   3.251   1.868   0.792  0.1371  0.0222 -0.1937
  144TMC2     C 2243   2.893   2.071   0.684  0.0530 -0.1905  0.5969
  144TMC2     O 2244   2.817   1.996   0.619 -0.2419 -0.1737 -0.6374
  144TMC2     H 2245   2.922   1.810   0.716 -0.4462  0.7674  1.8160
  144TMC2    H1 2246   3.120   2.179   0.778  1.4645 -0.1621  0.1944
  144TMC2    H2 2247   3.338   1.816   0.830  0.9825  2.1203  0.7290
  144TMC2    C7 2248   3.333   2.064   0.901  0.1159 -0.1716  0.1970
  144TMC2    C8 2249   3.135   1.654   0.758 -0.2079 -0.5417 -0.2301
  144TMC2    O1 2250   3.430   1.994   0.918  0.4407  0.1636 -0.1223
  144TMC2    O2 2251   3.040   1.597   0.801 -0.1881  0.8416 -0.1763
  144TMC2    O5 2252   3.259   1.610   0.732 -0.2082 -0.8895 -0.2239
  144TMC2    H5 2253   3.319   1.676   0.691  0.0359 -0.3354  0.9966
  145MPD2     C 2254   2.618   2.480   0.559 -0.4031  0.2795  0.1130
  145MPD2    C1 2255   2.634   2.353   0.498  0.2356 -0.4488 -0.2371
  145MPD2    C2 2256   2.727   2.262   0.549 -0.1192 -0.5817  0.8462
  145MPD2    C3 2257   2.793   2.296   0.665  0.6474 -0.6842 -0.3184
  145MPD2    C4 2258   2.781   2.416   0.723  0.0754  0.1032  0.1348
  145MPD2    C5 2259   2.693   2.504   0.668  1.0457 -0.4627 -0.2648
  145MPD2     H 2260   2.736   2.165   0.501 -2.0270 -0.2972 -0.1077
  145MPD2    H1 2261   2.821   2.444   0.820  1.3249 -2.2558  0.3151
  145MPD2    H2 2262   2.554   2.560   0.525  1.8130  1.4865 -1.1969
  145MPD2    H3 2263   2.674   2.596   0.722 -2.2926 -0.9014 -0.6740
  145MPD2     N 2264   2.881   2.203   0.732  0.8216  0.3444  0.1870
  145MPD2    H5 2265   2.940   2.240   0.805  1.7411 -0.3848 -0.1850
  145MPD2    N1 2266   2.555   2.303   0.399 -0.2302 -0.0708  0.6610
  145MPD2    H7 2267   2.571   2.205   0.378  0.3150  0.9085 -3.4812
  146TMC2    C1 2268   0.013   1.268  12.821  0.0508  1.1134  0.0503
  146TMC2    C2 2269   0.063   1.381  12.764 -0.8061  0.0433  0.1958
  146TMC2    C3 2270   0.130   1.360  12.650 -0.0837  0.2013 -0.1697
  146TMC2    C4 2271   0.041   1.134  12.787 -0.1023 -0.3127  0.0007
  146TMC2    C5 2272   0.106   1.119  12.671 -0.1126 -0.5324 -0.2392
  146TMC2    C6 2273   0.144   1.231  12.601  0.5807 -0.8366 -0.0405
  146TMC2     C 2274   4.718   1.284  12.959 -0.5034  0.1273 -0.2708
  146TMC2     O 2275   4.655   1.383  12.986 -0.0741 -0.3223 -0.0513
  146TMC2     H 2276   0.026   1.480  12.789 -0.9726  0.6907 -2.6347
  146TMC2    H1 2277   4.735   1.058  12.848  0.5123  0.4954  1.4857
  146TMC2    H2 2278   0.195   1.216  12.507 -0.3028 -2.0249 -0.3258
  146TMC2    C7 2279   0.133   0.990  12.611  0.3112 -0.2654 -0.1985
  146TMC2    C8 2280   0.157   1.466  12.558 -0.6350 -0.7862  0.4465
  146TMC2    O1 2281   0.107   0.980  12.489 -0.2517  0.0545  0.4441
  146TMC2    O2 2282   0.171   1.445  12.439 -0.8679  0.1894 -0.0499
  146TMC2    O5 2283   0.138   1.585  12.609 -0.0982  0.4844 -0.2447
  146TMC2    H5 2284   0.155   1.586  12.705 -1.3733  1.3412 -0.0237
  147MPD2     C 2285   0.273   0.495  12.646  0.5875  0.0558  0.4775
  147MPD2    C1 2286   0.297   0.555  12.771 -0.8792 -0.5274  0.2724
  147MPD2    C2 2287   0.269   0.686  12.785 -0.3493 -0.2698 -0.3756
  147MPD2    C3 2288   0.221   0.766  12.680 -0.0583  0.0796 -0.5928
  147MPD2    C4 2289   0.190   0.702  12.561  0.0982  0.4444 -0.0620
  147MPD2    C5 2290   0.217   0.570  12.542  0.1597  0.3307  0.2853
  147MPD2     H 2291   0.303   0.732  12.877 -0.6153 -0.1417 -0.3412
  147MPD2    H1 2292   0.138   0.740  12.474  0.1998  2.8168  0.9386
  147MPD2    H2 2293   0.304   0.394  12.621 -1.9844 -0.8203  0.8216
  147MPD2    H3 2294   0.178   0.533  12.448 -0.3498 -1.4776  1.2044
  147MPD2     N 2295   0.174   0.901  12.706 -0.2112 -0.1791 -0.8624
  147MPD2    H5 2296   0.181   0.925  12.805 -2.6556 -2.7678 -0.0753
  147MPD2    N1 2297   0.359   0.479  12.872  0.8463 -0.2235 -1.3748
  147MPD2    H7 2298   0.402   0.390  12.846  0.9907 -0.3104 -0.8392
  148TMC2    C1 2299   4.243   4.216  10.697  0.2145  0.5311  0.0398
  148TMC2    C2 2300   4.344   4.308  10.687 -0.0708 -0.0965  0.8917
  148TMC2    C3 2301   4.460   4.260  10.630 -0.7787  0.5475 -0.3426
  148TMC2    C4 2302   4.262   4.086  10.662 -0.1891 -0.1524 -0.4662
  148TMC2    C5 2303   4.374   4.048  10.595 -0.7741 -0.1832 -0.9575
  148TMC2    C6 2304   4.480   4.135  10.584 -0.6042 -0.0916 -0.1335
  148TMC2     C 2305   4.109   4.267  10.707  0.5579  0.0358 -0.3882
  148TMC2     O 2306   4.091   4.386  10.683 -0.5064 -0.2455 -0.1265
  148TMC2     H 2307   4.330   4.412  10.715 -0.9381 -0.1099  0.5081
  148TMC2    H1 2308   4.188   4.009  10.681  0.8448 -0.3450  2.8173
  148TMC2    H2 2309   4.574   4.110  10.536 -0.4165  2.0036 -0.8852
  148TMC2    C7 2310   4.389   3.912  10.561 -0.2423 -0.2042  0.0794
  148TMC2    C8 2311   4.573   4.346  10.611 -1.0345  0.1561 -0.1093
  148TMC2    O1 2312   4.292   3.837  10.581 -0.5134  0.3250 -0.1327
  148TMC2    O2 2313   4.656   4.322  10.523 -0.5155  0.5430 -1.2300
  148TMC2    O5 2314   4.593   4.421  10.722 -0.2706 -0.4545 -0.0044
  148TMC2    H5 2315   4.526   4.409  10.793 -1.4765 -2.7511 -1.5247
  149MPD2     C 2316   3.817   4.296  10.659 -0.1591 -0.0154  0.0084
  149MPD2    C1 2317   3.877   4.178  10.682 -0.0550  0.4452 -0.0942
  149MPD2    C2 2318   3.799   4.066  10.663 -0.1888  0.3739  0.0484
  149MPD2    C3 2319   3.670   4.073  10.629  0.4398 -0.3597 -0.7299
  149MPD2    C4 2320   3.610   4.190  10.618 -0.2804  0.2782 -0.7960
  149MPD2    C5 2321   3.684   4.301  10.626 -0.3901  0.3868  0.3533
  149MPD2     H 2322   3.856   3.974  10.667 -0.5963  0.0361 -1.5892
  149MPD2    H1 2323   3.505   4.203  10.596 -0.3920  1.9740  0.7238
  149MPD2    H2 2324   3.870   4.390  10.671 -1.8141  1.0730 -1.2090
  149MPD2    H3 2325   3.649   4.401  10.604  0.0851  0.2607 -1.0125
  149MPD2     N 2326   3.599   3.958  10.580  0.4262  0.3029  0.8698
  149MPD2    H5 2327   3.506   3.972  10.540  0.4335 -1.0051  0.3918
  149MPD2    N1 2328   4.017   4.165  10.713 -0.2401 -0.3865  0.2050
  149MPD2    H7 2329   4.052   4.071  10.731 -0.1251 -0.2866  0.4962
  150TMC2    C1 2330   2.280   3.534  12.206  0.6616 -0.0440 -0.6876
  150TMC2    C2 2331   2.247   3.650  12.136 -0.1322 -0.1126 -0.0073
  150TMC2    C3 2332   2.317   3.765  12.163  0.5503  0.3751  0.3280
  150TMC2    C4 2333   2.381   3.538  12.296 -0.0161 -0.3356 -0.4835
  150TMC2    C5 2334   2.435   3.661  12.323 -0.6214 -0.1790  0.0615
  150TMC2    C6 2335   2.414   3.774  12.253 -0.0043  0.3598  0.0667
  150TMC2     C 2336   2.223   3.408  12.169  0.7182 -0.3871  0.5116
  150TMC2     O 2337   2.256   3.310  12.238 -0.0936  0.7071  0.1982
  150TMC2     H 2338   2.156   3.654  12.077 -0.5131  0.9249  0.6603
  150TMC2    H1 2339   2.414   3.446  12.343  3.2201  0.0558 -1.9896
  150TMC2    H2 2340   2.475   3.861  12.272  0.1459  0.3625 -0.4225
  150TMC2    C7 2341   2.549   3.668  12.415 -0.1709  0.3375 -0.1463
  150TMC2    C8 2342   2.270   3.879  12.097 -0.2088  0.4901  0.4325
  150TMC2    O1 2343   2.618   3.769  12.401  0.0957  0.2836 -0.0221
  150TMC2    O2 2344   2.189   3.866  12.007 -0.0194 -0.4978 -0.0829
  150TMC2    O5 2345   2.261   3.977  12.185 -0.3957  0.3832  0.6453
  150TMC2    H5 2346   2.327   3.978  12.258 -1.4001  0.4946  1.5475
  151MPD2     C 2347   1.870   3.123  11.918  0.0606  0.1326  0.0913
  151MPD2    C1 2348   1.885   3.240  11.850 -0.0600 -0.3378  0.4521
  151MPD2    C2 2349   1.973   3.334  11.897  0.2974 -0.7700  0.2271
  151MPD2    C3 2350   2.041   3.321  12.014 -0.1410 -0.3692 -0.0842
  151MPD2    C4 2351   2.023   3.204  12.086 -0.3712 -0.1424 -0.5681
  151MPD2    C5 2352   1.938   3.111  12.040  0.4465 -0.4256  0.2972
  151MPD2     H 2353   1.991   3.426  11.842 -1.6662 -1.5636 -1.7360
  151MPD2    H1 2354   2.083   3.173  12.171  0.1541  1.6124 -0.2828
  151MPD2    H2 2355   1.799   3.046  11.888 -1.9030  1.4447  1.3340
  151MPD2    H3 2356   1.928   3.016  12.093 -0.9018  0.1882  1.1353
  151MPD2     N 2357   2.142   3.411  12.056  0.1014 -0.2313  0.3564
  151MPD2    H5 2358   2.140   3.501  12.009 -0.8549 -0.1062  0.6455
  151MPD2    N1 2359   1.803   3.267  11.737  0.3543 -0.4561 -0.0703
  151MPD2    H7 2360   1.746   3.193  11.698  0.0546 -0.4605  0.3736
  152TMC2    C1 2361   1.859   3.577  13.130  0.4839 -0.4005 -0.4456
  152TMC2    C2 2362   1.925   3.500  13.044  0.1108 -0.2188 -0.9655
  152TMC2    C3 2363   2.035   3.545  12.981  0.4389  0.8089  0.1482
  152TMC2    C4 2364   1.910   3.700  13.168  0.9918  0.6637  0.3419
  152TMC2    C5 2365   2.025   3.736  13.112 -0.4869  0.2434  0.6348
  152TMC2    C6 2366   2.091   3.664  13.014  0.1861  0.2105  0.0069
  152TMC2     C 2367   1.725   3.531  13.176 -0.2541  0.9534 -0.2912
  152TMC2     O 2368   1.697   3.412  13.155 -0.3424  0.5983  0.6634
  152TMC2     H 2369   1.875   3.406  13.022 -2.9062  0.4825  2.8616
  152TMC2    H1 2370   1.853   3.751  13.244  0.9448  0.3614  0.5095
  152TMC2    H2 2371   2.175   3.694  12.951  0.6923 -1.1319  0.0545
  152TMC2    C7 2372   2.088   3.858  13.158  0.3344  0.0684 -0.6447
  152TMC2    C8 2373   2.079   3.482  12.858  0.3240  0.1431 -0.3530
  152TMC2    O1 2374   2.015   3.945  13.200 -0.4434 -0.2308 -0.1850
  152TMC2    O2 2375   2.141   3.375  12.862  0.0666  0.2448 -0.4381
  152TMC2    O5 2376   1.981   3.510  12.767 -0.2843  0.5421  0.7306
  152TMC2    H5 2377   1.936   3.596  12.785  0.9043  0.9759  1.6078
  153MPD2     C 2378   1.493   3.721  13.384  0.0146  0.1439 -0.2851
  153MPD2    C1 2379   1.537   3.616  13.310  0.4035  0.7506  0.5276
  153MPD2    C2 2380   1.464   3.500  13.316 -0.0533 -0.1336  0.3312
  153MPD2    C3 2381   1.343   3.496  13.376 -0.0448  0.0632 -0.4098
  153MPD2    C4 2382   1.297   3.601  13.451  0.1488 -0.5238 -0.0888
  153MPD2    C5 2383   1.371   3.715  13.454  0.1578  0.3097  0.6219
  153MPD2     H 2384   1.503   3.407  13.275 -2.1332 -0.6901 -0.3784
  153MPD2    H1 2385   1.203   3.591  13.505  0.0691 -0.1881 -0.1684
  153MPD2    H2 2386   1.546   3.815  13.395 -1.4272  0.6551  2.3577
  153MPD2    H3 2387   1.332   3.801  13.507  0.9576  0.4414  0.9935
  153MPD2     N 2388   1.271   3.377  13.363 -0.1391 -0.3201 -0.1077
  153MPD2    H5 2389   1.306   3.312  13.293  2.1251  0.2115  0.5265
  153MPD2    N1 2390   1.646   3.631  13.227  0.9144  0.0294 -0.4380
  153MPD2    H7 2391   1.678   3.727  13.217  0.3068  0.3061  0.2046
  154TMC2    C1 2392   3.275   2.884   0.286  0.4425 -0.0789  0.3019
  154TMC2    C2 2393   3.353   2.894   0.395 -0.0598  0.9759 -0.3595
  154TMC2    C3 2394   3.375   2.778   0.466  1.1519  0.0442  0.1525
  154TMC2    C4 2395   3.242   2.768   0.221  0.0156 -0.5394  0.4930
  154TMC2    C5 2396   3.273   2.650   0.290  0.0582  0.1422  0.2268
  154TMC2    C6 2397   3.340   2.654   0.411 -0.2489  0.0481  0.2596
  154TMC2     C 2398   3.223   3.005   0.235 -0.1911 -0.5710  0.2394
  154TMC2     O 2399   3.226   3.100   0.313 -0.9109  0.4491 -0.8926
  154TMC2     H 2400   3.381   2.991   0.436  2.2764  1.2687 -2.6349
  154TMC2    H1 2401   3.190   2.767   0.125  0.3655 -0.4708  0.3016
  154TMC2    H2 2402   3.374   2.564   0.459  0.3493 -0.4681 -1.1377
  154TMC2    C7 2403   3.278   2.528   0.198  0.5749 -0.3471 -0.0230
  154TMC2    C8 2404   3.479   2.786   0.569  0.1048  0.0547 -0.6242
  154TMC2    O1 2405   3.206   2.527   0.102 -0.0838 -0.0192  0.2041
  154TMC2    O2 2406   3.554   2.695   0.595  0.3728 -0.6251  0.2746
  154TMC2    O5 2407   3.447   2.886   0.654 -0.3338 -0.5681  0.7449
  154TMC2    H5 2408   3.358   2.926   0.641  0.3609  0.7379  0.0367
  155MPD2     C 2409   3.099   3.066  17.665 -0.1255  0.4190 -0.1729
  155MPD2    C1 2410   3.143   3.106   0.028 -0.1517  0.2181  0.1125
  155MPD2    C2 2411   3.139   3.245   0.051  0.0573  0.0163  0.3494
  155MPD2    C3 2412   3.107   3.339  17.712 -0.0665  0.0043 -0.0801
  155MPD2    C4 2413   3.062   3.290  17.594 -0.7482 -0.1788 -0.4118
  155MPD2    C5 2414   3.053   3.155  17.572 -0.0618 -0.1378  0.1821
  155MPD2     H 2415   3.181   3.285   0.142  1.7223  1.3593 -0.9955
  155MPD2    H1 2416   3.034   3.350  17.508 -0.4657  1.1776  0.4255
  155MPD2    H2 2417   3.120   2.964  17.635 -0.2222  0.6790 -1.1133
  155MPD2    H3 2418   3.037   3.123  17.470 -1.5083  0.7241  0.1439
  155MPD2     N 2419   3.111   3.475  17.746 -0.0661  0.0566 -0.0122
  155MPD2    H5 2420   3.129   3.499   0.081 -1.5442 -0.1803  0.3153
  155MPD2    N1 2421   3.195   3.002   0.104 -0.5534 -0.2691 -0.7032
  155MPD2    H7 2422   3.203   2.914   0.054  2.5814  0.6017 -1.7183
  156TMC2    C1 2423   2.121   0.886  12.859  0.4166  0.2046 -0.3942
  156TMC2    C2 2424   2.246   0.854  12.812 -0.5443 -0.3666  0.3123
  156TMC2    C3 2425   2.271   0.827  12.678 -0.4781 -0.2705 -0.0750
  156TMC2    C4 2426   2.019   0.887  12.768  0.6571  0.4798 -0.0125
  156TMC2    C5 2427   2.044   0.875  12.632  0.6534 -0.5624 -0.5948
  156TMC2    C6 2428   2.173   0.845  12.588  0.5703 -0.1686  0.3505
  156TMC2     C 2429   2.100   0.966  12.982  0.3219  0.7574  0.0870
  156TMC2     O 2430   2.189   0.960  13.070 -0.3729 -0.3704  0.1268
  156TMC2     H 2431   2.328   0.854  12.883  0.4643 -2.8777 -0.8405
  156TMC2    H1 2432   1.918   0.901  12.804  1.3450  3.0887  0.8588
  156TMC2    H2 2433   2.170   0.819  12.483  1.1518 -1.2525  0.6045
  156TMC2    C7 2434   1.942   0.891  12.531 -1.0021 -0.7450 -0.3102
  156TMC2    C8 2435   2.393   0.753  12.641 -0.7204  0.4526 -0.5544
  156TMC2    O1 2436   1.973   0.947  12.427 -0.0311 -0.3147 -0.4427
  156TMC2    O2 2437   2.439   0.763  12.527 -0.1661  0.4034  0.2293
  156TMC2    O5 2438   2.402   0.638  12.714 -0.2868  0.3125 -0.0256
  156TMC2    H5 2439   2.354   0.631  12.799  1.2151 -1.3945  0.6772
  157MPD2     C 2440   1.969   1.106  13.198 -0.1688  0.2615  0.4232
  157MPD2    C1 2441   1.946   1.131  13.068 -0.6803 -0.4777  0.0764
  157MPD2    C2 2442   1.851   1.223  13.037  0.0569 -0.1133 -0.6347
  157MPD2    C3 2443   1.785   1.298  13.131  0.2368  0.9174 -0.4055
  157MPD2    C4 2444   1.819   1.278  13.261  0.4078  0.5511  0.1156
  157MPD2    C5 2445   1.908   1.182  13.294 -0.1903 -0.6106  0.3758
  157MPD2     H 2446   1.822   1.225  12.933 -0.6788 -1.4313 -0.4469
  157MPD2    H1 2447   1.784   1.347  13.337 -0.3021  1.1816 -0.7894
  157MPD2    H2 2448   2.032   1.025  13.233 -0.9342  0.3466  2.0388
  157MPD2    H3 2449   1.920   1.164  13.400  1.2747 -0.0913  0.2907
  157MPD2     N 2450   1.695   1.389  13.072 -0.1106  0.1214 -0.3170
  157MPD2    H5 2451   1.693   1.388  12.970 -0.3051  2.7301 -0.3375
  157MPD2    N1 2452   1.998   1.056  12.966  0.1268  0.5673 -0.8805
  157MPD2    H7 2453   1.960   1.075  12.874 -3.5551  0.1922  0.5847
  158TMC2    C1 2454   3.123   4.382  13.414  0.2007  0.4595 -0.4514
  158TMC2    C2 2455   3.175   4.348  13.288  0.2359 -0.3195 -0.1633
  158TMC2    C3 2456   3.152   4.428  13.179  0.7805  1.2576 -0.7642
  158TMC2    C4 2457   3.036   4.490  13.426  0.3601 -0.2571 -0.4788
  158TMC2    C5 2458   3.008   4.562  13.313 -0.3757  0.3205 -0.1224
  158TMC2    C6 2459   3.070   4.535  13.195 -0.1092 -0.3176  0.1827
  158TMC2     C 2460   3.162   4.298  13.527 -0.3009  0.0134 -0.1972
  158TMC2     O 2461   3.281   4.264  13.530 -0.1911  0.4183  0.1363
  158TMC2     H 2462   3.230   4.256  13.271 -0.7304 -0.5595 -1.9759
  158TMC2    H1 2463   3.004   4.523  13.525  3.4620 -0.8892  0.7326
  158TMC2    H2 2464   3.080   4.611  13.119  1.0622 -0.1085  0.5461
  158TMC2    C7 2465   2.926   4.683  13.317 -0.4232 -0.1221  0.0833
  158TMC2    C8 2466   3.194   4.399  13.042  0.3528  0.8527 -0.0962
  158TMC2    O1 2467   2.934   0.019  13.221  0.2107  0.3573  0.0440
  158TMC2    O2 2468   3.120   4.432  12.950  0.0287  0.2980  0.6845
  158TMC2    O5 2469   3.292   4.307  13.040 -0.4938 -0.0391  0.9100
  158TMC2    H5 2470   3.335   4.290  13.126 -1.1529 -0.9048  1.0698
  159MPD2     C 2471   3.097   4.093  13.986  0.1483 -0.7607 -0.3739
  159MPD2    C1 2472   3.000   4.192  13.977  0.5690  0.3301  0.1817
  159MPD2    C2 2473   2.989   4.255  13.853  0.7748 -0.5537  0.0772
  159MPD2    C3 2474   3.080   4.228  13.754 -0.7464 -0.3175  0.4495
  159MPD2    C4 2475   3.179   4.143  13.769 -0.9976 -0.5460  0.1919
  159MPD2    C5 2476   3.188   4.074  13.882 -0.6227 -0.3107 -0.0911
  159MPD2     H 2477   2.908   4.326  13.843 -0.4786 -2.1763 -1.0889
  159MPD2    H1 2478   3.256   4.119  13.698 -2.7706  0.0096 -1.9151
  159MPD2    H2 2479   3.100   4.039  14.081 -0.5574 -1.0993 -0.5487
  159MPD2    H3 2480   3.276   4.012  13.893 -0.0904  0.6428  1.0127
  159MPD2     N 2481   3.065   4.293  13.623  0.1194  0.0830  0.2928
  159MPD2    H5 2482   2.980   4.346  13.607  0.8102  1.3185  0.7053
  159MPD2    N1 2483   2.907   4.217  14.082 -0.3752  0.9852 -0.2307
  159MPD2    H7 2484   2.899   4.143  14.151 -1.8968  1.6401  0.2857
  160TMC2    C1 2485   1.357   2.310   1.947 -0.4337  0.4021 -0.2329
  160TMC2    C2 2486   1.426   2.273   2.062 -0.3128 -0.2540  0.7111
  160TMC2    C3 2487   1.563   2.266   2.067 -0.0262 -0.0774 -0.2712
  160TMC2    C4 2488   1.425   2.340   1.835 -0.1948 -0.5870  0.1705
  160TMC2    C5 2489   1.565   2.335   1.849 -0.2391  0.2551  0.4572
  160TMC2    C6 2490   1.637   2.300   1.957  0.3879 -0.0175 -0.4126
  160TMC2     C 2491   1.213   2.344   1.956 -0.3981  0.7567  0.0122
  160TMC2     O 2492   1.179   2.369   2.074 -0.1788  0.5447  0.0115
  160TMC2     H 2493   1.372   2.236   2.148 -1.1653  0.4373  0.4723
  160TMC2    H1 2494   1.382   2.363   1.739  2.5253  0.0539 -0.8922
  160TMC2    H2 2495   1.745   2.292   1.961  0.2344 -1.5989  0.3460
  160TMC2    C7 2496   1.631   2.402   1.740 -0.1476 -0.6221 -0.4880
  160TMC2    C8 2497   1.628   2.238   2.194 -0.5267 -0.1383 -0.1325
  160TMC2    O1 2498   1.582   2.504   1.693 -0.0045  0.1569  0.3777
  160TMC2    O2 2499   1.746   2.259   2.222 -0.0724  0.5657 -0.0034
  160TMC2    O5 2500   1.554   2.161   2.268  0.0309  0.0345  0.3323
  160TMC2    H5 2501   1.473   2.126   2.227 -0.4236 -0.2575  1.4619
  161MPD2     C 2502   0.991   2.531   1.937 -0.5007  0.5985 -0.6188
  161MPD2    C1 2503   1.032   2.454   1.829 -0.4123 -0.3906  0.4916
  161MPD2    C2 2504   0.961   2.465   1.711  0.2791  0.4870  0.7439
  161MPD2    C3 2505   0.850   2.541   1.708  0.5070  0.6538  0.7723
  161MPD2    C4 2506   0.802   2.605   1.820  0.2998  0.2582 -0.3135
  161MPD2    C5 2507   0.874   2.596   1.936 -0.4393  0.6092 -0.1315
  161MPD2     H 2508   0.990   2.402   1.627  1.0432  0.0269  1.3538
  161MPD2    H1 2509   0.715   2.670   1.822  2.6578  3.3525  0.8992
  161MPD2    H2 2510   1.056   2.533   2.023 -1.5272  0.5764  0.1685
  161MPD2    H3 2511   0.844   2.652   2.024 -1.3957  0.5698 -0.4382
  161MPD2     N 2512   0.779   2.557   1.592  0.8956 -0.0085 -0.0519
  161MPD2    H5 2513   0.694   2.612   1.595 -0.3260 -1.8091 -1.5167
  161MPD2    N1 2514   1.148   2.372   1.833  0.2857  0.6198  0.0997
  161MPD2    H7 2515   1.179   2.333   1.745 -1.9631  0.4478 -0.6150
  162TMC2    C1 2516   3.957   4.267   0.884 -0.0676  0.9601 -0.5300
  162TMC2    C2 2517   3.906   4.357   0.803 -0.5614 -0.1695  0.3580
  162TMC2    C3 2518   3.857   4.473   0.857 -0.7460  0.2681 -0.3369
  162TMC2    C4 2519   3.961   4.279   1.019  0.2190 -0.2353 -0.0460
  162TMC2    C5 2520   3.925   4.402   1.071  0.1786  0.6149  0.1650
  162TMC2    C6 2521   3.880   4.504   0.990  0.4511 -0.2047  0.6118
  162TMC2     C 2522   4.054   4.176   0.827 -0.2372 -0.1574 -0.0350
  162TMC2     O 2523   4.093   4.203   0.716  0.1649  0.0128 -0.1218
  162TMC2     H 2524   3.902   4.349   0.694  1.1659  0.2871  0.2687
  162TMC2    H1 2525   4.006   4.205   1.085  1.8431  0.7390 -0.0557
  162TMC2    H2 2526   3.832   4.589   1.037  0.4242 -0.1248  0.4368
  162TMC2    C7 2527   3.928   4.428   1.211  0.0833 -0.5738 -0.5551
  162TMC2    C8 2528   3.831   4.584   0.776  0.6921 -0.0631  0.8906
  162TMC2    O1 2529   3.942   4.547   1.240 -0.2076 -0.0389 -0.7990
  162TMC2    O2 2530   3.837   4.696   0.823 -0.2583  0.3973 -0.3056
  162TMC2    O5 2531   3.749   4.547   0.674  0.2394 -0.2292  0.4900
  162TMC2    H5 2532   3.767   4.453   0.651 -0.0186 -0.8098  2.6648
  163MPD2     C 2533   4.358   3.766   0.797 -0.4708  0.1955 -0.3834
  163MPD2    C1 2534   4.366   3.892   0.737  0.0169 -0.2922  0.4821
  163MPD2    C2 2535   4.274   3.994   0.766  0.7125 -0.4119  0.2558
  163MPD2    C3 2536   4.184   3.969   0.868 -0.0147  0.1159 -0.3577
  163MPD2    C4 2537   4.197   3.855   0.948  0.0376  0.5252  0.1001
  163MPD2    C5 2538   4.284   3.754   0.912  0.6093 -0.3311  0.7206
  163MPD2     H 2539   4.300   4.091   0.726  0.9573 -0.7779 -0.4577
  163MPD2    H1 2540   4.127   3.822   1.024 -0.0986  0.1366 -0.1929
  163MPD2    H2 2541   4.423   3.682   0.770  0.0782  0.5383 -0.1253
  163MPD2    H3 2542   4.273   3.657   0.958 -0.8484 -0.5939 -0.1974
  163MPD2     N 2543   4.085   4.066   0.908  0.0157  0.4143  0.5093
  163MPD2    H5 2544   4.024   4.055   0.989  0.2391  0.1277  0.6364
  163MPD2    N1 2545   4.471   3.905   0.642 -0.2134  0.3372 -0.1227
  163MPD2    H7 2546   4.524   3.821   0.623 -1.2107  0.1809 -2.1796
  164TMC2    C1 2547   0.291   3.811  10.852 -0.6058  0.7902  0.4960
  164TMC2    C2 2548   0.397   3.885  10.800  0.0350  0.0595 -0.0992
  164TMC2    C3 2549   0.407   4.022  10.805  0.5035  0.0029 -0.2363
  164TMC2    C4 2550   0.195   3.882  10.919 -0.5568 -0.0323 -0.3873
  164TMC2    C5 2551   0.198   4.020  10.913  1.0648 -0.1547  0.1411
  164TMC2    C6 2552   0.298   4.095  10.858  0.1635 -0.0409  0.3384
  164TMC2     C 2553   0.255   3.696  10.773 -0.2782 -0.0858  0.5097
  164TMC2     O 2554   0.142   3.657  10.790 -0.3531 -0.5733 -0.0139
  164TMC2     H 2555   0.474   3.836  10.742 -0.7717 -1.0226 -0.2537
  164TMC2    H1 2556   0.118   3.822  10.967 -0.2586  0.3373  0.5398
  164TMC2    H2 2557   0.295   4.202  10.842 -2.5764 -0.4537 -1.6912
  164TMC2    C7 2558   0.063   4.089  10.910  0.3520 -0.7265  0.5648
  164TMC2    C8 2559   0.520   4.085  10.740  0.1948 -0.6146 -1.0536
  164TMC2    O1 2560   0.051   4.211  10.910  0.4371 -0.0412 -0.0160
  164TMC2    O2 2561   0.596   4.021  10.667  0.1081  0.4909  0.0190
  164TMC2    O5 2562   0.561   4.185  10.822 -0.2924 -0.3713 -0.0352
  164TMC2    H5 2563   0.488   4.223  10.876 -1.0331 -1.1452 -0.4985
  165TMC2    C1 2564   0.459   1.550   1.137 -0.3823 -0.3008 -0.2141
  165TMC2    C2 2565   0.502   1.430   1.087  0.7334 -0.3748 -0.3294
  165TMC2    C3 2566   0.633   1.405   1.098 -0.3134  1.0088  0.1781
  165TMC2    C4 2567   0.535   1.646   1.198  0.9565 -0.4619  0.6448
  165TMC2    C5 2568   0.670   1.618   1.203  0.5920 -0.6701 -0.0457
  165TMC2    C6 2569   0.714   1.494   1.159 -0.1033 -0.0396  0.2396
  165TMC2     C 2570   0.321   1.548   1.159  0.1465 -0.2889  0.2391
  165TMC2     O 2571   0.273   1.435   1.169 -0.9562  0.2793 -0.2096
  165TMC2     H 2572   0.437   1.352   1.048 -0.2039  0.2171  0.0381
  165TMC2    H1 2573   0.492   1.740   1.230 -1.4789 -2.0948  2.2109
  165TMC2    H2 2574   0.817   1.463   1.174  0.3443 -0.1200 -3.0641
  165TMC2    C7 2575   0.764   1.713   1.264 -0.0047  0.2509  0.8085
  165TMC2    C8 2576   0.691   1.278   1.057  0.0069 -0.2775  0.0345
  165TMC2    O1 2577   0.880   1.670   1.279  0.1209  0.1218  0.5184
  165TMC2    O2 2578   0.811   1.268   1.038 -0.0452  0.7444 -0.3337
  165TMC2    O5 2579   0.604   1.180   1.054  0.4402  0.3495 -0.0452
  165TMC2    H5 2580   0.510   1.195   1.079 -0.9111 -3.0413 -3.0553
  166MPD2     C 2581   4.644   1.740   1.377 -0.3923 -0.7231  0.6256
  166MPD2    C1 2582   4.682   1.610   1.352  0.7387 -0.3703 -0.3072
  166MPD2    C2 2583   0.057   1.595   1.282 -0.1581 -0.5630  0.9126
  166MPD2    C3 2584   0.135   1.690   1.236  0.5899 -0.0610  0.5465
  166MPD2    C4 2585   0.097   1.819   1.265  0.0706 -0.3434 -0.4694
  166MPD2    C5 2586   4.724   1.847   1.342 -0.1347 -0.0948  0.1992
  166MPD2     H 2587   0.079   1.497   1.240  2.0713 -0.3654  1.6135
  166MPD2    H1 2588   0.162   1.896   1.226  0.6191 -0.3137  0.5050
  166MPD2    H2 2589   4.558   1.765   1.438 -0.7263  0.4285 -0.2901
  166MPD2    H3 2590   4.699   1.948   1.373  0.5263  0.0582  0.2289
  166MPD2     N 2591   0.258   1.667   1.179 -0.1959 -0.1577 -0.3804
  166MPD2    H5 2592   0.313   1.747   1.149 -1.5802  0.9530  0.0402
  166MPD2    N1 2593   4.593   1.502   1.386 -0.7276  0.0991 -0.1450
  166MPD2    H7 2594   4.517   1.521   1.450  0.1490  0.2955  0.8207
  167TMC2    C1 2595   4.609   4.119  13.291 -0.9846 -0.3275  0.5462
  167TMC2    C2 2596   4.606   4.140  13.430  0.4062 -0.4474 -0.0976
  167TMC2    C3 2597   4.620   4.033  13.504  0.3865  0.0074  0.1095
  167TMC2    C4 2598   4.638   3.997  13.240 -0.3229 -0.3038 -0.2095
  167TMC2    C5 2599   4.675   3.895  13.325 -0.0078 -0.3489  0.4735
  167TMC2    C6 2600   4.656   3.907  13.457  0.7549  0.9758  0.4512
  167TMC2     C 2601   4.561   4.234  13.210  0.2077  0.2927 -0.1809
  167TMC2     O 2602   4.518   4.329  13.274  0.3723  0.3372 -0.4856
  167TMC2     H 2603   4.594   4.240  13.470  0.5010 -0.4004 -0.1858
  167TMC2    H1 2604   4.634   3.977  13.133  1.9093  1.6954 -0.6855
  167TMC2    H2 2605   4.681   3.820  13.517 -0.0572  1.1964  1.1045
  167TMC2    C7 2606   4.690   3.759  13.277 -0.3872 -0.5585 -0.8531
  167TMC2    C8 2607   4.597   4.034  13.651  0.3998 -0.4953  0.1746
  167TMC2    O1 2608   4.673   3.666  13.355  0.3312  0.0262  0.5531
  167TMC2    O2 2609   4.484   4.036  13.696 -0.4665  0.3800  0.3944
  167TMC2    O5 2610   4.710   4.017  13.715  0.2141  0.1318 -0.3042
  167TMC2    H5 2611   0.053   4.038  13.669  0.6543  0.7777  0.8114
  168MPD2     C 2612   4.510   4.445  13.000 -0.0543  0.4434  0.4195
  168MPD2    C1 2613   4.562   4.324  12.973  0.2791  0.8883 -0.3001
  168MPD2    C2 2614   4.593   4.291  12.840 -0.1035 -0.2675 -0.0198
  168MPD2    C3 2615   4.569   4.381  12.738 -0.1750 -0.0311 -0.6958
  168MPD2    C4 2616   4.521   4.508  12.770  0.6008 -0.5591 -0.2244
  168MPD2    C5 2617   4.495   4.547  12.901 -0.1042  0.3869 -0.3060
  168MPD2     H 2618   4.634   4.191  12.828 -1.5209 -0.6612 -1.5216
  168MPD2    H1 2619   4.502   4.582  12.693 -3.5647 -1.4187 -0.0190
  168MPD2    H2 2620   4.483   4.481  13.099 -0.3456 -1.9129  1.1801
  168MPD2    H3 2621   4.458   4.645  12.926  0.0050  0.7433 -1.5457
  168MPD2     N 2622   4.605   4.356  12.604 -0.5979 -0.3657 -0.0142
  168MPD2    H5 2623   4.597   4.432  12.537 -0.3633 -1.5042 -1.3486
  168MPD2    N1 2624   4.589   4.222  13.073  0.6133 -0.4424 -0.4295
  168MPD2    H7 2625   4.636   4.140  13.035  3.9149  0.9454  0.6261
  169MPD1     C 2626   2.038   3.203   8.680 -0.3792  0.2176 -0.3431
  169MPD1    C1 2627   2.146   3.278   8.728  0.5794 -0.7239 -0.6402
  169MPD1    C2 2628   2.142   3.318   8.860  0.1839  0.1371  0.8716
  169MPD1    C3 2629   2.034   3.297   8.938  0.6060  0.7351  0.0483
  169MPD1    C4 2630   1.927   3.227   8.889  0.3325 -0.3179 -0.6658
  169MPD1    C5 2631   1.929   3.182   8.759 -0.3589 -0.1051  0.3357
  169MPD1     H 2632   2.222   3.384   8.893 -0.6136  1.1576  0.7575
  169MPD1    H1 2633   1.852   3.185   8.955 -1.1500 -0.3453 -2.3939
  169MPD1    H2 2634   2.035   3.159   8.581 -1.0368  2.1451 -1.1727
  169MPD1    H3 2635   1.860   3.110   8.718  1.2717  0.2843 -3.0741
  169MPD1     N 2636   2.037   3.352   9.071  0.6821 -0.3489 -0.1123
  169MPD1    H5 2637   2.123   3.400   9.096 -0.5600  1.9478 -0.2948
  169MPD1    N1 2638   2.257   3.307   8.643  0.3284 -1.0183  0.4485
  169MPD1    H6 2639   2.258   3.239   8.568  0.5319  0.2158 -0.6718
  169MPD1    H7 2640   2.344   3.291   8.694 -0.5085 -1.4316  1.7548
  170MPD1     C 2641   0.823   1.666  13.044 -0.0404 -0.1175  0.0570
  170MPD1    C1 2642   0.747   1.780  13.056  0.3918  0.1397 -0.1604
  170MPD1    C2 2643   0.720   1.831  13.183 -0.7439 -0.6794 -0.1496
  170MPD1    C3 2644   0.765   1.767  13.296 -0.5899 -0.0002  0.0328
  170MPD1    C4 2645   0.835   1.648  13.287  0.2678 -0.0553 -0.4677
  170MPD1    C5 2646   0.863   1.599  13.161  0.3251  0.2790  0.9912
  170MPD1     H 2647   0.658   1.918  13.197  0.9421  0.0562  2.8444
  170MPD1    H1 2648   0.856   1.594  13.378  0.1462 -0.7497 -0.8547
  170MPD1    H2 2649   0.840   1.616  12.949  0.4904  0.3284 -0.0879
  170MPD1    H3 2650   0.905   1.499  13.155 -0.5935 -0.0993  0.9354
  170MPD1     N 2651   0.734   1.833  13.420 -0.0794  0.0153  0.2887
  170MPD1    H5 2652   0.684   1.920  13.405 -0.8548 -0.0052  2.7115
  170MPD1    N1 2653   0.687   1.832  12.936 -0.4836 -0.0869 -0.8495
  170MPD1    H6 2654   0.730   1.794  12.852 -1.2489  1.3311 -1.8673
  170MPD1    H7 2655   0.679   1.933  12.939  2.1295  0.0506  1.7797
  171MPD1     C 2656   3.950   3.041  15.479  0.1862  0.1396 -0.3932
  171MPD1    C1 2657   3.890   2.918  15.500  0.1822 -0.7111 -0.6010
  171MPD1    C2 2658   3.958   2.819  15.564 -0.4540 -0.2091 -0.0189
  171MPD1    C3 2659   4.074   2.852  15.637  0.0659 -0.9391 -0.5981
  171MPD1    C4 2660   4.128   2.978  15.628  0.2462  0.0362 -0.2708
  171MPD1    C5 2661   4.067   3.075  15.544 -0.2674  0.3801  0.1016
  171MPD1     H 2662   3.915   2.720  15.549 -1.9497  0.2906  1.0178
  171MPD1    H1 2663   4.218   3.007  15.683  1.2265 -0.8189 -1.4279
  171MPD1    H2 2664   3.910   3.107  15.403  1.9753  2.0130  0.3003
  171MPD1    H3 2665   4.100   3.177  15.530  1.7870 -0.1109  1.3590
  171MPD1     N 2666   4.133   2.752  15.724  0.2887 -0.2555 -0.5538
  171MPD1    H5 2667   4.204   2.790  15.785 -2.1521  1.4263  1.2398
  171MPD1    N1 2668   3.788   2.873  15.408  0.3504  0.1810 -0.0844
  171MPD1    H6 2669   3.733   2.799  15.452  0.6865 -2.2420 -3.7975
  171MPD1    H7 2670   3.732   2.951  15.376 -2.4936 -1.0949  1.7184
  172MPD1     C 2671   2.490   1.702  17.689  0.4341 -0.3769  0.3636
  172MPD1    C1 2672   2.475   1.732   0.058 -0.0324  0.4575 -0.3899
  172MPD1    C2 2673   2.589   1.792   0.124 -0.5405  0.1942 -0.2323
  172MPD1    C3 2674   2.713   1.794   0.064  0.3462 -0.1437  1.2907
  172MPD1    C4 2675   2.726   1.739  17.701 -0.0531  0.8098  0.0127
  172MPD1    C5 2676   2.610   1.701  17.631  0.7304 -0.5618 -0.2386
  172MPD1     H 2677   2.567   1.821   0.226 -2.5920  0.3430 -0.7112
  172MPD1    H1 2678   2.821   1.735  17.649  0.1595 -0.0707  0.4663
  172MPD1    H2 2679   2.405   1.669  17.630 -0.7237 -2.5827  3.2425
  172MPD1    H3 2680   2.608   1.660  17.531  0.9014  0.1303 -0.5256
  172MPD1     N 2681   2.824   1.840   0.138 -0.0197 -0.3399 -0.0090
  172MPD1    H5 2682   2.909   1.856   0.085 -0.8365  1.5191 -0.7639
  172MPD1    N1 2683   2.354   1.726   0.122  0.6472  0.7148  0.0282
  172MPD1    H6 2684   2.295   1.796   0.079  1.3857  0.0940 -1.9941
  172MPD1    H7 2685   2.353   1.757   0.219 -0.7619  2.8955 -0.6840
  173MPD1     C 2686   0.682   2.658  14.096  0.2661  0.2650  0.1518
  173MPD1    C1 2687   0.586   2.596  14.021  0.2781  0.4438 -0.3203
  173MPD1    C2 2688   0.531   2.485  14.076 -0.3633  0.6339 -0.8392
  173MPD1    C3 2689   0.559   2.436  14.201  0.3503  0.2549 -0.1792
  173MPD1    C4 2690   0.649   2.509  14.278  0.7625  0.1221  0.1033
  173MPD1    C5 2691   0.713   2.617  14.223 -0.0262  0.7423  0.3510
  173MPD1     H 2692   0.454   2.441  14.014 -0.6562 -1.4916  1.0651
  173MPD1    H1 2693   0.678   2.469  14.375  0.9681 -0.6687 -0.2865
  173MPD1    H2 2694   0.737   2.740  14.051 -2.8393  1.3903 -1.5966
  173MPD1    H3 2695   0.780   2.671  14.289 -0.9574  2.3967 -0.0603
  173MPD1     N 2696   0.496   2.328  14.253  0.0868 -0.7364  0.5682
  173MPD1    H5 2697   0.515   2.309  14.351 -0.2882  1.3240  1.0486
  173MPD1    N1 2698   0.573   2.631  13.893  0.1422 -0.1781 -0.1127
  173MPD1    H6 2699   0.585   2.730  13.873  1.2861  0.0189  1.5269
  173MPD1    H7 2700   0.484   2.600  13.856  0.1734  0.6081 -0.8640
  174MPD1     C 2701   0.354   1.419  14.750 -0.2605  0.3986 -0.5238
  174MPD1    C1 2702   0.462   1.504  14.714 -0.1233 -0.3598  0.2133
  174MPD1    C2 2703   0.427   1.617  14.648 -0.6352 -0.2328  0.0090
  174MPD1    C3 2704   0.309   1.630  14.577 -0.1729  0.0798 -0.1438
  174MPD1    C4 2705   0.212   1.535  14.599  0.7598 -0.5008  0.3620
  174MPD1    C5 2706   0.234   1.435  14.691 -0.6539  0.2173 -0.3226
  174MPD1     H 2707   0.509   1.684  14.625 -0.8236 -0.5941 -1.7133
  174MPD1    H1 2708   0.114   1.548  14.556  0.3064  0.6755  1.7655
  174MPD1    H2 2709   0.367   1.326  14.805 -2.1078 -0.9166 -2.2987
  174MPD1    H3 2710   0.156   1.361  14.701 -1.1010  0.8743  0.9504
  174MPD1     N 2711   0.272   1.754  14.509  0.9686 -1.1509  0.7225
  174MPD1    H5 2712   0.176   1.764  14.478  2.3354  2.3175 -2.3059
  174MPD1    N1 2713   0.580   1.485  14.787 -0.4036 -0.3170  0.0092
  174MPD1    H6 2714   0.595   1.386  14.803  0.1642 -0.0350  1.2269
  174MPD1    H7 2715   0.657   1.512  14.725  1.5043 -2.2701  1.5296
  175MPD1     C 2716   1.977   2.953  16.156  1.2816 -0.9952  0.4587
  175MPD1    C1 2717   2.055   2.918  16.262  0.4876  0.7572  0.4942
  175MPD1    C2 2718   2.185   2.956  16.273 -0.3801  0.2169  0.4530
  175MPD1    C3 2719   2.254   3.023  16.171 -0.1577 -0.6731 -0.3454
  175MPD1    C4 2720   2.171   3.055  16.066  0.2599 -0.1831 -0.7262
  175MPD1    C5 2721   2.038   3.023  16.057 -0.4165  0.1417  0.0748
  175MPD1     H 2722   2.242   2.936  16.363 -0.2560 -0.7790  0.1565
  175MPD1    H1 2723   2.210   3.102  15.977  0.1321  0.8563 -0.2241
  175MPD1    H2 2724   1.876   2.915  16.148  0.6288  0.4314  2.0563
  175MPD1    H3 2725   1.976   3.053  15.973  1.7804  1.6277 -1.0250
  175MPD1     N 2726   2.381   3.081  16.171  0.4479 -0.3064 -0.3777
  175MPD1    H5 2727   2.396   3.152  16.101  1.3227  1.8391  2.0052
  175MPD1    N1 2728   2.006   2.850  16.373 -0.2388 -0.1289  0.2260
  175MPD1    H6 2729   1.937   2.781  16.344 -0.7767 -0.4602  2.3337
  175MPD1    H7 2730   2.079   2.798  16.422  0.8700  2.1205  0.9483
  176MPD1     C 2731   4.433   0.182   0.273  0.1295 -0.5517  1.1297
  176MPD1    C1 2732   4.482   0.155   0.152 -0.2700 -0.1159 -0.0732
  176MPD1    C2 2733   4.556   0.259   0.098 -0.0370 -0.3470 -0.2910
  176MPD1    C3 2734   4.593   0.369   0.176 -0.3787  0.1112  0.0403
  176MPD1    C4 2735   4.542   0.394   0.302 -0.0004  0.3379  0.1956
  176MPD1    C5 2736   4.464   0.292   0.353  0.3598  0.5274 -0.0054
  176MPD1     H 2737   4.594   0.238  17.760 -0.0354 -0.7420 -0.2065
  176MPD1    H1 2738   4.557   0.489   0.353  0.5345 -0.9439  2.4286
  176MPD1    H2 2739   4.367   0.105   0.311 -2.1750  0.1402 -1.4937
  176MPD1    H3 2740   4.415   0.289   0.449 -0.8786  2.0506 -0.5958
  176MPD1     N 2741   4.674   0.462   0.108 -0.7584 -0.1315  0.3011
  176MPD1    H5 2742   4.691   0.444   0.010  1.1138 -0.5856  0.7088
  176MPD1    N1 2743   4.436   0.055   0.069 -0.4333  0.0632 -0.3579
  176MPD1    H6 2744   4.503   0.018   0.002 -0.6879 -0.1417 -0.4966
  176MPD1    H7 2745   4.396   4.716   0.117 -1.8050  2.2336  2.1292
  177MPD1     C 2746   3.422   3.521   9.207 -0.6823 -0.3087 -0.1933
  177MPD1    C1 2747   3.367   3.520   9.331 -0.3493  0.5189 -0.8707
  177MPD1    C2 2748   3.243   3.576   9.352  0.1956  0.4775  0.0686
  177MPD1    C3 2749   3.172   3.638   9.248 -0.1530 -0.6318 -0.3592
  177MPD1    C4 2750   3.216   3.631   9.118 -0.2961 -0.0593  0.2447
  177MPD1    C5 2751   3.345   3.581   9.105  0.1624 -0.3616 -0.0604
  177MPD1     H 2752   3.202   3.579   9.452  0.9506  0.7241  0.3643
  177MPD1    H1 2753   3.157   3.668   9.034  0.7568  0.5478 -0.2264
  177MPD1    H2 2754   3.520   3.482   9.181 -0.4517  0.4713 -0.4749
  177MPD1    H3 2755   3.392   3.576   9.008  1.9053 -1.8486  0.8591
  177MPD1     N 2756   3.057   3.700   9.290  0.2281 -0.2212 -0.0253
  177MPD1    H5 2757   3.024   3.691   9.385  2.4476 -2.7988  0.5273
  177MPD1    N1 2758   3.431   3.457   9.431  0.4428 -0.7933  0.2320
  177MPD1    H6 2759   3.489   3.375   9.411  0.5993 -0.8006  0.7115
  177MPD1    H7 2760   3.383   3.466   9.520  0.0392 -0.2981 -0.0406
  178MPD1     C 2761   0.281   0.644   0.431  0.4031 -0.4507 -0.0153
  178MPD1    C1 2762   0.381   0.739   0.406 -0.0349  0.1334 -1.0681
  178MPD1    C2 2763   0.506   0.698   0.362  0.2526 -0.0441 -0.1978
  178MPD1    C3 2764   0.531   0.564   0.347  0.8891  0.0681  0.5549
  178MPD1    C4 2765   0.431   0.470   0.358 -0.3153 -0.6540  0.6214
  178MPD1    C5 2766   0.304   0.512   0.394  0.1789 -0.0130 -0.1851
  178MPD1     H 2767   0.583   0.774   0.358 -0.3696  0.6299  0.5157
  178MPD1    H1 2768   0.457   0.366   0.342  1.4109  0.0167 -0.9132
  178MPD1    H2 2769   0.184   0.673   0.470 -0.1520 -1.3681 -0.7317
  178MPD1    H3 2770   0.223   0.440   0.383  0.2591 -0.5059  2.6822
  178MPD1     N 2771   0.662   0.510   0.330  0.9017  0.2256  0.3971
  178MPD1    H5 2772   0.670   0.409   0.335 -0.9440  0.1160  1.1197
  178MPD1    N1 2773   0.353   0.867   0.453  0.3521  0.3419  0.1987
  178MPD1    H6 2774   0.413   0.946   0.430  1.1148 -1.1391 -2.9264
  178MPD1    H7 2775   0.257   0.896   0.439  0.3691  0.7091  0.8311
  179MPD1     C 2776   0.888   4.053  15.724  0.4727  0.3202  0.7060
  179MPD1    C1 2777   0.925   3.941  15.794 -0.8257 -0.8933 -0.8076
  179MPD1    C2 2778   0.834   3.876  15.873 -0.1908 -0.2742 -0.5810
  179MPD1    C3 2779   0.698   3.906  15.855 -0.1467  0.5129  0.5692
  179MPD1    C4 2780   0.668   4.015  15.775  0.1556 -0.3553  0.0070
  179MPD1    C5 2781   0.760   4.088  15.713  0.5755 -0.2256  0.4611
  179MPD1     H 2782   0.867   3.782  15.917 -1.5029 -0.7504 -0.5798
  179MPD1    H1 2783   0.563   4.036  15.759  0.4217  0.2932 -0.9145
  179MPD1    H2 2784   0.950   4.128  15.677  0.5714 -0.5502 -0.5580
  179MPD1    H3 2785   0.724   4.159  15.640 -1.7526  0.2037  2.0305
  179MPD1     N 2786   0.593   3.832  15.911  0.4149  0.3666 -0.2890
  179MPD1    H5 2787   0.497   3.846  15.883  0.3373  1.8515  0.6705
  179MPD1    N1 2788   1.063   3.913  15.813 -0.4203  0.0647  0.2294
  179MPD1    H6 2789   1.113   3.931  15.726 -0.4047 -0.4090  0.1401
  179MPD1    H7 2790   1.076   3.813  15.828 -1.6703  0.1522  1.8051
  180MPD1     C 2791   0.444   0.039  15.807  0.3787  0.1823 -0.4447
  180MPD1    C1 2792   0.540   0.090  15.723 -0.0427  0.1728  0.6183
  180MPD1    C2 2793   0.495   0.106  15.590 -0.1227 -0.1181 -0.7875
  180MPD1    C3 2794   0.372   0.064  15.544 -0.1593  0.3872  0.6085
  180MPD1    C4 2795   0.290   4.734  15.629  0.2414  0.0626  0.0435
  180MPD1    C5 2796   0.332   4.719  15.757 -0.5279 -0.0364 -0.0091
  180MPD1     H 2797   0.556   0.161  15.520  1.6444 -0.1461  0.7379
  180MPD1    H1 2798   0.196   4.691  15.596 -0.1350  0.4342  0.6239
  180MPD1    H2 2799   0.455   0.031  15.915 -0.7469 -1.1345 -0.4398
  180MPD1    H3 2800   0.269   4.664  15.827 -1.4313  1.2493  0.1925
  180MPD1     N 2801   0.340   0.099  15.407 -0.0463  0.0598 -0.2173
  180MPD1    H5 2802   0.416   0.157  15.372 -1.5969  2.8863  1.0926
  180MPD1    N1 2803   0.657   0.153  15.768 -0.1310  0.1696 -0.9453
  180MPD1    H6 2804   0.720   0.167  15.689 -0.8852  2.1154 -1.2033
  180MPD1    H7 2805   0.694   0.115  15.855 -1.3303  1.3131  0.0785
  181MPD1     C 2806   1.508   2.429   9.795 -0.6993 -0.7383 -0.1800
  181MPD1    C1 2807   1.569   2.361   9.691  0.5685 -0.0991 -0.7353
  181MPD1    C2 2808   1.655   2.249   9.725  0.5186 -0.4341 -0.2583
  181MPD1    C3 2809   1.680   2.213   9.859  0.2946 -0.2162 -0.8053
  181MPD1    C4 2810   1.609   2.283   9.960  0.3577 -0.0588 -0.1225
  181MPD1    C5 2811   1.525   2.389   9.925 -1.0580  0.8524  0.1296
  181MPD1     H 2812   1.708   2.193   9.649 -2.1941 -2.4888 -0.6472
  181MPD1    H1 2813   1.608   2.248  10.063  0.3046  2.2643  0.6766
  181MPD1    H2 2814   1.451   2.520   9.783  0.2843 -0.1350 -0.3027
  181MPD1    H3 2815   1.465   2.439  10.000  1.1682  2.7257  0.6633
  181MPD1     N 2816   1.767   2.111   9.905 -0.5305 -0.3572  0.0028
  181MPD1    H5 2817   1.766   2.099  10.005 -1.9882 -0.6042 -0.0535
  181MPD1    N1 2818   1.545   2.391   9.555  0.5436  0.2712  0.1211
  181MPD1    H6 2819   1.511   2.310   9.504 -0.1347  1.1518 -0.8125
  181MPD1    H7 2820   1.493   2.477   9.540  0.3787  0.1946  0.2575
  182MPD1     C 2821   1.786   1.893   0.779 -0.4732 -0.1517  0.2304
  182MPD1    C1 2822   1.834   1.851   0.903  0.7968  0.4080  0.3581
  182MPD1    C2 2823   1.958   1.900   0.947  0.9607  0.2263 -0.3329
  182MPD1    C3 2824   2.022   2.006   0.886  0.9339 -1.0394  0.2466
  182MPD1    C4 2825   1.959   2.062   0.774 -0.1305 -0.1108 -0.5850
  182MPD1    C5 2826   1.849   2.001   0.716 -0.2229  0.3983  0.0091
  182MPD1     H 2827   2.005   1.853   1.033 -3.5480  0.3010  2.1503
  182MPD1    H1 2828   1.998   2.145   0.716 -0.6011  1.4629  1.3719
  182MPD1    H2 2829   1.699   1.839   0.742 -1.4405  0.8911  0.9811
  182MPD1    H3 2830   1.829   2.041   0.618 -2.6297 -0.2136  0.2452
  182MPD1     N 2831   2.145   2.064   0.929 -0.1169  0.1377 -0.6229
  182MPD1    H5 2832   2.191   2.135   0.873 -0.6256 -0.3517 -1.6419
  182MPD1    N1 2833   1.771   1.739   0.957 -0.5650 -0.4383  0.0803
  182MPD1    H6 2834   1.670   1.746   0.948 -0.5782 -0.7313  0.0118
  182MPD1    H7 2835   1.797   1.716   1.053  1.2330 -1.2529 -0.5944
  183MPD1     C 2836   2.356   0.753   8.617  0.7721 -0.7312 -0.2220
  183MPD1    C1 2837   2.430   0.737   8.731  0.7495 -0.4761 -0.5145
  183MPD1    C2 2838   2.401   0.830   8.839 -0.6641 -0.5389 -0.0723
  183MPD1    C3 2839   2.294   0.921   8.836  0.0027  0.0060 -0.1535
  183MPD1    C4 2840   2.226   0.929   8.721  0.6818  0.2753  1.0154
  183MPD1    C5 2841   2.257   0.845   8.614  0.1579 -0.3208  0.1282
  183MPD1     H 2842   2.463   0.824   8.928  0.2339 -0.7223 -0.7150
  183MPD1    H1 2843   2.142   0.995   8.703 -0.1815 -0.9806  0.4830
  183MPD1    H2 2844   2.373   0.702   8.524 -0.6937 -0.1084 -0.8361
  183MPD1    H3 2845   2.209   0.860   8.519 -2.7579 -0.0233  1.6674
  183MPD1     N 2846   2.274   1.013   8.945  0.1093  0.3174  0.0665
  183MPD1    H5 2847   2.334   0.999   9.025 -0.4165 -0.2861  0.3550
  183MPD1    N1 2848   2.550   0.661   8.729  0.1109 -0.1254  0.4248
  183MPD1    H6 2849   2.541   0.576   8.673  0.2495 -0.3737  0.7777
  183MPD1    H7 2850   2.584   0.628   8.819 -0.9475  0.0578  0.8900
  184MPD1     C 2851   2.294   3.779  10.658 -0.0546 -0.4060  0.6150
  184MPD1    C1 2852   2.190   3.764  10.568 -0.0505 -0.3666  0.3763
  184MPD1    C2 2853   2.206   3.804  10.442  0.4453 -0.6474  0.8861
  184MPD1    C3 2854   2.319   3.882  10.412  0.3646 -0.2517 -0.5364
  184MPD1    C4 2855   2.422   3.905  10.506  0.2634 -0.5743  0.4622
  184MPD1    C5 2856   2.409   3.855  10.629  0.2049 -0.2391 -0.2460
  184MPD1     H 2857   2.139   3.771  10.364  0.6483  1.0260 -0.0161
  184MPD1    H1 2858   2.512   3.962  10.490 -0.2467  0.2800  0.5984
  184MPD1    H2 2859   2.292   3.739  10.758  1.1620 -0.5787  0.5681
  184MPD1    H3 2860   2.487   3.864  10.703 -0.9938  0.5349  0.9275
  184MPD1     N 2861   2.348   3.921  10.279 -0.4262  0.2641 -0.5370
  184MPD1    H5 2862   2.443   3.951  10.260 -0.4899  0.8091  0.0440
  184MPD1    N1 2863   2.087   3.681  10.606 -0.0582 -0.1101  0.4172
  184MPD1    H6 2864   2.006   3.701  10.547 -0.2066 -0.4839  0.4923
  184MPD1    H7 2865   2.070   3.680  10.706 -0.7605  2.6559  0.3129
  185MPD1     C 2866   1.930   3.868   9.354 -0.5944  0.3953  0.1702
  185MPD1    C1 2867   2.019   3.979   9.343 -0.0127  0.0913  0.2840
  185MPD1    C2 2868   2.104   4.010   9.454  0.6557 -0.3396  0.4235
  185MPD1    C3 2869   2.092   3.917   9.561  0.1965  0.3898  0.5836
  185MPD1    C4 2870   2.018   3.803   9.559 -0.0701  0.0560 -0.1248
  185MPD1    C5 2871   1.937   3.783   9.454  0.2433  0.1046  0.4395
  185MPD1     H 2872   2.172   4.094   9.455  0.3295 -0.0488 -1.5485
  185MPD1    H1 2873   2.012   3.733   9.642 -1.5668  1.1346  0.6723
  185MPD1    H2 2874   1.847   3.851   9.285  1.9150 -2.1496 -2.1885
  185MPD1    H3 2875   1.860   3.706   9.459 -0.1780  0.5349  0.5559
  185MPD1     N 2876   2.176   3.936   9.673 -0.1313  0.0741 -0.3518
  185MPD1    H5 2877   2.155   3.873   9.749 -0.4905 -1.7160 -1.9271
  185MPD1    N1 2878   1.997   4.064   9.234  0.3318  0.4916 -0.1710
  185MPD1    H6 2879   2.083   4.106   9.199 -0.6826  0.9864 -2.0695
  185MPD1    H7 2880   1.967   4.017   9.149 -1.2029 -0.2092  0.7665
  186MPD1     C 2881   1.386   3.412  16.101 -0.3735 -0.4997  0.1684
  186MPD1    C1 2882   1.289   3.408  16.196  0.1257 -0.3227  0.2172
  186MPD1    C2 2883   1.215   3.522  16.223 -0.4132  0.3019  0.4291
  186MPD1    C3 2884   1.253   3.646  16.177 -0.5280 -0.1793 -0.6189
  186MPD1    C4 2885   1.366   3.647  16.089  0.3991  0.4232 -0.0321
  186MPD1    C5 2886   1.429   3.537  16.057  0.1723  0.1181  0.5870
  186MPD1     H 2887   1.128   3.511  16.288  0.7188  1.0654  2.0889
  186MPD1    H1 2888   1.397   3.743  16.049 -1.9029  0.7762 -1.0079
  186MPD1    H2 2889   1.436   3.322  16.067  1.5475  1.5135 -2.3327
  186MPD1    H3 2890   1.517   3.547  15.994 -0.5884  1.2335 -0.2934
  186MPD1     N 2891   1.182   3.764  16.205 -0.1553 -0.2984  0.2934
  186MPD1    H5 2892   1.204   3.851  16.158 -0.5196  0.1658  0.9847
  186MPD1    N1 2893   1.245   3.280  16.244 -0.6867 -0.4333  0.1455
  186MPD1    H6 2894   1.221   3.286  16.343 -0.7458  0.7509  0.0606
  186MPD1    H7 2895   1.321   3.213  16.235 -1.8787 -1.4746 -2.2317
  187MPD1     C 2896   0.751   1.054  17.611  0.4003  0.3047  0.2093
  187MPD1    C1 2897   0.627   1.047  17.665 -0.9398 -0.0154  0.0989
  187MPD1    C2 2898   0.525   1.107  17.587  0.5081  0.4537  0.3727
  187MPD1    C3 2899   0.543   1.167  17.459 -0.1211 -0.1043 -0.0105
  187MPD1    C4 2900   0.676   1.166  17.416  0.2652 -0.3191  0.0645
  187MPD1    C5 2901   0.777   1.108  17.487 -0.4889  0.2852 -0.5345
  187MPD1     H 2902   0.427   1.099  17.631  0.9262  0.2139  1.2538
  187MPD1    H1 2903   0.709   1.215  17.325 -2.4074 -0.7226 -1.1031
  187MPD1    H2 2904   0.836   1.013  17.664 -1.6284 -0.9114  2.5237
  187MPD1    H3 2905   0.875   1.105  17.441 -0.5073 -1.1680 -0.4618
  187MPD1     N 2906   0.436   1.203  17.373 -0.3560  0.5358 -0.1757
  187MPD1    H5 2907   0.469   1.218  17.278 -0.2273 -2.0996 -0.5214
  187MPD1    N1 2908   0.599   0.980   0.021  0.7077 -0.0978 -0.2985
  187MPD1    H6 2909   0.510   1.011   0.059  0.2939 -2.2645  0.5002
  187MPD1    H7 2910   0.668   0.989   0.095  1.0110  1.2254 -0.7388
  188MPD1     C 2911   4.706   1.131  10.363  0.1227  0.4009  0.2992
  188MPD1    C1 2912   0.020   1.062  10.467 -0.0158 -0.7802 -0.3915
  188MPD1    C2 2913   4.708   0.937  10.493  0.5618  0.4201  0.1492
  188MPD1    C3 2914   4.599   0.886  10.423 -0.4032  0.5511 -0.2077
  188MPD1    C4 2915   4.557   0.945  10.313  0.5133  0.4402 -0.3049
  188MPD1    C5 2916   4.609   1.071  10.288  0.4449 -0.7804 -0.9083
  188MPD1     H 2917   0.011   0.883  10.575  0.6410 -0.7165 -0.6459
  188MPD1    H1 2918   4.477   0.906  10.251 -0.0294 -0.2736  0.8536
  188MPD1    H2 2919   0.016   1.220  10.328 -2.7151  0.7403 -2.9401
  188MPD1    H3 2920   4.579   1.123  10.199 -1.2372  0.3501  0.3224
  188MPD1     N 2921   4.524   0.775  10.445 -0.1377  0.2726  0.6993
  188MPD1    H5 2922   4.453   0.747  10.378 -1.7898 -1.9809  3.3775
  188MPD1    N1 2923   0.118   1.124  10.552 -0.0573  0.8337  0.5875
  188MPD1    H6 2924   0.154   1.201  10.497 -2.1399  1.1420 -0.3232
  188MPD1    H7 2925   0.196   1.067  10.585 -0.1280 -0.6781 -1.8490
  189MPD1     C 2926   1.468   2.048   0.815 -0.2800  0.9693 -0.1405
  189MPD1    C1 2927   1.373   1.982   0.890  0.2953  0.0515 -0.4741
  189MPD1    C2 2928   1.263   1.926   0.834 -0.2221  0.0389  0.5016
  189MPD1    C3 2929   1.233   1.948   0.702 -0.0932 -0.3040 -0.7641
  189MPD1    C4 2930   1.323   2.016   0.622  0.3163 -1.0332  0.0547
  189MPD1    C5 2931   1.439   2.067   0.685  0.4305  0.5250  0.0653
  189MPD1     H 2932   1.195   1.859   0.885  0.5673  0.0117  1.5246
  189MPD1    H1 2933   1.312   2.037   0.517  0.5386  1.1392  0.4625
  189MPD1    H2 2934   1.563   2.078   0.857  0.1069 -2.7091  1.6267
  189MPD1    H3 2935   1.503   2.131   0.626  0.0522  1.2763  0.4836
  189MPD1     N 2936   1.110   1.901   0.647 -0.1563 -0.1897  0.0673
  189MPD1    H5 2937   1.062   1.822   0.689  0.9888 -0.1838  1.4058
  189MPD1    N1 2938   1.418   1.959   1.025 -0.5390 -0.4563 -0.9146
  189MPD1    H6 2939   1.338   1.946   1.086  0.4859  0.8009  0.7007
  189MPD1    H7 2940   1.474   2.036   1.062 -0.8925 -0.1203 -1.0858
  190MPD1     C 2941   1.057   1.249  15.783  0.5781 -0.5132 -0.2812
  190MPD1    C1 2942   0.928   1.217  15.804  0.2983  0.1924 -0.5846
  190MPD1    C2 2943   0.887   1.087  15.806 -0.0046 -0.4931  0.1078
  190MPD1    C3 2944   0.981   0.987  15.779  0.4856  0.1413 -0.0822
  190MPD1    C4 2945   1.116   1.017  15.758 -0.5469  0.0534  0.0366
  190MPD1    C5 2946   1.153   1.147  15.775 -0.0447 -0.0473 -0.1143
  190MPD1     H 2947   0.783   1.060  15.821 -0.2577 -0.5384 -1.7500
  190MPD1    H1 2948   1.192   0.941  15.741 -1.3213 -0.5090 -0.8669
  190MPD1    H2 2949   1.091   1.352  15.780  3.1167 -1.3263  0.3211
  190MPD1    H3 2950   1.260   1.162  15.767  0.3656 -2.3703  1.2896
  190MPD1     N 2951   0.928   0.852  15.779 -0.3721  0.3038 -0.1545
  190MPD1    H5 2952   0.837   0.846  15.823 -0.2295  1.8490  0.3546
  190MPD1    N1 2953   0.839   1.315  15.839 -0.5689  0.2009  0.1657
  190MPD1    H6 2954   0.857   1.405  15.794 -2.0981 -0.1385 -1.1081
  190MPD1    H7 2955   0.740   1.293  15.837 -0.8832  1.3715  2.4779
  191MPD1     C 2956   3.952   2.613  13.611 -0.1253  0.3281  0.6326
  191MPD1    C1 2957   3.895   2.734  13.567  0.1046 -0.1574  0.1188
  191MPD1    C2 2958   3.945   2.786  13.446  0.1474  0.0677 -0.0977
  191MPD1    C3 2959   4.057   2.743  13.380 -0.2873 -0.0766  0.2207
  191MPD1    C4 2960   4.126   2.636  13.441  1.1567  0.2670 -0.2492
  191MPD1    C5 2961   4.074   2.579  13.550  0.5299  0.0089 -0.3618
  191MPD1     H 2962   3.892   2.869  13.400  2.3736 -0.2562 -3.3509
  191MPD1    H1 2963   4.223   2.602  13.405  0.5623 -1.5321 -0.1298
  191MPD1    H2 2964   3.917   2.554  13.695 -1.2843  3.4130  2.3072
  191MPD1    H3 2965   4.135   2.499  13.592  1.3987  0.6165 -0.4748
  191MPD1     N 2966   4.100   2.808  13.259 -0.1696  0.1536 -0.0962
  191MPD1    H5 2967   4.041   2.883  13.225  1.3730  0.0150 -3.0610
  191MPD1    N1 2968   3.768   2.766  13.612  0.0247  0.5001 -0.0550
  191MPD1    H6 2969   3.737   2.732  13.703  0.6671  0.0378 -0.0105
  191MPD1    H7 2970   3.742   2.864  13.600  0.5142  0.8911  2.0480
  192MPD1     C 2971   3.603   3.318  12.842  0.8654 -0.0209  0.0689
  192MPD1    C1 2972   3.681   3.272  12.737  0.3295 -0.3092 -0.3693
  192MPD1    C2 2973   3.775   3.176  12.760 -0.2105  0.0944 -0.1089
  192MPD1    C3 2974   3.765   3.090  12.866  0.2210 -0.2812 -0.6734
  192MPD1    C4 2975   3.678   3.127  12.966  0.0310  0.1600  0.3907
  192MPD1    C5 2976   3.606   3.239  12.953 -0.0322 -0.0429  0.3317
  192MPD1     H 2977   3.857   3.166  12.690 -0.3393  0.0082 -0.2459
  192MPD1    H1 2978   3.677   3.065  13.055 -0.1387  1.5403  1.3473
  192MPD1    H2 2979   3.543   3.408  12.835  0.3639 -0.4345 -0.8738
  192MPD1    H3 2980   3.545   3.276  13.035  0.2041  1.8161 -0.3407
  192MPD1     N 2981   3.862   2.991  12.891  0.6260  0.2579 -0.5042
  192MPD1    H5 2982   3.867   2.957  12.986  1.6171 -0.9199 -0.9681
  192MPD1    N1 2983   3.684   3.342  12.615  0.1656  0.1810 -0.0010
  192MPD1    H6 2984   3.708   3.280  12.539 -0.6690  2.8627 -2.4304
  192MPD1    H7 2985   3.592   3.380  12.593  0.7876  1.4924 -0.3562
  193MPD1     C 2986   4.100   3.490  16.662  0.7787 -0.0808 -1.0772
  193MPD1    C1 2987   4.154   3.402  16.570 -0.3484  0.1856 -0.0679
  193MPD1    C2 2988   4.242   3.304  16.615  0.2624  0.1931  0.2738
  193MPD1    C3 2989   4.286   3.305  16.748  0.4549  0.2273 -0.5238
  193MPD1    C4 2990   4.232   3.395  16.837 -0.0851  0.5213  0.5028
  193MPD1    C5 2991   4.132   3.482  16.793 -0.1006  0.0031  0.5211
  193MPD1     H 2992   4.295   3.253  16.536 -0.5250  0.7992 -0.6441
  193MPD1    H1 2993   4.257   3.409  16.942 -2.3912 -0.2146  1.1558
  193MPD1    H2 2994   4.032   3.570  16.635  0.1291 -0.2043  0.2245
  193MPD1    H3 2995   4.095   3.552  16.867  1.3225  1.2195  0.0933
  193MPD1     N 2996   4.360   3.198  16.809 -0.0847  0.6080 -0.1991
  193MPD1    H5 2997   4.356   3.190  16.910 -1.5731  0.9274 -0.2245
  193MPD1    N1 2998   4.134   3.426  16.439 -0.0596  0.2607  0.4291
  193MPD1    H6 2999   4.041   3.469  16.438  0.3335  1.1010 -0.2489
  193MPD1    H7 3000   4.161   3.355  16.371  2.1615 -1.0078  2.6335
  194MPD1     C 3001   1.819   0.548  17.430 -0.3961 -0.1983 -0.5379
  194MPD1    C1 3002   1.761   0.481  17.537  0.2974  0.3515  0.5091
  194MPD1    C2 3003   1.831   0.368  17.584 -0.2797 -0.1940  0.0774
  194MPD1    C3 3004   1.949   0.325  17.517  0.4082  0.3345 -0.3724
  194MPD1    C4 3005   2.000   0.404  17.419 -0.1736  0.2986  0.2447
  194MPD1    C5 3006   1.943   0.520  17.378 -0.5708  0.6342  0.2183
  194MPD1     H 3007   1.807   0.322  17.680  0.8900  1.0407  0.9664
  194MPD1    H1 3008   2.097   0.377  17.379 -1.6862 -0.5261 -2.9288
  194MPD1    H2 3009   1.762   0.627  17.383  2.5772  2.1657 -0.2201
  194MPD1    H3 3010   1.978   0.573  17.290  0.5761 -0.8931 -0.2556
  194MPD1     N 3011   2.023   0.213  17.566 -0.6368  0.5720 -0.9829
  194MPD1    H5 3012   2.109   0.189  17.517 -0.4575  0.7836 -0.7653
  194MPD1    N1 3013   1.657   0.539  17.610  0.6295 -0.1021 -0.4884
  194MPD1    H6 3014   1.594   0.592  17.551 -0.1175  0.6785  1.0200
  194MPD1    H7 3015   1.608   0.464  17.659  2.7104 -1.1703 -0.0284
  195MPD1     C 3016   4.113   2.054   0.876 -0.3873 -0.0194  0.2359
  195MPD1    C1 3017   4.017   1.960   0.867  0.3377  0.2674  0.6181
  195MPD1    C2 3018   4.067   1.834   0.833 -0.0634  0.7528  0.1969
  195MPD1    C3 3019   4.201   1.806   0.798  0.4067  0.1980 -0.5172
  195MPD1    C4 3020   4.289   1.910   0.796 -0.4232  0.1995  0.2268
  195MPD1    C5 3021   4.239   2.033   0.833 -0.0712 -0.6849 -0.5542
  195MPD1     H 3022   3.996   1.752   0.845  0.6767 -0.1609 -1.8073
  195MPD1    H1 3023   4.394   1.911   0.767 -0.4166  0.9045  0.2540
  195MPD1    H2 3024   4.092   2.151   0.920  1.4167  1.0707 -1.2973
  195MPD1    H3 3025   4.302   2.120   0.844  0.8118 -1.2923 -0.7510
  195MPD1     N 3026   4.259   1.675   0.772  0.1134 -0.0741  0.3017
  195MPD1    H5 3027   4.359   1.675   0.750 -0.3028  2.4499 -1.5865
  195MPD1    N1 3028   3.883   1.969   0.917  0.8335 -0.4777 -0.1064
  195MPD1    H6 3029   3.842   2.059   0.892  1.3289 -0.0047  0.8115
  195MPD1    H7 3030   3.816   1.899   0.884  2.0527 -0.6581 -2.2273
  196MPD1     C 3031   2.988   1.135  17.609  0.2472  0.1329  0.4627
  196MPD1    C1 3032   3.096   1.172  17.690  0.1431 -0.4241 -0.2667
  196MPD1    C2 3033   3.089   1.139   0.061 -0.5972  0.1292 -0.7326
  196MPD1    C3 3034   2.979   1.090   0.117  0.1520 -0.4638 -0.0059
  196MPD1    C4 3035   2.861   1.077   0.043 -0.4533  0.2441 -0.4370
  196MPD1    C5 3036   2.869   1.098  17.664  0.7945  0.2878 -0.0625
  196MPD1     H 3037   3.183   1.155   0.114 -0.4651  1.7220 -1.4476
  196MPD1    H1 3038   2.763   1.060   0.085 -0.0611  0.2874  0.5032
  196MPD1    H2 3039   3.004   1.143  17.502  0.6638 -1.1636  0.4178
  196MPD1    H3 3040   2.783   1.094  17.599  1.7884  5.8017 -1.6988
  196MPD1     N 3041   2.963   1.045   0.255  0.1933  0.6401 -0.4154
  196MPD1    H5 3042   2.867   1.025   0.281  0.8395  0.6257  1.9641
  196MPD1    N1 3043   3.216   1.203  17.633 -0.9118  0.6254 -0.7344
  196MPD1    H6 3044   3.188   1.264  17.556 -0.5617  1.8303  0.0949
  196MPD1    H7 3045   3.286   1.257  17.684  0.7228 -0.3245 -1.9796
  197MPD1     C 3046   2.766   2.565  17.619  0.1767 -0.1624 -0.1320
  197MPD1    C1 3047   2.900   2.581  17.651  0.0925  0.2406 -0.0774
  197MPD1    C2 3048   2.975   2.654  17.563  0.2292  0.0874  0.6658
  197MPD1    C3 3049   2.929   2.687  17.430  0.1083  0.3958  0.3931
  197MPD1    C4 3050   2.795   2.661  17.406 -0.3696 -0.1469 -0.8650
  197MPD1    C5 3051   2.717   2.604  17.502 -0.7338  0.6509  0.1238
  197MPD1     H 3052   3.077   2.671  17.596  1.0570 -2.8611 -0.3665
  197MPD1    H1 3053   2.751   2.690  17.311 -2.6803  0.8196  0.5025
  197MPD1    H2 3054   2.700   2.513  17.687  0.3750  0.2264  0.3543
  197MPD1    H3 3055   2.612   2.581  17.488 -0.0170 -1.6425 -1.5174
  197MPD1     N 3056   3.010   2.738  17.327 -0.0724  0.2040 -0.1220
  197MPD1    H5 3057   2.968   2.749  17.235  1.9385 -0.2508 -1.0975
  197MPD1    N1 3058   2.943   2.558   0.021  0.2502 -0.0353 -0.1928
  197MPD1    H6 3059   2.894   2.476   0.056  2.8890 -0.8518  1.6196
  197MPD1    H7 3060   3.043   2.548   0.037  0.7268 -0.6543 -3.6178
  198MPD1     C 3061   4.690   1.476  15.195 -0.1977 -0.1227 -0.3643
  198MPD1    C1 3062   4.736   1.605  15.172  0.4462  0.0229 -0.0931
  198MPD1    C2 3063   0.029   1.680  15.282 -0.4056  0.2883 -0.8793
  198MPD1    C3 3064   0.025   1.619  15.405  0.0825 -0.2441  0.0894
  198MPD1    C4 3065   4.727   1.485  15.425 -0.2077 -0.0126 -0.2820
  198MPD1    C5 3066   4.683   1.417  15.316 -0.5395  0.5213 -0.0805
  198MPD1     H 3067   0.042   1.788  15.279  1.5111  0.0535 -1.0324
  198MPD1    H1 3068   4.727   1.428  15.518  1.5879  1.7729  0.7960
  198MPD1    H2 3069   4.653   1.413  15.115 -0.4904  0.2535 -0.5220
  198MPD1    H3 3070   4.648   1.315  15.325  2.2165 -0.3861  0.1600
  198MPD1     N 3071   0.062   1.697  15.515  0.3561  0.1779 -0.3007
  198MPD1    H5 3072   0.109   1.784  15.491 -0.1314  1.2800  2.8452
  198MPD1    N1 3073   4.719   1.659  15.045  0.4133 -0.1018 -0.2381
  198MPD1    H6 3074   4.710   1.585  14.976  0.0884 -1.0854  0.8620
  198MPD1    H7 3075   0.036   1.739  15.020  1.1922 -0.5187  0.2400
  199MPD1     C 3076   2.139   2.235   9.923 -0.0224 -0.9611 -0.4267
  199MPD1    C1 3077   2.163   2.261  10.056 -0.2962 -0.0755  0.0900
  199MPD1    C2 3078   2.062   2.345  10.107  0.1430 -0.6350 -0.2781
  199MPD1    C3 3079   1.968   2.420  10.030  0.0037  0.1745  0.5568
  199MPD1    C4 3080   1.969   2.409   9.893 -0.3804 -0.0612 -1.0018
  199MPD1    C5 3081   2.051   2.303   9.850 -0.3355 -0.0730 -0.2145
  199MPD1     H 3082   2.064   2.356  10.215 -0.1250 -1.6013 -0.1687
  199MPD1    H1 3083   1.903   2.463   9.827 -2.7994 -0.0071  1.4465
  199MPD1    H2 3084   2.193   2.159   9.867 -1.6573 -0.0357 -3.2733
  199MPD1    H3 3085   2.051   2.279   9.744  0.2856 -0.2602 -0.1715
  199MPD1     N 3086   1.887   2.524  10.080  0.2362  0.4319  0.0957
  199MPD1    H5 3087   1.828   2.570  10.012 -0.9972 -1.6425 -0.2323
  199MPD1    N1 3088   2.252   2.183  10.137 -0.3202  0.5414  0.0489
  199MPD1    H6 3089   2.288   2.232  10.218 -0.7031 -1.1830  1.2454
  199MPD1    H7 3090   2.334   2.151  10.084 -0.4175 -2.2318  1.5976
  200MPD1     C 3091   1.311   2.826  15.704  0.8004  0.5382  0.0935
  200MPD1    C1 3092   1.295   2.714  15.631 -0.0123 -0.3674 -0.3631
  200MPD1    C2 3093   1.377   2.702  15.524  0.2835  0.1073 -0.1143
  200MPD1    C3 3094   1.477   2.787  15.486  0.6505  0.1617 -0.5349
  200MPD1    C4 3095   1.491   2.901  15.558  0.5184 -0.5441  0.5325
  200MPD1    C5 3096   1.412   2.917  15.672  0.3451 -0.1292 -0.0085
  200MPD1     H 3097   1.349   2.617  15.462 -1.4041  0.0249  0.7803
  200MPD1    H1 3098   1.565   2.976  15.536 -0.4032  0.4120  0.6941
  200MPD1    H2 3099   1.239   2.841  15.784 -0.1830 -1.1861 -0.4732
  200MPD1    H3 3100   1.437   3.001  15.736 -1.0052  0.5472 -0.3513
  200MPD1     N 3101   1.563   2.743  15.373  0.1869  0.5056  0.2624
  200MPD1    H5 3102   1.549   2.648  15.340  0.3911 -0.4395  2.8480
  200MPD1    N1 3103   1.190   2.631  15.658  0.6187 -0.2841  0.1792
  200MPD1    H6 3104   1.156   2.629  15.755 -1.7446  0.1584 -0.6328
  200MPD1    H7 3105   1.188   2.541  15.611 -0.5304 -0.4549  0.5430
  201MPD1     C 3106   3.366   1.826  14.015 -0.2090  0.7786 -0.0630
  201MPD1    C1 3107   3.501   1.869  13.993  0.5623 -1.0289 -0.6089
  201MPD1    C2 3108   3.600   1.777  13.961  0.2006  0.1579  0.7404
  201MPD1    C3 3109   3.552   1.649  13.920  0.3358  0.0479 -0.1937
  201MPD1    C4 3110   3.422   1.611  13.933 -0.8411 -0.8712 -0.1918
  201MPD1    C5 3111   3.330   1.694  13.988 -0.3455 -0.1987 -0.5330
  201MPD1     H 3112   3.705   1.800  13.968  0.2568 -0.3006  1.3341
  201MPD1    H1 3113   3.390   1.508  13.920  0.8932 -1.3079 -0.9776
  201MPD1    H2 3114   3.287   1.889  14.052 -0.8430  0.2643 -0.5435
  201MPD1    H3 3115   3.225   1.664  13.990  0.1675 -1.8679  1.7831
  201MPD1     N 3116   3.647   1.556  13.874 -0.1111 -0.2575 -0.3866
  201MPD1    H5 3117   3.744   1.581  13.885 -0.9844  2.1633  1.7268
  201MPD1    N1 3118   3.543   2.000  14.022  0.0778  0.4329 -0.4992
  201MPD1    H6 3119   3.483   2.072  13.981 -0.8727 -0.9888 -1.5918
  201MPD1    H7 3120   3.637   2.022  13.992  0.9872 -2.0621  0.5380
  202MPD1     C 3121   2.839   4.629   9.138 -0.0879 -0.5859 -0.3735
  202MPD1    C1 3122   2.783   0.009   9.097 -0.2238 -0.0201  0.1585
  202MPD1    C2 3123   2.847   0.115   9.155  0.2816  0.5591  0.1703
  202MPD1    C3 3124   2.900   0.118   9.282 -0.2208  0.4169 -0.0590
  202MPD1    C4 3125   2.924   4.736   9.339 -0.3112  0.5548 -0.1140
  202MPD1    C5 3126   2.910   4.626   9.258 -0.3903 -0.2762  0.0006
  202MPD1     H 3127   2.824   0.210   9.107 -0.5535 -0.3410 -1.1986
  202MPD1    H1 3128   2.964   4.729   9.440  0.5160 -0.0815 -0.4806
  202MPD1    H2 3129   2.814   4.541   9.081 -1.1080  0.3651 -1.3869
  202MPD1    H3 3130   2.936   4.529   9.297  1.1699 -0.6148 -1.8765
  202MPD1     N 3131   2.950   0.229   9.357  0.4004  0.0700  0.2045
  202MPD1    H5 3132   2.994   0.213   9.447 -0.3767  1.2582  0.8108
  202MPD1    N1 3133   2.730   0.017   8.965  0.6551 -0.6162  0.8173
  202MPD1    H6 3134   2.674   0.102   8.954  1.0098 -0.7148 -1.7788
  202MPD1    H7 3135   2.670   4.677   8.950  0.4074 -0.4337  0.8158
  203MPD1     C 3136   2.009   2.134  12.817 -0.3109  0.4289 -0.6802
  203MPD1    C1 3137   2.033   2.072  12.940  0.3303 -0.4990  0.4110
  203MPD1    C2 3138   2.124   1.975  12.928  0.0729 -0.5141  0.5784
  203MPD1    C3 3139   2.198   1.940  12.815 -0.3748 -0.3205 -0.2596
  203MPD1    C4 3140   2.182   2.009  12.700  0.8448 -0.5563 -0.6281
  203MPD1    C5 3141   2.081   2.105  12.703 -0.3477 -0.6410  0.2622
  203MPD1     H 3142   2.151   1.926  13.022 -0.3245  0.7979  1.3664
  203MPD1    H1 3143   2.250   1.998  12.616  0.4508  2.4128 -1.3108
  203MPD1    H2 3144   1.930   2.208  12.812 -0.0256  0.9357  2.2427
  203MPD1    H3 3145   2.058   2.151  12.607 -0.0342 -2.8166 -0.8523
  203MPD1     N 3146   2.295   1.836  12.830  0.3962 -0.0753 -0.3743
  203MPD1    H5 3147   2.318   1.795  12.920 -3.3136  1.0124  1.1079
  203MPD1    N1 3148   1.951   2.095  13.051 -0.0349 -0.6941 -0.1260
  203MPD1    H6 3149   2.008   2.079  13.134 -0.1361  0.6883  0.2103
  203MPD1    H7 3150   1.931   2.195  13.048 -1.2889 -1.0065 -2.0916
  204MPD1     C 3151   2.523   3.425  17.475 -0.3028  0.6775 -0.0944
  204MPD1    C1 3152   2.561   3.307  17.418 -0.7302 -0.6331 -0.2148
  204MPD1    C2 3153   2.479   3.198  17.438 -0.0797 -0.2999 -0.8055
  204MPD1    C3 3154   2.373   3.192  17.528  0.1372  0.2424 -0.1770
  204MPD1    C4 3155   2.352   3.308  17.598  0.3652  0.2240  0.3354
  204MPD1    C5 3156   2.422   3.419  17.569  0.6921 -0.3565  0.6020
  204MPD1     H 3157   2.494   3.109  17.378 -0.7960 -1.1270  0.2456
  204MPD1    H1 3158   2.273   3.318  17.672 -0.2928 -1.3209 -0.1613
  204MPD1    H2 3159   2.561   3.520  17.438  0.6414  0.8435  1.3166
  204MPD1    H3 3160   2.402   3.515  17.616 -2.2922 -0.1982 -0.9949
  204MPD1     N 3161   2.301   3.072  17.524 -0.0881  0.3887  1.1692
  204MPD1    H5 3162   2.351   3.002  17.471 -0.0735  1.3946 -0.1404
  204MPD1    N1 3163   2.677   3.298  17.332  0.1008 -0.0598  0.0536
  204MPD1    H6 3164   2.729   3.210  17.340  1.2331  0.3014 -3.1686
  204MPD1    H7 3165   2.745   3.373  17.345  0.6443 -0.6434  0.6194
  205MPD1     C 3166   1.065   2.234  17.244  0.7767  0.0806 -0.1799
  205MPD1    C1 3167   1.150   2.148  17.181  0.6176 -0.2822  0.5026
  205MPD1    C2 3168   1.243   2.077  17.254 -0.7599 -0.6482  0.3169
  205MPD1    C3 3169   1.260   2.107  17.390  0.4582 -0.1940  0.1602
  205MPD1    C4 3170   1.180   2.195  17.444 -0.4585  0.3819 -0.0427
  205MPD1    C5 3171   1.075   2.251  17.378 -0.3967  0.0382 -0.1214
  205MPD1     H 3172   1.311   2.009  17.203  2.2485  1.2036  1.8885
  205MPD1    H1 3173   1.181   2.226  17.548  0.4127 -1.7716  0.5739
  205MPD1    H2 3174   0.988   2.283  17.185 -1.2265 -2.0711  0.6513
  205MPD1    H3 3175   1.005   2.314  17.431  0.8222  0.9967  0.3469
  205MPD1     N 3176   1.361   2.046  17.478  0.0827 -0.1151 -0.5568
  205MPD1    H5 3177   1.367   2.081  17.573  3.3355 -1.1928 -0.3813
  205MPD1    N1 3178   1.131   2.126  17.043  0.0499 -0.3647 -0.4175
  205MPD1    H6 3179   1.087   2.207  17.000  1.7541 -0.0777 -1.6425
  205MPD1    H7 3180   1.218   2.111  16.993  0.4755  0.2002  0.1681
  206MPD1     C 3181   1.720   4.721  17.507 -0.0009  0.3502 -0.3147
  206MPD1    C1 3182   1.796   4.620  17.461 -0.2741 -0.3293  0.0156
  206MPD1    C2 3183   1.865   4.633  17.341  0.0045  0.5829  0.8265
  206MPD1    C3 3184   1.846   0.004  17.257 -0.3123 -0.2255  0.5711
  206MPD1    C4 3185   1.772   0.104  17.302 -0.5571 -0.0277 -0.8480
  206MPD1    C5 3186   1.707   0.091  17.429  0.3376  0.3073 -0.2557
  206MPD1     H 3187   1.921   4.543  17.317 -1.0732  0.4549 -1.2003
  206MPD1    H1 3188   1.757   0.189  17.237 -0.4722 -0.3742 -1.3228
  206MPD1    H2 3189   1.672   4.723  17.604 -0.8245  1.2927 -0.7482
  206MPD1    H3 3190   1.646   0.176  17.455 -1.1246 -0.1546 -2.1493
  206MPD1     N 3191   1.901   0.019  17.129 -0.2560 -0.4792  0.2354
  206MPD1    H5 3192   1.876   0.103  17.077 -0.7278 -0.8696 -0.1718
  206MPD1    N1 3193   1.813   4.510  17.541  0.0433 -0.5842  0.5908
  206MPD1    H6 3194   1.825   4.430  17.481 -1.2475 -0.3052 -0.0416
  206MPD1    H7 3195   1.724   4.489  17.587 -0.0388  1.6190  1.4646
  207MPD1     C 3196   3.846   2.488  10.158  0.1067  0.4328 -0.9544
  207MPD1    C1 3197   3.875   2.358  10.187 -0.3513 -0.6853  1.1852
  207MPD1    C2 3198   3.979   2.336  10.278  0.0733  0.2440 -0.4095
  207MPD1    C3 3199   4.054   2.432  10.344 -0.1026  0.2768 -0.6812
  207MPD1    C4 3200   4.024   2.558  10.307 -0.1479  0.2613 -0.1294
  207MPD1    C5 3201   3.917   2.588  10.214 -0.6598  0.1332 -0.8151
  207MPD1     H 3202   3.996   2.233  10.307  0.8336  0.1698 -1.1187
  207MPD1    H1 3203   4.079   2.641  10.349 -0.4317 -0.4770  1.6701
  207MPD1    H2 3204   3.757   2.512  10.101 -0.1179  1.1954 -0.2763
  207MPD1    H3 3205   3.901   2.691  10.185  0.2962  0.5305  0.0850
  207MPD1     N 3206   4.160   2.407  10.436  0.3267  0.2981 -0.0976
  207MPD1    H5 3207   4.209   2.483  10.481 -0.1101  1.1179 -0.9963
  207MPD1    N1 3208   3.801   2.250  10.141  0.4084 -0.3975 -0.3516
  207MPD1    H6 3209   3.774   2.268  10.044  1.4653 -0.6599 -0.6981
  207MPD1    H7 3210   3.848   2.160  10.129  0.0300 -0.6330 -0.0484
  208MPD1     C 3211   3.211   1.516  17.486  0.1089 -0.1688 -0.1072
  208MPD1    C1 3212   3.105   1.451  17.430  0.0748 -0.4282 -0.7616
  208MPD1    C2 3213   2.983   1.449  17.504 -0.5116  0.2960  0.2312
  208MPD1    C3 3214   2.994   1.479  17.639  0.1501 -0.2893  0.0531
  208MPD1    C4 3215   3.109   1.517  17.698 -0.0689 -0.4164 -0.4873
  208MPD1    C5 3216   3.217   1.546  17.618 -0.7027  0.1064  0.2830
  208MPD1     H 3217   2.887   1.420  17.464 -0.7352 -0.0561  1.0238
  208MPD1    H1 3218   3.115   1.536   0.043  1.2153 -0.8191 -0.4933
  208MPD1    H2 3219   3.300   1.527  17.425 -0.8149 -0.2944 -1.4841
  208MPD1    H3 3220   3.311   1.584  17.657 -0.4429  0.2584 -0.4791
  208MPD1     N 3221   2.881   1.447  17.717 -0.0902  0.5387 -0.4059
  208MPD1    H5 3222   2.804   1.405  17.666 -0.3661 -0.3707  0.7704
  208MPD1    N1 3223   3.105   1.405  17.299  0.5655 -0.6099 -0.1009
  208MPD1    H6 3224   3.196   1.370  17.270  0.9228 -0.5533  0.9234
  208MPD1    H7 3225   3.033   1.332  17.298  0.0072 -0.0415 -0.5783
  209MPD1     C 3226   4.199   1.031  11.494 -0.0251  0.2864  0.4881
  209MPD1    C1 3227   4.203   1.108  11.375 -0.3612  0.3775 -0.4111
  209MPD1    C2 3228   4.286   1.217  11.363 -0.1448 -0.0014  0.8774
  209MPD1    C3 3229   4.377   1.236  11.461 -0.0158  0.4490 -0.3394
  209MPD1    C4 3230   4.369   1.167  11.581  0.5392 -0.5156  0.6500
  209MPD1    C5 3231   4.277   1.070  11.600  0.3262  0.3633 -1.1670
  209MPD1     H 3232   4.284   1.284  11.277 -0.6503  0.0265  0.9104
  209MPD1    H1 3233   4.427   1.190  11.670 -2.0486  0.3388  2.1089
  209MPD1    H2 3234   4.128   0.950  11.506 -0.0809  0.1978 -0.4686
  209MPD1    H3 3235   4.277   1.016  11.694 -0.0405  1.3506 -0.5996
  209MPD1     N 3236   4.470   1.341  11.442  0.2261  0.3433 -0.2253
  209MPD1    H5 3237   4.460   1.400  11.360  0.6144 -0.3589 -0.7805
  209MPD1    N1 3238   4.122   1.069  11.269 -0.2511 -0.1029  0.8553
  209MPD1    H6 3239   4.068   0.985  11.287  1.1390 -1.0584  0.5236
  209MPD1    H7 3240   4.055   1.144  11.254 -0.0454  0.0152  0.5277
  210MPD1     C 3241   0.056   2.214  11.851  0.1115 -0.3251  0.1896
  210MPD1    C1 3242   0.157   2.120  11.851  1.1620 -0.0925  0.4686
  210MPD1    C2 3243   0.136   2.006  11.775  0.4545 -0.1389 -0.2811
  210MPD1    C3 3244   0.041   2.004  11.676 -0.2948  0.3469 -0.0777
  210MPD1    C4 3245   4.697   2.113  11.656  0.3211 -1.0137 -0.4245
  210MPD1    C5 3246   4.695   2.211  11.754 -0.1511 -0.4457  0.1125
  210MPD1     H 3247   0.210   1.928  11.778  2.0541  1.4205  1.3357
  210MPD1    H1 3248   4.620   2.108  11.580 -1.5516  0.1512  1.4052
  210MPD1    H2 3249   0.042   2.282  11.934  0.4706  0.3184 -0.2790
  210MPD1    H3 3250   4.620   2.289  11.761 -1.2157 -1.4656 -0.0563
  210MPD1     N 3251   0.024   1.896  11.586 -0.3562 -0.0250 -0.5234
  210MPD1    H5 3252   4.715   1.920  11.501  2.1830  0.0909 -1.9693
  210MPD1    N1 3253   0.247   2.122  11.961  0.1912  0.1114 -0.4531
  210MPD1    H6 3254   0.333   2.074  11.936  0.0212  0.1640 -1.1514
  210MPD1    H7 3255   0.270   2.214  11.997 -0.5783 -0.1712  0.7612
  211MPD1     C 3256   2.483   1.017  16.992  0.3457  0.0386  0.1407
  211MPD1    C1 3257   2.389   1.028  16.894  0.8016  0.1769 -0.7686
  211MPD1    C2 3258   2.293   1.130  16.906  0.2444  0.1776  0.4329
  211MPD1    C3 3259   2.293   1.213  17.018  0.4379  0.7999 -0.5377
  211MPD1    C4 3260   2.391   1.191  17.118 -0.9569  0.4557  0.7644
  211MPD1    C5 3261   2.487   1.099  17.102  0.6329 -0.2515  0.2041
  211MPD1     H 3262   2.214   1.138  16.832 -0.0535 -0.0205  0.7320
  211MPD1    H1 3263   2.408   1.262  17.198 -1.5572  0.7327  0.6392
  211MPD1    H2 3264   2.558   0.938  16.983 -1.6055 -1.6374 -1.2796
  211MPD1    H3 3265   2.566   1.101  17.176  0.1067  0.0744  0.7528
  211MPD1     N 3266   2.196   1.310  17.024 -0.6885  0.1423  0.3881
  211MPD1    H5 3267   2.127   1.311  16.950 -1.7041  0.3538  1.3379
  211MPD1    N1 3268   2.386   0.931  16.795  0.0740 -0.4225 -0.1074
  211MPD1    H6 3269   2.358   0.971  16.705  1.9694  1.5877  0.1905
  211MPD1    H7 3270   2.484   0.903  16.792 -0.4690 -2.2269 -1.1165
  212MPD1     C 3271   1.707   0.119  16.799  0.3492 -0.4749 -0.2789
  212MPD1    C1 3272   1.669   0.164  16.925  1.4675  0.6014 -0.0130
  212MPD1    C2 3273   1.586   0.070  16.985  0.1271 -0.2170 -0.3534
  212MPD1    C3 3274   1.545   4.694  16.924 -0.3788  0.5792  0.0934
  212MPD1    C4 3275   1.579   4.660  16.796  0.0742  1.3274 -0.8879
  212MPD1    C5 3276   1.667   0.007  16.738 -0.2910  0.5484 -0.0991
  212MPD1     H 3277   1.555   0.081  17.088  1.1485 -1.7322  0.0981
  212MPD1    H1 3278   1.529   4.578  16.747 -1.0507  1.0248  0.7492
  212MPD1    H2 3279   1.781   0.185  16.753  2.0498 -1.3508  1.1807
  212MPD1    H3 3280   1.694   4.735  16.634  0.8205  0.0674  0.2548
  212MPD1     N 3281   1.450   4.604  16.990 -0.0465  0.4402 -0.3630
  212MPD1    H5 3282   1.434   4.516  16.942 -0.8533 -0.7853  2.1201
  212MPD1    N1 3283   1.739   0.261  16.996  0.1716  0.5976  0.2986
  212MPD1    H6 3284   1.689   0.291  17.080  1.9536 -0.0153  1.5627
  212MPD1    H7 3285   1.782   0.340  16.949 -0.2799 -0.8831 -2.5580
  213MPD1     C 3286   0.196   1.319  15.873  0.1015  1.1318 -0.3323
  213MPD1    C1 3287   0.066   1.348  15.912  0.1205  0.0144 -0.7997
  213MPD1    C2 3288   4.714   1.275  15.843  0.0836  0.1092 -0.0448
  213MPD1    C3 3289   4.739   1.211  15.724  0.1959  0.2006 -0.9078
  213MPD1    C4 3290   0.127   1.208  15.677  0.0581 -0.0482 -0.2472
  213MPD1    C5 3291   0.225   1.254  15.757 -0.0136 -0.8790 -0.1328
  213MPD1     H 3292   4.614   1.273  15.885 -0.6490  2.0806 -1.6699
  213MPD1    H1 3293   0.152   1.142  15.596  3.2893  0.9153 -0.0535
  213MPD1    H2 3294   0.281   1.345  15.935 -0.3568  0.9068  0.3876
  213MPD1    H3 3295   0.329   1.239  15.733  0.2286 -2.6649  1.9904
  213MPD1     N 3296   4.642   1.140  15.654  0.3167 -0.0357 -0.0162
  213MPD1    H5 3297   4.556   1.128  15.706  0.9938 -0.2774  1.0417
  213MPD1    N1 3298   0.042   1.383  16.046  0.0388  0.4783  0.2971
  213MPD1    H6 3299   4.688   1.413  16.067  0.1250 -0.6321  2.2083
  213MPD1    H7 3300   0.106   1.452  16.085  1.5344 -1.8386  1.9009
  214MPD1     C 3301   3.716   0.907  15.797  0.2218 -0.1300 -0.1774
  214MPD1    C1 3302   3.830   0.886  15.863  0.2704  0.0044  0.2476
  214MPD1    C2 3303   3.945   0.876  15.789 -0.5044 -0.6450 -0.0001
  214MPD1    C3 3304   3.952   0.895  15.652  0.5593 -0.4508 -0.1924
  214MPD1    C4 3305   3.836   0.921  15.583 -0.4363  0.1431  0.1872
  214MPD1    C5 3306   3.725   0.919  15.662 -0.4696 -0.2167 -0.3314
  214MPD1     H 3307   4.037   0.860  15.845 -0.2195  3.5353  0.7044
  214MPD1    H1 3308   3.846   0.918  15.475  0.3107 -0.3683  0.2750
  214MPD1    H2 3309   3.618   0.901  15.844  0.5470  1.8891  0.7597
  214MPD1    H3 3310   3.634   0.904  15.605 -0.3479  0.3934 -0.6873
  214MPD1     N 3311   4.068   0.895  15.576  0.2749  0.0362 -0.1357
  214MPD1    H5 3312   4.060   0.914  15.477  1.5248 -3.0659 -0.8247
  214MPD1    N1 3313   3.821   0.853  15.997  0.3216  0.3494  0.3732
  214MPD1    H6 3314   3.742   0.895  16.046  0.0020 -0.1552  0.2919
  214MPD1    H7 3315   3.905   0.848  16.054 -1.1652 -0.6619  2.5010
  215MPD1     C 3316   3.619   1.386  10.715  0.2033 -0.1842 -0.0786
  215MPD1    C1 3317   3.661   1.493  10.642 -0.2771 -0.2529  0.1062
  215MPD1    C2 3318   3.758   1.572  10.696 -0.4796  0.5987 -0.4045
  215MPD1    C3 3319   3.804   1.556  10.829 -0.3400 -0.3204  0.1184
  215MPD1    C4 3320   3.749   1.455  10.900  0.1151 -0.1176 -0.5246
  215MPD1    C5 3321   3.659   1.367  10.846  0.3969  0.2673 -0.1936
  215MPD1     H 3322   3.798   1.649  10.631 -0.0883  1.5448  0.9796
  215MPD1    H1 3323   3.784   1.444  11.002  1.0777  0.4104 -0.8019
  215MPD1    H2 3324   3.565   1.303  10.670  0.3293  0.0398 -0.6481
  215MPD1    H3 3325   3.616   1.289  10.908  1.1657  0.0894  0.1193
  215MPD1     N 3326   3.914   1.624  10.885 -0.4256  0.1726 -0.0605
  215MPD1    H5 3327   3.946   1.711  10.844 -1.2702  0.0661 -0.9656
  215MPD1    N1 3328   3.631   1.495  10.504 -0.1439  0.0491  0.2351
  215MPD1    H6 3329   3.616   1.582  10.454  2.4360 -1.8115 -3.7192
  215MPD1    H7 3330   3.551   1.435  10.486  0.9856 -1.3510 -0.0973
  216MPD1     C 3331   1.836   4.339  16.945 -0.0635 -0.1414  0.3331
  216MPD1    C1 3332   1.862   4.203  16.945  0.0268 -0.4965 -0.0596
  216MPD1    C2 3333   1.828   4.130  17.055  0.1743  0.4012 -0.1834
  216MPD1    C3 3334   1.757   4.185  17.156 -0.3404 -0.2655 -0.0015
  216MPD1    C4 3335   1.717   4.312  17.150  0.5653  0.2505  0.1354
  216MPD1    C5 3336   1.764   4.398  17.048  0.4029 -0.3326  0.8674
  216MPD1     H 3337   1.852   4.024  17.060  0.1887  0.4122 -0.0128
  216MPD1    H1 3338   1.657   4.364  17.224  1.4966 -0.6679  1.5178
  216MPD1    H2 3339   1.861   4.405  16.863  1.9113 -1.5010 -0.1673
  216MPD1    H3 3340   1.726   4.499  17.042 -1.6952 -1.1658  0.3502
  216MPD1     N 3341   1.714   4.098  17.257  0.1306  0.6202  0.2170
  216MPD1    H5 3342   1.735   3.999  17.244  1.2441  0.8243  0.5226
  216MPD1    N1 3343   1.948   4.159  16.842  0.2106 -0.0875 -0.5614
  216MPD1    H6 3344   1.934   4.205  16.752  0.4028 -1.5084 -1.3211
  216MPD1    H7 3345   1.948   4.059  16.823 -0.8586  0.0741 -1.4260
  217MPD1     C 3346   1.092   0.629   8.584  0.3551  0.1224  0.3643
  217MPD1    C1 3347   1.196   0.543   8.554 -0.4516 -0.2061 -0.7507
  217MPD1    C2 3348   1.309   0.534   8.636  0.1593  0.5210 -0.4112
  217MPD1    C3 3349   1.317   0.620   8.742  0.2245 -0.4854  0.7410
  217MPD1    C4 3350   1.207   0.700   8.780  0.3967 -0.5763  0.3548
  217MPD1    C5 3351   1.099   0.708   8.696 -0.6882 -0.2117  0.1734
  217MPD1     H 3352   1.384   0.460   8.614 -0.1634  0.9118 -2.8728
  217MPD1    H1 3353   1.197   0.771   8.860 -0.5582 -0.6270  0.2829
  217MPD1    H2 3354   0.999   0.634   8.529  1.1773 -0.6333 -1.1144
  217MPD1    H3 3355   1.015   0.768   8.728 -0.2949  0.1909  0.4477
  217MPD1     N 3356   1.430   0.623   8.822  0.0651  0.0239 -0.0317
  217MPD1    H5 3357   1.422   0.693   8.895 -0.1664  1.1189 -1.1037
  217MPD1    N1 3358   1.178   0.451   8.456 -0.4062  0.4489 -0.2646
  217MPD1    H6 3359   1.109   0.481   8.388 -0.6858 -0.5890 -0.4349
  217MPD1    H7 3360   1.264   0.420   8.410 -1.1763 -1.8540 -0.1141
  218MPD1     C 3361   3.619   2.746  13.112  0.3124  0.1647 -0.0127
  218MPD1    C1 3362   3.693   2.694  13.219  0.2288 -1.1376 -0.5089
  218MPD1    C2 3363   3.801   2.608  13.185 -0.1858 -0.1612  0.0159
  218MPD1    C3 3364   3.838   2.580  13.057 -0.6369 -0.2438 -0.3856
  218MPD1    C4 3365   3.764   2.634  12.950 -0.9301 -0.5238 -0.1586
  218MPD1    C5 3366   3.653   2.710  12.982  0.2470  0.1725 -0.3571
  218MPD1     H 3367   3.846   2.561  13.272  0.8918 -0.0017 -0.4543
  218MPD1    H1 3368   3.795   2.623  12.846 -2.9999 -3.4288 -0.4395
  218MPD1    H2 3369   3.538   2.814  13.131  1.0131  0.6495  1.2456
  218MPD1    H3 3370   3.595   2.751  12.900  0.6820 -0.4995 -1.0082
  218MPD1     N 3371   3.953   2.503  13.038 -0.0380 -0.1660 -0.1097
  218MPD1    H5 3372   3.985   2.445  13.115  0.9353 -0.2258 -0.5656
  218MPD1    N1 3373   3.651   2.705  13.350 -0.0181  0.3989  0.4000
  218MPD1    H6 3374   3.730   2.706  13.414  0.4444 -0.1981 -0.1716
  218MPD1    H7 3375   3.598   2.792  13.357 -2.2415 -0.8686 -0.7888
  219MPD1     C 3376   4.453   2.042  12.185 -0.1231  0.3428 -0.3169
  219MPD1    C1 3377   4.497   2.162  12.241 -0.2379 -0.6798 -0.3980
  219MPD1    C2 3378   4.437   2.206  12.363  0.7879 -0.2038 -0.2166
  219MPD1    C3 3379   4.357   2.115  12.430  0.1700  0.0800 -0.2418
  219MPD1    C4 3380   4.323   1.992  12.372  0.1683 -0.3595 -0.3475
  219MPD1    C5 3381   4.368   1.956  12.249  0.7015 -0.4053 -0.3871
  219MPD1     H 3382   4.468   2.303  12.399  1.5518 -1.3629  2.2772
  219MPD1    H1 3383   4.271   1.920  12.433  1.6248 -1.1995 -0.1009
  219MPD1    H2 3384   4.473   2.015  12.082  0.1190 -0.2466 -0.1184
  219MPD1    H3 3385   4.340   1.863  12.201 -0.3140  0.6955 -1.9249
  219MPD1     N 3386   4.295   2.136  12.555  0.3348 -0.4868 -0.2083
  219MPD1    H5 3387   4.249   2.059  12.604 -0.4344  0.1713  0.0900
  219MPD1    N1 3388   4.567   2.246  12.156  0.2453  0.2149  0.0384
  219MPD1    H6 3389   4.618   2.187  12.091  0.8724 -0.0990  0.8131
  219MPD1    H7 3390   4.631   2.302  12.212 -0.5247 -0.8740  2.0048
  220MPD1     C 3391   3.054   2.982  10.203 -0.2154 -0.5561 -0.0654
  220MPD1    C1 3392   3.184   2.983  10.147 -0.1678 -0.1786  0.0158
  220MPD1    C2 3393   3.284   2.887  10.185  0.5831  0.0177 -0.1491
  220MPD1    C3 3394   3.239   2.784  10.268 -0.2089 -0.3724 -0.1884
  220MPD1    C4 3395   3.113   2.777  10.319  0.2792  0.5713  0.4700
  220MPD1    C5 3396   3.018   2.874  10.284  0.0947 -0.2971  0.0117
  220MPD1     H 3397   3.389   2.899  10.162  0.6055  1.5508  0.7249
  220MPD1    H1 3398   3.093   2.698  10.390  0.5468 -0.2738 -0.4022
  220MPD1    H2 3399   2.974   3.055  10.196  0.7731  0.3377 -2.0128
  220MPD1    H3 3400   2.917   2.866  10.324  0.7622  1.5433  2.0805
  220MPD1     N 3401   3.325   2.678  10.304 -0.1094 -0.4079 -0.1834
  220MPD1    H5 3402   3.282   2.598  10.350 -1.8225  0.5985 -0.0043
  220MPD1    N1 3403   3.229   3.097  10.079  0.5053 -0.0668 -0.1699
  220MPD1    H6 3404   3.309   3.078  10.018  0.3001  1.3884 -0.8836
  220MPD1    H7 3405   3.149   3.127  10.025  0.7608 -1.0129 -1.0692
  221MPD1     C 3406   1.869   1.927  16.104  0.5139 -0.3894  0.0095
  221MPD1    C1 3407   1.860   1.955  16.242 -0.0766  0.8885  0.6824
  221MPD1    C2 3408   1.921   1.867  16.325 -0.6720 -0.1756 -0.6557
  221MPD1    C3 3409   1.996   1.755  16.279 -0.0081  0.4426  0.1580
  221MPD1    C4 3410   1.998   1.731  16.146 -0.0148  0.0196  0.6709
  221MPD1    C5 3411   1.925   1.813  16.056 -0.1189  0.5419 -0.7500
  221MPD1     H 3412   1.923   1.891  16.430 -1.4085  1.3483 -0.9831
  221MPD1    H1 3413   2.037   1.639  16.105  0.2642  0.2696  0.3774
  221MPD1    H2 3414   1.827   1.990  16.028  0.7028  0.4341  0.5897
  221MPD1    H3 3415   1.918   1.785  15.951 -2.1532 -1.0129 -0.1980
  221MPD1     N 3416   2.060   1.661  16.368  0.3780 -0.5988  0.2245
  221MPD1    H5 3417   2.104   1.576  16.333 -0.9705 -0.7895 -0.9815
  221MPD1    N1 3418   1.803   2.075  16.282  0.7025 -0.7207 -0.1378
  221MPD1    H6 3419   1.785   2.064  16.381 -1.1870 -0.6081 -0.4708
  221MPD1    H7 3420   1.709   2.089  16.246  0.0406  1.5483  2.5131
  222MPD1     C 3421   0.413   4.068   0.937 -0.5961 -0.2279 -0.2179
  222MPD1    C1 3422   0.406   4.201   0.928 -0.1711  0.2846 -0.4059
  222MPD1    C2 3423   0.507   4.269   0.861 -0.3945 -0.5150  0.2200
  222MPD1    C3 3424   0.593   4.203   0.777  0.6242  0.6033 -0.6191
  222MPD1    C4 3425   0.591   4.067   0.779 -0.1382  0.1228  0.2601
  222MPD1    C5 3426   0.513   3.996   0.870  0.1804 -1.0988 -1.0367
  222MPD1     H 3427   0.500   4.377   0.868 -0.0224 -0.4927  0.2628
  222MPD1    H1 3428   0.652   4.003   0.716 -1.9441 -1.7439  0.4173
  222MPD1    H2 3429   0.352   4.010   1.005  0.0916  0.2077  0.7636
  222MPD1    H3 3430   0.525   3.889   0.882 -0.5081 -0.8432  1.8751
  222MPD1     N 3431   0.689   4.258   0.685  0.2106  0.7539 -0.2388
  222MPD1    H5 3432   0.756   4.195   0.642  1.4344  1.2545  0.9059
  222MPD1    N1 3433   0.316   4.268   1.007 -0.2117  0.0289  0.7791
  222MPD1    H6 3434   0.298   4.356   0.958 -1.9296 -0.3637  0.6901
  222MPD1    H7 3435   0.229   4.215   1.007  0.9391 -1.8252 -0.5188
  223MPD1     C 3436   1.242   4.209  17.594 -0.2088  0.1765 -0.3003
  223MPD1    C1 3437   1.291   4.328  17.651  0.1067  0.1290  0.2454
  223MPD1    C2 3438   1.239   4.365   0.008 -0.5145  0.0003 -0.3330
  223MPD1    C3 3439   1.133   4.298   0.070  0.8454 -0.2097  0.0373
  223MPD1    C4 3440   1.073   4.192  17.760  0.0794  0.1119  0.3345
  223MPD1    C5 3441   1.135   4.140  17.652 -0.0789  0.3246 -0.4730
  223MPD1     H 3442   1.279   4.450   0.062  0.0392  0.2192 -1.0909
  223MPD1    H1 3443   0.983   4.145   0.038  1.2708 -1.9120  0.6772
  223MPD1    H2 3444   1.292   4.167  17.508 -0.0651  0.2501 -0.2531
  223MPD1    H3 3445   1.096   4.048  17.611 -1.0787  1.1785 -1.4669
  223MPD1     N 3446   1.087   4.359   0.191  0.0049 -0.4153  0.4435
  223MPD1    H5 3447   1.143   4.438   0.222  0.0739  0.2738 -1.4160
  223MPD1    N1 3448   1.423   4.365  17.607  0.3237  0.2230  0.3119
  223MPD1    H6 3449   1.427   4.329  17.512  2.2808 -0.0033  0.4655
  223MPD1    H7 3450   1.436   4.466  17.604 -0.7061  0.3099 -1.0643
  224MPD1     C 3451   1.766   0.878   8.658  0.0431  0.1214 -0.4695
  224MPD1    C1 3452   1.718   0.980   8.745  0.8366  0.8323 -0.2227
  224MPD1    C2 3453   1.776   0.979   8.872  0.0900  0.1951  0.6004
  224MPD1    C3 3454   1.867   0.879   8.917 -0.6997 -0.0827 -0.3002
  224MPD1    C4 3455   1.910   0.781   8.826 -0.4024  1.0263 -0.2840
  224MPD1    C5 3456   1.862   0.785   8.698 -0.3114  0.0193 -0.1819
  224MPD1     H 3457   1.746   1.063   8.934  0.7154  0.5950  0.3605
  224MPD1    H1 3458   1.970   0.696   8.854 -0.5110  0.8858 -0.4823
  224MPD1    H2 3459   1.722   0.860   8.561 -2.3627  0.8340  0.4761
  224MPD1    H3 3460   1.887   0.698   8.639  0.2064 -0.5414  0.8597
  224MPD1     N 3461   1.923   0.885   9.051 -0.0843 -0.0454 -0.1177
  224MPD1    H5 3462   1.976   0.800   9.070  0.2123 -0.6368 -3.5677
  224MPD1    N1 3463   1.597   1.047   8.702 -0.0768 -0.2296 -0.1697
  224MPD1    H6 3464   1.590   1.139   8.744  1.2246  0.7296 -2.1012
  224MPD1    H7 3465   1.602   1.067   8.603 -1.2916 -0.6236 -0.3196
  225MPD1     C 3466   4.281   2.555  12.332  0.1789  0.0169 -0.2466
  225MPD1    C1 3467   4.212   2.443  12.289  0.2466 -0.4250  0.3583
  225MPD1    C2 3468   4.099   2.403  12.358  0.2186  0.1495  0.2973
  225MPD1    C3 3469   4.061   2.470  12.475 -0.2440 -0.3182 -0.2282
  225MPD1    C4 3470   4.146   2.567  12.526  0.3927 -0.1156 -0.8134
  225MPD1    C5 3471   4.246   2.608  12.447  0.1678 -0.4686 -0.2691
  225MPD1     H 3472   4.043   2.317  12.322 -0.9064 -0.4581  3.4785
  225MPD1    H1 3473   4.126   2.619  12.619  0.1395  0.2059 -1.0472
  225MPD1    H2 3474   4.362   2.599  12.276  0.2664 -0.9631 -0.8991
  225MPD1    H3 3475   4.300   2.698  12.476  1.4862 -0.8250 -1.6171
  225MPD1     N 3476   3.954   2.430  12.549 -0.0066 -0.7724 -0.8827
  225MPD1    H5 3477   3.951   2.483  12.635 -2.5881 -0.7656 -0.9628
  225MPD1    N1 3478   4.249   2.388  12.162  0.2040 -0.2095  0.4548
  225MPD1    H6 3479   4.349   2.379  12.145  0.5839  2.1891  1.4419
  225MPD1    H7 3480   4.214   2.292  12.153 -1.9522  0.6809 -0.6284
  226MPD1     C 3481   0.903   2.525   9.657  0.0451 -0.2326  0.6578
  226MPD1    C1 3482   0.966   2.470   9.766 -0.4689 -0.1881  0.1657
  226MPD1    C2 3483   1.065   2.371   9.747 -0.0968  0.4348  0.9638
  226MPD1    C3 3484   1.085   2.331   9.614 -0.3938  0.2425  0.2300
  226MPD1    C4 3485   1.032   2.401   9.510 -0.4292 -0.1469  0.0888
  226MPD1    C5 3486   0.943   2.503   9.528 -0.1560 -1.3230  0.4313
  226MPD1     H 3487   1.108   2.319   9.832  0.0551  0.1622  0.7205
  226MPD1    H1 3488   1.052   2.376   9.406  0.9796  0.1702  0.2754
  226MPD1    H2 3489   0.829   2.603   9.672 -1.4813 -1.6746  0.5680
  226MPD1    H3 3490   0.892   2.552   9.445  0.8763  1.0178  1.1805
  226MPD1     N 3491   1.181   2.225   9.607  0.0837  0.0295 -0.1936
  226MPD1    H5 3492   1.222   2.198   9.696  1.4115  1.4213 -0.3956
  226MPD1    N1 3493   0.905   2.484   9.890  0.0826  0.4383  0.5086
  226MPD1    H6 3494   0.969   2.485   9.968 -0.4041 -1.3011  0.9118
  226MPD1    H7 3495   0.853   2.572   9.897  1.3604  1.1040  1.5758
  227MPD1     C 3496   1.584   1.873  10.256 -0.2317 -0.1410 -0.3702
  227MPD1    C1 3497   1.466   1.945  10.235  0.5619  0.3949  0.0487
  227MPD1    C2 3498   1.427   1.969  10.105 -0.3884  0.2523 -0.1566
  227MPD1    C3 3499   1.499   1.916  10.001  0.2505 -0.1797  0.4746
  227MPD1    C4 3500   1.618   1.847  10.027  0.0286 -0.9764  0.1585
  227MPD1    C5 3501   1.661   1.826  10.153 -0.4109  0.2237  0.1614
  227MPD1     H 3502   1.331   2.013  10.082  1.0862  3.7877  0.4950
  227MPD1    H1 3503   1.678   1.793   9.954  2.1663 -1.0266  1.9852
  227MPD1    H2 3504   1.615   1.842  10.355  1.9234 -0.6088 -1.1953
  227MPD1    H3 3505   1.751   1.766  10.158  0.7286  1.6910 -2.2518
  227MPD1     N 3506   1.442   1.927   9.870  0.5902 -0.8688 -0.2488
  227MPD1    H5 3507   1.367   1.994   9.863  1.2521  0.3665  4.5816
  227MPD1    N1 3508   1.373   1.967  10.340 -0.5246  0.4288 -0.2795
  227MPD1    H6 3509   1.331   2.058  10.321  1.2621  0.8442 -2.2888
  227MPD1    H7 3510   1.421   1.955  10.428  0.5633 -0.3724 -0.9812
  228MPD1     C 3511   0.973   4.471  12.883  0.0621 -0.3759  0.5464
  228MPD1    C1 3512   0.930   4.479  13.014 -0.4146 -0.4782  0.3949
  228MPD1    C2 3513   0.830   4.570  13.049  0.8781  0.7916 -0.1432
  228MPD1    C3 3514   0.801   4.671  12.966  0.1781  0.1047  0.0188
  228MPD1    C4 3515   0.844   4.668  12.833 -0.1710 -0.0369 -0.5402
  228MPD1    C5 3516   0.929   4.568  12.797  0.9441 -0.2584  0.7616
  228MPD1     H 3517   0.780   4.559  13.144  0.5404  2.5961 -0.1203
  228MPD1    H1 3518   0.819   0.000  12.757 -1.5844 -0.9880 -0.9884
  228MPD1    H2 3519   1.030   4.393  12.834 -2.0728 -1.5727 -0.0256
  228MPD1    H3 3520   0.956   4.557  12.693 -1.3725 -0.4746  0.1658
  228MPD1     N 3521   0.715   0.031  13.020 -0.9184  0.0990  0.1421
  228MPD1    H5 3522   0.701   0.031  13.120 -0.4944 -1.4734  0.1911
  228MPD1    N1 3523   0.964   4.376  13.102 -0.2169  0.6462 -0.2330
  228MPD1    H6 3524   1.054   4.337  13.078 -0.2805  0.2264  0.2090
  228MPD1    H7 3525   0.976   4.424  13.191  1.6576 -1.6804  0.7573
  229MPD1     C 3526   0.285   3.853  15.683  0.0936  0.3817 -0.4478
  229MPD1    C1 3527   0.357   3.736  15.689 -0.1545 -0.4508  0.5287
  229MPD1    C2 3528   0.472   3.719  15.612 -0.4056 -0.3815  0.6042
  229MPD1    C3 3529   0.512   3.821  15.531 -0.7108  0.0909 -0.1259
  229MPD1    C4 3530   0.441   3.942  15.525 -0.0166 -0.5658 -0.0663
  229MPD1    C5 3531   0.327   3.952  15.590  0.2371 -0.1000 -0.5912
  229MPD1     H 3532   0.531   3.628  15.623  1.6808  1.0826  1.6811
  229MPD1    H1 3533   0.474   4.020  15.457  1.3625 -0.4083  0.7633
  229MPD1    H2 3534   0.195   3.867  15.742 -0.3860 -1.1606 -0.8253
  229MPD1    H3 3535   0.270   4.041  15.566 -0.8180 -0.1571  1.7074
  229MPD1     N 3536   0.637   3.831  15.469 -0.1237  0.3370  0.5347
  229MPD1    H5 3537   0.654   3.914  15.413 -0.0860  1.2666  1.9362
  229MPD1    N1 3538   0.329   3.646  15.789  0.3276  0.3013 -0.2518
  229MPD1    H6 3539   0.235   3.616  15.764 -0.0685  2.0150 -0.8773
  229MPD1    H7 3540   0.390   3.565  15.780 -0.5003 -0.3028 -0.4456
  230MPD1     C 3541   1.493   4.027  15.800  0.2184  0.9809 -0.3308
  230MPD1    C1 3542   1.509   3.895  15.757 -0.1992 -1.0673  0.4449
  230MPD1    C2 3543   1.400   3.843  15.685  0.0263 -0.3481  0.5244
  230MPD1    C3 3544   1.311   3.929  15.620 -0.3038 -0.0920  0.8427
  230MPD1    C4 3545   1.321   4.068  15.650 -0.4013  0.1329  0.3442
  230MPD1    C5 3546   1.407   4.109  15.746  0.1932  0.2255  0.5239
  230MPD1     H 3547   1.403   3.739  15.656 -2.1945 -0.7186  1.6011
  230MPD1    H1 3548   1.253   4.140  15.605 -2.0276 -0.9608  1.0367
  230MPD1    H2 3549   1.568   4.066  15.868  0.6614  0.9606 -0.8080
  230MPD1    H3 3550   1.423   4.212  15.777  1.1791  1.1485 -3.0453
  230MPD1     N 3551   1.212   3.872  15.533 -0.3894  0.6096  0.0150
  230MPD1    H5 3552   1.206   3.771  15.537 -1.2972  0.6060 -1.8731
  230MPD1    N1 3553   1.612   3.808  15.806 -0.1080  0.6521 -0.2485
  230MPD1    H6 3554   1.620   3.726  15.746 -0.1223  0.6828 -0.2926
  230MPD1    H7 3555   1.702   3.853  15.813 -0.7726  2.1486 -1.2515
  231MPD1     C 3556   4.111   1.468  15.560  0.3245 -0.5225 -0.2362
  231MPD1    C1 3557   4.097   1.380  15.458 -0.0470  0.7873  0.4776
  231MPD1    C2 3558   4.084   1.439  15.331 -0.5209 -0.0407  0.6699
  231MPD1    C3 3559   4.077   1.574  15.307  0.5537 -0.0053 -0.5545
  231MPD1    C4 3560   4.089   1.658  15.418  0.3081  0.0768 -0.9444
  231MPD1    C5 3561   4.102   1.604  15.540 -0.7326 -0.2015 -0.3700
  231MPD1     H 3562   4.080   1.369  15.249 -0.5707 -0.5702  1.1280
  231MPD1    H1 3563   4.089   1.766  15.411  0.6852  0.0650 -1.1188
  231MPD1    H2 3564   4.121   1.428  15.660 -2.4183  1.7697  0.9594
  231MPD1    H3 3565   4.111   1.680  15.617 -1.1742 -0.3667 -0.1618
  231MPD1     N 3566   4.061   1.622  15.171  0.7019 -0.2683 -0.6835
  231MPD1    H5 3567   4.039   1.558  15.095 -1.3817  0.0928 -0.3751
  231MPD1    N1 3568   4.112   1.245  15.488  0.2217 -0.7017  0.0936
  231MPD1    H6 3569   4.081   1.222  15.582  1.6662  1.1781  1.0315
  231MPD1    H7 3570   4.049   1.187  15.433 -2.3860 -0.2750  2.6387
  232MPD1     C 3571   0.945   3.214   0.081  0.5278  0.0359 -0.5256
  232MPD1    C1 3572   0.886   3.097   0.036  0.6857  0.3648  0.3871
  232MPD1    C2 3573   0.751   3.098   0.008 -0.1956 -0.0762  0.2855
  232MPD1    C3 3574   0.679   3.217   0.024 -0.0857 -0.1411  0.2444
  232MPD1    C4 3575   0.741   3.334   0.054  0.4633 -0.4159  0.8962
  232MPD1    C5 3576   0.871   3.329   0.089 -0.5348 -0.2399  0.7253
  232MPD1     H 3577   0.702   3.003  17.750  1.8971 -0.6349 -2.3029
  232MPD1    H1 3578   0.685   3.427   0.055  2.8483  1.0425  0.4309
  232MPD1    H2 3579   1.047   3.214   0.118  0.2008 -0.9871  0.3969
  232MPD1    H3 3580   0.923   3.417   0.126  0.8666 -0.4998 -0.6165
  232MPD1     N 3581   0.537   3.207   0.011  1.0549  0.0637  0.2137
  232MPD1    H5 3582   0.506   3.112   0.027 -0.6280  0.0596 -3.0016
  232MPD1    N1 3583   0.949   2.977   0.043 -0.4478  0.2202 -0.4363
  232MPD1    H6 3584   1.048   2.999   0.034 -0.6177  1.3036  0.2891
  232MPD1    H7 3585   0.920   2.914  17.730 -1.3210  1.0268 -0.7864
  233MPD1     C 3586   2.066   0.954   0.210  0.3512  1.0510  0.6002
  233MPD1    C1 3587   2.121   1.065   0.133 -0.2143 -0.2511  0.2428
  233MPD1    C2 3588   2.074   1.188   0.159 -0.0238  0.2367 -0.3408
  233MPD1    C3 3589   1.965   1.214   0.238 -0.7233  0.7315  0.9322
  233MPD1    C4 3590   1.901   1.106   0.293 -0.3619  0.3201 -0.7371
  233MPD1    C5 3591   1.954   0.978   0.284  0.4400  0.1713  0.2630
  233MPD1     H 3592   2.118   1.267   0.100 -1.3077  1.3066  0.1293
  233MPD1    H1 3593   1.812   1.125   0.352  0.7103 -0.3121  1.0822
  233MPD1    H2 3594   2.104   0.854   0.194 -3.0788 -0.8343  4.1378
  233MPD1    H3 3595   1.898   0.907   0.343  1.8448  1.7792  3.5104
  233MPD1     N 3596   1.922   1.347   0.272  0.0090 -0.8646 -1.0632
  233MPD1    H5 3597   1.834   1.353   0.322  0.6910  1.5792 -0.1243
  233MPD1    N1 3598   2.241   1.049   0.065  0.5632  0.2829 -0.0119
  233MPD1    H6 3599   2.252   1.129   0.002  0.7037 -0.0430 -0.4000
  233MPD1    H7 3600   2.234   0.961   0.015  0.6298  0.4187 -0.2602
  234MPD1     C 3601   2.904   4.153   9.191 -0.0384 -0.1460 -0.2121
  234MPD1    C1 3602   2.811   4.199   9.097 -0.2368 -0.2779 -0.3768
  234MPD1    C2 3603   2.716   4.294   9.148 -0.1392 -0.6186  0.8420
  234MPD1    C3 3604   2.715   4.339   9.275  0.2219  0.0653 -0.1556
  234MPD1    C4 3605   2.797   4.272   9.365 -0.0786  0.4542  0.3892
  234MPD1    C5 3606   2.893   4.186   9.323  0.0699  0.3116  0.0190
  234MPD1     H 3607   2.643   4.341   9.083  0.5864 -0.0433  0.4322
  234MPD1    H1 3608   2.792   4.299   9.470  3.3213 -0.5614  0.8335
  234MPD1    H2 3609   2.984   4.086   9.159  1.2292  1.4483 -0.3548
  234MPD1    H3 3610   2.953   4.140   9.399 -1.1107 -0.3620  0.5508
  234MPD1     N 3611   2.631   4.444   9.314 -0.2949 -0.0357 -0.1804
  234MPD1    H5 3612   2.583   4.496   9.241 -0.5055  0.9759  0.6835
  234MPD1    N1 3613   2.812   4.141   8.969  0.2945  0.0856  0.2396
  234MPD1    H6 3614   2.755   4.057   8.962  0.4754  0.0273 -0.4616
  234MPD1    H7 3615   2.766   4.207   8.907 -1.7729  0.1500  1.8437
  235MPD1     C 3616   4.395   3.502   9.888  0.0533 -0.4478  0.6729
  235MPD1    C1 3617   4.508   3.561   9.939  0.4183  0.1364  0.4931
  235MPD1    C2 3618   4.612   3.481   9.971 -0.5369  0.3039  0.6575
  235MPD1    C3 3619   4.614   3.344   9.957 -0.5644  0.7714  0.1449
  235MPD1    C4 3620   4.502   3.290   9.908 -0.8333 -0.1883 -0.2731
  235MPD1    C5 3621   4.393   3.363   9.887  0.6086  0.7355 -0.1638
  235MPD1     H 3622   4.700   3.527  10.014  0.0371 -1.7957  1.7132
  235MPD1    H1 3623   4.489   3.184   9.890 -1.4472 -0.2071  0.3029
  235MPD1    H2 3624   4.322   3.568   9.842  0.4931 -0.6304 -0.3008
  235MPD1    H3 3625   4.305   3.308   9.855 -0.0822  1.4185  0.5444
  235MPD1     N 3626   4.730   3.266   9.983 -0.0647  0.0908 -0.4967
  235MPD1    H5 3627   0.066   3.327  10.008 -0.0584 -0.0156 -0.2565
  235MPD1    N1 3628   4.513   3.701   9.941  0.0312 -1.2582  1.1424
  235MPD1    H6 3629   4.425   3.732   9.981 -0.6537 -2.2527  0.3978
  235MPD1    H7 3630   4.586   3.731  10.006 -0.6560 -1.1719  1.8629
  236MPD1     C 3631   2.826   3.959  10.710  0.2026  0.1623 -0.6998
  236MPD1    C1 3632   2.864   3.832  10.742  0.1017  0.7472 -0.5304
  236MPD1    C2 3633   2.980   3.783  10.686 -0.0084 -0.2429  0.6936
  236MPD1    C3 3634   3.049   3.860  10.595 -0.1799  0.1164  0.1749
  236MPD1    C4 3635   3.007   3.980  10.555  0.4434  0.0539  0.2093
  236MPD1    C5 3636   2.897   4.031  10.614  0.1444 -1.0243 -0.1608
  236MPD1     H 3637   3.020   3.686  10.713 -1.4304 -0.9917  0.0862
  236MPD1    H1 3638   3.063   4.023  10.473  1.8231 -2.8629 -0.3895
  236MPD1    H2 3639   2.732   4.001  10.743  0.0296 -1.1374  0.4944
  236MPD1    H3 3640   2.852   4.123  10.578  0.1448 -1.4964 -1.3675
  236MPD1     N 3641   3.161   3.809  10.522 -0.1403  0.2567 -0.3053
  236MPD1    H5 3642   3.219   3.862  10.459 -0.0006  1.3599  0.7536
  236MPD1    N1 3643   2.773   3.748  10.820 -0.1979 -0.4508 -0.2952
  236MPD1    H6 3644   2.701   3.792  10.877  2.1316  0.3586  1.9825
  236MPD1    H7 3645   2.832   3.700  10.887 -0.3884  0.0306  0.2151
  237MPD1     C 3646   4.012   2.161  15.583  0.3150 -0.8034 -0.2340
  237MPD1    C1 3647   3.936   2.048  15.614  0.0334  0.3445  0.0956
  237MPD1    C2 3648   3.811   2.029  15.560  0.1746  0.6311 -0.2289
  237MPD1    C3 3649   3.761   2.123  15.467 -0.1621 -0.2247  0.0117
  237MPD1    C4 3650   3.844   2.226  15.418  0.4153 -0.1945 -0.3388
  237MPD1    C5 3651   3.966   2.248  15.485  0.2871  0.2915  0.1675
  237MPD1     H 3652   3.756   1.936  15.573 -0.0055  0.5023 -1.8150
  237MPD1    H1 3653   3.828   2.293  15.334 -0.1439 -1.8814 -1.6016
  237MPD1    H2 3654   4.104   2.180  15.636  0.7999 -2.4228 -0.4959
  237MPD1    H3 3655   4.033   2.323  15.443  1.0352 -1.2232 -1.3611
  237MPD1     N 3656   3.642   2.110  15.387 -0.2035 -0.8226 -0.2819
  237MPD1    H5 3657   3.626   2.174  15.310  1.0131 -1.2412 -0.8961
  237MPD1    N1 3658   3.973   1.964  15.723  0.0907 -0.1669 -0.1137
  237MPD1    H6 3659   3.927   1.875  15.707 -1.2429  0.5343 -0.2000
  237MPD1    H7 3660   4.073   1.957  15.739  0.5819  0.6725 -2.6760
  238MPD1     C 3661   0.649   1.693  15.646 -0.3062  0.6240  0.6276
  238MPD1    C1 3662   0.732   1.584  15.646  0.6162  0.8604  0.0733
  238MPD1    C2 3663   0.706   1.468  15.571 -0.4090 -0.5041  0.7723
  238MPD1    C3 3664   0.603   1.475  15.478 -0.1821  0.1982 -0.2581
  238MPD1    C4 3665   0.533   1.586  15.462  0.5856 -0.1223 -0.5398
  238MPD1    C5 3666   0.551   1.695  15.547 -0.1227  0.2378  0.1076
  238MPD1     H 3667   0.777   1.386  15.569  0.8928  0.6354  0.8765
  238MPD1    H1 3668   0.458   1.601  15.385  0.0447 -0.2579 -0.0350
  238MPD1    H2 3669   0.651   1.770  15.722 -0.5641 -1.0609  2.3429
  238MPD1    H3 3670   0.488   1.781  15.525 -1.3170 -0.9052 -0.9941
  238MPD1     N 3671   0.577   1.368  15.386 -0.2553  0.1562  0.4889
  238MPD1    H5 3672   0.510   1.379  15.310  1.0945 -1.9428 -0.9934
  238MPD1    N1 3673   0.847   1.591  15.737 -0.9895 -0.0988  0.1283
  238MPD1    H6 3674   0.871   1.689  15.750  1.5094 -0.7220  0.1069
  238MPD1    H7 3675   0.930   1.556  15.689  0.0408 -1.0273  2.5857
  239MPD1     C 3676   0.776   1.693  15.254 -0.3562  0.2881  0.1167
  239MPD1    C1 3677   0.786   1.625  15.133  0.0614 -0.0518 -0.6979
  239MPD1    C2 3678   0.760   1.701  15.016  0.4442  0.4525 -0.2078
  239MPD1    C3 3679   0.741   1.838  15.017 -0.1235  0.2349  0.2158
  239MPD1    C4 3680   0.726   1.902  15.140 -0.8293 -0.4307 -0.2235
  239MPD1    C5 3681   0.754   1.829  15.256 -0.5628 -0.7726 -0.5561
  239MPD1     H 3682   0.751   1.649  14.922 -1.1494 -2.0550  1.3467
  239MPD1    H1 3683   0.714   2.009  15.154  0.8801 -0.2580 -0.0611
  239MPD1    H2 3684   0.783   1.647  15.352  1.8509  2.4356  0.9528
  239MPD1    H3 3685   0.754   1.879  15.352 -1.3889  0.1391 -1.0380
  239MPD1     N 3686   0.731   1.917  14.901  0.5396  0.6962 -0.0160
  239MPD1    H5 3687   0.726   2.017  14.915  0.4413  0.8174 -0.9522
  239MPD1    N1 3688   0.770   1.489  15.137  0.1219 -0.8242 -0.3628
  239MPD1    H6 3689   0.794   1.438  15.053  0.6928  0.2062 -0.8200
  239MPD1    H7 3690   0.817   1.451  15.219  0.1842 -1.5793 -0.7478
  240MPD1     C 3691   4.344   2.540  14.103  0.4877 -0.8799  0.3616
  240MPD1    C1 3692   4.334   2.440  14.208  0.6648 -0.0727 -0.3555
  240MPD1    C2 3693   4.407   2.325  14.194 -0.1480 -0.4668  0.2871
  240MPD1    C3 3694   4.505   2.313  14.087 -0.1999  0.1493  0.3557
  240MPD1    C4 3695   4.509   2.419  13.987 -0.0225  0.2234  0.0302
  240MPD1    C5 3696   4.434   2.537  14.000 -0.5186 -0.3300  0.2766
  240MPD1     H 3697   4.394   2.249  14.270 -2.9727  0.2357  0.5096
  240MPD1    H1 3698   4.576   2.412  13.902 -1.2412 -1.0677 -0.8205
  240MPD1    H2 3699   4.272   2.621  14.105  0.3390 -0.9773 -1.8796
  240MPD1    H3 3700   4.427   2.601  13.913 -1.2939 -0.4539  0.2502
  240MPD1     N 3701   4.598   2.213  14.077 -0.6385 -0.2508  0.1949
  240MPD1    H5 3702   4.560   2.151  14.147  2.0997 -0.6130  1.3806
  240MPD1    N1 3703   4.246   2.456  14.314 -0.5865  0.3730 -0.1456
  240MPD1    H6 3704   4.241   2.398  14.398 -0.1749  0.9679  0.2866
  240MPD1    H7 3705   4.212   2.550  14.334  0.7042  0.6370  0.8440
  241MPD1     C 3706   0.375   1.838  13.325  0.2375  0.2390 -0.6001
  241MPD1    C1 3707   0.416   1.759  13.430  0.3951  0.3194  0.1212
  241MPD1    C2 3708   0.375   1.792  13.558  1.2795 -0.2883  0.0814
  241MPD1    C3 3709   0.302   1.909  13.576 -0.2624 -0.0367 -0.0505
  241MPD1    C4 3710   0.275   1.991  13.467 -1.0036 -0.1548  0.7411
  241MPD1    C5 3711   0.319   1.957  13.347  0.3588  0.9353 -0.9736
  241MPD1     H 3712   0.394   1.721  13.637 -1.5279  0.9924  1.9196
  241MPD1    H1 3713   0.219   2.084  13.471  0.4202  0.6251  3.0274
  241MPD1    H2 3714   0.384   1.803  13.223 -0.1869 -4.3310  0.9467
  241MPD1    H3 3715   0.287   2.011  13.259 -0.6727 -1.8471 -2.3112
  241MPD1     N 3716   0.259   1.954  13.699  0.2294 -0.6576  0.4919
  241MPD1    H5 3717   0.209   2.042  13.701 -1.6908 -1.7179 -0.3630
  241MPD1    N1 3718   0.464   1.632  13.399 -0.1983  0.3879  0.2226
  241MPD1    H6 3719   0.509   1.578  13.472 -1.0316 -1.2157 -0.4676
  241MPD1    H7 3720   0.525   1.640  13.318  1.1269  2.9542  1.4644
  242MPD1     C 3721   0.126   4.117  16.077 -0.1431  0.0478 -0.3819
  242MPD1    C1 3722   0.262   4.128  16.079  0.0121 -0.8211  0.2154
  242MPD1    C2 3723   0.326   4.183  15.976  0.5914  0.1092 -0.3843
  242MPD1    C3 3724   0.261   4.235  15.869  0.8210  0.3270  0.6299
  242MPD1    C4 3725   0.124   4.213  15.855 -0.3215 -0.0115  0.2072
  242MPD1    C5 3726   0.064   4.159  15.962 -0.0069  0.4257 -0.5140
  242MPD1     H 3727   0.434   4.195  15.973  0.7341 -1.2999 -0.9012
  242MPD1    H1 3728   0.071   4.231  15.761 -0.3737 -1.4515 -0.0325
  242MPD1    H2 3729   0.063   4.071  16.152  0.0229 -1.7331 -1.3459
  242MPD1    H3 3730   4.699   4.138  15.959  0.5463 -2.2837 -1.0496
  242MPD1     N 3731   0.331   4.294  15.760  0.2081  0.0879  0.0999
  242MPD1    H5 3732   0.274   4.310  15.677 -1.2010 -2.2234  0.6208
  242MPD1    N1 3733   0.331   4.077  16.187 -0.0784 -0.4210 -0.4588
  242MPD1    H6 3734   0.427   4.053  16.166  0.1742  1.6912 -1.7454
  242MPD1    H7 3735   0.282   4.015  16.252  1.2373 -0.3855  0.5593
  243MPD1     C 3736   1.498   3.523   0.033 -0.1005 -0.2423 -0.3778
  243MPD1    C1 3737   1.608   3.441   0.026  0.0428 -0.2041 -0.2728
  243MPD1    C2 3738   1.579   3.305   0.010  0.1200 -0.0689 -0.3681
  243MPD1    C3 3739   1.454   3.253  17.751 -0.3020 -0.3076 -0.0185
  243MPD1    C4 3740   1.345   3.344  17.756 -0.1791 -1.0161  0.8503
  243MPD1    C5 3741   1.367   3.478   0.023 -0.5262 -0.3282  0.5066
  243MPD1     H 3742   1.665   3.240   0.022  0.1544 -0.4124 -2.4225
  243MPD1    H1 3743   1.242   3.315  17.744 -0.7353  1.8735 -1.4236
  243MPD1    H2 3744   1.517   3.629   0.045 -1.3286 -0.3567  2.6461
  243MPD1    H3 3745   1.286   3.549   0.011  2.6228  2.9464 -1.5414
  243MPD1     N 3746   1.441   3.112  17.739  0.5157 -0.2198 -0.1051
  243MPD1    H5 3747   1.529   3.061  17.738 -0.1050 -1.3046  1.0910
  243MPD1    N1 3748   1.736   3.477   0.068  0.6709  0.4492 -0.5402
  243MPD1    H6 3749   1.763   3.575   0.055 -0.9990  0.8042 -1.5048
  243MPD1    H7 3750   1.811   3.417   0.037  0.1843 -0.4960  0.1291
  244MPD1     C 3751   1.266   2.450   0.621  0.0630  0.8090  0.3680
  244MPD1    C1 3752   1.238   2.581   0.609  0.1728 -0.2630 -0.4096
  244MPD1    C2 3753   1.284   2.641   0.494 -0.6847  0.8241 -0.2861
  244MPD1    C3 3754   1.324   2.577   0.385 -0.3364 -0.0973  0.6888
  244MPD1    C4 3755   1.346   2.442   0.399  0.1868 -0.8316  0.1048
  244MPD1    C5 3756   1.309   2.379   0.515  1.2910 -0.5440  0.4387
  244MPD1     H 3757   1.264   2.746   0.473 -2.5095  0.5674  0.1167
  244MPD1    H1 3758   1.390   2.395   0.311 -1.4855 -0.2497 -1.0481
  244MPD1    H2 3759   1.257   2.399   0.716  0.0846 -0.5895 -0.3785
  244MPD1    H3 3760   1.331   2.273   0.524  0.7810 -0.7250 -0.3987
  244MPD1     N 3761   1.355   2.647   0.266 -0.1302 -0.1744 -0.6160
  244MPD1    H5 3762   1.357   2.749   0.271  0.5739 -0.2963  1.5744
  244MPD1    N1 3763   1.182   2.645   0.723 -0.0280  0.4137 -0.4773
  244MPD1    H6 3764   1.132   2.729   0.693  0.2075  0.9011  0.5013
  244MPD1    H7 3765   1.105   2.584   0.749 -0.2046 -0.7103 -3.6054
  245MPD1     C 3766   3.726   3.330  14.016 -0.5850  0.6690 -0.7500
  245MPD1    C1 3767   3.659   3.445  14.075 -0.1299 -0.1587 -0.4162
  245MPD1    C2 3768   3.707   3.568  14.051  0.3023  0.1582 -0.5919
  245MPD1    C3 3769   3.810   3.588  13.957  0.5467 -0.6648 -0.0460
  245MPD1    C4 3770   3.875   3.480  13.901 -0.4675 -0.6012  0.5115
  245MPD1    C5 3771   3.829   3.353  13.932 -0.1410  0.0461  0.4633
  245MPD1     H 3772   3.655   3.650  14.101 -1.4551 -2.3662  1.7157
  245MPD1    H1 3773   3.956   3.476  13.829 -0.6303 -0.7061  0.3331
  245MPD1    H2 3774   3.679   3.232  14.020  0.8653 -0.0015 -0.1466
  245MPD1    H3 3775   3.885   3.267  13.896  1.4111  1.5893 -0.8273
  245MPD1     N 3776   3.849   3.720  13.936  0.2567  0.1891  0.1359
  245MPD1    H5 3777   3.805   3.792  13.992 -0.4826 -0.2254  0.0770
  245MPD1    N1 3778   3.550   3.418  14.159  0.3817 -0.1227  0.0010
  245MPD1    H6 3779   3.541   3.503  14.214  0.6497  0.4858 -0.8915
  245MPD1    H7 3780   3.579   3.352  14.230 -0.0554  0.4319  0.6994
  246MPD1     C 3781   3.477   0.624   9.417  0.3698 -0.5926  0.4860
  246MPD1    C1 3782   3.528   0.501   9.444 -0.1180  0.1447  0.1181
  246MPD1    C2 3783   3.487   0.393   9.370  0.0187 -0.3564 -0.3973
  246MPD1    C3 3784   3.378   0.405   9.284  0.2806 -0.8186 -0.6436
  246MPD1    C4 3785   3.328   0.525   9.262 -0.7218  0.6703 -0.3584
  246MPD1    C5 3786   3.376   0.632   9.323  0.1946 -0.2158 -0.2822
  246MPD1     H 3787   3.537   0.297   9.375  1.1479  0.2081 -1.0179
  246MPD1    H1 3788   3.265   0.542   9.175  3.0243 -0.0742 -3.2403
  246MPD1    H2 3789   3.532   0.711   9.452 -1.1617  0.1707  1.0076
  246MPD1    H3 3790   3.364   0.730   9.278 -2.3175 -0.3334  0.1577
  246MPD1     N 3791   3.333   0.282   9.225  0.2033 -0.4257  0.6509
  246MPD1    H5 3792   3.379   0.194   9.245  0.4674 -0.9239 -2.2689
  246MPD1    N1 3793   3.640   0.483   9.525  0.2301 -0.7000  0.1970
  246MPD1    H6 3794   3.643   0.563   9.587 -1.2490  0.6770 -1.4997
  246MPD1    H7 3795   3.638   0.401   9.585 -0.8981 -1.0686 -0.3297
  247MPD1     C 3796   2.723   0.934  15.210  1.1034 -0.3512  0.4946
  247MPD1    C1 3797   2.853   0.886  15.185  0.4951 -0.3497 -0.2866
  247MPD1    C2 3798   2.888   0.759  15.232  0.5502 -0.8398 -0.6597
  247MPD1    C3 3799   2.797   0.679  15.300 -0.3051 -0.5604 -0.2702
  247MPD1    C4 3800   2.671   0.727  15.331 -0.1256 -0.2204  0.4145
  247MPD1    C5 3801   2.634   0.855  15.287  0.3420  0.1191  1.3205
  247MPD1     H 3802   2.990   0.730  15.212  0.5436 -0.2534 -1.5468
  247MPD1    H1 3803   2.598   0.674  15.391  0.7838 -1.0016  0.8281
  247MPD1    H2 3804   2.693   1.036  15.192  0.3584 -0.1574  2.8888
  247MPD1    H3 3805   2.537   0.895  15.311 -0.5914 -1.0176 -0.5594
  247MPD1     N 3806   2.828   0.544  15.340  0.0521  0.6036 -1.0030
  247MPD1    H5 3807   2.759   0.498  15.399 -0.6102 -1.6460 -3.5380
  247MPD1    N1 3808   2.933   0.963  15.099 -0.1178 -0.1073  0.2115
  247MPD1    H6 3809   2.917   1.062  15.117  1.3117  0.7541 -3.2776
  247MPD1    H7 3810   3.032   0.958  15.121 -0.1482  0.2687  0.4393
  248MPD1     C 3811   3.433   2.039   0.086  0.6605 -0.0889 -0.4495
  248MPD1    C1 3812   3.513   2.089   0.194 -1.1020  0.4189  0.1741
  248MPD1    C2 3813   3.493   2.225   0.233 -0.9617 -0.4755 -0.1491
  248MPD1    C3 3814   3.392   2.304   0.184  0.1608  0.6087 -0.0425
  248MPD1    C4 3815   3.304   2.245   0.092  0.3663  0.2434  0.0790
  248MPD1    C5 3816   3.325   2.117   0.044  0.6228  0.5736 -0.0338
  248MPD1     H 3817   3.558   2.273   0.305  0.0457 -1.3363 -0.4790
  248MPD1    H1 3818   3.222   2.305   0.055  1.9124  1.3524 -1.5202
  248MPD1    H2 3819   3.428   1.933   0.062  2.2054 -0.1373 -0.5422
  248MPD1    H3 3820   3.266   2.076  17.725  0.6884  0.7799 -0.1854
  248MPD1     N 3821   3.376   2.438   0.241  0.3664 -0.3563 -0.3218
  248MPD1    H5 3822   3.430   2.463   0.324  0.5818 -1.8293 -0.0170
  248MPD1    N1 3823   3.634   2.023   0.230  0.0532  0.3376 -0.1677
  248MPD1    H6 3824   3.642   2.024   0.332  0.7884 -0.2974 -0.2161
  248MPD1    H7 3825   3.626   1.923   0.212  0.1422  0.7103 -2.2854
  249MPD1     C 3826   4.264   1.418  10.196 -0.0500  0.3029  0.6430
  249MPD1    C1 3827   4.274   1.556  10.213  0.4121  0.0757 -0.2759
  249MPD1    C2 3828   4.386   1.613  10.279 -0.5441 -0.1625 -0.3353
  249MPD1    C3 3829   4.471   1.531  10.356  0.0197 -0.1247  0.1474
  249MPD1    C4 3830   4.458   1.391  10.344 -0.0619  0.1019 -0.0153
  249MPD1    C5 3831   4.356   1.342  10.264  0.1708  0.4029 -0.5820
  249MPD1     H 3832   4.397   1.721  10.274 -1.6369  0.0061  0.9152
  249MPD1    H1 3833   4.534   1.328  10.389 -0.4765  0.4432  1.1565
  249MPD1    H2 3834   4.207   1.366  10.120 -2.1734  0.6415  2.0043
  249MPD1    H3 3835   4.352   1.239  10.231  0.8485 -0.5120  2.1967
  249MPD1     N 3836   4.572   1.597  10.425  0.3014  0.1702  0.4220
  249MPD1    H5 3837   4.585   1.693  10.394 -1.2795 -0.2271 -1.4605
  249MPD1    N1 3838   4.200   1.630  10.122  0.2734 -0.1948  0.2094
  249MPD1    H6 3839   4.110   1.586  10.106  1.2997 -1.8585 -0.9850
  249MPD1    H7 3840   4.186   1.728  10.143  1.4566 -0.0588  0.3598
  250MPD2     C 3841   2.172   2.627  13.077  0.2119  0.7684 -0.1691
  250MPD2    C1 3842   2.096   2.737  13.107  0.6971  0.4946  0.3587
  250MPD2    C2 3843   1.961   2.735  13.072 -0.9493  1.0077  0.0570
  250MPD2    C3 3844   1.898   2.628  13.010  0.0804 -0.3318 -0.1463
  250MPD2    C4 3845   1.972   2.516  12.988 -0.2380 -0.1163  0.7673
  250MPD2    C5 3846   2.108   2.526  13.016  0.4654  0.0448  0.9242
  250MPD2     H 3847   1.909   2.830  13.084 -0.6387  1.2949 -0.8930
  250MPD2    H1 3848   1.930   2.435  12.930 -1.3331 -0.7078  2.3646
  250MPD2    H2 3849   2.279   2.620  13.085  0.3592 -1.6594 -3.9792
  250MPD2    H3 3850   2.172   2.443  12.990  1.2368  0.8539  0.2675
  250MPD2     N 3851   1.759   2.626  12.966 -0.2844 -0.0787  0.4706
  250MPD2    H5 3852   1.738   2.534  12.929 -1.6037  0.4414 -0.0947
  250MPD2    N1 3853   2.157   2.853  13.161  0.1043 -0.0843  0.0983
  250MPD2    H7 3854   2.258   2.850  13.163  0.1418  0.4035 -0.9602
  251TMC3    C1 3855   2.202   3.083  13.230  0.3589  0.7568 -0.6346
  251TMC3    C2 3856   2.163   3.211  13.212  0.0283 -0.1780  0.1411
  251TMC3    C3 3857   2.193   3.307  13.298  0.2392 -0.6298  0.2877
  251TMC3    C4 3858   2.273   3.048  13.339 -0.2732 -0.4423  0.2668
  251TMC3    C5 3859   2.308   3.146  13.431 -0.2120 -0.1654 -0.2240
  251TMC3    C6 3860   2.268   3.281  13.405 -0.0052  0.3036 -0.0896
  251TMC3     C 3861   2.103   2.980  13.189  0.4553  0.0578  0.0109
  251TMC3     O 3862   1.989   3.023  13.179 -0.2265 -0.0334 -0.5317
  251TMC3     H 3863   2.100   3.237  13.127  1.2528 -0.8588 -0.9691
  251TMC3    H1 3864   2.318   2.950  13.342  2.8614  0.9560 -1.7750
  251TMC3    H2 3865   2.294   3.357  13.478  0.7596 -0.2070  0.1671
  251TMC3    C7 3866   2.332   3.098  13.558 -0.8970 -0.1369 -0.5463
  251TMC3    C8 3867   2.092   3.394  13.340 -0.3146 -0.5071 -0.3832
  251TMC3    O1 3868   2.309   2.979  13.580 -0.7166  0.2363  0.2625
  251TMC3    O2 3869   2.131   3.504  13.374  0.3318  0.3764 -0.2014
  252TMC3    C1 3870   1.990   3.395   9.290  0.3332 -0.2092 -0.2460
  252TMC3    C2 3871   2.120   3.375   9.331  0.2629 -0.1031  0.6604
  252TMC3    C3 3872   2.144   3.373   9.470  0.2148  0.2642 -0.0334
  252TMC3    C4 3873   1.893   3.437   9.379  0.0553  0.2256  0.0473
  252TMC3    C5 3874   1.922   3.439   9.507 -0.2086  0.2191 -0.1394
  252TMC3    C6 3875   2.045   3.404   9.563 -0.6574 -0.4812 -0.7150
  252TMC3     C 3876   1.941   3.343   9.169 -0.1397 -0.2097 -0.8877
  252TMC3     O 3877   1.822   3.311   9.158  0.0305  0.1738  0.0167
  252TMC3     H 3878   2.198   3.337   9.266 -0.0489 -1.0710  0.8578
  252TMC3    H1 3879   1.787   3.445   9.355  0.2237  0.5069 -0.6075
  252TMC3    H2 3880   2.061   3.428   9.667 -0.2494 -3.0566 -0.1936
  252TMC3    C7 3881   1.811   3.451   9.602  0.1627 -0.4002  0.2319
  252TMC3    C8 3882   2.288   3.382   9.512 -0.5962  0.4616  0.3690
  252TMC3    O1 3883   1.725   3.532   9.574 -0.3814  0.1800  0.3919
  252TMC3    O2 3884   2.360   3.418   9.421 -0.4381 -0.2395 -0.3729
  253MPD2     C 3885   3.463   2.529  15.381 -0.5668  0.1598  0.8097
  253MPD2    C1 3886   3.343   2.473  15.344  0.6241  0.2182 -0.4358
  253MPD2    C2 3887   3.286   2.365  15.418 -0.7028  0.3196 -0.4422
  253MPD2    C3 3888   3.344   2.331  15.535 -0.4509 -0.6294 -0.3336
  253MPD2    C4 3889   3.471   2.387  15.568 -0.2300  0.0406  0.2721
  253MPD2    C5 3890   3.538   2.478  15.486  0.0219  0.4322  0.2115
  253MPD2     H 3891   3.199   2.316  15.378 -1.5899 -0.3320  2.2615
  253MPD2    H1 3892   3.530   2.349  15.651 -0.4372 -1.7066 -0.3801
  253MPD2    H2 3893   3.491   2.622  15.332 -0.9079 -0.1231  0.0745
  253MPD2    H3 3894   3.640   2.503  15.516  0.0516  0.3739  0.1598
  253MPD2     N 3895   3.272   2.247  15.624  0.2363 -0.7931  0.0064
  253MPD2    H5 3896   3.323   2.213  15.705  2.4514  1.3324 -0.4843
  253MPD2    N1 3897   3.278   2.512  15.223  0.8365  0.4175  0.6974
  253MPD2    H7 3898   3.190   2.468  15.197 -0.2454  1.1090  3.1530
  254TMC3    C1 3899   3.084   2.184  15.746  0.4958 -0.1081 -0.1255
  254TMC3    C2 3900   2.958   2.234  15.783  0.1925  0.4921  0.4014
  254TMC3    C3 3901   2.911   2.198  15.904 -0.0327 -0.0317 -0.0321
  254TMC3    C4 3902   3.153   2.096  15.822 -0.5382 -0.2331  0.2360
  254TMC3    C5 3903   3.099   2.063  15.940 -0.2958  0.0238 -0.4128
  254TMC3    C6 3904   2.980   2.105  15.985  0.4005 -0.7797  0.2732
  254TMC3     C 3905   3.134   2.237  15.622 -0.0106  0.7449  0.8472
  254TMC3     O 3906   3.047   2.288  15.552 -0.0932  0.1320  0.1634
  254TMC3     H 3907   2.900   2.311  15.735 -0.8720 -0.1678  0.6339
  254TMC3    H1 3908   3.242   2.043  15.789 -0.0777 -0.3876  1.7101
  254TMC3    H2 3909   2.948   2.080  16.085 -1.1011 -0.7251 -0.1928
  254TMC3    C7 3910   3.193   2.015  16.041  0.8504  0.2223 -0.0992
  254TMC3    C8 3911   2.802   2.269  15.965 -0.2735  0.7040  0.4746
  254TMC3    O1 3912   3.140   1.957  16.134  0.0684 -0.2254  0.2989
  254TMC3    O2 3913   2.712   2.204  16.011  0.1212  0.1338  0.3720
  255MPD2     C 3914   1.102   4.188  10.598  0.5224 -0.1942 -0.2894
  255MPD2    C1 3915   1.232   4.235  10.597  0.0159  0.2576 -0.0758
  255MPD2    C2 3916   1.336   4.147  10.595  0.1084  0.3208 -0.0848
  255MPD2    C3 3917   1.310   4.007  10.587 -0.3191 -0.1922 -0.1439
  255MPD2    C4 3918   1.176   3.963  10.598 -0.0001 -0.6641  0.4866
  255MPD2    C5 3919   1.075   4.057  10.605 -0.3153  0.2137  0.2309
  255MPD2     H 3920   1.440   4.177  10.598  0.7879 -1.8276 -2.5593
  255MPD2    H1 3921   1.159   3.856  10.587  1.0957 -0.8598  0.7308
  255MPD2    H2 3922   1.014   4.251  10.608  0.1013 -0.9802  1.0162
  255MPD2    H3 3923   0.970   4.031  10.607  0.1469 -1.7451 -1.3508
  255MPD2     N 3924   1.415   3.910  10.580 -0.0991 -0.0192  0.2304
  255MPD2    H5 3925   1.381   3.818  10.605  1.0572 -0.7033 -0.7025
  255MPD2    N1 3926   1.252   4.378  10.585  0.8591 -0.0891  0.0047
  255MPD2    H7 3927   1.170   4.437  10.586  0.9153 -0.0408  1.3884
  256TMC3    C1 3928   1.378   4.581  10.576  0.2647 -0.1702  0.6477
  256TMC3    C2 3929   1.483   4.637  10.508 -0.3865  0.3184 -0.2191
  256TMC3    C3 3930   1.502   0.030  10.502 -0.0482 -0.2973  0.1716
  256TMC3    C4 3931   1.284   4.657  10.637 -0.1118 -0.4079  0.0617
  256TMC3    C5 3932   1.305   0.050  10.636  0.2784  0.7745  0.0420
  256TMC3    C6 3933   1.408   0.112  10.569 -0.2342  1.3783  0.0748
  256TMC3     C 3934   1.379   4.439  10.587  0.1294  0.4966 -0.0356
  256TMC3     O 3935   1.486   4.383  10.572 -0.3693 -0.1110 -0.4122
  256TMC3     H 3936   1.539   4.574  10.440 -0.1631  0.7817 -0.4651
  256TMC3    H1 3937   1.204   4.610  10.693  0.8663 -1.2545  0.7358
  256TMC3    H2 3938   1.410   0.220  10.570 -2.5361  1.3993  2.0968
  256TMC3    C7 3939   1.197   0.132  10.686  0.7716 -0.3681 -0.0099
  256TMC3    C8 3940   1.603   0.081  10.406 -0.4664 -1.0595  0.0526
  256TMC3    O1 3941   1.091   0.107  10.629 -0.3019  0.4925  0.0415
  256TMC3    O2 3942   1.659   4.736  10.339 -0.0890 -0.5592 -0.2932
  257MPD2     C 3943   0.247   2.604  13.682 -0.3849  0.2817  0.0691
  257MPD2    C1 3944   0.352   2.575  13.594  0.1625 -0.2329 -0.1422
  257MPD2    C2 3945   0.417   2.452  13.609 -0.4552 -0.4499  1.0594
  257MPD2    C3 3946   0.388   2.368  13.715  0.0031  0.4034 -0.4561
  257MPD2    C4 3947   0.293   2.410  13.805  0.1048 -0.4971  0.0908
  257MPD2    C5 3948   0.223   2.523  13.788 -0.6254 -0.1551  0.0185
  257MPD2     H 3949   0.495   2.427  13.538 -0.6550  0.7099  0.4314
  257MPD2    H1 3950   0.273   2.342  13.886 -1.6176 -0.0371  0.0542
  257MPD2    H2 3951   0.181   2.690  13.683  0.5916  0.9990  3.1132
  257MPD2    H3 3952   0.136   2.543  13.849 -0.2426  0.7887  0.2567
  257MPD2     N 3953   0.448   2.244  13.736 -0.1126  0.5455  0.2667
  257MPD2    H5 3954   0.444   2.195  13.825 -2.0286  0.2682  0.0396
  257MPD2    N1 3955   0.371   2.667  13.489  0.3475  0.1476 -0.0440
  257MPD2    H7 3956   0.302   2.741  13.476  0.9483  0.4471 -1.5318
  258TMC3    C1 3957   0.605   2.075  13.696 -0.5310 -0.1085 -0.5011
  258TMC3    C2 3958   0.680   2.007  13.608 -0.0775 -0.7385  0.5111
  258TMC3    C3 3959   0.738   1.887  13.647 -0.1147  0.0668  0.1364
  258TMC3    C4 3960   0.595   2.026  13.827  0.5048 -0.7177 -0.7870
  258TMC3    C5 3961   0.662   1.912  13.862 -0.5010  0.0065  0.2173
  258TMC3    C6 3962   0.738   1.841  13.773 -0.1058  0.3438 -0.6093
  258TMC3     C 3963   0.527   2.182  13.644  0.1428 -0.2190  0.3803
  258TMC3     O 3964   0.536   2.207  13.524  0.2206  0.0171  0.1734
  258TMC3     H 3965   0.688   2.052  13.509  0.6737 -3.4910 -0.6734
  258TMC3    H1 3966   0.550   2.094  13.899  0.1809 -3.6120  1.7616
  258TMC3    H2 3967   0.777   1.743  13.796 -1.6643 -0.5318 -1.7530
  258TMC3    C7 3968   0.630   1.857  13.991  0.0339 -0.5266  0.1572
  258TMC3    C8 3969   0.785   1.799  13.540 -0.5584  0.3013 -0.3981
  258TMC3    O1 3970   0.524   1.874  14.047 -0.2810 -0.5442  0.1261
  258TMC3    O2 3971   0.867   1.719  13.572  0.1636  0.4849 -0.3990
  259MPD2     C 3972   3.485   3.985   0.872 -0.4002  0.6875  0.8464
  259MPD2    C1 3973   3.501   3.853   0.893  0.0456 -0.3005 -0.6286
  259MPD2    C2 3974   3.619   3.794   0.860  0.4912  0.0543 -0.1491
  259MPD2    C3 3975   3.708   3.873   0.791 -0.2154  0.7157  0.0536
  259MPD2    C4 3976   3.693   4.009   0.771 -0.0559 -0.0317 -0.3562
  259MPD2    C5 3977   3.579   4.061   0.816 -0.3796 -0.0861 -0.1596
  259MPD2     H 3978   3.631   3.686   0.859 -0.5189 -0.0557 -1.0130
  259MPD2    H1 3979   3.764   4.077   0.725 -0.4332  1.4784  1.3120
  259MPD2    H2 3980   3.390   4.037   0.883 -0.4182  0.4544  1.8241
  259MPD2    H3 3981   3.568   4.167   0.796 -0.6247  0.1528  1.2013
  259MPD2     N 3982   3.827   3.803   0.746 -0.5852  0.9167  0.1427
  259MPD2    H5 3983   3.843   3.705   0.768 -1.1328  0.6828 -0.5060
  259MPD2    N1 3984   3.384   3.782   0.933  0.1455  0.3849 -0.1954
  259MPD2    H7 3985   3.294   3.827   0.947 -0.6692 -0.8582 -1.4059
  260TMC3    C1 3986   4.016   3.766   0.608 -0.6146  0.3532  0.0588
  260TMC3    C2 3987   4.121   3.825   0.534  0.4019 -0.4152  0.4757
  260TMC3    C3 3988   4.191   3.741   0.456  0.4325 -0.2965 -0.3221
  260TMC3    C4 3989   3.979   3.636   0.595  0.1358  0.6152  0.3894
  260TMC3    C5 3990   4.048   3.562   0.502  0.1328 -0.8194  0.6661
  260TMC3    C6 3991   4.153   3.612   0.430 -0.3257  0.5112 -0.0375
  260TMC3     C 3992   3.916   3.854   0.658 -0.5285 -0.0437  0.6082
  260TMC3     O 3993   3.907   3.961   0.603  0.1553 -0.0807  0.4764
  260TMC3     H 3994   4.152   3.928   0.550  1.2005 -0.7143  0.8514
  260TMC3    H1 3995   3.897   3.590   0.649  0.7985 -1.4446 -0.3856
  260TMC3    H2 3996   4.201   3.552   0.353  0.5175  1.3549 -0.1573
  260TMC3    C7 3997   4.018   3.420   0.469  0.2446 -0.5885 -0.6189
  260TMC3    C8 3998   4.288   3.806   0.370 -0.9128 -0.2296 -0.5719
  260TMC3    O1 3999   4.123   3.358   0.466  0.4296 -0.2191 -0.5575
  260TMC3    O2 4000   4.279   3.930   0.373  0.2023 -0.2097 -0.3768
  261MPD2     C 4001   1.349   2.184  12.560  0.5170  0.1514  0.1281
  261MPD2    C1 4002   1.385   2.313  12.527 -0.0824  0.7405 -0.2873
  261MPD2    C2 4003   1.423   2.349  12.394  0.1353  0.6471  0.1308
  261MPD2    C3 4004   1.406   2.248  12.303  0.5856 -0.9136 -0.1543
  261MPD2    C4 4005   1.342   2.130  12.335 -0.0212  0.1866  0.7826
  261MPD2    C5 4006   1.321   2.094  12.463 -0.3394 -0.0034 -0.3658
  261MPD2     H 4007   1.456   2.450  12.374  0.3739 -0.3092 -4.3011
  261MPD2    H1 4008   1.316   2.062  12.255 -1.2252  0.0635  1.2875
  261MPD2    H2 4009   1.338   2.154  12.664  2.0093  2.3402  0.9275
  261MPD2    H3 4010   1.286   1.997  12.498  0.0081 -0.1074 -0.3045
  261MPD2     N 4011   1.434   2.275  12.165  0.0558 -0.6721  0.0008
  261MPD2    H5 4012   1.464   2.370  12.144 -0.9459 -0.2439  0.4911
  261MPD2    N1 4013   1.404   2.415  12.629 -0.2162 -0.0480  0.2055
  261MPD2    H7 4014   1.456   2.496  12.595 -0.6214  0.5566  1.0179
  262TMC3    C1 4015   1.474   2.254  11.932 -0.0422  0.0596  0.6891
  262TMC3    C2 4016   1.455   2.391  11.906  0.0145 -0.2654 -0.6787
  262TMC3    C3 4017   1.516   2.442  11.791 -0.1841  0.9044 -0.4841
  262TMC3    C4 4018   1.580   2.190  11.878  0.9083 -0.0422  0.1387
  262TMC3    C5 4019   1.659   2.257  11.788  0.4383 -0.2402 -0.5021
  262TMC3    C6 4020   1.620   2.372  11.734 -0.0846 -0.3765 -0.0424
  262TMC3     C 4021   1.438   2.186  12.059 -0.1515 -0.9900  0.1004
  262TMC3     O 4022   1.430   2.064  12.049  0.2203  0.3309  0.6207
  262TMC3     H 4023   1.385   2.449  11.966 -0.6814  0.3403 -2.0722
  262TMC3    H1 4024   1.610   2.090  11.908  1.1764 -0.0916 -0.3054
  262TMC3    H2 4025   1.681   2.432  11.668 -1.7083 -0.1871 -1.3629
  262TMC3    C7 4026   1.783   2.193  11.750 -0.1046  0.1606 -0.0373
  262TMC3    C8 4027   1.500   2.577  11.754  0.7438 -0.0913 -0.3335
  262TMC3    O1 4028   1.784   2.072  11.761  0.5836 -0.0279  0.0863
  262TMC3    O2 4029   1.593   2.643  11.702 -0.1602  0.0555 -0.0179
  263MPD2     C 4030   2.187   1.152  11.827 -0.9252 -0.0972 -0.2859
  263MPD2    C1 4031   2.283   1.221  11.773 -0.3429 -0.1245  0.3841
  263MPD2    C2 4032   2.244   1.301  11.662 -0.4946  1.0193  0.7457
  263MPD2    C3 4033   2.117   1.291  11.611  0.0051  0.2851 -0.6302
  263MPD2    C4 4034   2.026   1.208  11.670  0.5734  0.2665 -0.0658
  263MPD2    C5 4035   2.063   1.139  11.780 -0.2194  0.0458 -0.3351
  263MPD2     H 4036   2.314   1.371  11.618  1.5065 -0.7910  1.0630
  263MPD2    H1 4037   1.928   1.189  11.629  1.6456 -4.8480 -0.1936
  263MPD2    H2 4038   2.210   1.105  11.922 -1.3589  0.6494  0.1949
  263MPD2    H3 4039   1.997   1.074  11.836 -1.4157  2.2018  0.7742
  263MPD2     N 4040   2.080   1.376  11.502 -0.4014 -0.4259 -0.5840
  263MPD2    H5 4041   2.144   1.452  11.479 -0.5368 -0.8357 -2.3165
  263MPD2    N1 4042   2.414   1.216  11.828  0.8533 -0.0464 -0.3263
  263MPD2    H7 4043   2.415   1.164  11.915 -0.8101  1.8300  0.8070
  264TMC3    C1 4044   1.943   1.477  11.338  0.2024 -0.0680  0.1963
  264TMC3    C2 4045   1.813   1.497  11.298 -0.3747  0.0982 -0.3335
  264TMC3    C3 4046   1.794   1.534  11.171 -0.6028  0.7259  0.1523
  264TMC3    C4 4047   2.055   1.513  11.260  0.4539 -0.4311  0.0753
  264TMC3    C5 4048   2.024   1.539  11.130 -0.3785 -0.0666  0.1376
  264TMC3    C6 4049   1.894   1.541  11.081 -0.4224  0.3951  0.6214
  264TMC3     C 4050   1.959   1.381  11.436 -0.0005  0.6369  0.8003
  264TMC3     O 4051   1.855   1.318  11.461  0.5966  0.4893 -0.2776
  264TMC3     H 4052   1.723   1.466  11.350 -1.8048  2.4629 -1.3766
  264TMC3    H1 4053   2.160   1.501  11.285  0.8600 -0.5599 -1.6893
  264TMC3    H2 4054   1.893   1.591  10.985  3.8778  0.3483  0.5223
  264TMC3    C7 4055   2.121   1.618  11.059  1.0016 -0.1885  0.0357
  264TMC3    C8 4056   1.708   1.651  11.144  0.4504  0.3461 -0.4704
  264TMC3    O1 4057   2.138   1.592  10.940  0.3366 -0.5222 -0.0522
  264TMC3    O2 4058   1.686   1.702  11.035  0.1868  0.1287 -0.1361
  265MPD2     C 4059   4.298   1.949  15.823  0.0027  0.0538 -0.1234
  265MPD2    C1 4060   4.334   2.065  15.755 -0.0149  0.3295  0.0900
  265MPD2    C2 4061   4.388   2.065  15.628  0.3146  0.1855  0.1042
  265MPD2    C3 4062   4.420   1.941  15.575  0.3033  1.0036  0.1038
  265MPD2    C4 4063   4.412   1.830  15.655  0.4306  0.7097 -0.3430
  265MPD2    C5 4064   4.340   1.829  15.769 -0.5086  0.5424 -0.1326
  265MPD2     H 4065   4.387   2.152  15.563 -1.1017  1.5464  1.9757
  265MPD2    H1 4066   4.445   1.741  15.604 -1.4542  0.2095 -0.6734
  265MPD2    H2 4067   4.259   1.933  15.923 -1.0022 -2.3246 -0.8904
  265MPD2    H3 4068   4.329   1.740  15.830  0.5098 -0.5665 -1.5549
  265MPD2     N 4069   4.470   1.922  15.439  0.1500 -0.1722 -0.2918
  265MPD2    H5 4070   4.481   1.826  15.409 -1.2430  0.1121 -1.6620
  265MPD2    N1 4071   4.294   2.184  15.810 -0.0205  0.2616  0.5641
  265MPD2    H7 4072   4.313   2.268  15.757  1.0966  0.7040  1.6744
  266TMC3    C1 4073   4.219   2.351  15.945  0.2460  0.5138 -0.2165
  266TMC3    C2 4074   4.232   2.409  16.066  0.2451  0.8298  0.3640
  266TMC3    C3 4075   4.205   2.545  16.073  0.3267 -0.1120  0.4197
  266TMC3    C4 4076   4.194   2.425  15.830 -0.3278  0.0142  1.0347
  266TMC3    C5 4077   4.173   2.561  15.840 -0.1117 -0.1141  0.3440
  266TMC3    C6 4078   4.178   2.619  15.964  1.0787 -0.5486 -0.2988
  266TMC3     C 4079   4.230   2.210  15.931 -0.9959  0.3446 -0.7284
  266TMC3     O 4080   4.212   2.135  16.025  0.2728  0.1208  0.1296
  266TMC3     H 4081   4.263   2.345  16.147  1.2350 -1.6824 -2.0134
  266TMC3    H1 4082   4.182   2.375  15.734 -1.8311  0.4927  0.9673
  266TMC3    H2 4083   4.153   2.723  15.977  0.8986 -0.7420  0.9063
  266TMC3    C7 4084   4.102   2.623  15.733  0.1859  0.2598  0.9919
  266TMC3    C8 4085   4.292   2.604  16.174 -0.2718  0.6596  0.1811
  266TMC3    O1 4086   4.047   2.547  15.651 -0.0155  0.0649  0.0185
  266TMC3    O2 4087   4.363   2.516  16.227  0.6937  0.2808 -0.5154
  267MPD2     C 4088   1.223   3.814   0.464  0.2907  0.1253  0.7227
  267MPD2    C1 4089   1.338   3.887   0.450 -0.3879  0.0854  0.8986
  267MPD2    C2 4090   1.372   3.912   0.316  0.1629  0.3162 -0.1108
  267MPD2    C3 4091   1.298   3.863   0.204  0.0762 -0.2670  0.5490
  267MPD2    C4 4092   1.192   3.775   0.223 -0.7630 -0.0600  0.3085
  267MPD2    C5 4093   1.153   3.758   0.358  1.3227 -0.1132  0.2272
  267MPD2     H 4094   1.467   3.962   0.302 -0.4038  1.2310 -0.6430
  267MPD2    H1 4095   1.145   3.726   0.138 -0.0039  0.0466 -0.1721
  267MPD2    H2 4096   1.171   3.795   0.557 -1.5813 -0.8598 -0.5380
  267MPD2    H3 4097   1.069   3.693   0.381  1.3239  0.3757  1.5882
  267MPD2     N 4098   1.329   3.894   0.066  0.2353  0.0182 -0.4852
  267MPD2    H5 4099   1.273   3.845  17.759  0.1628  1.1430 -1.2347
  267MPD2    N1 4100   1.420   3.906   0.567 -0.3962  0.0835  0.5860
  267MPD2    H7 4101   1.401   3.858   0.654  1.5023 -0.1513  0.8687
  268TMC3    C1 4102   1.625   3.962   0.668  0.9241 -0.6127 -0.4620
  268TMC3    C2 4103   1.736   4.042   0.657  0.3178  0.3504  0.2193
  268TMC3    C3 4104   1.862   3.987   0.693  0.7539  0.3353  0.1227
  268TMC3    C4 4105   1.632   3.841   0.731 -0.1096  0.6647  0.2131
  268TMC3    C5 4106   1.751   3.784   0.771 -0.2053 -0.0576  0.6107
  268TMC3    C6 4107   1.864   3.861   0.753  0.8384  0.9324  0.1505
  268TMC3     C 4108   1.537   3.979   0.561  0.3580 -0.8684  0.2660
  268TMC3     O 4109   1.565   4.069   0.480  0.4256 -0.2402  0.1667
  268TMC3     H 4110   1.751   4.128   0.592 -1.0913  0.0008 -0.5808
  268TMC3    H1 4111   1.548   3.772   0.729  1.1355 -0.8250 -0.2788
  268TMC3    H2 4112   1.966   3.825   0.768  0.6021  0.1829 -0.0417
  268TMC3    C7 4113   1.766   3.661   0.851  0.0491  0.1375  1.1775
  268TMC3    C8 4114   1.987   4.062   0.692  0.7079 -0.9225  0.3477
  268TMC3    O1 4115   1.877   3.623   0.880  0.3789 -0.7417  0.0990
  268TMC3    O2 4116   2.057   4.060   0.789 -0.1698 -0.5374  0.4397
  269MPD2     C 4117   2.569   2.566  15.710 -0.9011  0.6787  0.5949
  269MPD2    C1 4118   2.449   2.613  15.760  1.1340  0.3218  0.4220
  269MPD2    C2 4119   2.414   2.744  15.741  0.5150  0.5919 -0.6150
  269MPD2    C3 4120   2.492   2.831  15.665  0.6495  0.4507  0.1382
  269MPD2    C4 4121   2.608   2.786  15.607  0.1675 -0.4397  0.0376
  269MPD2    C5 4122   2.645   2.654  15.633  0.3414 -0.0289  0.2410
  269MPD2     H 4123   2.321   2.780  15.781  1.1759  0.6602  0.8397
  269MPD2    H1 4124   2.689   2.847  15.570 -2.1569  0.7523 -2.9987
  269MPD2    H2 4125   2.597   2.463  15.729 -0.6147  0.4053 -1.2793
  269MPD2    H3 4126   2.745   2.620  15.608  1.2570  1.9822  1.1907
  269MPD2     N 4127   2.450   2.969  15.646  0.2171 -0.0230  0.5352
  269MPD2    H5 4128   2.383   3.003  15.715 -1.4557 -0.9404 -0.6336
  269MPD2    N1 4129   2.362   2.524  15.832 -0.0649  0.2914  0.1550
  269MPD2    H7 4130   2.408   2.443  15.872  1.3901  1.5800  1.1040
  270TMC3    C1 4131   2.178   2.442  15.940 -0.2793 -0.6417  0.2534
  270TMC3    C2 4132   2.048   2.416  15.904  0.0414  0.0654  0.5684
  270TMC3    C3 4133   1.988   2.319  15.978 -0.3790 -0.1734  0.5682
  270TMC3    C4 4134   2.251   2.366  16.029  0.2945 -0.7249 -0.2974
  270TMC3    C5 4135   2.190   2.256  16.080  0.3961 -0.8069  0.2988
  270TMC3    C6 4136   2.053   2.234  16.066 -0.2671 -0.2712  0.2405
  270TMC3     C 4137   2.229   2.546  15.862 -0.3990 -0.2083  0.2382
  270TMC3     O 4138   2.152   2.636  15.836  0.3334  0.0573  0.1549
  270TMC3     H 4139   1.999   2.469  15.823 -0.9722  0.5050  1.4630
  270TMC3    H1 4140   2.357   2.389  16.041 -0.1775  0.5328  1.3635
  270TMC3    H2 4141   2.020   2.143  16.116  0.7525 -0.7650 -0.0022
  270TMC3    C7 4142   2.269   2.135  16.113  0.0662  0.0000  0.0529
  270TMC3    C8 4143   1.870   2.257  15.920 -0.1341 -0.4174  0.0093
  270TMC3    O1 4144   2.357   2.109  16.031  0.0053 -0.1518  0.0011
  270TMC3    O2 4145   1.771   2.265  15.992  0.0127  0.4951  0.3603
  271MPD2     C 4146   1.203   2.265  14.257  0.7546  0.0615  0.0647
  271MPD2    C1 4147   1.206   2.335  14.370  0.0549  0.1338  0.4341
  271MPD2    C2 4148   1.158   2.466  14.369  0.0095  0.7758  0.3879
  271MPD2    C3 4149   1.118   2.531  14.259  0.1268 -0.3617  0.6265
  271MPD2    C4 4150   1.120   2.457  14.142  0.0215 -0.4314  0.6777
  271MPD2    C5 4151   1.154   2.325  14.138 -0.2269  0.0690  0.1452
  271MPD2     H 4152   1.159   2.522  14.462 -1.7860 -1.0113  1.4842
  271MPD2    H1 4153   1.093   2.501  14.046  3.9260  2.9421  1.1624
  271MPD2    H2 4154   1.190   2.158  14.255  1.6458 -0.0463  0.0129
  271MPD2    H3 4155   1.155   2.276  14.041  0.5286  1.5125 -0.5708
  271MPD2     N 4156   1.079   2.667  14.255  0.1127 -0.2462 -0.4411
  271MPD2    H5 4157   1.075   2.707  14.162 -2.4485 -1.2769 -0.7926
  271MPD2    N1 4158   1.258   2.296  14.491  0.1647  0.3555 -0.0208
  271MPD2    H7 4159   1.247   2.353  14.575  0.6537  0.3034  0.0788
  272TMC3    C1 4160   1.397   2.171  14.626  0.2840 -0.1287 -1.0545
  272TMC3    C2 4161   1.512   2.101  14.594  0.3583  0.0564  0.1056
  272TMC3    C3 4162   1.596   2.058  14.692  0.0795  0.1610  0.1560
  272TMC3    C4 4163   1.359   2.202  14.752 -0.9534  0.3895 -0.0057
  272TMC3    C5 4164   1.443   2.152  14.850  0.5180 -0.2150 -0.3045
  272TMC3    C6 4165   1.564   2.087  14.820  0.3666  0.1183  0.2374
  272TMC3     C 4166   1.310   2.172  14.517  0.4583 -0.3365  0.7530
  272TMC3     O 4167   1.336   2.089  14.429 -0.2348  0.1163 -0.0325
  272TMC3     H 4168   1.538   2.072  14.493 -0.6731  2.5356 -0.8768
  272TMC3    H1 4169   1.263   2.245  14.776 -0.7370  2.0402 -2.0362
  272TMC3    H2 4170   1.633   2.061  14.899  1.4485  1.9931 -0.1093
  272TMC3    C7 4171   1.407   2.192  14.982  0.5092  0.0570  0.4645
  272TMC3    C8 4172   1.732   2.024  14.657 -0.5306 -0.5959 -0.0030
  272TMC3    O1 4173   1.286   2.187  15.007 -0.1303  0.2584 -0.1129
  272TMC3    O2 4174   1.761   2.044  14.540  0.4253  0.8108 -0.5129
  273MPD2     C 4175   2.732   0.189  11.965 -0.2812 -0.0276  0.9303
  273MPD2    C1 4176   2.842   0.264  11.944  0.6905 -0.0307  0.3260
  273MPD2    C2 4177   2.872   0.298  11.810  0.2849  1.4829  0.4938
  273MPD2    C3 4178   2.789   0.248  11.709  0.5943 -0.1482 -0.1301
  273MPD2    C4 4179   2.674   0.179  11.739 -0.4508  0.1041  0.2802
  273MPD2    C5 4180   2.646   0.140  11.867 -0.1973  0.1172 -0.6190
  273MPD2     H 4181   2.957   0.360  11.784  1.4796 -1.0754 -1.7414
  273MPD2    H1 4182   2.611   0.148  11.657  0.1526 -2.8577  0.9452
  273MPD2    H2 4183   2.711   0.151  12.065 -1.5964  0.3807  0.8142
  273MPD2    H3 4184   2.554   0.088  11.890  1.1132 -2.7393 -1.7756
  273MPD2     N 4185   2.827   0.259  11.574  0.5116 -0.2830 -0.7213
  273MPD2    H5 4186   2.747   0.249  11.512  0.9165 -1.5100 -1.0410
  273MPD2    N1 4187   2.931   0.299  12.045  0.1564  0.1314 -0.1515
  273MPD2    H7 4188   2.908   0.262  12.136  0.4456 -0.9376 -0.5161
  274TMC3    C1 4189   2.940   0.361  11.395  0.2621 -0.1610  0.8058
  274TMC3    C2 4190   2.848   0.304  11.300  0.5798  0.1175  0.0921
  274TMC3    C3 4191   2.819   0.379  11.186  0.1405 -0.0456  0.7294
  274TMC3    C4 4192   3.003   0.485  11.369 -0.0105  0.9892 -0.2003
  274TMC3    C5 4193   2.968   0.549  11.255  0.2269  0.6472 -0.3759
  274TMC3    C6 4194   2.881   0.497  11.157 -0.5593  0.1716 -0.4706
  274TMC3     C 4195   2.947   0.321  11.534  0.7762  0.2195  0.5342
  274TMC3     O 4196   3.050   0.346  11.590  0.4993 -0.2587 -0.2586
  274TMC3     H 4197   2.781   0.222  11.318 -0.1948  1.0975  1.6508
  274TMC3    H1 4198   3.083   0.527  11.430 -0.1769  0.0461  0.6651
  274TMC3    H2 4199   2.840   0.568  11.086  0.4248 -1.1899 -2.3927
  274TMC3    C7 4200   3.024   0.682  11.239 -0.3639 -0.1359  0.3498
  274TMC3    C8 4201   2.700   0.335  11.113 -0.6797 -0.8371 -0.6078
  274TMC3    O1 4202   3.014   0.729  11.130 -0.0657 -0.9755  0.2741
  274TMC3    O2 4203   2.639   0.239  11.154  0.4833  0.4487 -0.1923
  275MPD2     C 4204   3.077   3.043  14.586  0.0777  0.0402 -0.0379
  275MPD2    C1 4205   2.981   3.136  14.617  0.1847 -0.6439  0.3014
  275MPD2    C2 4206   2.850   3.098  14.628  0.0387 -0.0100 -0.3271
  275MPD2    C3 4207   2.804   2.967  14.617 -0.4704  0.6311  0.4063
  275MPD2    C4 4208   2.903   2.871  14.584 -0.0334 -0.3229  0.3617
  275MPD2    C5 4209   3.036   2.912  14.571 -0.3948 -0.2520 -0.4511
  275MPD2     H 4210   2.791   3.178  14.672  0.6390 -0.8359  1.9263
  275MPD2    H1 4211   2.867   2.769  14.574  1.6884 -0.7839 -1.1186
  275MPD2    H2 4212   3.182   3.064  14.572  0.2275 -0.0797  0.9465
  275MPD2    H3 4213   3.105   2.833  14.542  0.0178  0.1511 -0.5750
  275MPD2     N 4214   2.671   2.924  14.632  0.1767  0.4078  0.7671
  275MPD2    H5 4215   2.657   2.826  14.653 -1.6954  0.5749  0.3506
  275MPD2    N1 4216   3.004   3.274  14.641  0.0509  0.0062 -0.1777
  275MPD2    H7 4217   2.923   3.332  14.662  0.1504  0.0222  0.1460
  276TMC3    C1 4218   3.098   3.486  14.657 -0.2225 -0.1831 -0.0667
  276TMC3    C2 4219   2.968   3.522  14.679  0.2837  0.4551 -0.0075
  276TMC3    C3 4220   2.936   3.607  14.787  0.2786  0.1628 -0.5095
  276TMC3    C4 4221   3.199   3.527  14.733 -0.0348 -0.0277 -0.0598
  276TMC3    C5 4222   3.166   3.617  14.827  0.1126  0.2602  0.4741
  276TMC3    C6 4223   3.038   3.649  14.865  0.1922 -0.6340  0.1829
  276TMC3     C 4224   3.122   3.344  14.622 -0.0014  0.0415  0.1714
  276TMC3     O 4225   3.227   3.308  14.572 -0.1011  0.0722  0.4819
  276TMC3     H 4226   2.890   3.484  14.615  0.4773 -0.0176  0.0391
  276TMC3    H1 4227   3.302   3.507  14.706 -0.9581 -1.4062 -2.5618
  276TMC3    H2 4228   3.016   3.719  14.945 -0.0332 -0.3119 -0.1647
  276TMC3    C7 4229   3.272   3.690  14.887 -0.3537  0.2857  0.0397
  276TMC3    C8 4230   2.833   3.548  14.870  0.0532  1.0067 -0.3585
  276TMC3    O1 4231   3.236   3.796  14.939  0.2090  0.2572 -0.3747
  276TMC3    O2 4232   2.718   3.574  14.839  0.6498  0.3837  0.0645
  277MPD2     C 4233   0.015   2.653  13.375  0.2421 -0.4830 -0.9012
  277MPD2    C1 4234   4.637   2.675  13.445  0.8119 -0.5754  0.2467
  277MPD2    C2 4235   4.588   2.579  13.531  0.4629  0.1960 -0.0959
  277MPD2    C3 4236   4.655   2.455  13.537  0.2707  0.3032  1.2394
  277MPD2    C4 4237   0.022   2.427  13.464  0.2291 -0.0584  0.0588
  277MPD2    C5 4238   0.072   2.528  13.385  0.0566 -0.7482 -0.8405
  277MPD2     H 4239   4.493   2.590  13.581 -0.3847 -4.0054 -0.7998
  277MPD2    H1 4240   0.084   2.338  13.464 -0.0952 -0.2844 -1.2567
  277MPD2    H2 4241   0.072   2.727  13.320 -1.0914  0.9138 -0.3924
  277MPD2    H3 4242   0.164   2.517  13.329  0.0500  0.1563 -1.0353
  277MPD2     N 4243   4.602   2.361  13.625  0.2024  0.2161  0.0753
  277MPD2    H5 4244   4.532   2.403  13.686 -1.0681 -0.1715 -1.1266
  277MPD2    N1 4245   4.562   2.794  13.415  0.2980  0.5255  0.2762
  277MPD2    H7 4246   4.593   2.853  13.339 -0.6795  0.7602  0.0568
  278TMC3    C1 4247   4.521   2.179  13.721 -0.7719  0.7799 -0.2840
  278TMC3    C2 4248   4.542   2.054  13.776 -0.1850 -0.0335  0.2108
  278TMC3    C3 4249   4.440   1.992  13.840 -0.2006 -0.4989  0.0978
  278TMC3    C4 4250   4.392   2.228  13.705  0.0047  0.6508 -0.5537
  278TMC3    C5 4251   4.287   2.154  13.752 -0.4605 -0.2368  0.1252
  278TMC3    C6 4252   4.310   2.029  13.818 -0.2901  0.0163 -0.1075
  278TMC3     C 4253   4.635   2.233  13.651  0.0359  0.7764 -0.6084
  278TMC3     O 4254   4.731   2.165  13.617 -0.0085  0.0792 -0.1511
  278TMC3     H 4255   4.633   1.996  13.762  0.0163  0.4474 -0.4856
  278TMC3    H1 4256   4.374   2.325  13.660 -0.0653 -0.0858 -2.1195
  278TMC3    H2 4257   4.225   1.979  13.863 -2.5677  2.0834 -2.0659
  278TMC3    C7 4258   4.155   2.213  13.749  0.2625  0.0350  0.3209
  278TMC3    C8 4259   4.467   1.856  13.884  0.5816  0.8380  0.4549
  278TMC3    O1 4260   4.154   2.335  13.728  0.3662 -0.9649 -0.0819
  278TMC3    O2 4261   4.581   1.828  13.910 -0.5237  0.2043 -0.0509
  279MPD2     C 4262   3.304   1.460   0.188 -0.4258 -0.5756 -0.7830
  279MPD2    C1 4263   3.347   1.581   0.233 -0.0780 -0.0447  0.0779
  279MPD2    C2 4264   3.473   1.619   0.199  0.0924  0.2655 -0.8224
  279MPD2    C3 4265   3.559   1.542   0.114 -0.1319 -0.1876 -0.2218
  279MPD2    C4 4266   3.507   1.422   0.070 -0.6685  0.4011 -0.9565
  279MPD2    C5 4267   3.380   1.383   0.105 -0.2959 -0.6905 -0.2456
  279MPD2     H 4268   3.499   1.721   0.226 -0.4898  0.3290 -0.5042
  279MPD2    H1 4269   3.565   1.356   0.007  0.2594 -0.1915  0.5084
  279MPD2    H2 4270   3.198   1.443   0.206 -0.4222 -0.3355 -0.5169
  279MPD2    H3 4271   3.351   1.291   0.056  0.5254 -1.5038  0.7834
  279MPD2     N 4272   3.677   1.594   0.055 -0.5973 -0.2647 -0.3611
  279MPD2    H5 4273   3.722   1.538  17.744 -2.0725 -0.2119 -1.3175
  279MPD2    N1 4274   3.257   1.676   0.299 -0.5276 -0.1843 -0.0613
  279MPD2    H7 4275   3.159   1.650   0.307 -0.5481 -0.3030 -0.7072
  280TMC3    C1 4276   3.169   1.886   0.364 -0.4229  0.3300 -0.2124
  280TMC3    C2 4277   3.051   1.852   0.308  0.1124 -0.0456 -0.1808
  280TMC3    C3 4278   2.955   1.946   0.305 -0.3381 -0.2259  0.2878
  280TMC3    C4 4279   3.201   2.013   0.397 -0.4820 -0.1845 -0.4319
  280TMC3    C5 4280   3.097   2.103   0.389  1.2844 -0.3709  0.2998
  280TMC3    C6 4281   2.974   2.070   0.345  0.6543 -0.0922 -0.5366
  280TMC3     C 4282   3.281   1.799   0.353 -0.0667  0.9745 -0.9834
  280TMC3     O 4283   3.393   1.852   0.371  0.0275  0.3141 -0.0166
  280TMC3     H 4284   3.015   1.751   0.290 -0.2604  1.0105 -5.4156
  280TMC3    H1 4285   3.299   2.044   0.430 -0.1039 -0.0297 -1.7038
  280TMC3    H2 4286   2.887   2.135   0.349  0.0793 -0.8952 -0.0519
  280TMC3    C7 4287   3.114   2.237   0.444 -0.0661 -0.0122  0.2769
  280TMC3    C8 4288   2.820   1.902   0.266  0.2679 -0.6505  0.3350
  280TMC3    O1 4289   3.203   2.260   0.525 -0.5655 -0.2055  0.3190
  280TMC3    O2 4290   2.727   1.925   0.339 -0.4661  0.1190  0.5184
  281TMC3    C1 4291   1.815   2.964  14.116 -0.1218 -0.1180  0.3773
  281TMC3    C2 4292   1.946   2.965  14.132 -0.4702  0.2875 -0.4348
  281TMC3    C3 4293   2.028   2.857  14.105 -0.2078 -0.3704 -0.6784
  281TMC3    C4 4294   1.748   2.850  14.071  0.6655 -0.5177  0.0253
  281TMC3    C5 4295   1.832   2.745  14.035 -0.3680 -0.1324 -0.1184
  281TMC3    C6 4296   1.970   2.745  14.047  0.2643 -0.0215  0.3367
  281TMC3     C 4297   1.735   3.091  14.104  0.1182  0.1000  1.0306
  281TMC3     O 4298   1.610   3.086  14.118  0.4730  0.0053  0.1816
  281TMC3     H 4299   1.979   3.052  14.189  1.1695 -0.2783 -0.5142
  281TMC3    H1 4300   1.641   2.840  14.061  0.8890 -0.0030 -2.8833
  281TMC3    H2 4301   2.039   2.664  14.024 -0.9954 -0.7649 -0.8660
  281TMC3    C7 4302   1.776   2.620  13.977  0.7020  0.2725 -0.0951
  281TMC3    C8 4303   2.147   2.896  14.032 -0.3453  0.0929 -0.1889
  281TMC3    O1 4304   1.660   2.628  13.931 -0.0386  0.2240 -0.1215
  281TMC3    O2 4305   2.168   2.833  13.930  0.4180 -0.1148  0.6263
  282MPD2     C 4306   4.247   3.804  15.159  0.6427 -0.8560  0.5330
  282MPD2    C1 4307   4.110   3.822  15.185  0.9866 -0.8006  0.6085
  282MPD2    C2 4308   4.017   3.786  15.090  0.0474  0.2208 -0.0425
  282MPD2    C3 4309   4.064   3.732  14.974 -0.0100  0.3897  0.1830
  282MPD2    C4 4310   4.198   3.713  14.948 -0.4329  0.0492 -0.5087
  282MPD2    C5 4311   4.294   3.756  15.039  0.0905  0.2644 -0.0299
  282MPD2     H 4312   3.911   3.783  15.115 -0.0877 -0.9718 -0.7703
  282MPD2    H1 4313   4.241   3.669  14.859 -1.6845  0.0081 -1.1020
  282MPD2    H2 4314   4.331   3.823  15.226 -0.4279 -1.2412  1.9791
  282MPD2    H3 4315   4.400   3.749  15.016  0.0634 -0.3419  0.0501
  282MPD2     N 4316   3.966   3.706  14.872 -0.9288  0.1912  0.4859
  282MPD2    H5 4317   3.878   3.756  14.882 -0.3632  1.7770 -2.4969
  282MPD2    N1 4318   4.062   3.858  15.316  0.2746  0.0129 -0.4148
  282MPD2    H7 4319   3.962   3.863  15.335  0.6182 -1.4256  1.6743
  283TMC3    C1 4320   4.085   3.948  15.540 -0.1124 -0.1651 -0.2920
  283TMC3    C2 4321   4.144   4.042  15.619 -0.4941 -0.2856  0.4184
  283TMC3    C3 4322   4.141   4.025  15.753 -0.4135 -1.1699  0.4009
  283TMC3    C4 4323   4.011   3.850  15.587 -0.6222 -0.4154  0.0442
  283TMC3    C5 4324   3.993   3.846  15.728  0.2953 -0.4253  0.3151
  283TMC3    C6 4325   4.054   3.934  15.808 -0.0261 -0.6284  0.2472
  283TMC3     C 4326   4.147   3.923  15.406  0.7587  0.2111 -0.0281
  283TMC3     O 4327   4.258   3.966  15.388 -0.3461 -0.1530 -0.9436
  283TMC3     H 4328   4.216   4.112  15.577  1.0323  0.0490  3.5923
  283TMC3    H1 4329   3.983   3.763  15.529  0.3598  0.7235 -2.1466
  283TMC3    H2 4330   4.041   3.929  15.915  1.6776 -1.1320  0.4342
  283TMC3    C7 4331   3.896   3.768  15.793  0.5855 -0.0496  0.3254
  283TMC3    C8 4332   4.227   4.106  15.847 -0.5098  0.4366  0.4418
  283TMC3    O1 4333   3.892   3.770  15.913  0.3305  0.0280 -0.2938
  283TMC3    O2 4334   4.218   4.083  15.968 -0.0613 -0.5665 -0.0468
  284MPD2     C 4335   2.116   2.611  12.019 -0.6101  0.0100  0.8291
  284MPD2    C1 4336   2.158   2.737  12.056  0.2728  0.3847  0.1884
  284MPD2    C2 4337   2.244   2.748  12.167 -0.3804  0.2135  0.3431
  284MPD2    C3 4338   2.262   2.642  12.246  0.0848 -0.3264  0.1779
  284MPD2    C4 4339   2.221   2.515  12.206  0.6216  0.4125  0.2612
  284MPD2    C5 4340   2.155   2.502  12.086 -0.3808  0.0011  1.1167
  284MPD2     H 4341   2.282   2.850  12.171  0.8365 -0.3872  3.8149
  284MPD2    H1 4342   2.244   2.431  12.270 -0.7353 -0.7874 -0.8451
  284MPD2    H2 4343   2.055   2.595  11.930 -0.4799  0.0470  0.7336
  284MPD2    H3 4344   2.109   2.407  12.058  1.8531 -0.7121 -0.1389
  284MPD2     N 4345   2.343   2.663  12.358 -0.1075 -0.5942  0.2475
  284MPD2    H5 4346   2.361   2.576  12.408  1.4839  0.8883  2.2615
  284MPD2    N1 4347   2.149   2.848  11.961 -0.5684 -0.7340  0.4763
  284MPD2    H7 4348   2.199   2.934  11.983 -0.7254 -0.1966 -1.2995
  285TMC3    C1 4349   2.102   2.963  11.769  0.0200  0.9771  0.6381
  285TMC3    C2 4350   2.081   2.925  11.639 -0.0818  0.6296  0.0268
  285TMC3    C3 4351   2.148   2.989  11.543  0.2841 -0.1992  0.7777
  285TMC3    C4 4352   2.191   3.057  11.805  0.6857  0.0925  0.1745
  285TMC3    C5 4353   2.249   3.129  11.704  0.0135 -0.1786 -0.6490
  285TMC3    C6 4354   2.229   3.092  11.573  0.7587  0.1567 -0.6358
  285TMC3     C 4355   2.062   2.863  11.860 -0.1287  0.4125  0.4161
  285TMC3     O 4356   1.975   2.786  11.821  0.2832  0.4364 -0.2776
  285TMC3     H 4357   2.028   2.835  11.609  1.6832 -0.2524 -0.4699
  285TMC3    H1 4358   2.219   3.070  11.909 -2.4320 -1.8158  1.2576
  285TMC3    H2 4359   2.278   3.151  11.497 -0.2422  0.9256 -0.6814
  285TMC3    C7 4360   2.305   3.258  11.729  0.5258  0.6101  0.2408
  285TMC3    C8 4361   2.196   2.900  11.442 -0.1743  0.8369 -0.0384
  285TMC3    O1 4362   2.284   3.332  11.633  0.4272 -0.1310 -0.0261
  285TMC3    O2 4363   2.111   2.828  11.395  0.0319  1.2097  0.1893
  286MPD2     C 4364   1.625   1.538   1.186 -0.3080 -0.3185  0.4500
  286MPD2    C1 4365   1.699   1.639   1.251 -0.2825  0.6783  0.5687
  286MPD2    C2 4366   1.838   1.634   1.246  0.1730 -0.0896  0.1974
  286MPD2    C3 4367   1.908   1.534   1.177 -0.6506 -0.2790  0.7143
  286MPD2    C4 4368   1.831   1.443   1.104 -0.2272 -0.0329  0.4617
  286MPD2    C5 4369   1.696   1.452   1.110 -0.0210  0.9271 -0.3201
  286MPD2     H 4370   1.894   1.707   1.304  3.0743 -1.1625 -1.2645
  286MPD2    H1 4371   1.873   1.365   1.041  1.2232  1.2641 -0.1852
  286MPD2    H2 4372   1.517   1.529   1.176 -0.2783  0.1395 -0.2466
  286MPD2    H3 4373   1.637   1.372   1.066  1.8090 -0.7019  0.1805
  286MPD2     N 4374   2.047   1.523   1.161  0.2075 -0.1145 -0.0093
  286MPD2    H5 4375   2.085   1.440   1.115 -1.7174 -0.6174 -0.7076
  286MPD2    N1 4376   1.641   1.757   1.305  0.6093 -0.6004 -0.0418
  286MPD2    H7 4377   1.703   1.831   1.336 -0.2315 -0.6363  1.7147
  287TMC3    C1 4378   2.278   1.590   1.196 -0.0087  0.2033 -0.0713
  287TMC3    C2 4379   2.320   1.536   1.083  0.6799  0.2907  0.5700
  287TMC3    C3 4380   2.453   1.538   1.052  0.9118 -0.2638 -0.1339
  287TMC3    C4 4381   2.372   1.635   1.287  0.3474 -0.5103 -0.3655
  287TMC3    C5 4382   2.504   1.637   1.247 -0.1824  0.3408 -0.8863
  287TMC3    C6 4383   2.553   1.587   1.133  0.0397  0.6707  0.3682
  287TMC3     C 4384   2.139   1.602   1.231 -0.2279  0.4973 -0.2673
  287TMC3     O 4385   2.119   1.663   1.334  0.1050 -0.1439  0.6548
  287TMC3     H 4386   2.240   1.508   1.015  0.9908  3.0575 -0.9382
  287TMC3    H1 4387   2.346   1.686   1.379  0.6319 -0.7324 -0.1618
  287TMC3    H2 4388   2.656   1.599   1.102 -0.5356  1.5581 -1.2296
  287TMC3    C7 4389   2.597   1.715   1.332  0.8164  0.2331 -0.3020
  287TMC3    C8 4390   2.482   1.462   0.936  0.0382  1.0600 -0.1825
  287TMC3    O1 4391   2.562   1.826   1.367  0.3585  0.1896  0.3458
  287TMC3    O2 4392   2.392   1.404   0.889 -0.4196  0.5470 -0.3215
  288TMC3    C1 4393   0.297   1.956  14.398 -0.1791  0.4367 -0.9222
  288TMC3    C2 4394   0.191   2.025  14.455  0.4407 -0.5068  0.0217
  288TMC3    C3 4395   0.159   2.148  14.403  0.5324  0.3241 -0.1553
  288TMC3    C4 4396   0.384   2.016  14.307 -0.0164 -0.5974  0.2469
  288TMC3    C5 4397   0.372   2.146  14.296  0.0599  0.0951  0.6509
  288TMC3    C6 4398   0.254   2.213  14.327 -0.1802 -0.6361 -0.3165
  288TMC3     C 4399   0.356   1.847  14.465  0.9157 -0.1571 -1.0368
  288TMC3     O 4400   0.478   1.854  14.476 -0.0744 -0.5376  0.3275
  288TMC3     H 4401   0.137   1.975  14.535 -0.1587  0.6336  0.3338
  288TMC3    H1 4402   0.464   1.957  14.265  0.5732 -0.0078  0.5425
  288TMC3    H2 4403   0.235   2.309  14.280  1.4917 -0.1430  0.0407
  288TMC3    C7 4404   0.439   2.218  14.190  0.2321 -0.3214  0.0189
  288TMC3    C8 4405   0.038   2.220  14.422  1.0607 -0.4854  0.4333
  288TMC3    O1 4406   0.423   2.184  14.073  0.3860 -0.0896 -0.4576
  288TMC3    O2 4407   0.024   2.331  14.373  0.1321  0.0392 -0.0897
  289MPD2     C 4408   0.132   1.427  14.278  0.4321  0.2895 -0.0213
  289MPD2    C1 4409   0.038   1.525  14.248  0.5679 -0.1226  0.7519
  289MPD2    C2 4410   4.650   1.507  14.277 -0.0729  0.4241 -0.8778
  289MPD2    C3 4411   4.606   1.391  14.339  0.1395 -0.2308  0.3726
  289MPD2    C4 4412   4.698   1.293  14.377 -0.1346 -0.3920  0.1458
  289MPD2    C5 4413   0.086   1.317  14.339 -0.2207 -0.6524  0.0078
  289MPD2     H 4414   4.573   1.579  14.252 -0.4143  0.9734  1.7182
  289MPD2    H1 4415   4.651   1.207  14.422  0.5129 -0.0904  1.3894
  289MPD2    H2 4416   0.237   1.444  14.257  0.9956 -1.4886  1.4275
  289MPD2    H3 4417   0.155   1.236  14.357  1.3825  0.8150  0.4396
  289MPD2     N 4418   4.472   1.362  14.377  0.0590 -0.5967  0.0493
  289MPD2    H5 4419   4.453   1.271  14.418 -1.2096 -0.5117 -0.3606
  289MPD2    N1 4420   0.084   1.647  14.194 -0.7836  0.0987  0.1704
  289MPD2    H7 4421   0.180   1.650  14.161 -1.6624  2.4165 -2.1312
  290TMC3    C1 4422   4.229   1.401  14.388 -1.0594 -0.2923  0.5650
  290TMC3    C2 4423   4.136   1.497  14.354  0.7576 -0.1387  0.3070
  290TMC3    C3 4424   4.037   1.471  14.258 -0.8914 -0.5062  0.2760
  290TMC3    C4 4425   4.207   1.270  14.335 -0.2463 -0.4217  0.3352
  290TMC3    C5 4426   4.102   1.248  14.238 -0.5404 -0.2185 -0.4352
  290TMC3    C6 4427   4.020   1.350  14.197  0.5179  0.0864 -0.2741
  290TMC3     C 4428   4.365   1.452  14.395  0.1737 -0.6613 -0.0045
  290TMC3     O 4429   4.382   1.573  14.401 -0.3746  0.0440 -0.0871
  290TMC3     H 4430   4.156   1.599  14.387  1.7876 -0.2313 -0.0435
  290TMC3    H1 4431   4.265   1.185  14.367 -2.7846 -1.3231  2.4671
  290TMC3    H2 4432   3.926   1.324  14.151  0.8646 -1.1769 -0.2765
  290TMC3    C7 4433   4.040   1.116  14.219  0.5738 -0.0776 -0.1591
  290TMC3    C8 4434   3.981   1.584  14.195  0.4037 -0.1011 -0.2453
  290TMC3    O1 4435   3.952   1.114  14.132  0.5003 -0.1552 -0.8839
  290TMC3    O2 4436   3.938   1.571  14.079 -0.5174 -0.2844  0.0211
  291MPD2     C 4437   4.249   0.624   0.466  0.2498  0.3260  0.3016
  291MPD2    C1 4438   4.128   0.698   0.485 -0.3778 -0.0081 -0.0051
  291MPD2    C2 4439   4.138   0.817   0.560  0.6375 -0.3815 -0.2926
  291MPD2    C3 4440   4.265   0.864   0.597 -0.5570  0.8706  0.0464
  291MPD2    C4 4441   4.379   0.789   0.569  0.2081  0.8644 -0.1933
  291MPD2    C5 4442   4.371   0.665   0.508  0.1531  0.0621 -0.0599
  291MPD2     H 4443   4.049   0.878   0.565  0.5004 -0.6724  0.7120
  291MPD2    H1 4444   4.479   0.827   0.586  0.3240  0.2455  0.5201
  291MPD2    H2 4445   4.254   0.526   0.420  1.5481  1.6080 -2.2919
  291MPD2    H3 4446   4.450   0.592   0.495 -0.6786 -0.5479 -1.7432
  291MPD2     N 4447   4.296   0.992   0.657  0.9235  0.1128  0.2047
  291MPD2    H5 4448   4.394   1.015   0.670  0.6138  0.9277  1.0715
  291MPD2    N1 4449   4.002   0.658   0.427  0.3136  0.1018 -0.8423
  291MPD2    H7 4450   3.918   0.713   0.444 -0.0399 -0.8862  0.5751
  292TMC3    C1 4451   3.844   0.519   0.321 -0.4267  0.2428  0.0344
  292TMC3    C2 4452   3.731   0.594   0.361 -0.3933 -0.4851  0.5412
  292TMC3    C3 4453   3.609   0.588   0.287 -0.1550  1.3239  0.1110
  292TMC3    C4 4454   3.816   0.415   0.235 -0.3790 -0.0879 -0.4417
  292TMC3    C5 4455   3.692   0.403   0.177 -0.2118  0.0983  0.1534
  292TMC3    C6 4456   3.593   0.493   0.193  0.1358  0.0283 -0.6687
  292TMC3     C 4457   3.982   0.539   0.362  0.1879 -0.4269  0.7172
  292TMC3     O 4458   4.065   0.459   0.318  0.4173  0.3814  0.8307
  292TMC3     H 4459   3.742   0.665   0.442  2.6309 -0.8687  0.4768
  292TMC3    H1 4460   3.890   0.343   0.201  0.4845  0.8737 -0.6056
  292TMC3    H2 4461   3.509   0.485   0.126  0.6419  1.3662 -1.4608
  292TMC3    C7 4462   3.662   0.282   0.097  0.0378  0.6090 -0.0846
  292TMC3    C8 4463   3.498   0.657   0.340  0.3223  0.2199 -0.0608
  292TMC3    O1 4464   3.741   0.237   0.012 -0.4852  0.1819  0.2917
  292TMC3    O2 4465   3.502   0.700   0.457  0.1276  0.3417  0.1071
  293MPD2     C 4466   0.732   2.529  12.834 -0.1201  0.2062 -0.0463
  293MPD2    C1 4467   0.627   2.516  12.922  0.1171 -0.2585  0.2231
  293MPD2    C2 4468   0.659   2.526  13.060 -0.2671 -0.4464 -0.6128
  293MPD2    C3 4469   0.790   2.546  13.104  0.8036  0.0879 -1.5406
  293MPD2    C4 4470   0.891   2.549  13.007 -0.6565  0.0523 -0.2587
  293MPD2    C5 4471   0.858   2.546  12.880 -0.0146  0.1197 -0.5330
  293MPD2     H 4472   0.585   2.530  13.139 -0.6587  1.2855 -1.0823
  293MPD2    H1 4473   0.992   2.569  13.040 -0.6581 -1.2137  0.4908
  293MPD2    H2 4474   0.725   2.520  12.727  1.1314  0.7062 -0.1681
  293MPD2    H3 4475   0.935   2.550  12.803  2.0030  1.1843  1.5423
  293MPD2     N 4476   0.819   2.556  13.248 -0.2317  0.3628  0.0067
  293MPD2    H5 4477   0.738   2.547  13.308  0.5210  0.6020  1.0549
  293MPD2    N1 4478   0.503   2.500  12.863 -0.4925 -0.4851 -0.0433
  293MPD2    H7 4479   0.492   2.494  12.762 -3.1073 -2.1355  0.3349
  294TMC3    C1 4480   0.265   2.527  12.849  0.4137 -0.3809  0.1746
  294TMC3    C2 4481   0.152   2.462  12.900  0.0268 -0.4848  0.5110
  294TMC3    C3 4482   0.059   2.415  12.812 -0.7337  0.4197 -0.2162
  294TMC3    C4 4483   0.286   2.539  12.714 -0.2277 -0.5581  0.0076
  294TMC3    C5 4484   0.192   2.483  12.633 -0.0368 -0.2709 -0.6656
  294TMC3    C6 4485   0.081   2.422  12.675 -0.5083 -0.4238  0.0341
  294TMC3     C 4486   0.384   2.521  12.932 -0.3740 -0.4740  0.3895
  294TMC3     O 4487   0.366   2.540  13.049  0.4043  0.0054 -0.3807
  294TMC3     H 4488   0.127   2.450  13.004 -1.0351 -1.4543  0.1449
  294TMC3    H1 4489   0.369   2.600  12.681  0.2836 -1.3126 -0.0939
  294TMC3    H2 4490   0.008   2.381  12.606  0.0038  0.6811 -1.1627
  294TMC3    C7 4491   0.202   2.506  12.489 -0.1058  0.4890 -0.9738
  294TMC3    C8 4492   4.697   2.331  12.865  0.2254  0.1943  0.5282
  294TMC3    O1 4493   0.317   2.512  12.449  0.0781 -0.1466 -0.3227
  294TMC3    O2 4494   4.692   2.328  12.990 -0.7205 -0.1144 -0.6279
  295MPD2     C 4495   0.698   0.842   1.048  0.1360 -0.3184  0.6341
  295MPD2    C1 4496   0.741   0.711   1.028  0.0319 -0.1010  0.0540
  295MPD2    C2 4497   0.669   0.608   1.074  0.2318  0.6056 -0.6681
  295MPD2    C3 4498   0.546   0.625   1.138 -0.4038  1.0037 -0.2496
  295MPD2    C4 4499   0.507   0.750   1.164  0.0616  0.4841  0.1532
  295MPD2    C5 4500   0.581   0.855   1.118  0.2527 -1.2283  0.9207
  295MPD2     H 4501   0.708   0.508   1.064 -1.3695 -0.2686  1.7006
  295MPD2    H1 4502   0.413   0.769   1.213 -0.8719 -1.2125 -0.9535
  295MPD2    H2 4503   0.737   0.931   1.000 -0.7433 -0.9530 -1.2648
  295MPD2    H3 4504   0.539   0.955   1.125 -1.8554 -1.9821 -0.9538
  295MPD2     N 4505   0.469   0.517   1.182  0.7216 -0.5276  0.1458
  295MPD2    H5 4506   0.387   0.540   1.237  0.7225  2.4096 -1.0813
  295MPD2    N1 4507   0.867   0.686   0.987 -0.2338 -0.3019  0.6444
  295MPD2    H7 4508   0.902   0.598   1.022  1.9342  0.2331 -0.2055
  296TMC3    C1 4509   0.373   0.316   1.187  0.3451  0.0119  0.5058
  296TMC3    C2 4510   0.248   0.369   1.201  0.1698 -0.2176 -0.3462
  296TMC3    C3 4511   0.158   0.280   1.250  0.3737 -0.0639  0.0426
  296TMC3    C4 4512   0.402   0.177   1.185 -0.1376  0.2597  0.1944
  296TMC3    C5 4513   0.311   0.096   1.243  0.3598 -0.6426 -0.2540
  296TMC3    C6 4514   0.190   0.148   1.274 -0.4430  0.1968 -0.2098
  296TMC3     C 4515   0.475   0.392   1.130  0.0628  0.0201  0.1141
  296TMC3     O 4516   0.560   0.335   1.062  0.3275  0.1356 -0.3262
  296TMC3     H 4517   0.223   0.473   1.184 -0.3981  0.4001  4.2778
  296TMC3    H1 4518   0.501   0.134   1.175  1.1462  2.5983  2.8114
  296TMC3    H2 4519   0.106   0.091   1.309  0.0396  0.4862  1.4214
  296TMC3    C7 4520   0.331   4.701   1.242  0.0247  0.8378  0.4244
  296TMC3    C8 4521   0.020   0.312   1.268  0.1327 -0.2279 -0.0238
  296TMC3    O1 4522   0.384   4.648   1.149 -0.0985 -0.0099  0.0855
  296TMC3    O2 4523   4.680   0.228   1.307  0.2931 -0.0835 -0.6973
  297MPD2     C 4524   3.064   3.157  15.831 -0.0939 -0.6802 -0.2418
  297MPD2    C1 4525   3.089   3.206  15.958 -0.2703  0.0515 -0.4946
  297MPD2    C2 4526   3.222   3.239  15.994 -0.3183  0.2917 -0.3497
  297MPD2    C3 4527   3.332   3.217  15.907 -0.0415  1.0385 -0.7990
  297MPD2    C4 4528   3.297   3.173  15.777 -0.1481  0.6088  0.0817
  297MPD2    C5 4529   3.167   3.155  15.740 -0.2704  0.1170  0.0274
  297MPD2     H 4530   3.238   3.292  16.087  0.7619 -0.0016 -0.3589
  297MPD2    H1 4531   3.375   3.152  15.705  0.4351 -2.1654  1.5138
  297MPD2    H2 4532   2.967   3.123  15.797  0.3835 -2.9117  0.6155
  297MPD2    H3 4533   3.147   3.129  15.637 -1.2242  0.9382  0.0023
  297MPD2     N 4534   3.461   3.248  15.956 -0.2441 -0.6621 -0.4872
  297MPD2    H5 4535   3.463   3.275  16.053 -1.3546 -1.6887 -0.1727
  297MPD2    N1 4536   2.988   3.230  16.053  0.0375 -0.3955  0.0085
  297MPD2    H7 4537   3.020   3.246  16.148 -1.9615  1.0543  0.4418
  298TMC3    C1 4538   2.775   3.244  16.135  0.1356 -0.0790 -0.8259
  298TMC3    C2 4539   2.655   3.175  16.145  0.0600 -0.1494  0.0833
  298TMC3    C3 4540   2.583   3.182  16.260 -0.3875  0.8806  0.5930
  298TMC3    C4 4541   2.827   3.308  16.247  0.2127 -0.5550 -1.2575
  298TMC3    C5 4542   2.755   3.304  16.363  0.1049 -0.0255 -0.2087
  298TMC3    C6 4543   2.638   3.237  16.368 -0.7708  0.0242  0.0830
  298TMC3     C 4544   2.855   3.215  16.027 -0.9306  1.0723  0.3750
  298TMC3     O 4545   2.798   3.210  15.917 -0.7089  1.0095  0.5450
  298TMC3     H 4546   2.620   3.135  16.051  0.8226 -1.1560  0.2300
  298TMC3    H1 4547   2.922   3.360  16.249 -1.0879  1.8381 -1.5452
  298TMC3    H2 4548   2.571   3.262  16.449  0.9210 -1.3431  1.9072
  298TMC3    C7 4549   2.781   3.396  16.474  0.1508 -0.5054 -0.0545
  298TMC3    C8 4550   2.472   3.086  16.282 -0.1316 -0.0430 -0.3583
  298TMC3    O1 4551   2.718   3.374  16.578 -0.5381  0.2723 -0.3257
  298TMC3    O2 4552   2.453   3.052  16.398  0.0919 -0.0106  0.2639
  299MPD2     C 4553   3.260   2.290  10.973  0.2319 -0.2170 -0.1602
  299MPD2    C1 4554   3.307   2.372  10.876  0.5618 -0.7524 -0.4265
  299MPD2    C2 4555   3.248   2.390  10.747  0.6327  0.1021  0.1600
  299MPD2    C3 4556   3.141   2.308  10.716 -0.2334  0.0848 -0.2217
  299MPD2    C4 4557   3.090   2.228  10.817  0.1943 -0.4786 -0.0121
  299MPD2    C5 4558   3.141   2.227  10.940 -0.2378 -0.2202  0.8428
  299MPD2     H 4559   3.292   2.461  10.678 -0.8061  0.3704 -0.4711
  299MPD2    H1 4560   3.008   2.161  10.794  0.0693 -0.5018  0.5001
  299MPD2    H2 4561   3.303   2.270  11.071 -0.7731  2.1903  0.7647
  299MPD2    H3 4562   3.089   2.161  11.009 -0.2058 -1.5023 -0.3797
  299MPD2     N 4563   3.073   2.299  10.591  0.0094 -0.7790  0.5278
  299MPD2    H5 4564   3.026   2.211  10.575  0.6681 -1.0721  0.1827
  299MPD2    N1 4565   3.426   2.428  10.909  0.2402 -1.1400  0.3432
  299MPD2    H7 4566   3.456   2.412  11.005 -0.5197 -1.8364  0.4570
  300TMC3    C1 4567   3.016   2.328  10.358 -1.1820 -0.5010 -0.0172
  300TMC3    C2 4568   3.007   2.414  10.252  0.9153  0.2155  0.2192
  300TMC3    C3 4569   2.914   2.383  10.154 -0.3003 -0.2162  0.5306
  300TMC3    C4 4570   2.939   2.210  10.371 -0.5498 -0.2154  0.4861
  300TMC3    C5 4571   2.863   2.178  10.265  0.4053 -0.2117  0.0974
  300TMC3    C6 4572   2.854   2.262  10.157  0.5478  0.0100  0.2393
  300TMC3     C 4573   3.096   2.375  10.477 -0.4261  0.4087 -0.8342
  300TMC3     O 4574   3.159   2.480  10.465  0.9497  0.2953 -0.1756
  300TMC3     H 4575   3.064   2.506  10.244 -0.0109  1.0529  3.2657
  300TMC3    H1 4576   2.937   2.147  10.459 -0.3446  0.3317  0.8755
  300TMC3    H2 4577   2.779   2.238  10.083  1.3503  0.7312 -0.8031
  300TMC3    C7 4578   2.757   2.081  10.271 -0.4075  0.0203  0.5262
  300TMC3    C8 4579   2.816   2.487  10.141 -0.4169 -0.4510 -0.4928
  300TMC3    O1 4580   2.715   2.023  10.168 -0.8741 -0.3294  0.2940
  300TMC3    O2 4581   2.868   2.598  10.150 -0.4973 -0.2365  0.2954
  301MPD2     C 4582   0.799   3.408   1.450  0.1983 -0.5596  0.7931
  301MPD2    C1 4583   0.700   3.366   1.370 -0.8197 -0.0827  0.2375
  301MPD2    C2 4584   0.675   3.233   1.340  0.2880 -1.0674  0.2947
  301MPD2    C3 4585   0.759   3.137   1.384 -0.8938 -0.2323  0.0459
  301MPD2    C4 4586   0.867   3.179   1.469 -0.2732 -0.2255 -0.8581
  301MPD2    C5 4587   0.891   3.313   1.497 -0.1712 -0.3571 -0.2888
  301MPD2     H 4588   0.586   3.207   1.284 -2.0859  2.6195  2.3875
  301MPD2    H1 4589   0.922   3.107   1.530  0.0363  0.6685 -0.0893
  301MPD2    H2 4590   0.818   3.513   1.473  0.3128 -0.3489 -0.2867
  301MPD2    H3 4591   0.968   3.341   1.567 -0.4400  0.3142 -0.2588
  301MPD2     N 4592   0.745   2.992   1.367  0.0583  0.2334  0.4912
  301MPD2    H5 4593   0.810   2.933   1.417 -2.0139 -2.4292  0.0316
  301MPD2    N1 4594   0.607   3.457   1.324 -0.1299  0.3883  0.4700
  301MPD2    H7 4595   0.534   3.412   1.269  1.4044 -0.3842 -0.9482
  302TMC3    C1 4596   0.677   2.792   1.269  0.1128 -0.3298  0.3661
  302TMC3    C2 4597   0.712   2.721   1.385 -0.3034  0.2534 -0.7982
  302TMC3    C3 4598   0.728   2.587   1.372 -0.2915 -0.9908 -0.8218
  302TMC3    C4 4599   0.650   2.727   1.156  0.5851  0.8771  0.1051
  302TMC3    C5 4600   0.681   2.591   1.153  0.7201  0.1979  0.3972
  302TMC3    C6 4601   0.715   2.515   1.256 -0.4183  0.3174  0.1613
  302TMC3     C 4602   0.663   2.935   1.274  0.8745 -0.1892 -0.4365
  302TMC3     O 4603   0.589   2.988   1.193  0.2114 -0.9038 -0.7515
  302TMC3     H 4604   0.746   2.765   1.478  0.9060  0.1844 -1.1972
  302TMC3    H1 4605   0.629   2.787   1.068 -0.4220  0.5583  0.1272
  302TMC3    H2 4606   0.743   2.411   1.250 -0.1111  0.4883 -1.4033
  302TMC3    C7 4607   0.644   2.515   1.035 -0.0475  0.0891  0.1856
  302TMC3    C8 4608   0.814   2.516   1.464 -0.0287 -0.0902 -0.2482
  302TMC3    O1 4609   0.690   2.398   1.023  0.1142  0.2480  0.5708
  302TMC3    O2 4610   0.897   2.429   1.430  0.2501  0.5773  0.0649
  303MPD2     C 4611   1.234   2.075  11.708  0.1504 -0.3255 -0.2502
  303MPD2    C1 4612   1.103   2.058  11.653  0.6657 -0.2961  0.0101
  303MPD2    C2 4613   1.071   2.096  11.525 -0.3240  0.0983  0.3699
  303MPD2    C3 4614   1.170   2.183  11.467  0.2437 -0.0526  0.5072
  303MPD2    C4 4615   1.292   2.206  11.520 -0.4663  0.1533  0.2742
  303MPD2    C5 4616   1.320   2.148  11.641 -0.3175  0.5395  0.1632
  303MPD2     H 4617   0.975   2.080  11.477 -0.0644  0.6533 -0.3510
  303MPD2    H1 4618   1.375   2.260  11.478  0.4565 -1.7243 -0.3239
  303MPD2    H2 4619   1.269   2.016  11.792 -0.5456 -1.2331 -0.6010
  303MPD2    H3 4620   1.421   2.146  11.682 -1.3210  0.4284  2.5791
  303MPD2     N 4621   1.143   2.248  11.342 -0.1462  0.0141  0.1420
  303MPD2    H5 4622   1.207   2.323  11.315  1.0938 -1.3406 -0.6387
  303MPD2    N1 4623   1.011   1.976  11.722 -0.1856  0.2072  0.2584
  303MPD2    H7 4624   0.917   1.979  11.682  0.2032 -0.3654 -0.7104
  304TMC3    C1 4625   0.922   1.823  11.867 -0.1774  0.3637  0.0911
  304TMC3    C2 4626   0.799   1.873  11.845  0.3439 -0.1489  0.2207
  304TMC3    C3 4627   0.701   1.784  11.802  0.5509  0.6011 -0.8416
  304TMC3    C4 4628   0.943   1.689  11.869  1.1967  0.2981 -0.6063
  304TMC3    C5 4629   0.845   1.599  11.837 -0.8623  0.4395  0.0371
  304TMC3    C6 4630   0.723   1.646  11.807  0.3644 -0.3703 -0.9323
  304TMC3     C 4631   1.037   1.901  11.833 -0.0159 -0.1435 -0.6041
  304TMC3     O 4632   1.139   1.859  11.883 -0.2994 -0.5916  0.3635
  304TMC3     H 4633   0.778   1.979  11.853 -0.5839 -0.0571 -3.4573
  304TMC3    H1 4634   1.045   1.651  11.872  0.5221 -1.5340 -1.2391
  304TMC3    H2 4635   0.640   1.581  11.784 -0.1486  0.0360 -0.2489
  304TMC3    C7 4636   0.881   1.502  11.736 -0.3658  0.0631  0.3960
  304TMC3    C8 4637   0.666   1.828  11.668  0.1490  0.2936 -0.0699
  304TMC3    O1 4638   0.792   1.478  11.656 -0.3675  0.5609  0.8188
  304TMC3    O2 4639   0.665   1.949  11.654 -0.0755  0.6529  0.3313
  305MPD2     C 4640   4.463   4.317  14.196 -0.1941  0.3429  0.2402
  305MPD2    C1 4641   4.476   4.199  14.257 -0.1758 -0.2978  0.3345
  305MPD2    C2 4642   4.463   4.088  14.189 -0.0579  0.2449  0.1215
  305MPD2    C3 4643   4.458   4.089  14.053  0.7547 -0.0546 -0.3835
  305MPD2    C4 4644   4.460   4.208  13.990  0.2338 -0.4149  0.2450
  305MPD2    C5 4645   4.456   4.322  14.059  0.2215 -0.2929 -0.5306
  305MPD2     H 4646   4.463   3.991  14.238  0.7428  0.3131  0.2633
  305MPD2    H1 4647   4.463   4.218  13.883 -0.7124  0.7705  0.3272
  305MPD2    H2 4648   4.468   4.406  14.258  0.6908  0.7959 -0.4878
  305MPD2    H3 4649   4.468   4.418  14.009  0.6659 -0.8948 -1.5807
  305MPD2     N 4650   4.456   3.970  13.966 -0.1041  0.6223 -0.1394
  305MPD2    H5 4651   4.446   3.981  13.866  1.2520 -0.6967 -0.4299
  305MPD2    N1 4652   4.493   4.200  14.399  0.4769  0.7272  0.4681
  305MPD2    H7 4653   4.501   4.296  14.433 -0.8015  0.9613  0.0893
  306TMC3    C1 4654   4.525   4.147  14.622 -0.3253 -0.5445  0.7276
  306TMC3    C2 4655   4.539   4.048  14.717  0.4676  0.0862  0.0441
  306TMC3    C3 4656   4.614   4.075  14.829  0.6628  0.7328  0.0692
  306TMC3    C4 4657   4.611   4.250  14.630 -0.1863 -0.2636 -0.2004
  306TMC3    C5 4658   4.680   4.270  14.748 -0.4940  0.2933  0.6010
  306TMC3    C6 4659   4.666   4.194  14.863  0.2504  0.6020  0.2878
  306TMC3     C 4660   4.498   4.096  14.488 -0.0603  0.6178  0.3822
  306TMC3     O 4661   4.478   3.977  14.471 -0.1280  0.2005 -0.2512
  306TMC3     H 4662   4.479   3.958  14.708 -0.1530  0.4258  0.8333
  306TMC3    H1 4663   4.646   4.302  14.542 -1.1370  1.7511  0.6015
  306TMC3    H2 4664   4.719   4.207  14.957  1.1268  0.8781 -0.2444
  306TMC3    C7 4665   0.060   4.357  14.725 -0.0266 -0.1443 -0.0320
  306TMC3    C8 4666   4.617   3.976  14.931 -0.8673 -0.7651  0.3973
  306TMC3    O1 4667   0.102   4.371  14.608  0.0899  0.3905  0.0764
  306TMC3    O2 4668   4.623   3.856  14.904  0.8160  0.2640 -0.0964
  307MPD2     C 4669   1.779   2.459   0.711 -0.4751  0.4438  0.7427
  307MPD2    C1 4670   1.670   2.545   0.705 -0.0300 -0.1080 -0.5002
  307MPD2    C2 4671   1.560   2.538   0.796 -0.0314  1.0318 -0.4226
  307MPD2    C3 4672   1.569   2.435   0.892  0.1295  0.2733  0.2532
  307MPD2    C4 4673   1.667   2.341   0.891  0.2185  0.1536  0.4056
  307MPD2    C5 4674   1.767   2.355   0.797  0.7082 -1.0475  0.4660
  307MPD2     H 4675   1.480   2.612   0.794 -1.4021 -0.3854  1.8547
  307MPD2    H1 4676   1.671   2.251   0.952 -1.3501 -0.7673 -0.8798
  307MPD2    H2 4677   1.862   2.461   0.641  0.4761 -0.7504  1.8461
  307MPD2    H3 4678   1.840   2.275   0.799  0.2570 -1.4130  2.3860
  307MPD2     N 4679   1.462   2.432   0.986 -0.1068 -0.5094 -0.2278
  307MPD2    H5 4680   1.396   2.509   0.980 -2.6003 -2.6351  0.0975
  307MPD2    N1 4681   1.680   2.659   0.618 -0.1447  0.4072  0.1329
  307MPD2    H7 4682   1.603   2.725   0.623 -0.6745 -0.1697 -0.3573
  308TMC3    C1 4683   1.096   2.265   1.137  0.1890 -0.0775  0.4740
  308TMC3    C2 4684   1.037   2.389   1.121  0.0363  0.2983 -0.4808
  308TMC3    C3 4685   1.113   2.497   1.101  0.0427  0.1742 -0.0794
  308TMC3    C4 4686   1.228   2.255   1.155  0.6342 -0.0888  0.0440
  308TMC3    C5 4687   1.303   2.369   1.142  0.4874  0.3376  0.1806
  308TMC3    C6 4688   1.251   2.496   1.120 -0.3695 -0.7939 -0.4166
  308TMC3     C 4689   1.016   2.141   1.096 -0.2426 -0.5181  0.2720
  308TMC3     O 4690   1.091   2.046   1.080 -0.3080  0.7030 -0.0026
  308TMC3     H 4691   0.930   2.398   1.132  0.2326  0.5941  1.2375
  308TMC3    H1 4692   1.274   2.159   1.175  1.6693  0.3498 -0.2317
  308TMC3    H2 4693   1.304   2.590   1.132  0.7222 -1.5466  0.7174
  308TMC3    C7 4694   1.435   2.338   1.082  0.0753 -0.2915  0.1985
  308TMC3    C8 4695   1.046   2.611   1.037 -0.0977  0.0241  0.0012
  308TMC3    O1 4696   1.475   2.228   1.116  0.6896  0.0434  0.1975
  308TMC3    O2 4697   0.950   2.582   0.962 -0.2584 -0.0710  0.3164
  309MPD2     C 4698   1.013   2.637  17.650  0.0929 -0.4732  0.0910
  309MPD2    C1 4699   0.978   2.640  17.519  0.4898  0.4006 -0.2734
  309MPD2    C2 4700   0.845   2.687  17.491 -0.2723 -0.9173  0.4855
  309MPD2    C3 4701   0.751   2.734  17.589  0.7351 -0.3078 -0.5641
  309MPD2    C4 4702   0.794   2.704  17.719  0.3118  0.1153 -0.0139
  309MPD2    C5 4703   0.912   2.647  17.746  0.8915 -0.2841  0.8605
  309MPD2     H 4704   0.817   2.683  17.387  2.2337 -1.2587 -0.1770
  309MPD2    H1 4705   0.724   2.720   0.038  1.7015  3.9774  0.4683
  309MPD2    H2 4706   1.110   2.608  17.690 -0.4566 -2.4606 -0.0052
  309MPD2    H3 4707   0.942   2.623   0.087 -3.2559  1.8272  2.5525
  309MPD2     N 4708   0.623   2.797  17.576 -0.9097  0.0373 -0.1263
  309MPD2    H5 4709   0.563   2.820  17.654 -0.9391  1.4340 -0.5663
  309MPD2    N1 4710   1.066   2.605  17.414  0.0744  0.2147  0.7185
  309MPD2    H7 4711   1.035   2.630  17.320 -2.8023 -2.4784  0.9533
  310TMC3    C1 4712   1.256   2.529  17.306 -0.4525  0.1640  0.5820
  310TMC3    C2 4713   1.203   2.573  17.185 -0.5022 -0.0517 -0.6417
  310TMC3    C3 4714   1.273   2.543  17.068 -0.3486  0.1024  0.4704
  310TMC3    C4 4715   1.375   2.459  17.310  0.8392 -0.5841  0.3145
  310TMC3    C5 4716   1.443   2.436  17.189 -0.2398 -0.3039  0.0553
  310TMC3    C6 4717   1.392   2.465  17.067 -0.3165  0.2640  0.3480
  310TMC3     C 4718   1.186   2.547  17.428 -0.0496 -0.6682 -0.0439
  310TMC3     O 4719   1.244   2.501  17.526 -0.0711  0.2041 -0.1717
  310TMC3     H 4720   1.126   2.649  17.190  0.3570  0.8989 -1.8336
  310TMC3    H1 4721   1.410   2.422  17.406  0.3731 -2.4057 -0.2186
  310TMC3    H2 4722   1.448   2.453  16.975 -1.4014  0.0047 -0.2831
  310TMC3    C7 4723   1.536   2.327  17.192 -0.1559 -0.8013  0.2966
  310TMC3    C8 4724   1.239   2.607  16.939  0.1848 -0.0827  0.0682
  310TMC3    O1 4725   1.551   2.259  17.093 -0.3456 -0.2278  0.0604
  310TMC3    O2 4726   1.313   2.611  16.845 -0.1617  0.1143  0.0139
  311MPD2     C 4727   3.233   4.263  12.285 -0.6319 -0.6210 -0.5004
  311MPD2    C1 4728   3.334   4.233  12.378  0.0307  1.3716  0.7560
  311MPD2    C2 4729   3.296   4.167  12.491 -0.0180  0.1287 -0.1025
  311MPD2    C3 4730   3.173   4.114  12.501  0.7293 -0.0666  0.2953
  311MPD2    C4 4731   3.076   4.140  12.404 -0.8056  0.3708  0.5642
  311MPD2    C5 4732   3.105   4.213  12.292  0.1054  0.3510 -0.3590
  311MPD2     H 4733   3.369   4.159  12.570  0.0644  3.4126  0.1439
  311MPD2    H1 4734   2.973   4.107  12.409 -0.9803  1.0968  1.6736
  311MPD2    H2 4735   3.257   4.323  12.198  3.1814  1.1953  1.8361
  311MPD2    H3 4736   3.031   4.223  12.213 -0.9037  1.9651  0.7988
  311MPD2     N 4737   3.145   4.041  12.621  0.0385  0.0898  0.2143
  311MPD2    H5 4738   3.221   4.041  12.689  0.5364 -0.7014 -0.3484
  311MPD2    N1 4739   3.472   4.274  12.366 -0.7080 -0.2515  1.0013
  311MPD2    H7 4740   3.538   4.232  12.431  0.6850  1.6840  0.8361
  312TMC3    C1 4741   3.035   3.929  12.794 -0.6735 -0.2206  0.0001
  312TMC3    C2 4742   2.905   3.907  12.841  0.1321  0.0517 -0.0658
  312TMC3    C3 4743   2.871   3.949  12.965 -0.0050 -0.2178  0.0006
  312TMC3    C4 4744   3.130   3.977  12.877  0.0913  0.6846 -0.1040
  312TMC3    C5 4745   3.090   4.006  13.005 -0.8023  0.2781 -0.4504
  312TMC3    C6 4746   2.961   4.011  13.046  0.4825 -0.2995  0.9867
  312TMC3     C 4747   3.035   3.969  12.658 -0.2458  0.2286  0.2321
  312TMC3     O 4748   2.940   3.935  12.587 -0.2247  0.6736  0.6982
  312TMC3     H 4749   2.827   3.890  12.769 -0.5970  1.2409  0.4322
  312TMC3    H1 4750   3.232   3.980  12.840  0.7921 -3.1045  1.5530
  312TMC3    H2 4751   2.927   4.046  13.142 -3.1836 -1.1109  0.0162
  312TMC3    C7 4752   3.186   3.980  13.106  0.1802  0.0419 -0.2082
  312TMC3    C8 4753   2.738   3.920  13.021  0.2673  0.7869 -0.3159
  312TMC3    O1 4754   3.302   3.959  13.070 -0.0933  0.0013 -0.0311
  312TMC3    O2 4755   2.688   3.815  13.008  0.0860 -0.2193  0.5943
  313MPD2     C 4756   2.585   3.033  11.153 -0.3806  0.7506 -0.0556
  313MPD2    C1 4757   2.467   3.105  11.143 -0.4606  0.3280 -0.9841
  313MPD2    C2 4758   2.365   3.068  11.064  0.2991 -0.4778  0.5921
  313MPD2    C3 4759   2.373   2.950  10.990 -0.3565 -0.0424 -0.4558
  313MPD2    C4 4760   2.488   2.875  11.001  0.3114  0.4092  0.1183
  313MPD2    C5 4761   2.592   2.920  11.082  0.5138 -0.5545 -0.4445
  313MPD2     H 4762   2.286   3.139  11.043  1.4124  0.3269 -0.8845
  313MPD2    H1 4763   2.495   2.774  10.961  1.0509  1.0842 -1.4517
  313MPD2    H2 4764   2.669   3.056  11.218  0.0370  0.8606 -0.6370
  313MPD2    H3 4765   2.683   2.863  11.094  1.7045  1.9455  2.5797
  313MPD2     N 4766   2.268   2.909  10.908  1.2234 -0.5781  0.1819
  313MPD2    H5 4767   2.183   2.961  10.925  0.7182 -1.5931  0.7822
  313MPD2    N1 4768   2.444   3.228  11.217 -0.0870  0.2533  0.2722
  313MPD2    H7 4769   2.355   3.268  11.189 -0.2460  0.5433  1.2032
  314TMC3    C1 4770   2.462   3.390  11.370 -0.6691  0.1021 -0.3969
  314TMC3    C2 4771   2.557   3.489  11.398 -0.3747  0.1877 -0.2931
  314TMC3    C3 4772   2.511   3.620  11.376  0.4970  1.2216 -0.1139
  314TMC3    C4 4773   2.333   3.411  11.333  0.0142 -1.0942  0.1233
  314TMC3    C5 4774   2.297   3.542  11.319 -0.2546  0.0105  0.5536
  314TMC3    C6 4775   2.376   3.650  11.352 -0.5028  0.3557 -0.0771
  314TMC3     C 4776   2.519   3.270  11.323 -0.5873  0.3438  0.9526
  314TMC3     O 4777   2.630   3.237  11.362  0.1950 -0.3633  0.3570
  314TMC3     H 4778   2.662   3.462  11.396 -0.4499 -0.0889 -0.5071
  314TMC3    H1 4779   2.265   3.330  11.309  0.3111 -1.6102  1.0266
  314TMC3    H2 4780   2.335   3.750  11.336 -0.2589  0.4541 -0.0787
  314TMC3    C7 4781   2.219   3.558  11.198 -0.5353  0.2797 -0.3197
  314TMC3    C8 4782   2.589   3.736  11.424 -0.1016 -0.7619 -0.1280
  314TMC3    O1 4783   2.099   3.576  11.218 -0.1878 -0.1973 -0.1637
  314TMC3    O2 4784   2.555   3.853  11.396 -0.6445  0.0281 -0.6929
  315MPD2     C 4785   2.298   2.617  17.520 -0.0578  0.3670 -0.6522
  315MPD2    C1 4786   2.329   2.609  17.655  0.1947  0.6417 -0.3011
  315MPD2    C2 4787   2.417   2.698  17.708  0.4837  0.3206 -0.0427
  315MPD2    C3 4788   2.487   2.785  17.636  0.4216  0.0929 -0.2515
  315MPD2    C4 4789   2.469   2.786  17.496 -0.3046  0.3472 -0.0019
  315MPD2    C5 4790   2.374   2.701  17.440 -0.6695 -0.0952 -0.2316
  315MPD2     H 4791   2.430   2.688   0.054  2.6453  1.3519 -0.2304
  315MPD2    H1 4792   2.523   2.860  17.438 -0.0538  0.2101  0.0576
  315MPD2    H2 4793   2.217   2.561  17.475  1.4442 -0.1342 -2.7260
  315MPD2    H3 4794   2.354   2.727  17.337  0.5446 -0.1676 -0.4881
  315MPD2     N 4795   2.578   2.859  17.713  0.0424  0.0618 -0.3944
  315MPD2    H5 4796   2.583   2.846   0.052 -1.7049  0.0547 -0.2984
  315MPD2    N1 4797   2.261   2.516  17.745 -0.1678  0.2302 -0.1115
  315MPD2    H7 4798   2.298   2.517   0.078 -0.1155  1.3020 -0.1424
  316TMC3    C1 4799   2.761   2.993  17.750  0.0091 -0.2610  0.0116
  316TMC3    C2 4800   2.774   2.915   0.097 -0.3980  0.3563 -0.3988
  316TMC3    C3 4801   2.793   2.977   0.215 -0.1684  0.1131  0.2805
  316TMC3    C4 4802   2.771   3.122  17.758  0.0927 -0.5727  0.2728
  316TMC3    C5 4803   2.772   3.184   0.119  0.0631  0.4416 -0.3011
  316TMC3    C6 4804   2.790   3.111   0.232 -0.5637  0.8025 -0.0653
  316TMC3     C 4805   2.667   2.942  17.656  0.2561  0.1747  0.2560
  316TMC3     O 4806   2.668   2.996  17.543 -0.1611  0.0902  0.1486
  316TMC3     H 4807   2.790   2.808   0.086 -0.1205  0.1072  2.2273
  316TMC3    H1 4808   2.763   3.180  17.667 -0.7949  0.1850  0.8209
  316TMC3    H2 4809   2.801   3.163   0.326 -0.3235  3.6206 -1.6370
  316TMC3    C7 4810   2.736   3.322   0.135  1.0192 -0.0016 -0.4080
  316TMC3    C8 4811   2.853   2.908   0.333 -0.1938 -0.0025  0.0452
  316TMC3    O1 4812   2.715   3.357   0.249 -0.4306  0.4307 -0.4215
  316TMC3    O2 4813   2.888   2.981   0.424  0.3345  0.3748 -0.3571
  317MPD2     C 4814   4.659   1.258  13.241 -0.2490  0.2337 -0.7078
  317MPD2    C1 4815   0.004   1.175  13.171  0.2602 -0.0795  0.2358
  317MPD2    C2 4816   0.049   1.067  13.246  0.1937  0.8418  1.0572
  317MPD2    C3 4817   0.050   1.065  13.385  0.2934  0.2322 -0.4908
  317MPD2    C4 4818   4.730   1.165  13.458  1.1137 -0.3500  0.3113
  317MPD2    C5 4819   4.667   1.259  13.385 -0.1856  0.4982 -0.0503
  317MPD2     H 4820   0.091   0.986  13.188 -1.0373  0.7414  0.2954
  317MPD2    H1 4821   4.733   1.170  13.566 -0.8068 -1.6464  0.4177
  317MPD2    H2 4822   4.610   1.350  13.210 -0.8141  0.3457  0.5170
  317MPD2    H3 4823   4.620   1.348  13.425 -0.7685  0.5217 -0.7876
  317MPD2     N 4824   0.115   0.954  13.440 -0.7446 -0.0718  0.3242
  317MPD2    H5 4825   0.159   0.885  13.380  0.6954  2.2351 -1.2664
  317MPD2    N1 4826   0.027   1.183  13.037  0.3305 -0.0973  0.1827
  317MPD2    H7 4827   0.098   1.119  13.005  0.3810  0.9413 -1.7640
  318TMC3    C1 4828   0.163   0.806  13.611  0.1782  0.3949  0.2981
  318TMC3    C2 4829   0.106   0.694  13.541 -0.4093 -0.5077  0.1273
  318TMC3    C3 4830   0.106   0.576  13.604  0.4186  0.3584  0.0571
  318TMC3    C4 4831   0.216   0.785  13.738  0.5396  0.3423 -0.1109
  318TMC3    C5 4832   0.197   0.667  13.799 -0.9447 -0.2402 -0.8981
  318TMC3    C6 4833   0.138   0.562  13.735 -0.6302 -0.1750 -0.0493
  318TMC3     C 4834   0.124   0.935  13.577 -0.2559 -0.7808  0.0094
  318TMC3     O 4835   0.106   1.008  13.674 -0.3999 -0.4065 -0.1275
  318TMC3     H 4836   0.068   0.702  13.440 -2.0212  0.4169  0.8143
  318TMC3    H1 4837   0.269   0.862  13.794  1.5757 -2.0228  2.1358
  318TMC3    H2 4838   0.121   0.464  13.778  0.8061  0.5988  2.2402
  318TMC3    C7 4839   0.305   0.625  13.889  0.6751 -0.5840 -0.0547
  318TMC3    C8 4840   0.052   0.455  13.541  0.1434  0.2351 -0.6181
  318TMC3    O1 4841   0.322   0.701  13.981 -0.2493 -0.2440 -0.0405
  318TMC3    O2 4842   0.078   0.346  13.592  0.2072 -0.2597  1.0114
  319MPD2     C 4843   0.696   2.240  16.937  0.0504  0.3470 -0.2955
  319MPD2    C1 4844   0.634   2.127  16.991 -0.0525 -0.2325 -0.5467
  319MPD2    C2 4845   0.559   2.041  16.911  0.8504  0.3995 -0.2684
  319MPD2    C3 4846   0.552   2.070  16.776  0.4150 -0.1916 -0.1283
  319MPD2    C4 4847   0.612   2.182  16.725  0.9851 -0.3688 -0.1510
  319MPD2    C5 4848   0.684   2.263  16.806 -0.7555  0.5949 -0.0981
  319MPD2     H 4849   0.509   1.954  16.955 -0.1930  0.8930 -0.4836
  319MPD2    H1 4850   0.625   2.195  16.618  1.4635 -0.3275 -0.0891
  319MPD2    H2 4851   0.766   2.307  16.986  0.3657 -0.0019 -0.2668
  319MPD2    H3 4852   0.742   2.342  16.759  1.4896  0.4891  2.4656
  319MPD2     N 4853   0.479   1.987  16.687 -0.2017 -0.1817 -0.0567
  319MPD2    H5 4854   0.470   2.018  16.591  0.2870 -1.1447 -0.4128
  319MPD2    N1 4855   0.650   2.104  17.130  0.2872 -0.0925  0.5042
  319MPD2    H7 4856   0.625   2.014  17.169 -0.0100 -1.7469 -3.4730
  320TMC3    C1 4857   0.356   1.804  16.623  0.0509  0.2119  0.3410
  320TMC3    C2 4858   0.271   1.882  16.547 -0.4286  0.2767  0.0395
  320TMC3    C3 4859   0.194   1.824  16.450  0.1699 -0.5264 -0.2465
  320TMC3    C4 4860   0.362   1.667  16.609  0.3321  0.6580 -0.2052
  320TMC3    C5 4861   0.278   1.618  16.513  0.4859  0.1398 -0.5624
  320TMC3    C6 4862   0.195   1.686  16.432 -0.4506 -0.0484  0.8726
  320TMC3     C 4863   0.437   1.863  16.726 -0.1011  0.4419  0.4757
  320TMC3     O 4864   0.469   1.790  16.817  0.8766 -0.0170  0.3638
  320TMC3     H 4865   0.266   1.986  16.576 -1.3168 -0.8790  3.9669
  320TMC3    H1 4866   0.434   1.604  16.660 -0.5238  0.6591  1.0121
  320TMC3    H2 4867   0.155   1.639  16.343  0.3380  2.4065 -0.7861
  320TMC3    C7 4868   0.275   1.468  16.520 -0.0427 -0.6165 -0.5342
  320TMC3    C8 4869   0.129   1.931  16.363  0.6478  0.1224  0.1060
  320TMC3    O1 4870   0.242   1.405  16.423 -0.2464  0.2755 -0.9252
  320TMC3    O2 4871   0.154   2.047  16.397  0.3635 -0.1195  0.2060
  321TMC3    C1 4872   0.718   2.127  17.346  0.0465  0.2531  0.0175
  321TMC3    C2 4873   0.717   1.987  17.359  0.3589  1.0342 -0.0652
  321TMC3    C3 4874   0.712   1.946  17.494  0.8523  0.1660 -0.6762
  321TMC3    C4 4875   0.710   2.210  17.452 -0.2224 -0.6083  0.3533
  321TMC3    C5 4876   0.693   2.159  17.576 -0.1490 -0.5750  0.5260
  321TMC3    C6 4877   0.684   2.024  17.594 -0.1103  0.9501  0.3907
  321TMC3     C 4878   0.711   2.187  17.218 -0.4893  0.2663  0.0427
  321TMC3     O 4879   0.730   2.307  17.211  0.6552  0.2586  0.0441
  321TMC3     H 4880   0.718   1.923  17.271  0.6284  1.9575 -0.7357
  321TMC3    H1 4881   0.722   2.317  17.440  0.8356 -0.7297  0.3723
  321TMC3    H2 4882   0.661   1.983  17.692  0.2128  1.7459  0.7950
  321TMC3    C7 4883   0.770   2.232  17.674  0.0553 -0.2505 -0.7377
  321TMC3    C8 4884   0.810   1.847  17.532  0.7509 -0.6411  0.4436
  321TMC3    O1 4885   0.795   2.353  17.657  0.4085  0.4363  0.2606
  321TMC3    O2 4886   0.822   1.842  17.655 -0.0191 -0.4889  0.2808
  322MPD2     C 4887   4.262   3.532  13.993  0.6401  0.3659 -0.7507
  322MPD2    C1 4888   4.306   3.462  14.100  0.2052  0.2227  0.3640
  322MPD2    C2 4889   4.351   3.327  14.093  0.7033 -0.5575  0.0925
  322MPD2    C3 4890   4.350   3.265  13.967 -0.0886  0.8923 -0.6794
  322MPD2    C4 4891   4.305   3.339  13.860 -0.0577 -0.2994 -0.1877
  322MPD2    C5 4892   4.257   3.467  13.874  0.3988  0.1201  0.0552
  322MPD2     H 4893   4.377   3.272  14.182  2.8286  1.7092  0.8639
  322MPD2    H1 4894   4.293   3.300  13.760  0.6595 -0.3861 -0.2416
  322MPD2    H2 4895   4.221   3.630  14.012 -1.4744 -0.7544  0.5433
  322MPD2    H3 4896   4.217   3.515  13.786  0.1039 -0.7814 -0.3012
  322MPD2     N 4897   4.393   3.133  13.963 -0.0454 -0.1421 -0.5766
  322MPD2    H5 4898   4.421   3.095  14.052 -0.8756 -1.7412 -1.0000
  322MPD2    N1 4899   4.322   3.534  14.218  0.7156 -0.4833 -0.1161
  322MPD2    H7 4900   4.303   3.633  14.215 -1.6038 -0.9620 -1.3865
  323TMC3    C1 4901   4.389   3.573  14.444 -0.6593  0.4118  0.4561
  323TMC3    C2 4902   4.484   3.655  14.402 -0.5579 -0.5903  0.0655
  323TMC3    C3 4903   4.572   3.695  14.505  0.3910  0.7725 -0.2589
  323TMC3    C4 4904   4.364   3.543  14.580  0.1986 -0.1620 -0.3887
  323TMC3    C5 4905   4.445   3.597  14.676 -0.4904  0.4227 -0.5587
  323TMC3    C6 4906   4.550   3.677  14.637 -0.2688 -0.2661  0.5259
  323TMC3     C 4907   4.342   3.480  14.342 -0.5328  0.0102 -0.3956
  323TMC3     O 4908   4.313   3.363  14.375  0.1422 -0.3967  0.0537
  323TMC3     H 4909   4.515   3.646  14.298 -0.7098 -1.1403  0.0677
  323TMC3    H1 4910   4.289   3.467  14.601 -0.3730  0.1795 -1.2143
  323TMC3    H2 4911   4.619   3.731  14.701  0.4743 -1.5917  0.8449
  323TMC3    C7 4912   4.471   3.514  14.791 -0.0431 -0.4637 -0.0659
  323TMC3    C8 4913   4.709   3.711  14.458 -0.2423 -0.1535  0.0863
  323TMC3    O1 4914   4.411   3.406  14.789 -0.5358 -0.6163  0.1013
  323TMC3    O2 4915   0.051   3.668  14.536  0.9260  0.4214  0.1799
  324MPD2     C 4916   1.737   0.394  14.336  0.4808 -0.4565 -0.7159
  324MPD2    C1 4917   1.795   0.290  14.409 -0.9012  0.3853  0.0053
  324MPD2    C2 4918   1.714   0.218  14.494 -0.4780 -0.2775 -0.1909
  324MPD2    C3 4919   1.583   0.245  14.512 -0.1943 -0.5175 -0.5057
  324MPD2    C4 4920   1.529   0.351  14.443  0.2976 -0.1321 -0.0166
  324MPD2    C5 4921   1.602   0.417  14.350 -0.3172 -0.7593 -0.2751
  324MPD2     H 4922   1.750   0.134  14.553  0.1464  0.1459  0.0320
  324MPD2    H1 4923   1.423   0.374  14.440  0.7507  1.5100 -3.2884
  324MPD2    H2 4924   1.792   0.470  14.281  2.2080 -1.2849 -0.1563
  324MPD2    H3 4925   1.560   0.496  14.289 -0.6781 -1.5445 -1.0392
  324MPD2     N 4926   1.495   0.166  14.581  0.1010  0.1799  0.2657
  324MPD2    H5 4927   1.408   0.213  14.602 -0.1241 -0.2421  0.2651
  324MPD2    N1 4928   1.936   0.279  14.437  0.6254  0.4422 -0.6229
  324MPD2    H7 4929   1.967   0.211  14.506  0.1547  0.9125  0.0437
  325TMC3    C1 4930   1.403   4.731  14.689  0.3193  0.4074 -0.4953
  325TMC3    C2 4931   1.338   4.630  14.617 -0.1572  0.2188 -0.8378
  325TMC3    C3 4932   1.200   4.622  14.621  0.4361  0.0079  0.5647
  325TMC3    C4 4933   1.328   0.080  14.758  0.2293  0.0942 -0.4870
  325TMC3    C5 4934   1.190   0.061  14.772 -0.0697 -0.1057 -0.4078
  325TMC3    C6 4935   1.126   4.705  14.698 -0.6016  0.2453 -0.2913
  325TMC3     C 4936   1.516   0.038  14.619  0.1422 -0.2226 -0.1119
  325TMC3     O 4937   1.596   4.692  14.578  0.1735 -0.0231 -0.0355
  325TMC3     H 4938   1.391   4.547  14.572  0.1246 -0.1609  0.1741
  325TMC3    H1 4939   1.378   0.164  14.805 -0.4436  1.7047 -2.6575
  325TMC3    H2 4940   1.018   4.700  14.707 -0.6262 -0.7848 -1.1210
  325TMC3    C7 4941   1.117   0.171  14.824 -0.4092  0.4495 -0.3481
  325TMC3    C8 4942   1.140   4.522  14.540  0.2698  0.5414 -0.7310
  325TMC3    O1 4943   1.190   0.266  14.859  0.2343  0.2256 -0.6672
  325TMC3    O2 4944   1.215   4.427  14.514  0.0537  0.6451  0.5492
  326MPD2     C 4945   2.343   0.347  11.529 -0.1336  0.1300 -0.8262
  326MPD2    C1 4946   2.315   0.386  11.397  0.5221 -0.1801 -0.0150
  326MPD2    C2 4947   2.406   0.468  11.333  0.2797  0.2837  0.1216
  326MPD2    C3 4948   2.518   0.521  11.395 -0.3897 -0.5265  0.4458
  326MPD2    C4 4949   2.549   0.468  11.518 -0.3021  0.0328 -0.2431
  326MPD2    C5 4950   2.466   0.381  11.582 -0.4746 -0.1796  0.0760
  326MPD2     H 4951   2.385   0.495  11.230 -0.0566 -0.8134 -0.1007
  326MPD2    H1 4952   2.639   0.506  11.565 -0.3575 -1.3599  0.9621
  326MPD2    H2 4953   2.283   0.271  11.578  0.6772 -0.7751 -1.2423
  326MPD2    H3 4954   2.492   0.338  11.678 -1.0536 -1.9460 -0.5636
  326MPD2     N 4955   2.615   0.612  11.341  0.6596 -0.2987  0.4515
  326MPD2    H5 4956   2.690   0.641  11.403  0.7843  0.8319 -0.2222
  326MPD2    N1 4957   2.204   0.341  11.316 -0.0695  0.3405  0.2192
  326MPD2    H7 4958   2.216   0.364  11.218  0.0398 -1.6398 -0.2212
  327TMC3    C1 4959   1.994   0.290  11.260 -0.3791  0.8302 -0.0178
  327TMC3    C2 4960   1.885   0.369  11.260 -0.3961 -0.1690 -0.5611
  327TMC3    C3 4961   1.838   0.420  11.145  0.1934 -0.1451 -0.3058
  327TMC3    C4 4962   2.061   0.264  11.141 -0.0240 -0.1245 -0.1625
  327TMC3    C5 4963   2.010   0.315  11.020  0.1559 -0.7213 -0.6397
  327TMC3    C6 4964   1.894   0.394  11.027 -0.0257 -0.1921 -1.2252
  327TMC3     C 4965   2.088   0.294  11.363  0.5263  0.7626  0.0065
  327TMC3     O 4966   2.048   0.295  11.480 -0.1775 -0.0419  0.0993
  327TMC3     H 4967   1.855   0.404  11.358 -2.3788 -1.2008 -0.8136
  327TMC3    H1 4968   2.139   0.189  11.138  1.5493  1.5098 -0.2686
  327TMC3    H2 4969   1.866   0.455  10.941 -1.5528 -1.7983 -1.8604
  327TMC3    C7 4970   2.103   0.339  10.914  0.7881  0.0289  0.4107
  327TMC3    C8 4971   1.728   0.516  11.154  0.6505 -0.7166 -1.2908
  327TMC3    O1 4972   2.059   0.400  10.817 -0.2651 -0.7553  0.4734
  327TMC3    O2 4973   1.719   0.581  11.054 -0.1701  0.0023  0.6424
  328MPD2     C 4974   0.385   0.889  17.279  0.0045 -0.6508 -0.4747
  328MPD2    C1 4975   0.278   0.811  17.309  0.2179 -0.2822 -0.3161
  328MPD2    C2 4976   0.182   0.788  17.216 -0.0702 -0.1782 -0.4113
  328MPD2    C3 4977   0.195   0.836  17.087 -0.5780 -0.0099  0.2712
  328MPD2    C4 4978   0.309   0.912  17.060 -1.1296 -0.5143  0.4502
  328MPD2    C5 4979   0.398   0.938  17.155  0.3468 -1.5201  0.0601
  328MPD2     H 4980   0.089   0.738  17.240  0.5979 -1.0698  0.3126
  328MPD2    H1 4981   0.322   0.955  16.961  0.9010  0.0951  0.9816
  328MPD2    H2 4982   0.460   0.918  17.352 -0.7343  1.4575 -0.5545
  328MPD2    H3 4983   0.482   1.002  17.130 -1.4115  1.7078  2.4435
  328MPD2     N 4984   0.090   0.826  16.989 -0.7366  0.0166  0.6521
  328MPD2    H5 4985   0.095   0.884  16.906 -2.5500  0.7060  1.0267
  328MPD2    N1 4986   0.273   0.771  17.445 -0.4419 -0.4020  0.4188
  328MPD2    H7 4987   0.354   0.788  17.505 -0.8292 -0.2515  0.8971
  329TMC3    C1 4988   0.177   0.709  17.643 -0.3925 -0.3269 -0.4652
  329TMC3    C2 4989   0.222   0.823  17.696 -0.1402 -0.0794 -0.2583
  329TMC3    C3 4990   0.178   0.863   0.059 -0.2269 -0.0935  0.1051
  329TMC3    C4 4991   0.092   0.628  17.715  0.8349 -0.3974 -0.6604
  329TMC3    C5 4992   0.057   0.665   0.078  0.7724 -0.3980  0.5200
  329TMC3    C6 4993   0.094   0.782   0.132  0.3954  0.1505 -0.0731
  329TMC3     C 4994   0.165   0.712  17.506 -0.1103  0.3507 -0.1010
  329TMC3     O 4995   0.072   0.648  17.453 -0.1495 -0.2130 -0.7348
  329TMC3     H 4996   0.290   0.899  17.658 -0.3918 -1.3236 -3.2179
  329TMC3    H1 4997   0.041   0.543  17.671 -3.1417  0.2515  2.6780
  329TMC3    H2 4998   0.058   0.808   0.231  1.4390 -0.5771  0.5014
  329TMC3    C7 4999   4.708   0.584   0.155  0.0426 -0.2826  0.4414
  329TMC3    C8 5000   0.213   0.990   0.121 -0.3938  0.6141  0.2303
  329TMC3    O1 5001   4.685   0.634   0.265 -0.4720 -0.3602 -0.4831
  329TMC3    O2 5002   0.320   1.038   0.088  0.1020 -0.1916 -0.4197
  330TMC3    C1 5003   2.650   3.912   9.271 -0.6259 -0.0748 -0.1086
  330TMC3    C2 5004   2.636   3.918   9.409  0.0896  0.1397 -0.4372
  330TMC3    C3 5005   2.742   3.873   9.474 -0.1282 -0.0830 -0.8540
  330TMC3    C4 5006   2.763   3.860   9.211  0.1436  0.3100 -0.2713
  330TMC3    C5 5007   2.859   3.819   9.292  0.0001  0.0108 -0.4356
  330TMC3    C6 5008   2.861   3.825   9.424  0.4928 -0.0136 -0.0669
  330TMC3     C 5009   2.557   3.966   9.182 -0.1263  0.4869 -0.0895
  330TMC3     O 5010   2.533   3.897   9.084 -0.1192  0.6391 -0.7579
  330TMC3     H 5011   2.553   3.960   9.465 -0.7009 -3.2649  0.9056
  330TMC3    H1 5012   2.775   3.857   9.103 -1.0055  0.1434 -0.3865
  330TMC3    H2 5013   2.942   3.802   9.491  0.8197  0.4367 -0.3006
  330TMC3    C7 5014   2.983   3.790   9.216  1.5132 -0.1320 -0.0441
  330TMC3    C8 5015   2.735   3.870   9.615 -0.6519  0.8123 -0.2920
  330TMC3    O1 5016   3.003   3.831   9.105  0.4913 -0.2306 -0.3189
  330TMC3    O2 5017   2.835   3.908   9.674  0.6178 -0.5703  0.0225
  331MPD2     C 5018   0.364   3.623  13.162  0.0547  0.2729  0.1654
  331MPD2    C1 5019   0.438   3.606  13.043 -0.3942 -0.4611  0.5990
  331MPD2    C2 5020   0.515   3.493  13.031 -0.1307 -0.2882  0.2720
  331MPD2    C3 5021   0.540   3.418  13.142  1.0653  0.7163 -0.2968
  331MPD2    C4 5022   0.465   3.442  13.258  0.4054  0.7473 -0.1355
  331MPD2    C5 5023   0.375   3.541  13.268  0.1637  0.4312  0.7386
  331MPD2     H 5024   0.557   3.467  12.935 -0.8287  2.1017 -0.6918
  331MPD2    H1 5025   0.474   3.372  13.341 -0.3015 -0.5895 -1.1885
  331MPD2    H2 5026   0.297   3.707  13.173 -0.9285 -0.7174  1.8334
  331MPD2    H3 5027   0.302   3.560  13.346  0.8693 -0.5142  1.6280
  331MPD2     N 5028   0.644   3.327  13.133 -0.7160 -0.5649 -0.4252
  331MPD2    H5 5029   0.683   3.316  13.040  0.3904 -3.3511  0.3905
  331MPD2    N1 5030   0.414   3.710  12.946 -0.3291  0.2159  0.4226
  331MPD2    H7 5031   0.363   3.789  12.982 -0.6087 -0.1209  0.7622
  332TMC3    C1 5032   0.854   3.240  13.208 -0.8823  1.0162 -0.2109
  332TMC3    C2 5033   0.893   3.240  13.077 -0.2930 -0.2783 -0.1124
  332TMC3    C3 5034   1.024   3.273  13.056  0.0691  0.2711  0.8537
  332TMC3    C4 5035   0.937   3.273  13.314 -0.7387  0.5014  0.4228
  332TMC3    C5 5036   1.072   3.290  13.290 -0.9484  0.1892  0.3341
  332TMC3    C6 5037   1.112   3.302  13.159  0.4426 -0.2479  0.0213
  332TMC3     C 5038   0.720   3.286  13.243 -0.2105  0.2538  0.2993
  332TMC3     O 5039   0.699   3.312  13.362  0.1049 -0.0862 -0.3776
  332TMC3     H 5040   0.824   3.219  12.995 -0.8697  0.6657  0.1295
  332TMC3    H1 5041   0.912   3.244  13.415  3.8755 -0.8558  1.1908
  332TMC3    H2 5042   1.217   3.313  13.132 -0.0583 -1.3552 -2.4290
  332TMC3    C7 5043   1.139   3.366  13.387  0.2728  0.3636 -0.3066
  332TMC3    C8 5044   1.067   3.302  12.920 -0.4228  0.0253  0.6008
  332TMC3    O1 5045   1.089   3.379  13.502  0.2608  0.1351 -0.0331
  332TMC3    O2 5046   1.170   3.370  12.910 -0.2689 -0.0635 -0.2262
  333MPD2     C 5047   0.615   4.073  11.167  0.1205  0.1223 -0.5346
  333MPD2    C1 5048   0.685   3.973  11.102 -0.4684  0.1384 -0.0872
  333MPD2    C2 5049   0.622   3.846  11.088  0.5584 -0.4775 -0.2612
  333MPD2    C3 5050   0.511   3.819  11.162 -0.0005 -1.0054  0.0124
  333MPD2    C4 5051   0.442   3.930  11.224 -0.2006 -0.4918  0.1110
  333MPD2    C5 5052   0.489   4.056  11.212  0.0122  0.6705  0.8030
  333MPD2     H 5053   0.664   3.765  11.030  0.5452 -0.1054 -0.7916
  333MPD2    H1 5054   0.348   3.928  11.279 -0.0840 -0.1840  0.3211
  333MPD2    H2 5055   0.655   4.174  11.163  1.1951 -0.3309 -1.2275
  333MPD2    H3 5056   0.430   4.135  11.257  0.8178  0.4622  2.2170
  333MPD2     N 5057   0.453   3.690  11.169 -0.0887 -0.3101  0.9914
  333MPD2    H5 5058   0.504   3.617  11.120  0.0177  0.1575  0.3965
  333MPD2    N1 5059   0.802   4.015  11.039 -0.1478  0.2071  0.8595
  333MPD2    H7 5060   0.839   4.109  11.055  0.5072  0.1146 -0.1036
  334TMC3    C1 5061   1.018   4.005  10.943 -0.2326 -0.8280  0.4295
  334TMC3    C2 5062   1.134   3.932  10.944  0.3924  0.3706 -0.5248
  334TMC3    C3 5063   1.253   3.999  10.924  0.1976 -0.0219  0.1196
  334TMC3    C4 5064   1.019   4.145  10.931 -0.4244 -0.0252 -0.2197
  334TMC3    C5 5065   1.140   4.207  10.912 -0.0346  0.1963 -0.7113
  334TMC3    C6 5066   1.260   4.135  10.916  0.8307 -0.1107 -0.4738
  334TMC3     C 5067   0.890   3.938  10.963  0.0463  0.1822 -0.6643
  334TMC3     O 5068   0.872   3.827  10.923 -0.0276  0.3745  0.4382
  334TMC3     H 5069   1.125   3.824  10.951  2.0001  0.1721 -1.5571
  334TMC3    H1 5070   0.923   4.195  10.927  0.0876  0.9296 -0.4523
  334TMC3    H2 5071   1.357   4.185  10.917 -0.0100  1.4451  1.4688
  334TMC3    C7 5072   1.149   4.353  10.917  0.4894 -1.1160  0.0860
  334TMC3    C8 5073   1.364   3.913  10.932  0.3489  0.2019  0.5463
  334TMC3    O1 5074   1.259   4.402  10.946  0.0394  0.3656  0.0428
  334TMC3    O2 5075   1.355   3.789  10.952  0.4765 -0.0395 -1.0435
  335TMC3    C1 5076   0.868   0.490   0.238 -0.4063  0.2318 -0.0560
  335TMC3    C2 5077   0.821   0.382   0.161 -0.1340  0.2654  0.1542
  335TMC3    C3 5078   0.905   0.328   0.076  0.0497 -0.8867 -0.7964
  335TMC3    C4 5079   1.003   0.524   0.236  0.0522 -0.8266  0.0563
  335TMC3    C5 5080   1.082   0.455   0.159  0.7009  0.1641 -0.3853
  335TMC3    C6 5081   1.043   0.356   0.075 -0.2470 -0.0364 -0.3582
  335TMC3     C 5082   0.777   0.578   0.306  0.4660  0.0733  0.4101
  335TMC3     O 5083   0.792   0.702   0.318  0.1224  0.2035 -0.3671
  335TMC3     H 5084   0.714   0.369   0.153  0.0483 -0.7865 -0.4283
  335TMC3    H1 5085   1.031   0.592   0.316 -2.0195 -0.5718  0.5659
  335TMC3    H2 5086   1.113   0.312   0.005  0.7548 -0.1598  0.7294
  335TMC3    C7 5087   1.230   0.502   0.156  0.1871  0.8248  0.5738
  335TMC3    C8 5088   0.852   0.255  17.729  0.7245  0.3105  0.4462
  335TMC3    O1 5089   1.299   0.438   0.078  0.0786 -0.0240 -0.5664
  335TMC3    O2 5090   0.731   0.232  17.744  0.3780  0.8007  0.3819
  336MPD2     C 5091   0.575   3.209  16.483 -0.1809 -0.2295 -0.0679
  336MPD2    C1 5092   0.530   3.215  16.350  0.0087  0.4190 -0.0999
  336MPD2    C2 5093   0.531   3.103  16.281 -0.8902  0.8940  0.3067
  336MPD2    C3 5094   0.543   2.979  16.349  0.6657  0.1033 -0.4878
  336MPD2    C4 5095   0.563   2.979  16.482  0.0568 -0.8339 -0.4755
  336MPD2    C5 5096   0.588   3.090  16.549 -0.5997 -0.3615 -0.2834
  336MPD2     H 5097   0.495   3.101  16.179  0.7147  1.0508 -0.2562
  336MPD2    H1 5098   0.574   2.885  16.536 -0.5992 -0.6630 -0.0511
  336MPD2    H2 5099   0.575   3.301  16.541 -0.1376  0.4918 -1.1996
  336MPD2    H3 5100   0.615   3.087  16.654  2.0606  0.8818 -0.9482
  336MPD2     N 5101   0.532   2.858  16.280 -0.7428 -0.3996  0.4314
  336MPD2    H5 5102   0.555   2.779  16.340 -1.6967  0.1046  1.4610
  336MPD2    N1 5103   0.493   3.336  16.285 -0.5899 -0.6848  0.2994
  336MPD2    H7 5104   0.470   3.334  16.186  0.2403  3.1478  0.0392
  337TMC3    C1 5105   0.446   3.561  16.247 -0.9313  0.8028 -0.4717
  337TMC3    C2 5106   0.334   3.638  16.260  0.3839 -0.2246 -0.3083
  337TMC3    C3 5107   0.308   3.727  16.161 -0.9749 -0.6754 -0.3976
  337TMC3    C4 5108   0.528   3.572  16.144  0.0661  0.7125 -0.2932
  337TMC3    C5 5109   0.499   3.663  16.047 -0.1059  0.1218 -0.9792
  337TMC3    C6 5110   0.386   3.739  16.050 -0.4295 -0.0206  0.0123
  337TMC3     C 5111   0.466   3.454  16.343 -0.3001  0.1053  1.4076
  337TMC3     O 5112   0.437   3.468  16.462 -0.1518 -0.4973 -0.7741
  337TMC3     H 5113   0.266   3.623  16.343  0.0518 -2.4839 -0.9686
  337TMC3    H1 5114   0.609   3.501  16.135 -0.4525 -0.3290  2.9904
  337TMC3    H2 5115   0.364   3.818  15.979  1.0820  0.4261  0.0325
  337TMC3    C7 5116   0.617   3.721  15.995 -0.6787 -0.5174  0.3601
  337TMC3    C8 5117   0.171   3.785  16.154 -0.5369 -0.0299  0.2799
  337TMC3    O1 5118   0.727   3.689  16.042 -0.3786 -0.2185  0.4215
  337TMC3    O2 5119   0.125   3.815  16.264 -0.0238 -0.4294 -0.2305
  338MPD2     C 5120   4.722   2.398   1.063  0.0549  0.9307 -0.2858
  338MPD2    C1 5121   0.012   2.447   0.938 -0.8691 -0.1377  0.4128
  338MPD2    C2 5122   4.690   2.560   0.895 -0.2812 -0.7852  0.4175
  338MPD2    C3 5123   4.587   2.615   0.971  0.3087 -0.7524 -0.2744
  338MPD2    C4 5124   4.553   2.567   1.092 -0.2186 -0.5660 -0.3795
  338MPD2    C5 5125   4.625   2.460   1.133 -0.2291  0.2240 -0.5902
  338MPD2     H 5126   4.722   2.606   0.803 -1.4255 -0.5714  0.1178
  338MPD2    H1 5127   4.480   2.604   1.163 -1.4597 -0.0646 -1.9184
  338MPD2    H2 5128   0.038   2.315   1.103 -0.4291  0.4962 -0.4952
  338MPD2    H3 5129   4.597   2.426   1.232  1.1721  0.5231 -0.0944
  338MPD2     N 5130   4.523   2.730   0.912  0.4387 -0.6490  0.0935
  338MPD2    H5 5131   4.563   2.761   0.823  0.4258  2.2204  1.0848
  338MPD2    N1 5132   0.087   2.370   0.852  0.2887 -0.7985  0.2068
  338MPD2    H7 5133   0.123   2.281   0.887 -0.4716 -0.5432  1.6358
  339TMC3    C1 5134   4.368   2.904   0.875 -0.8486  0.5919 -0.4909
  339TMC3    C2 5135   4.318   3.014   0.940  0.7826 -0.4387 -0.2212
  339TMC3    C3 5136   4.286   3.113   0.855  0.1461 -0.4893 -0.6581
  339TMC3    C4 5137   4.375   2.887   0.736  0.5677 -0.0307 -0.3206
  339TMC3    C5 5138   4.343   2.994   0.656 -0.3355  0.1222 -0.5919
  339TMC3    C6 5139   4.306   3.109   0.719  0.4988  0.3511 -0.3697
  339TMC3     C 5140   4.414   2.794   0.965  0.1056  0.5325 -0.6142
  339TMC3     O 5141   4.355   2.782   1.071 -0.1318 -0.1661  0.0659
  339TMC3     H 5142   4.304   3.014   1.048 -0.0136  1.3707 -0.3386
  339TMC3    H1 5143   4.404   2.787   0.709  1.9970  0.4319 -0.5193
  339TMC3    H2 5144   4.279   3.195   0.658  0.1885  1.3419  1.1690
  339TMC3    C7 5145   4.413   3.004   0.525 -0.1305  0.8777 -0.8311
  339TMC3    C8 5146   4.242   3.240   0.921 -0.5395 -0.1821 -0.8592
  339TMC3    O1 5147   4.475   3.105   0.496 -0.0964 -0.3292  0.0772
  339TMC3    O2 5148   4.307   3.338   0.895  0.7935 -0.0646  0.5012
  340MPD2     C 5149   0.974   0.535  10.911  0.8117  0.1356  0.6313
  340MPD2    C1 5150   0.917   0.424  10.849 -0.8707  0.2388 -0.0940
  340MPD2    C2 5151   1.002   0.320  10.807 -0.5682 -0.3678 -0.4409
  340MPD2    C3 5152   1.141   0.325  10.830  0.0313 -0.0914 -0.3344
  340MPD2    C4 5153   1.193   0.428  10.896 -0.6167 -0.1313  0.7859
  340MPD2    C5 5154   1.110   0.532  10.923 -0.0387 -1.0517  0.1485
  340MPD2     H 5155   0.960   0.236  10.753 -2.8071  0.6398 -0.2558
  340MPD2    H1 5156   1.300   0.442  10.906 -0.6010  1.4096 -1.5805
  340MPD2    H2 5157   0.911   0.621  10.936  0.1738  0.0487 -0.6619
  340MPD2    H3 5158   1.155   0.619  10.970  1.9837 -1.8218 -0.3601
  340MPD2     N 5159   1.229   0.234  10.777 -0.3884  0.1236 -0.6568
  340MPD2    H5 5160   1.328   0.241  10.798 -0.2677  0.6116 -1.4035
  340MPD2    N1 5161   0.781   0.433  10.811  0.3941  0.2770 -0.0121
  340MPD2    H7 5162   0.745   0.528  10.806 -1.5971 -0.5172 -0.3714
  341TMC3    C1 5163   0.607   0.372  10.644  0.0939 -0.2530 -0.1164
  341TMC3    C2 5164   0.527   0.267  10.612  0.4425 -0.2146  0.1944
  341TMC3    C3 5165   0.501   0.253  10.476 -0.9544 -0.9003 -0.0187
  341TMC3    C4 5166   0.641   0.467  10.555  0.4247  0.2245  0.6248
  341TMC3    C5 5167   0.619   0.449  10.425  0.2014 -0.1004 -0.4712
  341TMC3    C6 5168   0.542   0.345  10.378 -0.2891  0.0014  0.3796
  341TMC3     C 5169   0.719   0.334  10.728 -0.7844 -0.7707  0.3816
  341TMC3     O 5170   0.745   0.215  10.718  0.0483  0.4670  0.1112
  341TMC3     H 5171   0.501   0.194  10.688 -0.6692 -0.1012 -0.0692
  341TMC3    H1 5172   0.710   0.542  10.592 -0.0040  0.8212  0.2315
  341TMC3    H2 5173   0.533   0.343  10.270  0.2939 -1.4681  0.3596
  341TMC3    C7 5174   0.724   0.502  10.334 -0.3101 -0.2436  0.1927
  341TMC3    C8 5175   0.454   0.125  10.431  0.1500 -0.6892 -0.5420
  341TMC3    O1 5176   0.749   0.440  10.229  0.7072  0.0781 -0.2360
  341TMC3    O2 5177   0.428   0.046  10.516 -0.1371  0.6181  0.8247
  342MPD2     C 5178   3.466   3.573   0.092 -0.3192 -0.7049 -0.9941
  342MPD2    C1 5179   3.589   3.565   0.044  0.6125  0.5217  0.7905
  342MPD2    C2 5180   3.648   3.686   0.004  0.3011  0.1645 -0.6402
  342MPD2    C3 5181   3.581   3.808   0.008 -0.3791 -0.3838 -0.2662
  342MPD2    C4 5182   3.453   3.810   0.067 -0.4094  0.3957  0.4947
  342MPD2    C5 5183   3.403   3.691   0.118 -0.5544  0.4252 -0.4436
  342MPD2     H 5184   3.747   3.684  17.720  1.2347  2.1349  1.3184
  342MPD2    H1 5185   3.400   3.900   0.095 -1.7320 -0.6273  1.3077
  342MPD2    H2 5186   3.410   3.484   0.118 -2.0891  1.1847  1.6984
  342MPD2    H3 5187   3.303   3.690   0.161 -1.0476 -0.4434 -1.6028
  342MPD2     N 5188   3.631   3.932  17.723 -0.0114  0.2336  0.3292
  342MPD2    H5 5189   3.566   4.010  17.724 -2.1658 -1.5709  0.2014
  342MPD2    N1 5190   3.653   3.442   0.019  0.0447 -0.1443  0.0711
  342MPD2    H7 5191   3.735   3.440  17.721 -0.3149  1.4816 -0.5022
  343TMC3    C1 5192   3.699   3.219   0.001  0.7051  0.1083 -0.4553
  343TMC3    C2 5193   3.831   3.243  17.751 -0.0221 -0.0960  0.4270
  343TMC3    C3 5194   3.908   3.153  17.681  0.6237 -0.1880  0.4790
  343TMC3    C4 5195   3.635   3.116  17.700 -0.6036 -0.2835  0.8979
  343TMC3    C5 5196   3.713   3.035  17.627 -0.4116  1.3229  0.6952
  343TMC3    C6 5197   3.848   3.050  17.616 -0.1089 -0.7485 -0.9084
  343TMC3     C 5198   3.606   3.319   0.057 -0.1246  0.0444  0.3676
  343TMC3     O 5199   3.504   3.282   0.108  0.4873  0.6073  0.3985
  343TMC3     H 5200   3.881   3.304   0.063 -0.7045  2.9752 -1.6510
  343TMC3    H1 5201   3.528   3.102  17.709 -0.7011  1.1463  1.9099
  343TMC3    H2 5202   3.914   2.974  17.574  0.2129 -0.7991 -0.3208
  343TMC3    C7 5203   3.637   2.934  17.555 -0.7467 -0.3448  0.1800
  343TMC3    C8 5204   4.051   3.155  17.683  0.3113  0.3884 -1.0322
  343TMC3    O1 5205   3.524   2.915  17.588  0.3150 -0.7214 -0.1412
  343TMC3    O2 5206   4.098   3.186   0.030  0.3478 -0.6832 -0.1629
  344MPD2     C 5207   3.933   3.088  10.977 -0.3917 -0.0278 -0.1323
  344MPD2    C1 5208   3.926   2.993  10.876 -0.2889 -0.5251 -0.0718
  344MPD2    C2 5209   3.966   3.034  10.752  0.3378 -0.0874 -0.1288
  344MPD2    C3 5210   4.009   3.168  10.728 -0.6624 -0.1623 -0.1644
  344MPD2    C4 5211   4.022   3.261  10.831 -0.4468 -0.1854 -1.1934
  344MPD2    C5 5212   3.983   3.214  10.956 -0.0052 -0.2034  0.0795
  344MPD2     H 5213   3.952   2.958  10.676 -2.6529 -0.8826  1.2288
  344MPD2    H1 5214   4.076   3.354  10.827 -1.5034  0.3839 -2.1803
  344MPD2    H2 5215   3.881   3.075  11.071 -0.5093 -2.4585 -0.5461
  344MPD2    H3 5216   3.996   3.288  11.034  1.3493 -0.1059 -0.2380
  344MPD2     N 5217   4.052   3.212  10.603  0.1882 -1.0552 -0.4741
  344MPD2    H5 5218   4.085   3.307  10.596 -0.3924 -0.8139  0.0382
  344MPD2    N1 5219   3.862   2.870  10.899 -0.2879  0.0548 -1.3927
  344MPD2    H7 5220   3.847   2.815  10.815 -0.5203  0.5844 -1.6966
  345TMC3    C1 5221   4.105   3.203  10.370  0.1114 -0.1765  0.0450
  345TMC3    C2 5222   4.225   3.183  10.307  0.6148 -0.1788 -0.4417
  345TMC3    C3 5223   4.266   3.284  10.219 -0.8666  0.2120  0.5738
  345TMC3    C4 5224   4.011   3.298  10.339  0.2382  0.2245  0.2610
  345TMC3    C5 5225   4.056   3.384  10.247  0.3240 -0.0288  0.1426
  345TMC3    C6 5226   4.180   3.384  10.187  0.3263 -0.3458  0.2919
  345TMC3     C 5227   4.083   3.126  10.496  0.5788 -0.0666 -1.0411
  345TMC3     O 5228   4.084   3.005  10.488 -0.2760 -0.3192  0.0163
  345TMC3     H 5229   4.296   3.113  10.351  0.0905  0.1817  0.9519
  345TMC3    H1 5230   3.921   3.317  10.396 -1.6164 -1.3792 -2.1221
  345TMC3    H2 5231   4.209   3.460  10.115  0.5125  0.7397  1.5124
  345TMC3    C7 5232   4.002   3.522  10.243  0.0748 -0.0237  0.6279
  345TMC3    C8 5233   4.393   3.333  10.263  0.1795  0.7432  0.2454
  345TMC3    O1 5234   4.082   3.610  10.260  0.8571 -0.0253  0.4795
  345TMC3    O2 5235   4.481   3.250  10.283 -0.3110 -0.0374 -0.4937
  346MPD2     C 5236   4.547   4.567  14.487 -0.5428 -0.4151  0.0573
  346MPD2    C1 5237   4.654   4.651  14.454 -0.1901 -0.0283 -0.0457
  346MPD2    C2 5238   4.727   4.701  14.555 -0.0921  0.0925 -0.2229
  346MPD2    C3 5239   4.697   4.686  14.688  0.2552  0.5920 -0.1779
  346MPD2    C4 5240   4.582   4.611  14.719 -0.2463 -0.1829  0.2970
  346MPD2    C5 5241   4.511   4.553  14.616 -0.1980 -1.0744 -0.8107
  346MPD2     H 5242   0.076   0.011  14.522  0.2663 -0.4252 -0.0336
  346MPD2    H1 5243   4.551   4.590  14.821  0.0853  0.3214  0.5022
  346MPD2    H2 5244   4.495   4.510  14.411  1.0233 -0.1610 -1.2202
  346MPD2    H3 5245   4.427   4.492  14.648 -0.4186 -1.0483 -1.3331
  346MPD2     N 5246   0.040   0.009  14.779 -0.2722 -0.8426 -0.7717
  346MPD2    H5 5247   0.116   0.053  14.728  0.7205  0.6406  2.0100
  346MPD2    N1 5248   4.698   4.669  14.324 -0.3961  0.1610 -0.6137
  346MPD2    H7 5249   0.048   4.715  14.315 -0.1760 -0.2207 -0.3249
  347TMC3    C1 5250   0.147   0.082  14.976  0.2849 -0.7902  0.2596
  347TMC3    C2 5251   0.267   0.096  14.905  0.0893  0.3011  0.2739
  347TMC3    C3 5252   0.374   0.092  14.986  0.5148  0.0787  0.2477
  347TMC3    C4 5253   0.144   0.071  15.109 -0.3303 -0.0774  0.6094
  347TMC3    C5 5254   0.258   0.082  15.181  0.0104  0.4174  0.0748
  347TMC3    C6 5255   0.377   0.094  15.122  0.1498  0.1482 -0.4670
  347TMC3     C 5256   0.038   0.006  14.914 -0.7288 -0.9226 -0.0957
  347TMC3     O 5257   4.703   4.686  14.987  0.0411  0.3372  0.1309
  347TMC3     H 5258   0.282   0.112  14.799 -0.2942  1.8780  0.4618
  347TMC3    H1 5259   0.051   0.058  15.164  0.2833  0.6513  1.8263
  347TMC3    H2 5260   0.475   0.088  15.168  1.6152 -1.0028 -3.7359
  347TMC3    C7 5261   0.240   0.051  15.323 -0.3370  0.2670 -0.3069
  347TMC3    C8 5262   0.497   0.124  14.925  0.4583  0.0835 -0.1285
  347TMC3    O1 5263   0.134   4.738  15.356  0.0156 -0.0351  0.0232
  347TMC3    O2 5264   0.530   0.086  14.809 -0.6632  0.5683 -0.1450
  348MPD2     C 5265   3.780   4.351  11.773  0.0150 -0.4853 -0.3786
  348MPD2    C1 5266   3.641   4.348  11.783 -0.5254  1.1404 -0.1335
  348MPD2    C2 5267   3.568   4.455  11.738  0.1972  0.3420  0.3689
  348MPD2    C3 5268   3.627   4.566  11.681  0.0047 -1.0217  0.2394
  348MPD2    C4 5269   3.766   4.577  11.687 -0.0578 -0.1520  0.5547
  348MPD2    C5 5270   3.836   4.465  11.727 -0.0663  0.4858 -0.0799
  348MPD2     H 5271   3.460   4.452  11.750  0.4268 -0.9579  2.0716
  348MPD2    H1 5272   3.816   4.665  11.650 -1.4731  0.7832  0.8428
  348MPD2    H2 5273   3.839   4.265  11.802  3.4842  2.5248  1.4802
  348MPD2    H3 5274   3.945   4.464  11.723 -0.1070  0.4510 -1.1575
  348MPD2     N 5275   3.535   4.662  11.640 -0.2052 -0.0169 -0.1973
  348MPD2    H5 5276   3.441   4.624  11.635 -0.3397 -0.0877  2.6193
  348MPD2    N1 5277   3.560   4.251  11.847  0.6331  0.3688 -0.3020
  348MPD2    H7 5278   3.461   4.272  11.850  0.9302  1.9520 -1.4634
  349TMC3    C1 5279   3.487   4.068  11.967 -0.1889 -0.1318  0.2863
  349TMC3    C2 5280   3.515   4.010  12.087 -0.0267 -0.5218  0.0014
  349TMC3    C3 5281   3.408   3.974  12.167 -0.0308  0.0766 -0.4204
  349TMC3    C4 5282   3.362   4.098  11.928 -0.7271  0.0437  0.6793
  349TMC3    C5 5283   3.260   4.061  12.011 -0.4370 -0.4784  0.5388
  349TMC3    C6 5284   3.282   3.996  12.127  0.1389  0.7068  0.1652
  349TMC3     C 5285   3.599   4.135  11.909  0.4201 -0.3621 -0.7136
  349TMC3     O 5286   3.710   4.111  11.951  0.4722  0.6364 -0.4364
  349TMC3     H 5287   3.615   3.994  12.126  0.9764 -0.0118 -2.3893
  349TMC3    H1 5288   3.342   4.131  11.826  0.5433  0.5075  0.5768
  349TMC3    H2 5289   3.192   3.973  12.182  0.2667  0.8554  0.4366
  349TMC3    C7 5290   3.124   4.078  11.969 -0.5516  0.5136  0.5214
  349TMC3    C8 5291   3.445   3.930  12.303  0.0423 -0.4893  1.0330
  349TMC3    O1 5292   3.038   4.000  12.010  0.1372 -0.1891 -0.2825
  349TMC3    O2 5293   3.549   3.969  12.358  0.5513  0.5192 -0.5942
  350MPD2     C 5294   1.975   1.962  10.516  0.0966 -0.8615  0.4067
  350MPD2    C1 5295   2.048   2.041  10.428 -0.1212 -0.4677 -0.0123
  350MPD2    C2 5296   2.074   2.173  10.456  0.3987 -0.2945  0.8498
  350MPD2    C3 5297   2.031   2.238  10.572 -0.0412  0.1878 -0.7640
  350MPD2    C4 5298   1.951   2.159  10.655 -0.3852  0.0679 -0.1367
  350MPD2    C5 5299   1.920   2.027  10.625 -0.8103 -0.3599  0.5319
  350MPD2     H 5300   2.130   2.228  10.381  1.9334 -0.7280  1.6694
  350MPD2    H1 5301   1.920   2.202  10.749  0.9610 -0.3440  0.5095
  350MPD2    H2 5302   1.947   1.858  10.503  2.7837 -1.3990 -1.0093
  350MPD2    H3 5303   1.857   1.978  10.698 -1.7622  0.9874  0.6048
  350MPD2     N 5304   2.057   2.378  10.594 -0.5566  0.2620 -0.5776
  350MPD2    H5 5305   2.118   2.424  10.527 -1.1179  2.9225  0.7229
  350MPD2    N1 5306   2.073   1.996  10.300 -0.1162 -0.0248  0.6125
  350MPD2    H7 5307   2.113   2.069  10.241  0.4003 -1.1026 -0.3758
  351TMC3    C1 5308   2.046   1.878  10.099 -0.1433  0.7896  0.7194
  351TMC3    C2 5309   2.053   1.747  10.049 -0.2173  0.1857 -0.4573
  351TMC3    C3 5310   2.006   1.722   9.929 -0.0030  0.5009 -1.2477
  351TMC3    C4 5311   1.978   1.971  10.032 -0.2923  0.5267 -0.5466
  351TMC3    C5 5312   1.931   1.945   9.904 -0.1191  0.3280 -0.7504
  351TMC3    C6 5313   1.944   1.820   9.848  0.3116 -1.2185 -0.4793
  351TMC3     C 5314   2.025   1.879  10.240 -0.4649  0.0490  0.5792
  351TMC3     O 5315   1.974   1.781  10.289 -0.2093  0.5307 -0.5419
  351TMC3     H 5316   2.100   1.671  10.110 -0.5919  0.6931  0.4637
  351TMC3    H1 5317   1.952   2.066  10.077 -2.0202  1.2036 -2.9482
  351TMC3    H2 5318   1.886   1.797   9.759 -1.5866  1.2668  0.1065
  351TMC3    C7 5319   1.845   2.033   9.825  0.0471 -0.7284 -0.4102
  351TMC3    C8 5320   2.015   1.588   9.879 -0.5017 -0.0420  0.6725
  351TMC3    O1 5321   1.844   2.012   9.704  0.8476 -0.2275  0.2715
  351TMC3    O2 5322   2.046   1.575   9.766 -0.3050  0.2206 -0.1755
  352MPD2     C 5323   4.587   4.077   1.467  0.3497  0.2738 -0.3476
  352MPD2    C1 5324   4.650   4.117   1.352  0.3515  0.4008  0.7063
  352MPD2    C2 5325   0.001   4.027   1.302  0.5795  0.2766  0.7102
  352MPD2    C3 5326   0.021   3.901   1.358  0.4261 -0.0422 -0.4080
  352MPD2    C4 5327   4.683   3.858   1.461  0.1599  0.2235 -0.2643
  352MPD2    C5 5328   4.596   3.949   1.516  0.0866 -0.3959  0.6202
  352MPD2     H 5329   0.059   4.052   1.214 -0.5070 -0.2765 -0.1624
  352MPD2    H1 5330   4.686   3.755   1.493 -0.2341  0.4922  0.6401
  352MPD2    H2 5331   4.520   4.136   1.529 -0.4949 -3.0548  1.9619
  352MPD2    H3 5332   4.534   3.924   1.601 -1.1891  0.3323 -0.0953
  352MPD2     N 5333   0.113   3.814   1.302  0.4879  0.6289 -0.3350
  352MPD2    H5 5334   0.094   3.715   1.316  1.4360  0.3798 -0.8084
  352MPD2    N1 5335   4.643   4.251   1.302 -0.3978 -0.8905 -0.1134
  352MPD2    H7 5336   4.592   4.318   1.359 -1.0649 -0.5487 -1.1105
  353TMC3    C1 5337   0.315   3.745   1.191  0.4309  0.2184 -0.3886
  353TMC3    C2 5338   0.442   3.745   1.245  0.3430  0.0258  0.6769
  353TMC3    C3 5339   0.511   3.632   1.223 -0.1411 -0.1832 -1.0557
  353TMC3    C4 5340   0.260   3.656   1.105  0.6306  0.8711  0.1254
  353TMC3    C5 5341   0.342   3.543   1.071  0.3516 -0.1127  0.6137
  353TMC3    C6 5342   0.474   3.537   1.129 -0.5130  0.3941  0.6633
  353TMC3     C 5343   0.230   3.854   1.238  0.7855  0.4510  0.2482
  353TMC3     O 5344   0.278   3.966   1.244 -0.2860  0.5029 -0.0623
  353TMC3     H 5345   0.469   3.827   1.311  0.5618  0.1867  0.3879
  353TMC3    H1 5346   0.167   3.684   1.057 -0.0704 -1.4287  0.1645
  353TMC3    H2 5347   0.536   3.455   1.093 -0.2836  0.1582  1.6147
  353TMC3    C7 5348   0.291   3.432   0.996  0.2004  0.7692 -0.1513
  353TMC3    C8 5349   0.609   3.593   1.321 -0.4299 -0.4267  0.0162
  353TMC3    O1 5350   0.377   3.355   0.958  0.1653  0.5215  0.4063
  353TMC3    O2 5351   0.658   3.677   1.398 -0.1322  0.1677 -0.4568
  354TMC3    C1 5352   2.837   1.061  13.980  0.2186  0.5209  0.1841
  354TMC3    C2 5353   2.786   1.164  13.905  0.4166  0.8456  0.9173
  354TMC3    C3 5354   2.825   1.184  13.769 -0.1898  0.4938 -0.3133
  354TMC3    C4 5355   2.910   0.968  13.912 -0.6185 -0.4204  0.0788
  354TMC3    C5 5356   2.939   0.981  13.778 -0.1234 -0.0444 -0.0814
  354TMC3    C6 5357   2.905   1.094  13.708  0.4248 -0.7733  0.3073
  354TMC3     C 5358   2.761   1.022  14.098 -0.9400  0.5726  0.5704
  354TMC3     O 5359   2.654   1.083  14.112 -0.3349 -0.4238  0.1419
  354TMC3     H 5360   2.736   1.246  13.955 -2.8170 -1.8989  2.1848
  354TMC3    H1 5361   2.944   0.875  13.957 -0.3712 -1.0466 -1.3856
  354TMC3    H2 5362   2.962   1.129  13.623  1.6754 -1.2451  0.9471
  354TMC3    C7 5363   3.032   0.890  13.714 -0.3457 -0.3191 -0.6535
  354TMC3    C8 5364   2.804   1.316  13.718  0.6560  0.8496  0.3254
  354TMC3    O1 5365   3.064   0.788  13.769  0.0542  0.3542  0.4847
  354TMC3    O2 5366   2.778   1.406  13.794  0.2412  0.4074  0.0989
  355MPD2     C 5367   2.151   1.558  12.173 -0.4542 -0.4429 -0.3112
  355MPD2    C1 5368   2.238   1.547  12.068  0.3502  0.6226  0.2914
  355MPD2    C2 5369   2.369   1.502  12.086 -0.7188  0.0957 -0.3213
  355MPD2    C3 5370   2.421   1.505  12.212  0.3699  0.9178  0.2090
  355MPD2    C4 5371   2.336   1.522  12.321  0.5583 -0.2046 -0.1741
  355MPD2    C5 5372   2.201   1.545  12.297  0.6292 -0.0002  0.3118
  355MPD2     H 5373   2.436   1.489  12.001 -0.2016  0.0338  0.1004
  355MPD2    H1 5374   2.379   1.520  12.420  1.1698 -0.6967 -0.4501
  355MPD2    H2 5375   2.044   1.567  12.156 -0.1361  1.8128 -1.0909
  355MPD2    H3 5376   2.133   1.545  12.381 -1.3701 -1.7496 -1.3001
  355MPD2     N 5377   2.560   1.513  12.244 -0.6900  0.1907 -0.1988
  355MPD2    H5 5378   2.584   1.518  12.343  1.6833  0.4927 -0.7954
  355MPD2    N1 5379   2.183   1.573  11.945 -0.0509 -0.6881  0.0675
  355MPD2    H7 5380   2.083   1.556  11.937 -0.0681 -1.3183  1.7992
  356TMC3    C1 5381   2.797   1.552  12.211 -0.0132 -0.4809  0.4057
  356TMC3    C2 5382   2.880   1.593  12.105  0.4831 -0.3230 -0.2596
  356TMC3    C3 5383   2.954   1.709  12.118 -0.2570  0.0896  0.1752
  356TMC3    C4 5384   2.796   1.630  12.330  0.0573 -0.6885 -0.4419
  356TMC3    C5 5385   2.873   1.748  12.331  0.0013 -0.3178 -0.1867
  356TMC3    C6 5386   2.942   1.791  12.228  0.0976 -0.3083  0.1856
  356TMC3     C 5387   2.664   1.526  12.152 -0.6422  0.0582  0.4156
  356TMC3     O 5388   2.662   1.529  12.031 -0.6128  0.4315  0.4320
  356TMC3     H 5389   2.872   1.547  12.007 -1.8375  1.3339 -0.8693
  356TMC3    H1 5390   2.735   1.594  12.412 -0.6436  1.1536 -0.1674
  356TMC3    H2 5391   2.997   1.885  12.234 -1.5776  0.6470  0.6563
  356TMC3    C7 5392   2.885   1.805  12.462  0.4243 -1.1610 -0.7825
  356TMC3    C8 5393   3.024   1.755  11.996 -0.1981  0.7233 -0.4968
  356TMC3    O1 5394   2.792   1.782  12.541  0.2195 -0.1045 -0.1557
  356TMC3    O2 5395   2.989   1.706  11.889  0.5143 -0.0502 -0.8159
  357MPD2     C 5396   2.138   2.394   0.527 -0.0507  0.0011  0.1767
  357MPD2    C1 5397   2.202   2.282   0.566  0.3846  0.0869 -0.5060
  357MPD2    C2 5398   2.173   2.167   0.494 -0.7552  0.1028  0.6935
  357MPD2    C3 5399   2.072   2.160   0.398  0.3628  0.4855  0.3363
  357MPD2    C4 5400   1.997   2.271   0.371 -0.3556 -1.7592  0.2235
  357MPD2    C5 5401   2.037   2.391   0.432  0.1190 -0.2642 -0.8496
  357MPD2     H 5402   2.216   2.074   0.529  3.1901  1.2594 -1.0223
  357MPD2    H1 5403   1.909   2.269   0.308 -0.2872  0.2403  0.0720
  357MPD2    H2 5404   2.161   2.493   0.565 -0.3293  0.1251  0.0231
  357MPD2    H3 5405   1.989   2.481   0.397  0.5526 -0.6154 -2.3679
  357MPD2     N 5406   2.031   2.037   0.340  0.0808 -0.5091 -0.2043
  357MPD2    H5 5407   1.945   2.039   0.287 -0.6549  0.4007  1.0337
  357MPD2    N1 5408   2.294   2.286   0.669 -0.0365  0.3254  0.0937
  357MPD2    H7 5409   2.300   2.371   0.724 -2.2662  1.1482 -0.9313
  358TMC3    C1 5410   2.446   2.178   0.816  0.4930  1.0046 -0.2839
  358TMC3    C2 5411   2.548   2.085   0.826  0.6335 -1.1063  0.8393
  358TMC3    C3 5412   2.536   1.976   0.910  0.1904 -0.5753  0.1830
  358TMC3    C4 5413   2.360   2.187   0.928  0.7406 -0.2487  0.4291
  358TMC3    C5 5414   2.354   2.082   1.021  0.1443  0.0752 -0.6407
  358TMC3    C6 5415   2.452   1.981   1.020 -0.2831  0.3246 -0.1536
  358TMC3     C 5416   2.398   2.198   0.686  0.6367  0.4370 -0.1152
  358TMC3     O 5417   2.431   2.113   0.603  0.9990  0.1295 -0.2841
  358TMC3     H 5418   2.602   2.066   0.734  0.6561  1.1366  0.4016
  358TMC3    H1 5419   2.285   2.266   0.930  0.2234 -0.7284 -0.0217
  358TMC3    H2 5420   2.436   1.889   1.075 -0.6724 -0.7740 -2.0985
  358TMC3    C7 5421   2.225   2.024   1.032 -0.2720 -0.0374 -1.1242
  358TMC3    C8 5422   2.520   1.853   0.829 -0.1480  0.5364  0.6017
  358TMC3    O1 5423   2.213   1.930   1.104 -0.1356 -0.3419 -0.3331
  358TMC3    O2 5424   2.610   1.825   0.752 -0.4142  0.1329  0.2485
  359MPD2     C 5425   2.959   0.192  12.756 -0.9269 -0.3184  0.2780
  359MPD2    C1 5426   2.896   0.207  12.633  0.3829  0.1477 -1.0939
  359MPD2    C2 5427   2.778   0.139  12.611  0.1436  0.0290 -0.0828
  359MPD2    C3 5428   2.730   0.042  12.704 -0.8131 -0.2957 -0.4282
  359MPD2    C4 5429   2.801   0.023  12.817  0.4937  0.3403  0.6544
  359MPD2    C5 5430   2.913   0.099  12.848 -0.3359  0.1629  0.0638
  359MPD2     H 5431   2.738   0.157  12.512  1.1764 -1.4805 -0.7655
  359MPD2    H1 5432   2.772   4.687  12.887  0.0945  1.0353  1.2571
  359MPD2    H2 5433   3.055   0.233  12.787 -1.0430  0.8966 -0.9462
  359MPD2    H3 5434   2.949   0.094  12.951 -1.0873 -1.6069  0.2491
  359MPD2     N 5435   2.608   4.717  12.691 -0.7819  0.0556  0.2358
  359MPD2    H5 5436   2.579   4.662  12.771  0.9645  1.8267  2.0825
  359MPD2    N1 5437   2.957   0.269  12.524  0.1994 -0.0443 -0.0693
  359MPD2    H7 5438   2.920   0.262  12.430  2.6693  0.8392 -1.1236
  360TMC3    C1 5439   3.114   0.386  12.395  0.3925  0.5581 -0.3695
  360TMC3    C2 5440   3.230   0.458  12.398 -0.0393  0.8129  0.6503
  360TMC3    C3 5441   3.274   0.499  12.277  0.0733  0.5860  0.4648
  360TMC3    C4 5442   3.041   0.361  12.279  0.1155  0.0462 -0.2057
  360TMC3    C5 5443   3.087   0.428  12.168 -0.5079  0.1615 -0.1933
  360TMC3    C6 5444   3.204   0.484  12.159  0.2404  0.5010  0.8739
  360TMC3     C 5445   3.079   0.336  12.527  0.5258 -0.5572 -0.3359
  360TMC3     O 5446   3.144   0.369  12.624 -0.8400  0.0725  0.6184
  360TMC3     H 5447   3.303   0.462  12.478  2.4280  3.5591 -1.6909
  360TMC3    H1 5448   2.945   0.311  12.289  0.3152 -0.1631  0.6703
  360TMC3    H2 5449   3.232   0.540  12.070  0.8469 -0.8896  0.1954
  360TMC3    C7 5450   3.031   0.392  12.038  0.1158  0.0029 -0.0847
  360TMC3    C8 5451   3.412   0.564  12.274  0.2764 -0.0103 -0.0356
  360TMC3    O1 5452   3.071   0.454  11.940 -0.6039 -0.0584  0.0698
  360TMC3    O2 5453   3.452   0.603  12.381 -0.3188  0.1496 -0.0820
  361MPD2     C 5454   4.548   4.250  16.639  0.6604  1.1807  0.3967
  361MPD2    C1 5455   4.525   4.212  16.771 -0.4475 -0.1946  0.5858
  361MPD2    C2 5456   4.634   4.156  16.837  0.4204  0.4133 -0.5354
  361MPD2    C3 5457   0.019   4.145  16.780  1.0246 -0.0424  0.6567
  361MPD2    C4 5458   0.039   4.187  16.650  0.7104 -0.4724 -1.0566
  361MPD2    C5 5459   4.672   4.229  16.581  0.9153 -0.2131 -0.3259
  361MPD2     H 5460   4.625   4.123  16.940 -1.0882  2.3929 -0.0555
  361MPD2    H1 5461   0.133   4.180  16.595  0.7962  0.8892 -1.0806
  361MPD2    H2 5462   4.475   4.302  16.578 -0.8815  1.4381  2.4366
  361MPD2    H3 5463   4.692   4.257  16.478 -0.7458 -0.6808 -0.7723
  361MPD2     N 5464   0.132   4.084  16.846 -0.5659 -0.4084 -0.1776
  361MPD2    H5 5465   0.207   4.052  16.785  1.3198 -0.2157  2.0666
  361MPD2    N1 5466   4.401   4.217  16.838 -0.0708 -0.4496  0.1008
  361MPD2    H7 5467   4.397   4.176  16.931  0.8468  0.0015  0.3380
  362TMC3    C1 5468   4.160   4.238  16.859 -0.2249 -0.9171 -0.4761
  362TMC3    C2 5469   4.172   4.281  16.987  0.3261  0.5960  0.0169
  362TMC3    C3 5470   4.057   4.327  17.046 -0.1553  0.5128 -0.4785
  362TMC3    C4 5471   4.048   4.247  16.782  0.4988 -0.1670  0.6684
  362TMC3    C5 5472   3.938   4.294  16.842  0.0075 -0.0777 -0.1992
  362TMC3    C6 5473   3.945   4.337  16.969 -0.2206  0.1401  0.6910
  362TMC3     C 5474   4.280   4.251  16.778  0.2317 -0.0820  0.1646
  362TMC3     O 5475   4.256   4.287  16.662  0.2145  0.3092  0.2002
  362TMC3     H 5476   4.265   4.291  17.042 -0.0329 -1.3494  0.9989
  362TMC3    H1 5477   4.048   4.196  16.686 -0.1661  2.3195 -0.6328
  362TMC3    H2 5478   3.862   4.394  17.011 -0.2479 -1.2523  2.5268
  362TMC3    C7 5479   3.827   4.335  16.768 -1.2945  0.3330  0.6858
  362TMC3    C8 5480   4.068   4.375  17.189  0.0270 -0.4891  1.2819
  362TMC3    O1 5481   3.753   4.419  16.816 -0.5560  0.6081 -0.7328
  362TMC3    O2 5482   4.179   4.360  17.243  0.1381 -0.0951  0.2949
  363TMC3    C1 5483   2.163   1.171   9.087  0.6347  0.5227 -0.4879
  363TMC3    C2 5484   2.260   1.145   9.183  0.0084  0.6805 -0.1519
  363TMC3    C3 5485   2.250   1.219   9.290 -0.0658 -0.1637  0.7277
  363TMC3    C4 5486   2.074   1.272   9.096 -0.0064 -0.0950  0.0059
  363TMC3    C5 5487   2.078   1.352   9.202 -0.3850 -0.5866 -0.7137
  363TMC3    C6 5488   2.158   1.324   9.305  0.0202  0.1351 -0.4048
  363TMC3     C 5489   2.182   1.120   8.948 -0.2001 -0.4460  0.0094
  363TMC3     O 5490   2.123   1.177   8.860 -0.0938  0.0937 -0.8296
  363TMC3     H 5491   2.336   1.067   9.180 -1.2848 -0.6118  0.7489
  363TMC3    H1 5492   2.016   1.298   9.008  0.2027 -0.0852 -0.1277
  363TMC3    H2 5493   2.148   1.370   9.402 -2.0551 -0.3520 -0.3860
  363TMC3    C7 5494   1.952   1.426   9.231  0.0416  0.4604  0.9129
  363TMC3    C8 5495   2.326   1.193   9.414  0.8400  0.6482  0.2879
  363TMC3    O1 5496   1.954   1.525   9.299 -0.1602  0.1931  0.1476
  363TMC3    O2 5497   2.287   1.257   9.511 -0.0870  0.0975  1.0045
  364MPD2     C 5498   1.422   0.853  11.386  0.4697 -0.1213 -0.0931
  364MPD2    C1 5499   1.452   0.839  11.251 -0.2230  0.4772  0.7437
  364MPD2    C2 5500   1.532   0.736  11.204 -0.3471 -0.7353 -0.1131
  364MPD2    C3 5501   1.588   0.653  11.303 -0.8262  0.6811  0.1364
  364MPD2    C4 5502   1.562   0.671  11.440 -0.2004 -0.1415  0.2415
  364MPD2    C5 5503   1.476   0.768  11.476  0.1506  0.7616 -0.1118
  364MPD2     H 5504   1.549   0.724  11.098 -1.3051 -0.0946 -0.3330
  364MPD2    H1 5505   1.611   0.616  11.519  0.0366  1.7127  1.3928
  364MPD2    H2 5506   1.360   0.933  11.426  1.1333 -0.1094  0.9000
  364MPD2    H3 5507   1.446   0.779  11.580  1.5680  0.5542  0.3103
  364MPD2     N 5508   1.669   0.541  11.278  0.3450 -0.3506 -0.8972
  364MPD2    H5 5509   1.690   0.478  11.355 -0.4332 -1.0233 -1.2315
  364MPD2    N1 5510   1.419   0.949  11.174 -0.1563 -0.2090  0.4166
  364MPD2    H7 5511   1.342   1.011  11.197 -1.0542 -1.3696  0.5851
  365TMC3    C1 5512   1.448   1.125  11.015  0.1562 -0.2478 -0.4165
  365TMC3    C2 5513   1.493   1.152  10.886  0.2827 -0.0805  0.5906
  365TMC3    C3 5514   1.511   1.286  10.847 -0.6329  0.4533  0.9433
  365TMC3    C4 5515   1.412   1.225  11.098  0.1294  0.2696  0.4595
  365TMC3    C5 5516   1.417   1.356  11.054 -0.3237  0.4905  0.2030
  365TMC3    C6 5517   1.471   1.384  10.930  0.3140  0.5330 -0.5490
  365TMC3     C 5518   1.499   1.000  11.070 -0.3317  0.0451  0.0893
  365TMC3     O 5519   1.598   0.945  11.019 -0.3574 -0.2506 -0.4658
  365TMC3     H 5520   1.516   1.069  10.820  4.2721  2.1432 -0.8382
  365TMC3    H1 5521   1.366   1.206  11.195 -1.3580  0.7857 -0.1359
  365TMC3    H2 5522   1.489   1.486  10.898  3.5259 -0.1905 -0.9679
  365TMC3    C7 5523   1.382   1.471  11.139  0.4225 -0.1838  0.1671
  365TMC3    C8 5524   1.612   1.316  10.750 -0.3783  0.5002  0.4652
  365TMC3    O1 5525   1.400   1.577  11.078  0.1553 -0.2505 -0.1099
  365TMC3    O2 5526   1.663   1.429  10.741 -0.3764  0.3444  0.2383
  366MPD2     C 5527   0.305   2.271  15.180 -0.1285 -0.4152 -0.2837
  366MPD2    C1 5528   0.365   2.392  15.216 -0.0786 -0.2049 -0.1372
  366MPD2    C2 5529   0.479   2.423  15.145 -0.0669 -0.0509 -0.7988
  366MPD2    C3 5530   0.539   2.341  15.052 -0.1789 -0.5512  0.6278
  366MPD2    C4 5531   0.480   2.217  15.029  0.6248 -0.4465 -0.1983
  366MPD2    C5 5532   0.368   2.176  15.096 -1.0973  0.1492 -0.6115
  366MPD2     H 5533   0.521   2.523  15.154  0.4695 -0.4704  1.3941
  366MPD2    H1 5534   0.507   2.152  14.946 -0.6760  0.5476 -1.4019
  366MPD2    H2 5535   0.211   2.238  15.223 -0.3322 -1.4340 -1.5280
  366MPD2    H3 5536   0.322   2.080  15.076  0.6024 -1.1175  1.5715
  366MPD2     N 5537   0.652   2.390  14.979  0.3668 -0.0617  0.4575
  366MPD2    H5 5538   0.681   2.487  14.978  1.1909 -0.3350 -2.0479
  366MPD2    N1 5539   0.325   2.466  15.324  0.0289  0.4447  0.4123
  366MPD2    H7 5540   0.384   2.544  15.351  2.2378 -1.1014  0.0113
  367TMC3    C1 5541   0.213   2.532  15.510 -0.3358  0.4289 -0.4232
  367TMC3    C2 5542   0.335   2.568  15.556 -0.3137  0.3560 -0.5712
  367TMC3    C3 5543   0.349   2.687  15.621  0.9451  0.3691 -0.6061
  367TMC3    C4 5544   0.102   2.617  15.527 -0.7850  0.0220 -0.8433
  367TMC3    C5 5545   0.119   2.734  15.598 -0.6912 -0.6128 -0.1865
  367TMC3    C6 5546   0.241   2.768  15.642 -0.4895 -0.0653 -0.8036
  367TMC3     C 5547   0.214   2.445  15.399  0.1839  0.2863 -0.0859
  367TMC3     O 5548   0.122   2.371  15.377  0.4159  0.2948 -0.1131
  367TMC3     H 5549   0.427   2.511  15.545  0.5716  1.9897 -1.5949
  367TMC3    H1 5550   0.008   2.593  15.479 -0.1119 -0.0239 -2.1243
  367TMC3    H2 5551   0.251   2.872  15.672  0.9386 -0.4929  0.2020
  367TMC3    C7 5552   0.020   2.835  15.614  0.1636 -0.4538  0.7065
  367TMC3    C8 5553   0.484   2.731  15.668 -0.3976  0.6488  0.0385
  367TMC3    O1 5554   0.042   2.938  15.677 -0.1381  0.1906  0.1363
  367TMC3    O2 5555   0.544   2.649  15.733 -0.1638 -0.0183  0.0863
  368MPD2     C 5556   1.491   3.425  12.830 -0.6299 -0.3309 -0.1833
  368MPD2    C1 5557   1.450   3.483  12.712 -0.4104  0.2180 -0.7041
  368MPD2    C2 5558   1.541   3.504  12.611  0.2994  0.7291 -0.3026
  368MPD2    C3 5559   1.669   3.451  12.616 -0.1400 -0.4321 -0.1101
  368MPD2    C4 5560   1.699   3.381  12.725 -0.0209  0.3300 -0.2342
  368MPD2    C5 5561   1.617   3.374  12.832  0.2761  0.0527 -0.5044
  368MPD2     H 5562   1.513   3.553  12.519  0.4277  1.4538  0.0443
  368MPD2    H1 5563   1.797   3.334  12.729  0.5622  1.4565 -1.2528
  368MPD2    H2 5564   1.439   3.427  12.925  2.4263  1.4400  1.4514
  368MPD2    H3 5565   1.658   3.342  12.927 -1.8231 -1.6750 -0.1785
  368MPD2     N 5566   1.761   3.482  12.514  0.0149 -0.0708 -0.1825
  368MPD2    H5 5567   1.853   3.446  12.538  1.0269  1.3845 -1.8316
  368MPD2    N1 5568   1.319   3.538  12.721  0.3662 -0.1074 -0.2795
  368MPD2    H7 5569   1.271   3.515  12.807  0.1373 -0.1934 -0.4308
  369TMC3    C1 5570   1.171   3.724  12.697  0.1996  0.1113  0.2561
  369TMC3    C2 5571   1.177   3.854  12.660  0.0757 -0.1046 -0.2304
  369TMC3    C3 5572   1.158   3.948  12.752  0.0986 -0.2618  0.2436
  369TMC3    C4 5573   1.133   3.692  12.824  0.0657  0.1677 -0.5024
  369TMC3    C5 5574   1.099   3.797  12.912  0.4430 -0.2415  0.0889
  369TMC3    C6 5575   1.113   3.925  12.876  0.1501  0.3477 -0.1295
  369TMC3     C 5576   1.271   3.635  12.634  0.4396  0.3841  0.6696
  369TMC3     O 5577   1.315   3.668  12.524  0.3098 -0.1074  0.1216
  369TMC3     H 5578   1.192   3.892  12.559 -1.2420 -1.9269 -1.1132
  369TMC3    H1 5579   1.119   3.592  12.863 -0.7318  0.5799  0.2644
  369TMC3    H2 5580   1.101   4.000  12.953 -2.5754 -0.0952 -0.1226
  369TMC3    C7 5581   1.094   3.771  13.054  0.1695 -0.2456 -0.1901
  369TMC3    C8 5582   1.197   4.088  12.734  0.5209 -0.9474  0.1186
  369TMC3    O1 5583   1.166   3.849  13.114  0.7937 -0.4504 -0.0355
  369TMC3    O2 5584   1.144   4.172  12.809  0.2319 -0.5784 -0.2538
  370TMC3    C1 5585   1.110   0.205  16.354 -0.3288 -0.1891 -0.0243
  370TMC3    C2 5586   0.993   0.139  16.368  0.6591 -0.1349 -0.3037
  370TMC3    C3 5587   0.985   0.013  16.317  0.1553 -0.4304  0.5792
  370TMC3    C4 5588   1.213   0.149  16.279  0.1925  0.7493 -0.2561
  370TMC3    C5 5589   1.190   0.025  16.220 -0.4835  0.3656 -0.2443
  370TMC3    C6 5590   1.071   4.697  16.233 -0.8102 -0.1070  0.2622
  370TMC3     C 5591   1.162   0.250  16.488 -0.9144  0.2557  0.5947
  370TMC3     O 5592   1.111   0.208  16.590  0.0049 -0.2779 -0.1316
  370TMC3     H 5593   0.938   0.182  16.451  0.5776  0.0418 -0.4480
  370TMC3    H1 5594   1.315   0.185  16.272  0.4442  0.2588  0.9208
  370TMC3    H2 5595   1.052   4.601  16.187 -1.9225  0.9018 -1.3795
  370TMC3    C7 5596   1.300   4.712  16.140  0.1966 -0.8091  0.0141
  370TMC3    C8 5597   0.935   4.660  16.408  0.0404 -0.7240  0.3165
  370TMC3    O1 5598   1.393   0.040  16.114  0.1615  0.3028  0.2104
  370TMC3    O2 5599   0.980   4.548  16.407 -0.3239  0.2206 -0.0181
  371TMC3    C1 5600   2.470   3.197  15.610  0.3745 -0.4315 -0.8790
  371TMC3    C2 5601   2.428   3.215  15.740  0.1475  0.3016 -0.5009
  371TMC3    C3 5602   2.379   3.337  15.764 -0.2281  0.3799 -0.2360
  371TMC3    C4 5603   2.479   3.295  15.517  0.3299 -0.1036  0.0701
  371TMC3    C5 5604   2.437   3.416  15.552 -0.3291  0.2734 -0.2366
  371TMC3    C6 5605   2.381   3.443  15.676 -0.0515  0.6200 -0.1598
  371TMC3     C 5606   2.512   3.058  15.567  0.2021 -0.1080 -0.2536
  371TMC3     O 5607   2.572   3.034  15.462  0.4255 -0.4423 -0.8381
  371TMC3     H 5608   2.432   3.138  15.816  1.1937  1.5842  0.7194
  371TMC3    H1 5609   2.500   3.272  15.413 -0.4595 -1.6329  0.2542
  371TMC3    H2 5610   2.354   3.545  15.702 -2.0437 -0.5929  2.5209
  371TMC3    C7 5611   2.473   3.532  15.476  0.3468 -0.1969  0.0006
  371TMC3    C8 5612   2.359   3.371  15.906  0.2940 -0.4518 -0.0382
  371TMC3    O1 5613   2.427   3.642  15.513 -0.0975 -0.8046  0.4813
  371TMC3    O2 5614   2.416   3.298  15.986  0.0008 -0.0875  0.4926
  372MPD2     C 5615   2.765   0.167  13.391  0.1457  0.3156  0.0242
  372MPD2    C1 5616   2.747   0.040  13.436 -0.0421 -0.3819 -0.6268
  372MPD2    C2 5617   2.644   0.018  13.524  0.0838 -0.0868  0.1917
  372MPD2    C3 5618   2.561   0.121  13.566 -0.7360 -0.4327 -0.6591
  372MPD2    C4 5619   2.578   0.248  13.514 -0.6120 -0.7292  0.6060
  372MPD2    C5 5620   2.681   0.267  13.429 -0.0900 -0.5275  0.1431
  372MPD2     H 5621   2.636   4.662  13.572  1.3940 -1.7427 -2.9273
  372MPD2    H1 5622   2.521   0.336  13.542  0.5461 -0.1223  1.0482
  372MPD2    H2 5623   2.852   0.199  13.335  0.3920 -0.0006  0.2294
  372MPD2    H3 5624   2.700   0.370  13.398  1.2814 -1.0644 -0.7852
  372MPD2     N 5625   2.457   0.086  13.652 -0.2592 -0.3594 -0.1438
  372MPD2    H5 5626   2.427   4.731  13.670  0.3800 -0.1903  1.8881
  372MPD2    N1 5627   2.832   4.672  13.407 -0.5292  1.1770 -0.2855
  372MPD2    H7 5628   2.816   4.583  13.454  0.6817 -0.0758 -2.2157
  373TMC3    C1 5629   2.268   0.131  13.783  0.5211  0.5565  1.2074
  373TMC3    C2 5630   2.226   0.202  13.891  0.2483 -0.5936  0.7141
  373TMC3    C3 5631   2.115   0.158  13.952  0.3508  0.1830 -0.1040
  373TMC3    C4 5632   2.205   0.025  13.731  0.0747 -0.2199  0.2507
  373TMC3    C5 5633   2.085   4.733  13.790  0.8593 -0.7114  0.9651
  373TMC3    C6 5634   2.041   0.055  13.905  0.2976  0.4620  0.4783
  373TMC3     C 5635   2.383   0.185  13.715  0.3750  0.2190  0.0876
  373TMC3     O 5636   2.426   0.297  13.743  0.5457 -0.0817  0.0283
  373TMC3     H 5637   2.286   0.285  13.927 -0.8144  0.6343 -0.3801
  373TMC3    H1 5638   2.229   4.718  13.638 -2.2718 -0.8779 -0.0093
  373TMC3    H2 5639   1.960   0.023  13.969  0.8658  0.5916  1.2613
  373TMC3    C7 5640   2.066   4.591  13.790  0.2957 -0.7162 -0.0285
  373TMC3    C8 5641   2.154   0.130  14.088  0.5240  0.0756 -0.5726
  373TMC3    O1 5642   2.165   4.525  13.762  0.4179  0.1338  0.0317
  373TMC3    O2 5643   2.275   0.141  14.112  0.6482 -1.1774  0.3057
  374TMC3    C1 5644   2.326   3.996  10.055 -0.2905 -0.2769 -0.5727
  374TMC3    C2 5645   2.443   4.077  10.069  0.0686 -0.2331 -0.3280
  374TMC3    C3 5646   2.513   4.109   9.957  0.4653  0.4813  0.1170
  374TMC3    C4 5647   2.266   3.994   9.930 -0.3757  0.3109  1.3307
  374TMC3    C5 5648   2.340   4.035   9.820  0.0898  0.6218 -0.3737
  374TMC3    C6 5649   2.462   4.097   9.834 -0.6560 -0.0994  0.2781
  374TMC3     C 5650   2.269   3.919  10.166  0.0133 -0.2820  0.0896
  374TMC3     O 5651   2.151   3.889  10.151  0.0898 -0.3954  0.0095
  374TMC3     H 5652   2.483   4.092  10.169 -1.7996  0.7064  0.2648
  374TMC3    H1 5653   2.164   3.958   9.923  0.6461 -2.4477  0.5358
  374TMC3    H2 5654   2.518   4.137   9.751  2.2634  0.4074  2.5102
  374TMC3    C7 5655   2.284   4.024   9.682 -0.1504  0.5054 -0.0034
  374TMC3    C8 5656   2.630   4.191   9.982  0.3808  0.4010 -0.3608
  374TMC3    O1 5657   2.337   4.099   9.598  0.3637 -0.1518  0.3478
  374TMC3    O2 5658   2.709   4.203   9.883  0.6099 -0.3346  0.0309
  375MPD2     C 5659   2.403   0.138  17.718  0.0944  0.7175  0.2254
  375MPD2    C1 5660   2.393   0.251  17.639  0.0473 -0.5198 -0.7996
  375MPD2    C2 5661   2.446   0.249  17.510  0.7066  0.4234 -0.3890
  375MPD2    C3 5662   2.501   0.132  17.458  0.0777 -0.0160 -0.8010
  375MPD2    C4 5663   2.520   0.017  17.547  0.2599 -0.7233 -0.4955
  375MPD2    C5 5664   2.473   0.030  17.672 -0.6854  0.1624 -0.1086
  375MPD2     H 5665   2.434   0.333  17.442  0.3806  0.3303 -0.4507
  375MPD2    H1 5666   2.569   4.666  17.519 -0.3114 -2.2366  3.5400
  375MPD2    H2 5667   2.376   0.153   0.061  0.9045 -0.4800  0.6144
  375MPD2    H3 5668   2.476   4.680  17.732 -0.1404 -1.2738 -2.3435
  375MPD2     N 5669   2.544   0.117  17.323 -0.3195 -0.2949  0.6773
  375MPD2    H5 5670   2.593   0.030  17.306 -1.9065 -0.9368 -0.6094
  375MPD2    N1 5671   2.329   0.370  17.682  0.0288 -0.2269  0.9029
  375MPD2    H7 5672   2.334   0.447  17.617  0.5303  0.5735  1.8855
  376TMC3    C1 5673   2.578   0.175  17.089  0.0807  0.4482 -0.4626
  376TMC3    C2 5674   2.677   0.081  17.069 -0.5406 -0.8071 -0.3889
  376TMC3    C3 5675   2.713   0.047  16.946  0.7027 -0.5719  0.5884
  376TMC3    C4 5676   2.518   0.234  16.981  0.2335 -0.1013  0.1546
  376TMC3    C5 5677   2.546   0.179  16.863  0.3037  0.5508  0.2393
  376TMC3    C6 5678   2.643   0.086  16.839 -0.1624  0.1596  0.1929
  376TMC3     C 5679   2.521   0.208  17.221  0.0367  0.3555 -0.3780
  376TMC3     O 5680   2.438   0.300  17.219  0.4202  0.0327 -0.6159
  376TMC3     H 5681   2.749   0.066  17.149  0.4056  2.7650 -0.5526
  376TMC3    H1 5682   2.454   0.320  16.995  0.5379  0.1845 -0.2374
  376TMC3    H2 5683   2.663   0.065  16.735  0.0801  2.5873 -0.2433
  376TMC3    C7 5684   2.497   0.243  16.741  0.7624 -0.3875  0.3165
  376TMC3    C8 5685   2.834   4.711  16.923 -0.1288  0.1743  0.6279
  376TMC3    O1 5686   2.504   0.365  16.719 -0.0222 -0.0136  0.3508
  376TMC3    O2 5687   2.869   4.612  16.988  0.1423  0.6404  0.2805
  377MPD2     C 5688   0.237   4.726  13.060  0.9988 -0.1260 -0.3805
  377MPD2    C1 5689   0.345   4.647  13.047 -0.0357  0.1882 -0.5508
  377MPD2    C2 5690   0.402   4.590  13.160 -1.1592 -0.6630  0.1948
  377MPD2    C3 5691   0.349   4.620  13.288 -0.1619  0.1618 -0.8952
  377MPD2    C4 5692   0.235   4.699  13.302 -0.1802  0.6385 -0.0746
  377MPD2    C5 5693   0.189   0.013  13.181 -0.5375 -0.1809  0.3846
  377MPD2     H 5694   0.491   4.531  13.145 -1.6075 -1.5738  1.1326
  377MPD2    H1 5695   0.186   4.736  13.391 -1.4230 -2.7074  0.6261
  377MPD2    H2 5696   0.192   0.023  12.969  0.1022  0.1081  0.1724
  377MPD2    H3 5697   0.109   0.086  13.175 -0.0607  0.3580  0.5713
  377MPD2     N 5698   0.404   4.555  13.406  0.7544 -1.0803  0.6181
  377MPD2    H5 5699   0.350   4.572  13.491  1.3938  0.4011  0.7332
  377MPD2    N1 5700   0.402   4.638  12.919 -0.0425 -0.0243 -0.4338
  377MPD2    H7 5701   0.359   4.698  12.849  0.4167  2.9645  1.8572
  378TMC3    C1 5702   0.576   4.716  12.567  0.2851 -0.0208  0.1758
  378TMC3    C2 5703   0.518   4.693  12.691  0.0836  0.2430 -0.4923
  378TMC3    C3 5704   0.542   4.567  12.741  0.4688  0.6137  0.1039
  378TMC3    C4 5705   0.656   4.627  12.502 -0.0607 -0.7869 -0.3024
  378TMC3    C5 5706   0.679   4.508  12.562 -0.5056 -0.0647 -0.2259
  378TMC3    C6 5707   0.629   4.474  12.686  0.0653 -0.4496 -0.2385
  378TMC3     C 5708   0.552   0.103  12.502 -0.4829  0.0032  0.3845
  378TMC3     O 5709   0.448   0.158  12.533 -0.0901  0.4940  0.0984
  378TMC3     H 5710   0.446   0.027  12.721 -0.3073 -0.2939 -0.0892
  378TMC3    H1 5711   0.670   4.648  12.396 -0.2647 -1.7421 -0.5235
  378TMC3    H2 5712   0.657   4.385  12.741  1.9318  0.1116 -0.2774
  378TMC3    C7 5713   0.784   4.421  12.518  0.3745  0.4943 -0.3357
  378TMC3    C8 5714   0.498   4.542  12.878 -0.0084  0.5220  0.1241
  378TMC3    O1 5715   0.787   4.304  12.554 -0.1276 -0.0998  0.1494
  378TMC3    O2 5716   0.544   4.447  12.939 -0.2943  0.2009 -0.1591
  379MPD2     C 5717   0.849   2.781  16.637 -0.7174  0.4080  1.3579
  379MPD2    C1 5718   0.977   2.743  16.596 -0.1478  0.3506 -0.4537
  379MPD2    C2 5719   1.062   2.690  16.694  0.2687  1.2301  1.2312
  379MPD2    C3 5720   1.021   2.676  16.831 -0.0867 -0.4824 -1.0415
  379MPD2    C4 5721   0.894   2.709  16.863  0.5310 -0.3596  0.1566
  379MPD2    C5 5722   0.816   2.756  16.765  0.0516  0.2905  0.0336
  379MPD2     H 5723   1.168   2.678  16.671 -0.2875 -1.8095  0.2933
  379MPD2    H1 5724   0.863   2.719  16.966 -1.0332 -0.0348 -0.3528
  379MPD2    H2 5725   0.777   2.820  16.567 -0.2923  1.5681  1.5695
  379MPD2    H3 5726   0.722   2.802  16.796  1.5644  2.2953  1.6626
  379MPD2     N 5727   1.107   2.643  16.940 -0.1301  0.1568 -0.4327
  379MPD2    H5 5728   1.060   2.647  17.030 -0.8410  1.5049 -0.8633
  379MPD2    N1 5729   1.016   2.769  16.460 -0.2951 -1.0354 -0.4200
  379MPD2    H7 5730   0.955   2.817  16.395 -0.0102 -0.5982 -0.3631
  380TMC3    C1 5731   1.151   2.789  16.275  0.4112  0.2716  0.0529
  380TMC3    C2 5732   1.266   2.849  16.230  0.1125 -0.7433  0.4820
  380TMC3    C3 5733   1.260   2.922  16.122 -0.1120 -0.2157 -0.9539
  380TMC3    C4 5734   1.031   2.791  16.202 -0.4484 -0.3059 -0.1609
  380TMC3    C5 5735   1.035   2.862  16.089  0.1859 -0.5077 -0.8156
  380TMC3    C6 5736   1.144   2.934  16.047  0.1607  0.0517 -0.1658
  380TMC3     C 5737   1.145   2.750  16.412 -0.2357 -0.1442 -0.2344
  380TMC3     O 5738   1.247   2.693  16.454  0.5848  0.0489  0.5704
  380TMC3     H 5739   1.349   2.855  16.299 -0.1028  0.0741  0.6767
  380TMC3    H1 5740   0.940   2.742  16.235  0.0843 -1.1275  0.0923
  380TMC3    H2 5741   1.161   2.963  15.944 -1.5650 -2.4723 -1.1736
  380TMC3    C7 5742   0.923   2.852  16.000 -0.6561 -0.9510 -0.2965
  380TMC3    C8 5743   1.381   2.946  16.052  0.4589  0.0596  0.1511
  380TMC3    O1 5744   0.844   2.762  16.013  0.1069  0.2819 -0.0820
  380TMC3    O2 5745   1.370   3.034  15.968 -0.2633  0.1387 -0.5078
  381TMC3    C1 5746   1.071   3.907  16.364  0.3285  0.9896  0.6514
  381TMC3    C2 5747   1.153   4.013  16.341  0.0549  0.1864  0.4367
  381TMC3    C3 5748   1.131   4.126  16.411  0.1227 -0.7932  1.3383
  381TMC3    C4 5749   0.954   3.919  16.433 -0.5769  0.5082 -0.5240
  381TMC3    C5 5750   0.931   4.041  16.495 -0.1047  0.0149  0.5864
  381TMC3    C6 5751   1.022   4.145  16.488 -0.8768  0.1829 -0.2857
  381TMC3     C 5752   1.083   3.775  16.301 -0.4536 -0.8826  0.3727
  381TMC3     O 5753   1.021   3.690  16.358 -0.5548  0.1348  0.0659
  381TMC3     H 5754   1.239   4.014  16.275  0.8875 -1.6141  1.5038
  381TMC3    H1 5755   0.882   3.838  16.431 -0.2127  0.1357  2.0054
  381TMC3    H2 5756   0.998   4.242  16.532 -1.0285  0.3627 -0.7707
  381TMC3    C7 5757   0.867   4.009  16.617  0.5840 -0.0692  0.5705
  381TMC3    C8 5758   1.247   4.224  16.413  0.8212 -0.0996  0.2399
  381TMC3    O1 5759   0.895   3.897  16.649  0.7068  0.1098  0.3638
  381TMC3    O2 5760   1.339   4.197  16.337 -0.0015  0.7242 -0.2698
  382MPD2     C 5761   4.694   1.776  16.677 -0.2779  0.6956 -0.1020
  382MPD2    C1 5762   0.006   1.806  16.799  0.0859  0.1264  0.1654
  382MPD2    C2 5763   0.050   1.698  16.882  0.3494 -0.2859  0.1894
  382MPD2    C3 5764   0.038   1.566  16.840 -0.3103 -1.0925 -0.4451
  382MPD2    C4 5765   4.726   1.534  16.714 -0.5988 -0.2949  0.1360
  382MPD2    C5 5766   4.687   1.643  16.635 -0.7193  0.7350  0.9170
  382MPD2     H 5767   0.093   1.729  16.977  0.6931 -2.3855  0.7238
  382MPD2    H1 5768   4.716   1.432  16.678 -1.6290  0.6096 -2.1893
  382MPD2    H2 5769   4.659   1.850  16.606 -1.2547 -1.1075 -1.5203
  382MPD2    H3 5770   4.648   1.614  16.537 -0.6082 -1.7083  1.5844
  382MPD2     N 5771   0.082   1.457  16.916  0.2529 -0.1863 -0.6064
  382MPD2    H5 5772   0.072   1.364  16.876 -0.5347  0.2738 -1.4840
  382MPD2    N1 5773   0.006   1.941  16.854 -0.4206 -0.1377  0.1686
  382MPD2    H7 5774   0.023   1.952  16.953  0.0787  2.9164 -0.2767
  383TMC3    C1 5775   0.149   1.329  17.095 -0.0995 -0.6760  0.2365
  383TMC3    C2 5776   0.045   1.254  17.086 -0.2743 -0.2492  0.1626
  383TMC3    C3 5777   0.008   1.177  17.194 -0.3418 -0.8410 -0.3442
  383TMC3    C4 5778   0.247   1.306  17.187 -0.5148 -0.0958  0.1192
  383TMC3    C5 5779   0.216   1.216  17.290 -0.2942  0.6188 -0.2975
  383TMC3    C6 5780   0.093   1.157  17.301  0.0770 -0.4683 -0.6577
  383TMC3     C 5781   0.138   1.463  17.040 -0.0784  1.3536 -0.7256
  383TMC3     O 5782   0.206   1.555  17.082  0.6472  0.5627 -0.4099
  383TMC3     H 5783   4.705   1.283  17.020  0.0948 -3.5459 -1.7006
  383TMC3    H1 5784   0.329   1.377  17.197 -0.7375  0.0930  0.6153
  383TMC3    H2 5785   0.069   1.097  17.389 -2.6472  0.7053 -0.5812
  383TMC3    C7 5786   0.307   1.202  17.405 -0.7586  0.4874  0.2685
  383TMC3    C8 5787   4.636   1.090  17.162  0.8153 -0.3061 -0.3790
  383TMC3    O1 5788   0.256   1.171  17.512  0.1678 -0.1947  0.5150
  383TMC3    O2 5789   4.570   1.122  17.066  0.3532 -0.4638 -0.1471
  384MPD2     C 5790   1.440   3.013  12.028 -0.1229  0.2006 -0.3781
  384MPD2    C1 5791   1.404   2.910  12.112 -0.1420  0.0636  0.4320
  384MPD2    C2 5792   1.474   2.791  12.108  0.1433  0.1276 -0.0709
  384MPD2    C3 5793   1.580   2.781  12.015 -0.2823  0.4298 -0.3171
  384MPD2    C4 5794   1.607   2.880  11.924 -0.4057  0.1620 -0.1745
  384MPD2    C5 5795   1.535   2.997  11.933  0.0309  0.1182  0.7062
  384MPD2     H 5796   1.452   2.710  12.176  1.4095  0.7614  1.1076
  384MPD2    H1 5797   1.690   2.878  11.855 -1.8277 -2.2270 -1.8041
  384MPD2    H2 5798   1.396   3.112  12.038 -1.4675 -0.6259  1.8729
  384MPD2    H3 5799   1.566   3.081  11.871  0.8018 -0.0773  0.8395
  384MPD2     N 5800   1.677   2.674  12.026 -0.0320  0.3488 -0.3837
  384MPD2    H5 5801   1.761   2.667  11.969 -1.2751 -1.1645 -2.0280
  384MPD2    N1 5802   1.299   2.936  12.205 -0.4032 -0.2541  0.3763
  384MPD2    H7 5803   1.271   3.033  12.219 -1.0161 -0.5856  1.4239
  385TMC3    C1 5804   1.786   2.522  12.168 -0.1884  0.2103  0.2319
  385TMC3    C2 5805   1.760   2.402  12.239 -0.2171  0.5185  0.7820
  385TMC3    C3 5806   1.817   2.389  12.366  0.2986 -0.5042  0.4299
  385TMC3    C4 5807   1.853   2.625  12.227 -0.0409 -0.0266 -0.1629
  385TMC3    C5 5808   1.889   2.616  12.361 -0.4003 -0.1105  0.6408
  385TMC3    C6 5809   1.872   2.500  12.427  0.1988  0.5272  0.5153
  385TMC3     C 5810   1.666   2.556  12.098  0.1591  0.6966  0.2507
  385TMC3     O 5811   1.568   2.506  12.153 -0.3905  0.5411  0.0883
  385TMC3     H 5812   1.704   2.326  12.187 -0.6018  0.8084  0.7739
  385TMC3    H1 5813   1.868   2.717  12.172  1.9995 -0.2804 -0.0233
  385TMC3    H2 5814   1.898   2.491  12.532  1.1808 -2.9664 -0.0196
  385TMC3    C7 5815   1.848   2.733  12.431 -0.2285  0.3510 -0.1543
  385TMC3    C8 5816   1.802   2.268  12.441  0.3801  0.5316  0.2116
  385TMC3    O1 5817   1.792   2.810  12.360 -0.1278  0.6785  0.3361
  385TMC3    O2 5818   1.814   2.280  12.563 -0.4486 -0.6252 -0.0127
  386TMC3    C1 5819   1.851   0.574  12.242  1.0479 -0.3002  0.3292
  386TMC3    C2 5820   1.841   0.569  12.106 -0.9360  0.2576  0.2803
  386TMC3    C3 5821   1.720   0.612  12.055 -0.6875  0.2746  0.1082
  386TMC3    C4 5822   1.749   0.618  12.326  0.3845  0.7490 -0.0512
  386TMC3    C5 5823   1.629   0.655  12.277  0.5500  0.7464 -0.1004
  386TMC3    C6 5824   1.612   0.649  12.136 -0.0631  0.4344 -0.2357
  386TMC3     C 5825   1.986   0.553  12.296 -0.2427 -0.4799  0.1478
  386TMC3     O 5826   2.010   0.592  12.412  0.0180 -0.0796  0.0954
  386TMC3     H 5827   1.926   0.544  12.043 -0.7299 -0.8671  1.0171
  386TMC3    H1 5828   1.768   0.623  12.432 -2.0827 -0.5387  0.4582
  386TMC3    H2 5829   1.511   0.653  12.096  0.3809  1.3041 -1.2562
  386TMC3    C7 5830   1.516   0.612  12.360  0.0200  0.4112 -0.4950
  386TMC3    C8 5831   1.677   0.563  11.920  0.2361 -0.0405  0.5227
  386TMC3    O1 5832   1.554   0.552  12.459  0.3445 -0.4450 -0.1478
  386TMC3    O2 5833   1.586   0.624  11.870  0.2592 -0.4826 -0.0924
  387MPD2     C 5834   3.924   0.349  10.249 -0.6834 -0.1926 -0.4182
  387MPD2    C1 5835   3.989   0.290  10.352 -0.1963  0.5494  0.8569
  387MPD2    C2 5836   3.968   0.159  10.388 -0.5038 -0.4014  0.1206
  387MPD2    C3 5837   3.864   0.088  10.325 -0.6158 -0.4237  0.5900
  387MPD2    C4 5838   3.790   0.146  10.228  0.6280 -0.3134  0.1491
  387MPD2    C5 5839   3.826   0.274  10.190  0.1490  0.2755  0.6611
  387MPD2     H 5840   4.023   0.105  10.464 -2.2404  1.9616  3.0876
  387MPD2    H1 5841   3.698   0.109  10.185 -0.1356 -0.4594  1.8940
  387MPD2    H2 5842   3.936   0.454  10.224 -1.8767  0.1501  0.4798
  387MPD2    H3 5843   3.767   0.317  10.110 -0.0942 -2.1094 -0.4347
  387MPD2     N 5844   3.849   4.687  10.351  0.3135 -0.4220  0.1345
  387MPD2    H5 5845   3.896   4.640  10.428  0.8414 -2.7415 -1.6133
  387MPD2    N1 5846   4.097   0.351  10.417  0.0954  0.2693  0.4312
  387MPD2    H7 5847   4.154   0.299  10.483  1.2065 -0.3706 -1.0409
  388TMC3    C1 5848   4.299   0.458  10.413  0.6878 -0.1660  0.3028
  388TMC3    C2 5849   4.360   0.573  10.462 -0.3062 -0.3378  0.1538
  388TMC3    C3 5850   4.474   0.566  10.534  0.2609  0.0094 -0.1644
  388TMC3    C4 5851   4.351   0.336  10.447 -0.6280  0.5844  0.1799
  388TMC3    C5 5852   4.469   0.330  10.510  0.8049 -0.1450  0.3264
  388TMC3    C6 5853   4.529   0.446  10.557  0.1358  0.0467  0.1332
  388TMC3     C 5854   4.158   0.465  10.374  0.1951 -0.2138  0.1318
  388TMC3     O 5855   4.115   0.556  10.305 -0.0656  0.1348 -0.0256
  388TMC3     H 5856   4.296   0.660  10.446  0.3523  0.0717 -0.2313
  388TMC3    H1 5857   4.311   0.250  10.395  0.3326 -0.1339  0.6415
  388TMC3    H2 5858   4.622   0.443  10.612  1.0308  1.4922 -1.3028
  388TMC3    C7 5859   4.538   0.205  10.499  0.1476  0.2718 -0.1547
  388TMC3    C8 5860   4.560   0.676  10.539 -0.0367 -0.1401 -0.8723
  388TMC3    O1 5861   4.659   0.209  10.473  0.0540 -0.2269  0.4911
  388TMC3    O2 5862   4.658   0.658  10.610 -0.1603  0.2874  0.0808
  389MPD2     C 5863   3.480   2.803  11.217  0.2752 -0.0962  0.8185
  389MPD2    C1 5864   3.362   2.741  11.233  0.3675 -0.6361 -0.2746
  389MPD2    C2 5865   3.319   2.685  11.354 -0.3050  0.0486  0.3896
  389MPD2    C3 5866   3.407   2.698  11.460 -0.0609 -0.5827  0.5327
  389MPD2    C4 5867   3.515   2.782  11.448  1.1203 -0.2942 -0.1162
  389MPD2    C5 5868   3.562   2.825  11.329  0.9749 -0.2231  0.1564
  389MPD2     H 5869   3.225   2.631  11.361  1.0197 -2.2089  0.5641
  389MPD2    H1 5870   3.584   2.805  11.529 -2.3029  1.3860  2.3591
  389MPD2    H2 5871   3.510   2.847  11.123 -1.3625 -1.8039 -0.5123
  389MPD2    H3 5872   3.650   2.889  11.330 -0.0089  1.1736 -1.6472
  389MPD2     N 5873   3.381   2.642  11.583  0.5069  0.4226  0.3009
  389MPD2    H5 5874   3.442   2.668  11.660 -1.2158  0.7529  1.5434
  389MPD2    N1 5875   3.289   2.729  11.118  0.4475 -0.3633 -0.1163
  389MPD2    H7 5876   3.306   2.785  11.035  0.1580 -0.4620 -0.2420
  390TMC3    C1 5877   3.275   2.525  11.756  0.5074 -0.7040  0.0624
  390TMC3    C2 5878   3.205   2.421  11.791 -0.3446  0.2569 -0.3479
  390TMC3    C3 5879   3.166   2.414  11.918  0.3086  0.0560 -0.2172
  390TMC3    C4 5880   3.316   2.626  11.842  0.5687  0.5020  0.1716
  390TMC3    C5 5881   3.256   2.623  11.965  0.4095 -0.3367  0.3835
  390TMC3    C6 5882   3.181   2.518  12.004  0.1945 -0.3948  0.2533
  390TMC3     C 5883   3.285   2.542  11.610  0.2097  0.3682 -0.1068
  390TMC3     O 5884   3.199   2.491  11.536  0.4090  0.0628  0.3499
  390TMC3     H 5885   3.171   2.348  11.718  1.6760  0.6507 -1.6681
  390TMC3    H1 5886   3.373   2.710  11.805 -0.9130  0.8697 -1.3011
  390TMC3    H2 5887   3.142   2.513  12.106  1.9821 -3.0064  0.8237
  390TMC3    C7 5888   3.237   2.748  12.037  0.8625  0.0480  0.1870
  390TMC3    C8 5889   3.075   2.304  11.946  0.1538 -0.3272  0.4072
  390TMC3    O1 5890   3.304   2.845  12.005 -0.2108 -0.0258  0.0437
  390TMC3    O2 5891   3.013   2.261  11.848  0.2872  0.8080  0.6735
  391MPD2     C 5892   2.874   4.608  11.320  0.3185  0.4964 -1.0200
  391MPD2    C1 5893   2.953   4.701  11.253 -0.3078 -0.8545 -0.4351
  391MPD2    C2 5894   2.914   0.003  11.130  0.2545 -0.2526 -0.1214
  391MPD2    C3 5895   2.795   4.697  11.068 -0.5904  0.4673 -0.4606
  391MPD2    C4 5896   2.716   4.606  11.140  0.3309 -0.3848 -0.6630
  391MPD2    C5 5897   2.755   4.566  11.268 -0.3890  1.2345 -0.4417
  391MPD2     H 5898   2.982   0.069  11.077 -1.1073  0.7408 -0.6258
  391MPD2    H1 5899   2.616   4.585  11.102  0.9606  0.0337 -2.5345
  391MPD2    H2 5900   2.898   4.565  11.417 -1.4626  0.2639 -0.6871
  391MPD2    H3 5901   2.693   4.493  11.320  2.2698 -0.3041  0.5639
  391MPD2     N 5902   2.777   0.018  10.938 -1.0605 -0.0421  0.1709
  391MPD2    H5 5903   2.842   0.087  10.903  0.6260 -2.0329 -0.6273
  391MPD2    N1 5904   3.071   0.021  11.302  0.2568  0.4780 -0.2862
  391MPD2    H7 5905   3.128   0.075  11.238  1.9342 -1.1230 -0.1557
  392TMC3    C1 5906   2.684   0.053  10.741  0.2955 -0.0006 -0.5347
  392TMC3    C2 5907   2.622   4.734  10.634  0.5562 -0.3813  0.0433
  392TMC3    C3 5908   2.659   0.039  10.515 -0.4154  0.3023  0.2973
  392TMC3    C4 5909   2.777   0.160  10.726  0.0141  0.0267  0.0687
  392TMC3    C5 5910   2.813   0.196  10.602  0.1785  0.3416  0.8477
  392TMC3    C6 5911   2.753   0.134  10.495 -0.1921 -0.4036  0.0425
  392TMC3     C 5912   2.669   4.731  10.867  0.5927  0.1590  0.3688
  392TMC3     O 5913   2.577   4.651  10.876 -0.3164 -0.3359  1.4973
  392TMC3     H 5914   2.555   4.649  10.645  0.1646  0.2028  2.0479
  392TMC3    H1 5915   2.823   0.218  10.805 -0.2264  2.4929 -1.5929
  392TMC3    H2 5916   2.779   0.147  10.391 -0.2098  1.2285  0.2335
  392TMC3    C7 5917   2.921   0.309  10.583 -0.3708  0.1193  0.0799
  392TMC3    C8 5918   2.647   4.675  10.417 -0.5624  0.7420 -0.3590
  392TMC3    O1 5919   2.981   0.352  10.678  0.1618  0.6581 -0.2663
  392TMC3    O2 5920   2.544   4.610  10.419 -0.8198 -0.4636  0.4692
  393TMC3    C1 5921   1.168   2.935  11.311 -0.0369  0.0483 -0.1819
  393TMC3    C2 5922   1.041   2.891  11.305  0.0453  0.6304 -0.1713
  393TMC3    C3 5923   1.013   2.762  11.347  0.3953  0.8270  0.2362
  393TMC3    C4 5924   1.277   2.849  11.335  0.4585 -0.0680 -0.1967
  393TMC3    C5 5925   1.243   2.717  11.356 -0.7557  0.6540  0.4438
  393TMC3    C6 5926   1.111   2.677  11.381  0.7963 -0.5604 -0.3962
  393TMC3     C 5927   1.191   3.073  11.262  0.5913 -0.1305  1.5266
  393TMC3     O 5928   1.089   3.144  11.264 -0.3213  0.1660 -0.0317
  393TMC3     H 5929   0.966   2.957  11.263 -1.1257 -1.8963 -2.0430
  393TMC3    H1 5930   1.376   2.892  11.330  1.6552 -2.7783  0.2248
  393TMC3    H2 5931   1.095   2.574  11.407 -1.1649 -0.0360  0.4422
  393TMC3    C7 5932   1.342   2.614  11.358  0.1243  0.7280  0.8528
  393TMC3    C8 5933   0.878   2.714  11.311 -0.2968 -0.6440  0.6737
  393TMC3    O1 5934   1.314   2.499  11.393 -0.0018 -0.1557 -0.2040
  393TMC3    O2 5935   0.808   2.787  11.244  0.3554  0.2020 -0.2831
  394TMC3    C1 5936   3.126   2.669  10.961  0.1250 -0.3240  0.4429
  394TMC3    C2 5937   3.000   2.632  10.935  0.1873 -0.1522 -0.8623
  394TMC3    C3 5938   2.953   2.660  10.803  0.3899  0.6083 -0.1370
  394TMC3    C4 5939   3.204   2.720  10.861 -0.1410  0.0856  0.5211
  394TMC3    C5 5940   3.153   2.739  10.732 -0.1333  1.3058 -0.2108
  394TMC3    C6 5941   3.023   2.725  10.708 -0.1429 -0.2564  0.1839
  394TMC3     C 5942   3.174   2.653  11.098 -0.2478  0.2999 -0.0742
  394TMC3     O 5943   3.103   2.592  11.174  0.1498 -0.5547  0.0185
  394TMC3     H 5944   2.927   2.587  11.002  0.8530  1.5188  1.0032
  394TMC3    H1 5945   3.309   2.743  10.875 -0.1789  1.1270 -0.8803
  394TMC3    H2 5946   2.977   2.782  10.628  0.7704 -0.4219 -0.4484
  394TMC3    C7 5947   3.223   2.832  10.645 -0.9118  0.3462 -0.1291
  394TMC3    C8 5948   2.821   2.609  10.773 -0.6908 -0.5717 -0.4906
  394TMC3    O1 5949   3.151   2.908  10.583 -0.4334  0.3778  0.0770
  394TMC3    O2 5950   2.738   2.568  10.858  0.2200 -0.0728 -0.7201
  395TMC3    C1 5951   3.907   0.606  14.740 -0.0977 -1.3520  0.1397
  395TMC3    C2 5952   3.788   0.561  14.692  0.5478 -0.0577  0.0511
  395TMC3    C3 5953   3.710   0.655  14.621  0.0451  0.2159 -0.3928
  395TMC3    C4 5954   3.946   0.734  14.733  0.2028  0.4639  0.2089
  395TMC3    C5 5955   3.858   0.821  14.677 -0.6756 -0.4510  0.0011
  395TMC3    C6 5956   3.746   0.787  14.617  0.0928  0.5613  0.5491
  395TMC3     C 5957   3.970   0.519  14.831  0.0016 -0.7654  0.1895
  395TMC3     O 5958   4.093   0.518  14.842  0.3528 -0.2984 -0.4491
  395TMC3     H 5959   3.754   0.458  14.695  0.1236  0.1292  1.4882
  395TMC3    H1 5960   4.032   0.768  14.789 -0.8806  2.6136  0.5239
  395TMC3    H2 5961   3.676   0.860  14.577 -0.0191  1.0010  1.5525
  395TMC3    C7 5962   3.910   0.956  14.688  0.2247  0.0298  0.0938
  395TMC3    C8 5963   3.573   0.658  14.685  0.3715  0.1197  0.6247
  395TMC3    O1 5964   4.006   0.989  14.762 -0.3397 -0.1907  0.3025
  395TMC3    O2 5965   3.554   0.760  14.748  0.1318  0.2556  0.4585
  396MPD2     C 5966   3.028   1.052  17.040  0.3976 -0.3828 -0.6724
  396MPD2    C1 5967   3.127   1.111  17.113  0.5672  0.4668 -0.6917
  396MPD2    C2 5968   3.212   1.205  17.053 -0.6296  0.3284 -0.0070
  396MPD2    C3 5969   3.194   1.251  16.922  0.6673 -0.6877  0.2638
  396MPD2    C4 5970   3.090   1.195  16.850  0.8679 -0.9783  0.2020
  396MPD2    C5 5971   3.007   1.090  16.905 -0.2404 -0.3882 -0.5291
  396MPD2     H 5972   3.298   1.236  17.110  0.3399 -1.3280 -0.5687
  396MPD2    H1 5973   3.065   1.228  16.750  1.9960  2.2437  0.9890
  396MPD2    H2 5974   2.959   0.983  17.087 -0.1377  1.8044  1.7792
  396MPD2    H3 5975   2.922   1.054  16.848  0.0614 -0.3785 -0.9814
  396MPD2     N 5976   3.283   1.349  16.871  0.1855  0.4902 -0.5180
  396MPD2    H5 5977   3.354   1.386  16.934  1.3803 -0.6824 -1.1873
  396MPD2    N1 5978   3.140   1.063  17.251  0.4124 -0.5813 -0.2443
  396MPD2    H7 5979   3.072   0.993  17.279 -1.2287  1.0842 -0.0586
  397TMC3    C1 5980   3.277   0.939  17.383  0.7044 -0.1880 -0.9412
  397TMC3    C2 5981   3.379   0.877  17.313 -0.4238 -1.2322  0.1114
  397TMC3    C3 5982   3.347   0.763  17.243  0.5605  0.4059  0.6581
  397TMC3    C4 5983   3.154   0.878  17.408  0.2713 -0.5953 -0.0655
  397TMC3    C5 5984   3.136   0.751  17.355 -0.0560 -0.8711  0.2944
  397TMC3    C6 5985   3.232   0.693  17.275 -0.1564  0.8731 -0.2320
  397TMC3     C 5986   3.250   1.072  17.327  0.7051  0.0799  0.2047
  397TMC3     O 5987   3.345   1.155  17.319  0.3054  0.0020 -0.2882
  397TMC3     H 5988   3.456   0.945  17.278 -0.0149 -2.4320 -1.3418
  397TMC3    H1 5989   3.087   0.935  17.471  1.9165  0.4182  0.7916
  397TMC3    H2 5990   3.209   0.601  17.222 -1.8565  1.1532  0.0312
  397TMC3    C7 5991   3.016   0.673  17.392 -0.3571 -0.3771  0.8175
  397TMC3    C8 5992   3.368   0.780  17.095 -0.1175 -0.7266 -0.4800
  397TMC3    O1 5993   3.003   0.569  17.333  0.4432  0.2324  0.4318
  397TMC3    O2 5994   3.265   0.769  17.027  0.5376 -0.0028 -0.0166
  398MPD2     C 5995   0.546   2.323   0.172 -0.4001  0.3319  0.1815
  398MPD2    C1 5996   0.647   2.318   0.269 -0.6030 -0.0484 -0.6017
  398MPD2    C2 5997   0.687   2.441   0.316  0.5446  0.4966 -0.0414
  398MPD2    C3 5998   0.648   2.564   0.269 -0.4678  0.3570  0.2072
  398MPD2    C4 5999   0.574   2.560   0.157 -0.3984  0.4395  0.6191
  398MPD2    C5 6000   0.517   2.443   0.108 -0.3190  0.4325 -0.3585
  398MPD2     H 6001   0.765   2.453   0.390 -0.1146  1.3389  0.5024
  398MPD2    H1 6002   0.543   2.650   0.106 -1.8013 -1.4027 -1.7763
  398MPD2    H2 6003   0.500   2.239   0.123 -0.7631  1.0635 -0.7261
  398MPD2    H3 6004   0.453   2.437   0.021  0.3372 -1.4764 -0.7138
  398MPD2     N 6005   0.685   2.681   0.342  0.2511 -0.6355  0.1296
  398MPD2    H5 6006   0.735   2.670   0.430 -1.3587  0.6898  1.2292
  398MPD2    N1 6007   0.701   2.204   0.332  0.0055  0.8098 -0.1573
  398MPD2    H7 6008   0.782   2.224   0.389  1.3018  0.5427 -1.8926
  399TMC3    C1 6009   0.719   1.974   0.396  0.5862 -0.2995 -0.6912
  399TMC3    C2 6010   0.847   2.007   0.434 -0.3856 -0.0397 -0.7357
  399TMC3    C3 6011   0.919   1.921   0.505  0.1932 -0.4161 -0.2535
  399TMC3    C4 6012   0.663   1.850   0.422 -0.7747  0.6241 -0.3280
  399TMC3    C5 6013   0.741   1.767   0.501  0.4284 -0.0593  0.2151
  399TMC3    C6 6014   0.866   1.798   0.542  0.4637  0.3829  0.6611
  399TMC3     C 6015   0.654   2.076   0.315 -0.0840 -0.9759  0.2722
  399TMC3     O 6016   0.559   2.043   0.242 -0.5043 -0.4269  0.2649
  399TMC3     H 6017   0.885   2.107   0.412  1.9073 -0.7243  0.1427
  399TMC3    H1 6018   0.563   1.825   0.388 -0.8917 -0.5599  0.8907
  399TMC3    H2 6019   0.935   1.724   0.583 -1.0178 -1.7073 -0.6600
  399TMC3    C7 6020   0.699   1.632   0.533 -0.3026  0.4475  1.6989
  399TMC3    C8 6021   1.050   1.967   0.550  0.3389 -0.4088 -0.0746
  399TMC3    O1 6022   0.782   1.546   0.535 -0.0178  0.3270 -0.5327
  399TMC3    O2 6023   1.071   2.087   0.536 -0.0627  0.0610 -0.0520
  400TMC3    C1 6024   4.616   0.768  16.916 -0.0419  0.4440  0.4917
  400TMC3    C2 6025   4.530   0.666  16.890 -0.2659 -0.2914 -0.4561
  400TMC3    C3 6026   4.413   0.688  16.831 -1.0633 -0.0906 -0.2266
  400TMC3    C4 6027   4.589   0.888  16.854 -0.1799 -0.3763 -0.8186
  400TMC3    C5 6028   4.475   0.902  16.780  0.1307 -0.7692 -0.0434
  400TMC3    C6 6029   4.392   0.801  16.761  0.2584  0.4117  0.2370
  400TMC3     C 6030   4.727   0.736  17.004 -0.2423 -0.7230  0.2357
  400TMC3     O 6031   4.717   0.636  17.071 -0.1815  0.6574  0.9516
  400TMC3     H 6032   4.545   0.568  16.935  2.9691 -0.7395 -2.5057
  400TMC3    H1 6033   4.655   0.972  16.872 -0.1422 -0.0204 -2.6297
  400TMC3    H2 6034   4.303   0.813  16.699  0.6894 -0.7248 -0.5999
  400TMC3    C7 6035   4.440   1.025  16.717 -0.5321 -0.6730 -0.5830
  400TMC3    C8 6036   4.316   0.583  16.842 -0.1187 -1.2219 -0.3398
  400TMC3    O1 6037   4.365   1.017  16.624  0.2361  0.0538 -0.2396
  400TMC3    O2 6038   4.330   0.490  16.923 -0.4683 -0.1044 -0.3068
  401MPD2     C 6039   3.264   4.515  17.447  0.4589 -0.4938 -0.0662
  401MPD2    C1 6040   3.149   4.493  17.529 -0.2621 -0.3727 -0.4018
  401MPD2    C2 6041   3.127   4.371  17.587 -0.3204  0.0634 -0.0917
  401MPD2    C3 6042   3.219   4.265  17.561  0.5915 -0.1168  0.2763
  401MPD2    C4 6043   3.333   4.288  17.489  0.5640 -0.6800  0.4841
  401MPD2    C5 6044   3.351   4.408  17.428  0.3589  0.5872  0.4096
  401MPD2     H 6045   3.050   4.369  17.663  0.8010  1.9284  1.1065
  401MPD2    H1 6046   3.410   4.213  17.474  0.3191 -1.0330  0.9567
  401MPD2    H2 6047   3.280   4.606  17.391  0.7481  1.7522  3.6516
  401MPD2    H3 6048   3.450   4.421  17.385 -0.0479  3.5879  0.4110
  401MPD2     N 6049   3.192   4.146  17.629  0.3184  0.3087 -0.4165
  401MPD2    H5 6050   3.100   4.146  17.673  0.3198 -1.8852 -0.4244
  401MPD2    N1 6051   3.050   4.589  17.555 -0.8297 -0.2792 -0.3354
  401MPD2    H7 6052   2.989   4.564  17.633  0.7520 -1.5755  0.4832
  402TMC3    C1 6053   3.183   3.928  17.687 -0.0445 -0.1301 -0.4199
  402TMC3    C2 6054   3.118   3.961   0.045  0.1899  0.2900 -1.1899
  402TMC3    C3 6055   3.028   3.874   0.099 -0.2018 -0.0224 -0.0404
  402TMC3    C4 6056   3.181   3.801  17.640  0.8956 -0.2636 -0.5264
  402TMC3    C5 6057   3.101   3.711  17.710 -0.2313  0.4172  0.6886
  402TMC3    C6 6058   3.027   3.742   0.056 -0.4076 -0.3350  0.0577
  402TMC3     C 6059   3.257   4.028  17.617  0.0982  0.0506 -0.1663
  402TMC3     O 6060   3.362   4.000  17.560  0.1191  0.4462 -0.3497
  402TMC3     H 6061   3.143   4.058   0.086 -1.1108  1.3951 -2.9826
  402TMC3    H1 6062   3.235   3.765  17.552  2.3900  0.2428  0.1811
  402TMC3    H2 6063   2.965   3.664   0.096  0.2829  0.0107  1.7791
  402TMC3    C7 6064   3.096   3.581  17.654 -0.0544  0.6643  0.8423
  402TMC3    C8 6065   2.941   3.912   0.198 -0.0159  0.8688 -0.3648
  402TMC3    O1 6066   3.091   3.574  17.532 -0.0184  0.1235  0.5021
  402TMC3    O2 6067   2.907   3.837   0.291 -0.0287  0.1622  0.5418
  403MPD2     C 6068   1.237   2.182  13.648 -0.2909 -0.4006 -0.1032
  403MPD2    C1 6069   1.258   2.311  13.698 -0.2167 -0.2037  0.0242
  403MPD2    C2 6070   1.340   2.323  13.807 -0.6609 -0.3790 -1.2817
  403MPD2    C3 6071   1.387   2.209  13.873 -0.1687  0.8203 -0.0876
  403MPD2    C4 6072   1.358   2.085  13.825 -0.2545 -0.5479 -0.0983
  403MPD2    C5 6073   1.287   2.073  13.710 -0.6432 -0.9964  0.3389
  403MPD2     H 6074   1.364   2.415  13.860  0.3047 -1.1643 -0.3668
  403MPD2    H1 6075   1.407   2.000  13.871  0.8038 -0.1651 -0.5248
  403MPD2    H2 6076   1.173   2.167  13.561  1.0033 -1.4631 -0.8778
  403MPD2    H3 6077   1.265   1.976  13.667 -1.5635 -0.7918  0.3503
  403MPD2     N 6078   1.455   2.237  13.995 -0.2055  0.0041 -0.2350
  403MPD2    H5 6079   1.455   2.337  14.010 -1.0946 -0.2560  1.5346
  403MPD2    N1 6080   1.194   2.418  13.633  0.5841 -0.6982  0.1681
  403MPD2    H7 6081   1.139   2.385  13.553 -0.9977  0.9358  0.5912
  404TMC3    C1 6082   1.073   2.615  13.637 -0.2513  0.0365  0.3661
  404TMC3    C2 6083   0.960   2.568  13.708 -0.1177 -0.8675  0.2584
  404TMC3    C3 6084   0.849   2.514  13.648 -0.5026  0.0373  0.0194
  404TMC3    C4 6085   1.054   2.630  13.502 -0.2426  0.3936 -0.3648
  404TMC3    C5 6086   0.944   2.584  13.444  0.2379 -0.2979  0.0590
  404TMC3    C6 6087   0.838   2.527  13.512  0.5115 -0.1443  0.5167
  404TMC3     C 6088   1.190   2.543  13.683 -0.0397  0.6369 -0.5014
  404TMC3     O 6089   1.251   2.587  13.781 -0.6091 -0.1204  0.1464
  404TMC3     H 6090   0.985   2.529  13.806  1.2590 -1.6088 -0.3892
  404TMC3    H1 6091   1.143   2.656  13.446  0.0430  0.9606  0.3537
  404TMC3    H2 6092   0.760   2.472  13.462  2.9392 -2.0607 -1.1865
  404TMC3    C7 6093   0.945   2.566  13.299  1.2842 -0.2930  0.3705
  404TMC3    C8 6094   0.834   2.379  13.693 -0.4070  0.9745 -0.2889
  404TMC3    O1 6095   1.052   2.547  13.244  0.4072 -0.1933 -0.0868
  404TMC3    O2 6096   0.862   2.297  13.609  0.4043  0.6869 -0.4450
  405MPD2     C 6097   1.908   3.296  15.068 -0.8443 -0.3727 -0.0511
  405MPD2    C1 6098   1.848   3.202  14.993 -0.4482 -0.4644 -0.5553
  405MPD2    C2 6099   1.745   3.232  14.908 -0.0158 -0.1051 -0.2731
  405MPD2    C3 6100   1.692   3.368  14.906 -0.7297 -0.9531  0.4643
  405MPD2    C4 6101   1.747   3.465  14.987 -0.3402  0.6777  0.3675
  405MPD2    C5 6102   1.856   3.427  15.060 -0.1462  0.5062 -0.7674
  405MPD2     H 6103   1.702   3.159  14.840  0.8998 -0.9883  0.0983
  405MPD2    H1 6104   1.705   3.565  14.992 -2.7240 -0.4374  3.0229
  405MPD2    H2 6105   1.987   3.280  15.140 -1.6667  0.9066  1.1353
  405MPD2    H3 6106   1.894   3.504  15.125  0.1831 -1.7474  1.7240
  405MPD2     N 6107   1.571   3.383  14.833  0.0505  0.1171 -0.2782
  405MPD2    H5 6108   1.538   3.305  14.778  1.4092 -1.5938  1.3542
  405MPD2    N1 6109   1.889   3.069  15.016  0.2786 -0.2898  0.4343
  405MPD2    H7 6110   1.965   3.068  15.083 -1.5156  0.5091  2.4712
  406TMC3    C1 6111   1.109   3.447  14.817 -0.2556 -0.0901 -0.1295
  406TMC3    C2 6112   1.085   3.322  14.772 -0.4793 -0.1584  0.0453
  406TMC3    C3 6113   1.198   3.250  14.734  0.1953  0.0798  0.5739
  406TMC3    C4 6114   1.235   3.501  14.842  0.7525 -0.0717 -0.5356
  406TMC3    C5 6115   1.347   3.429  14.800 -0.6372  0.2706 -0.7925
  406TMC3    C6 6116   1.328   3.304  14.738 -0.0040 -0.0726  0.0698
  406TMC3     C 6117   1.002   3.538  14.836 -0.6646  0.4721 -0.0992
  406TMC3     O 6118   1.016   3.649  14.791  0.2594  0.1208  0.4301
  406TMC3     H 6119   0.985   3.282  14.779  0.3760 -2.2832 -0.0209
  406TMC3    H1 6120   1.242   3.601  14.882 -1.4880 -0.6038  1.1640
  406TMC3    H2 6121   1.415   3.257  14.693  0.9993  2.1680 -0.3349
  406TMC3    C7 6122   1.473   3.478  14.845 -0.1586  0.8919 -0.0073
  406TMC3    C8 6123   1.180   3.111  14.712  0.4857 -0.0790  0.1221
  406TMC3    O1 6124   1.487   3.593  14.880  0.6334  0.6274  0.2118
  406TMC3    O2 6125   1.064   3.063  14.702 -0.9406  0.3013 -0.2733
  407MPD2     C 6126   3.193   4.300  10.304 -1.2287  0.1377 -0.0185
  407MPD2    C1 6127   3.298   4.321  10.218  0.4806  0.2505  0.7819
  407MPD2    C2 6128   3.374   4.428  10.239  0.5482 -0.2431 -0.7480
  407MPD2    C3 6129   3.358   4.520  10.342 -0.2771  0.3877  0.2098
  407MPD2    C4 6130   3.263   4.482  10.434  0.3743  0.1099  0.5471
  407MPD2    C5 6131   3.177   4.369  10.422  0.2583 -0.0693  0.4500
  407MPD2     H 6132   3.446   4.458  10.163  0.2512  0.1607 -0.8681
  407MPD2    H1 6133   3.248   4.553  10.515 -0.8069 -1.0075  1.2994
  407MPD2    H2 6134   3.127   4.216  10.286 -2.5800  0.5470  2.9458
  407MPD2    H3 6135   3.103   4.349  10.499 -0.8727 -0.6760 -0.8000
  407MPD2     N 6136   3.433   4.644  10.345 -0.4867  0.0218  0.7738
  407MPD2    H5 6137   3.502   4.654  10.271 -1.8258 -0.0852 -0.4901
  407MPD2    N1 6138   3.329   4.243  10.100  0.3240  0.0181  0.0689
  407MPD2    H7 6139   3.415   4.269  10.051  0.6433 -1.6659 -0.2864
  408TMC3    C1 6140   3.309   4.078   9.937  0.5437 -1.0132  0.6490
  408TMC3    C2 6141   3.431   4.024   9.964  0.3150 -0.2018 -0.8360
  408TMC3    C3 6142   3.488   3.941   9.872 -0.1273  0.9864 -0.5082
  408TMC3    C4 6143   3.245   4.073   9.813 -0.7192  0.0721 -0.3707
  408TMC3    C5 6144   3.303   3.988   9.726 -0.0867 -0.1654 -0.9633
  408TMC3    C6 6145   3.428   3.926   9.750  0.0547  0.1260 -0.1326
  408TMC3     C 6146   3.247   4.143  10.049  0.2654  0.2289  0.3887
  408TMC3     O 6147   3.140   4.105  10.091 -0.5794 -1.0592 -0.2923
  408TMC3     H 6148   3.464   4.035  10.067 -0.4567 -1.4366 -0.4555
  408TMC3    H1 6149   3.141   4.103   9.808 -1.0218 -0.7203  0.9364
  408TMC3    H2 6150   3.485   3.876   9.672  1.8123  2.6461 -0.4548
  408TMC3    C7 6151   3.256   3.971   9.591 -0.0795  0.4877  0.0178
  408TMC3    C8 6152   3.636   3.936   9.868  0.3982  0.2444 -0.0287
  408TMC3    O1 6153   3.267   3.856   9.547 -0.1214 -0.2593  0.2937
  408TMC3    O2 6154   3.678   3.836   9.815 -0.0615  0.2593  0.5608
  409MPD2     C 6155   3.317   0.435  16.923  0.3458  0.4421  0.3506
  409MPD2    C1 6156   3.426   0.419  17.009 -0.3362 -0.6385 -0.3690
  409MPD2    C2 6157   3.541   0.485  16.986  0.3113  0.5811  0.0655
  409MPD2    C3 6158   3.566   0.558  16.869 -0.0312 -0.1034  0.3761
  409MPD2    C4 6159   3.460   0.563  16.779 -0.4992  0.1433 -0.5203
  409MPD2    C5 6160   3.341   0.504  16.806 -0.5619 -0.6296  0.2159
  409MPD2     H 6161   3.620   0.474  17.059  0.8967 -1.2808 -0.8657
  409MPD2    H1 6162   3.467   0.622  16.688  1.0658 -1.5757 -1.5020
  409MPD2    H2 6163   3.223   0.383  16.941  0.3593  0.3224  0.0911
  409MPD2    H3 6164   3.259   0.509  16.735  0.0560 -0.3035 -0.4745
  409MPD2     N 6165   3.680   0.636  16.840  0.6190 -0.4233  0.1412
  409MPD2    H5 6166   3.679   0.688  16.752 -1.8388 -1.1692 -0.2735
  409MPD2    N1 6167   3.415   0.349  17.131  0.3628 -0.2431 -0.2897
  409MPD2    H7 6168   3.502   0.322  17.175  0.6482 -0.4819 -0.9936
  410TMC3    C1 6169   3.886   0.745  16.876 -0.1955  0.6105  0.3926
  410TMC3    C2 6170   3.957   0.825  16.955  0.2567  0.8024 -0.6589
  410TMC3    C3 6171   4.036   0.931  16.918  0.2743  0.0814  0.2318
  410TMC3    C4 6172   3.896   0.773  16.742  0.3774 -0.2144 -0.3425
  410TMC3    C5 6173   3.974   0.879  16.701 -0.2707  0.2595 -0.4948
  410TMC3    C6 6174   4.044   0.961  16.785 -0.3533 -0.4121 -0.6369
  410TMC3     C 6175   3.776   0.666  16.932 -0.2469 -0.1274  0.2960
  410TMC3     O 6176   3.794   0.626  17.047  0.4546 -0.2511 -0.1582
  410TMC3     H 6177   3.950   0.803  17.061  0.3499 -1.6964 -1.1605
  410TMC3    H1 6178   3.850   0.718  16.661 -0.9933  0.2906  0.0928
  410TMC3    H2 6179   4.108   1.044  16.755 -1.8842  1.3585  0.9706
  410TMC3    C7 6180   3.987   0.897  16.561  0.3037  0.2338  0.0486
  410TMC3    C8 6181   4.160   0.944  16.995 -0.0191  0.2350 -0.2649
  410TMC3    O1 6182   3.964   0.799  16.491 -0.0638 -0.0327 -0.4604
  410TMC3    O2 6183   4.221   1.050  16.981 -0.6263  0.3663  0.7389
  411MPD2     C 6184   3.657   1.779  14.436 -0.2118  0.2934 -0.9590
  411MPD2    C1 6185   3.614   1.734  14.556  0.0291  0.0141 -0.0283
  411MPD2    C2 6186   3.534   1.625  14.552 -0.4403 -0.2423  0.8425
  411MPD2    C3 6187   3.495   1.563  14.435 -0.1892 -0.0915  0.9092
  411MPD2    C4 6188   3.527   1.623  14.314 -0.6099  0.5355  0.0785
  411MPD2    C5 6189   3.611   1.732  14.319 -0.5772  0.1304 -0.1628
  411MPD2     H 6190   3.510   1.572  14.644  2.4606  0.1868  1.8530
  411MPD2    H1 6191   3.501   1.578  14.219 -0.0099 -0.5694  0.4357
  411MPD2    H2 6192   3.731   1.857  14.431  0.5217 -0.3436 -0.0970
  411MPD2    H3 6193   3.640   1.782  14.227  0.9104 -3.3541 -1.5637
  411MPD2     N 6194   3.441   1.427  14.429 -0.2013 -0.5132  0.4177
  411MPD2    H5 6195   3.398   1.388  14.346  2.3669 -0.0660 -1.1273
  411MPD2    N1 6196   3.660   1.798  14.677 -0.5309 -0.3999 -0.0445
  411MPD2    H7 6197   3.736   1.858  14.646 -0.1825 -0.6865  0.2560
  412TMC3    C1 6198   3.367   1.210  14.477 -0.1388  0.4289  0.2033
  412TMC3    C2 6199   3.244   1.218  14.411 -0.3821  0.3781 -0.1379
  412TMC3    C3 6200   3.173   1.101  14.395  0.4713  0.0449  0.9663
  412TMC3    C4 6201   3.421   1.097  14.521 -0.0345 -0.1219  0.4985
  412TMC3    C5 6202   3.358   0.982  14.491  0.8316  0.3579 -0.1907
  412TMC3    C6 6203   3.235   0.984  14.430 -0.0418  0.0395  0.2791
  412TMC3     C 6204   3.423   1.332  14.527 -0.5100  0.1683  1.0676
  412TMC3     O 6205   3.462   1.336  14.640 -0.3321  0.4065  0.2334
  412TMC3     H 6206   3.208   1.313  14.374  0.1930  0.0747 -1.4920
  412TMC3    H1 6207   3.525   1.094  14.551 -0.1802 -1.6551  0.8736
  412TMC3    H2 6208   3.179   0.892  14.417 -1.4474  1.0639 -0.9296
  412TMC3    C7 6209   3.450   0.902  14.411 -0.7318  0.0033  0.7332
  412TMC3    C8 6210   3.113   1.087  14.261 -1.2282 -0.4433 -0.0984
  412TMC3    O1 6211   3.542   0.956  14.353  0.8595  0.3768  0.3202
  412TMC3    O2 6212   3.115   0.972  14.214  0.0271 -0.3814  0.4124
  413MPD2     C 6213   1.039   4.704  15.749 -0.0680  0.4790 -0.0410
  413MPD2    C1 6214   0.982   4.637  15.638  0.1887 -0.1049 -0.1098
  413MPD2    C2 6215   1.063   4.560  15.559 -0.4852 -0.2628 -0.4266
  413MPD2    C3 6216   1.198   4.550  15.571  0.0248  0.7039 -0.0894
  413MPD2    C4 6217   1.260   4.634  15.662 -0.8838  0.0206  0.4806
  413MPD2    C5 6218   1.178   4.704  15.754  0.2161  0.3835 -0.0052
  413MPD2     H 6219   1.016   4.496  15.485  1.0482 -1.6257 -0.2150
  413MPD2    H1 6220   1.366   4.651  15.673 -1.1633  0.8315  1.8922
  413MPD2    H2 6221   0.979   0.012  15.825 -1.6119 -2.0881  0.4126
  413MPD2    H3 6222   1.222   0.016  15.838  0.5277 -0.2028  0.1982
  413MPD2     N 6223   1.249   4.452  15.479  0.1046 -0.0930  0.3601
  413MPD2    H5 6224   1.187   4.401  15.417 -0.7317  0.2613  0.9061
  413MPD2    N1 6225   0.843   4.637  15.629 -0.5373 -0.3583  0.4281
  413MPD2    H7 6226   0.789   4.668  15.710 -2.0994 -1.0332 -0.3639
  414TMC3    C1 6227   1.412   4.309  15.396  0.1509  0.2894 -0.0790
  414TMC3    C2 6228   1.502   4.220  15.441  0.7596  0.3916  0.2785
  414TMC3    C3 6229   1.514   4.097  15.375 -1.0608  0.1218  0.4544
  414TMC3    C4 6230   1.335   4.285  15.285  0.5541 -0.2540  0.6870
  414TMC3    C5 6231   1.345   4.161  15.226 -0.2219  0.7692  0.3184
  414TMC3    C6 6232   1.434   4.066  15.270 -0.3690 -0.3384 -0.5245
  414TMC3     C 6233   1.383   4.419  15.485  0.3909  0.3274  0.9241
  414TMC3     O 6234   1.477   4.453  15.553  0.0822  0.0251  0.0393
  414TMC3     H 6235   1.562   4.243  15.528  0.7713 -0.4485  0.4909
  414TMC3    H1 6236   1.257   4.354  15.252  1.0335  0.5194  1.1684
  414TMC3    H2 6237   1.455   3.968  15.228 -1.2258 -2.3511  3.7502
  414TMC3    C7 6238   1.240   4.123  15.136  0.1372  0.0671  0.3364
  414TMC3    C8 6239   1.621   4.001  15.417  0.3822 -0.3249  0.3846
  414TMC3    O1 6240   1.132   4.163  15.169  0.0440 -0.0074  0.0092
  414TMC3    O2 6241   1.612   3.891  15.364 -0.1297 -0.2562  0.2400
  415TMC3    C1 6242   1.041   2.286  11.137 -0.2670  0.1148  0.0838
  415TMC3    C2 6243   1.111   2.406  11.130 -0.3045  0.5247  0.1939
  415TMC3    C3 6244   1.146   2.444  11.011  0.6984  0.0555  0.0920
  415TMC3    C4 6245   0.993   2.216  11.023 -0.4313 -0.5855  0.0667
  415TMC3    C5 6246   1.036   2.265  10.903  0.0299 -0.9296 -0.4045
  415TMC3    C6 6247   1.104   2.385  10.894  0.9593 -0.9244 -0.0533
  415TMC3     C 6248   1.042   2.210  11.258  0.3806  0.2520 -0.7339
  415TMC3     O 6249   0.981   2.103  11.253  0.2006 -0.0045  0.1959
  415TMC3     H 6250   1.147   2.453  11.221 -0.2858 -2.8496  1.8931
  415TMC3    H1 6251   0.930   2.129  11.037 -1.9647  0.7021  1.1744
  415TMC3    H2 6252   1.132   2.431  10.800 -1.4416  0.0189 -0.3075
  415TMC3    C7 6253   1.076   2.161  10.808 -0.3020 -0.0319  0.3870
  415TMC3    C8 6254   1.217   2.572  11.002 -0.7500 -0.6260  0.1395
  415TMC3    O1 6255   1.104   2.199  10.699  0.0664 -0.6379  0.0880
  415TMC3    O2 6256   1.180   2.659  11.081  0.1067  0.2844  0.0636
  416MPD2     C 6257   3.085   1.155  11.428 -0.0616  0.1302  0.5648
  416MPD2    C1 6258   3.030   1.079  11.523 -0.7332 -0.2988 -0.2328
  416MPD2    C2 6259   3.020   0.941  11.499  0.2067  0.3031  0.4517
  416MPD2    C3 6260   3.067   0.884  11.384 -0.9407  0.1708  0.7381
  416MPD2    C4 6261   3.117   0.971  11.292 -0.2052 -0.5871 -0.0892
  416MPD2    C5 6262   3.124   1.103  11.312 -0.6424 -0.2061 -0.3897
  416MPD2     H 6263   2.964   0.883  11.572  1.6192  1.0383  2.1322
  416MPD2    H1 6264   3.139   0.938  11.191 -0.4389 -0.5045 -0.1649
  416MPD2    H2 6265   3.093   1.262  11.443  0.6646  0.3212 -1.2292
  416MPD2    H3 6266   3.158   1.163  11.229 -0.2844  3.0313  2.0864
  416MPD2     N 6267   3.041   0.745  11.361  0.8434 -0.2506 -0.3810
  416MPD2    H5 6268   3.007   0.695  11.442 -1.1368  1.3639 -0.2021
  416MPD2    N1 6269   2.982   1.151  11.643 -0.5455  0.1246 -0.0015
  416MPD2    H7 6270   2.981   1.253  11.642 -2.0332  0.1455  3.3913
  417TMC3    C1 6271   2.871   1.182  11.843  0.3551  0.2711  0.3713
  417TMC3    C2 6272   2.875   1.144  11.972 -0.1907  0.1005  1.5211
  417TMC3    C3 6273   2.761   1.167  12.044  0.5205  0.3107 -0.7425
  417TMC3    C4 6274   2.763   1.234  11.786  0.3981  0.2955 -0.3194
  417TMC3    C5 6275   2.647   1.247  11.855 -0.0387 -0.3034 -0.3394
  417TMC3    C6 6276   2.644   1.218  11.986 -0.0084 -0.1094  0.6834
  417TMC3     C 6277   2.943   1.087  11.760 -0.6856 -1.1414 -0.1522
  417TMC3     O 6278   2.981   0.983  11.807  0.3148 -0.0882 -0.0484
  417TMC3     H 6279   2.949   1.073  12.008 -0.5690 -0.1272  1.8560
  417TMC3    H1 6280   2.758   1.241  11.678 -1.4444  0.7756 -0.2049
  417TMC3    H2 6281   2.564   1.258  12.047 -1.1248 -0.3779 -0.6006
  417TMC3    C7 6282   2.530   1.270  11.774 -0.0162  0.1976  0.0720
  417TMC3    C8 6283   2.769   1.168  12.185  0.0146  0.2399 -0.2450
  417TMC3    O1 6284   2.543   1.314  11.662 -0.3109  0.1124 -0.4149
  417TMC3    O2 6285   2.657   1.175  12.237 -0.1356 -0.3326 -0.2776
  418TMC3    C1 6286   0.758   3.126   0.470  0.8413  0.1145 -0.8803
  418TMC3    C2 6287   0.726   3.034   0.372 -0.0484  0.2638  0.1816
  418TMC3    C3 6288   0.684   2.910   0.413 -0.3194 -0.7606  0.1504
  418TMC3    C4 6289   0.739   3.104   0.604 -0.4360 -0.7454  0.0595
  418TMC3    C5 6290   0.677   2.985   0.631 -1.0978 -0.4061 -0.4005
  418TMC3    C6 6291   0.655   2.886   0.541  0.3610 -0.0729 -0.0833
  418TMC3     C 6292   0.861   3.230   0.436  0.0393  0.7104 -0.2094
  418TMC3     O 6293   0.853   3.341   0.488  0.9054  0.1256  0.0046
  418TMC3     H 6294   0.752   3.053   0.269 -3.0341 -0.6758 -0.7380
  418TMC3    H1 6295   0.756   3.189   0.669 -1.2174 -0.3776 -0.2297
  418TMC3    H2 6296   0.618   2.787   0.565 -0.0269 -0.4334 -2.1990
  418TMC3    C7 6297   0.720   2.928   0.756  0.3312  0.2070  0.4903
  418TMC3    C8 6298   0.657   2.811   0.308 -0.4703 -0.7544  0.3560
  418TMC3    O1 6299   0.718   2.805   0.775  0.3185  0.2332 -0.4643
  418TMC3    O2 6300   0.626   2.860   0.199 -0.3031  0.2106  0.3159
  419MPD2     C 6301   4.441   1.086  12.738  1.1082  0.0573 -0.1542
  419MPD2    C1 6302   4.414   1.220  12.753  0.6230  0.1979  0.3787
  419MPD2    C2 6303   4.384   1.270  12.884 -0.8162 -0.5052 -0.0346
  419MPD2    C3 6304   4.381   1.184  12.993  0.4800 -0.3161 -0.3338
  419MPD2    C4 6305   4.423   1.055  12.972  0.1599 -0.0478 -0.3204
  419MPD2    C5 6306   4.447   1.003  12.846 -0.3493  0.1299 -0.5143
  419MPD2     H 6307   4.364   1.372  12.915 -1.0342 -0.0107 -1.8052
  419MPD2    H1 6308   4.429   0.984  13.054 -0.1691 -1.8637 -1.8913
  419MPD2    H2 6309   4.474   1.035  12.648  0.0394  0.8621 -1.0082
  419MPD2    H3 6310   4.477   0.899  12.843 -0.8656  0.0274 -1.8622
  419MPD2     N 6311   4.335   1.224  13.120 -0.6043  0.4306 -0.4376
  419MPD2    H5 6312   4.306   1.321  13.125  1.3733  0.9356  1.0405
  419MPD2    N1 6313   4.444   1.316  12.654 -0.3606 -0.1587 -0.2321
  419MPD2    H7 6314   4.428   1.413  12.678 -1.6895  0.0858 -2.0910
  420TMC3    C1 6315   4.298   1.233  13.355  0.1065 -0.2055 -0.0620
  420TMC3    C2 6316   4.224   1.349  13.333  0.2088  0.8051 -0.0648
  420TMC3    C3 6317   4.211   1.433  13.437 -0.0003  0.7593 -0.0831
  420TMC3    C4 6318   4.340   1.195  13.479  0.1041 -0.4068  0.1854
  420TMC3    C5 6319   4.329   1.291  13.581 -0.4124  0.0768  0.3948
  420TMC3    C6 6320   4.260   1.403  13.559 -0.2238  0.3256 -0.3256
  420TMC3     C 6321   4.353   1.157  13.238 -0.3437  0.1417  0.5277
  420TMC3     O 6322   4.396   1.046  13.268 -0.1521  0.5622 -0.1982
  420TMC3     H 6323   4.182   1.372  13.236  1.0666 -0.0809 -0.6566
  420TMC3    H1 6324   4.405   1.109  13.491 -1.7042 -1.2372  4.0633
  420TMC3    H2 6325   4.251   1.475  13.640 -1.9728 -0.8058  0.4816
  420TMC3    C7 6326   4.447   1.294  13.661  0.3578 -0.4702 -0.1879
  420TMC3    C8 6327   4.107   1.533  13.437 -0.0637 -0.0112  0.1178
  420TMC3    O1 6328   4.478   1.200  13.732 -0.3794 -0.4475  0.1562
  420TMC3    O2 6329   4.024   1.542  13.529 -0.2066  0.0650 -0.4972
  421TMC3    C1 6330   1.592   2.198  14.186 -0.2533 -0.4825  0.0335
  421TMC3    C2 6331   1.574   2.330  14.229  1.0646  0.0563 -0.0547
  421TMC3    C3 6332   1.672   2.383  14.301 -0.0751  0.6917  0.1634
  421TMC3    C4 6333   1.700   2.131  14.216 -0.4797 -0.4377 -0.3788
  421TMC3    C5 6334   1.797   2.192  14.283 -0.3059  0.5198 -0.2142
  421TMC3    C6 6335   1.790   2.318  14.337 -1.1591  0.4620 -0.4075
  421TMC3     C 6336   1.518   2.143  14.072 -0.9578  0.1170 -0.2451
  421TMC3     O 6337   1.537   2.025  14.053  0.2225  0.4335  0.5320
  421TMC3     H 6338   1.484   2.384  14.199  0.7560 -0.0761  0.6450
  421TMC3    H1 6339   1.723   2.029  14.187 -1.8788 -0.8182 -0.1862
  421TMC3    H2 6340   1.873   2.370  14.382 -1.4862 -1.5723  2.5064
  421TMC3    C7 6341   1.927   2.137  14.277  0.4220 -0.8716 -0.0518
  421TMC3    C8 6342   1.685   2.532  14.308  0.5780  0.3213 -0.5164
  421TMC3    O1 6343   2.024   2.216  14.282  0.0019 -0.2912 -0.0804
  421TMC3    O2 6344   1.791   2.584  14.322 -0.1322 -0.0286 -0.1026
  422TMC3    C1 6345   3.877   4.267  12.312  0.1351 -0.5085 -0.1810
  422TMC3    C2 6346   3.923   4.388  12.360  0.3426  0.4337  0.3742
  422TMC3    C3 6347   3.842   4.490  12.350  0.7207 -0.0019 -0.7095
  422TMC3    C4 6348   3.748   4.252  12.272  0.1119  0.0797 -0.1772
  422TMC3    C5 6349   3.667   4.361  12.277  0.1234  0.6458 -0.6638
  422TMC3    C6 6350   3.711   4.486  12.309 -0.2977 -0.6568 -0.4140
  422TMC3     C 6351   3.991   4.200  12.254 -0.3018  0.5726 -1.1572
  422TMC3     O 6352   4.088   4.185  12.329 -0.2767  0.2491 -0.1474
  422TMC3     H 6353   4.024   4.408  12.393  0.4329  0.2590  0.2059
  422TMC3    H1 6354   3.713   4.158  12.231  0.2871 -1.4997  3.3914
  422TMC3    H2 6355   3.647   4.573  12.308  1.3853  0.6137  2.6152
  422TMC3    C7 6356   3.527   4.350  12.261 -0.6806 -0.1863  0.7136
  422TMC3    C8 6357   3.896   4.622  12.386  0.8710 -0.1205 -0.0541
  422TMC3    O1 6358   3.474   4.418  12.174 -0.5999  0.1517 -0.3283
  422TMC3    O2 6359   4.002   4.626  12.445  0.0169 -0.2883  0.0366
  423MPD2     C 6360   4.706   0.080   0.648 -0.3441 -0.2450 -0.1594
  423MPD2    C1 6361   0.031   4.714   0.699 -0.0076  0.2566 -0.2290
  423MPD2    C2 6362   0.125   4.647   0.632 -0.3697 -0.2438  0.2280
  423MPD2    C3 6363   0.164   4.688   0.502 -0.4023  0.0117 -0.1780
  423MPD2    C4 6364   0.100   0.063   0.453 -0.6278  0.6313  0.2686
  423MPD2    C5 6365   0.001   0.122   0.524 -0.2052  0.1756  0.3912
  423MPD2     H 6366   0.184   4.568   0.677  0.0436  0.4844  0.9497
  423MPD2    H1 6367   0.129   0.104   0.357  1.9622 -0.0415  0.7448
  423MPD2    H2 6368   4.629   0.140   0.695 -1.7025 -2.0795 -0.0492
  423MPD2    H3 6369   4.686   0.205   0.482 -1.4266 -2.3114 -2.9786
  423MPD2     N 6370   0.266   4.625   0.425 -0.1393 -0.2362  0.2332
  423MPD2    H5 6371   0.289   4.670   0.337 -1.0514  0.5054  0.3740
  423MPD2    N1 6372   0.001   4.651   0.826  0.1234 -0.2678 -0.1164
  423MPD2    H7 6373   0.061   4.579   0.866 -1.4864 -1.3287  0.3983
  424TMC3    C1 6374   4.668   4.641   1.053 -0.4548  0.2318 -0.4860
  424TMC3    C2 6375   4.720   4.513   1.065 -0.1104 -0.9542 -1.1329
  424TMC3    C3 6376   4.714   4.453   1.196  0.4081  0.0480  1.0117
  424TMC3    C4 6377   4.602   4.703   1.153 -0.3059  0.1924  0.0401
  424TMC3    C5 6378   4.599   4.648   1.281  0.0750 -0.0324  0.5588
  424TMC3    C6 6379   4.654   4.521   1.297  0.2241 -0.4734  0.4349
  424TMC3     C 6380   4.670   4.716   0.926 -0.0106  0.6667 -0.3989
  424TMC3     O 6381   4.594   0.069   0.921  0.0037 -0.0812  0.0284
  424TMC3     H 6382   0.028   4.456   0.987  2.2943  1.7831 -1.6140
  424TMC3    H1 6383   4.553   0.056   1.133  0.6744  0.6034 -0.4458
  424TMC3    H2 6384   4.650   4.484   1.399 -1.6283 -1.3277  0.0644
  424TMC3    C7 6385   4.552   4.708   1.405  0.5490  0.1650 -0.6408
  424TMC3    C8 6386   4.700   4.307   1.189 -0.1761 -0.1991 -0.0376
  424TMC3    O1 6387   4.609   4.664   1.501 -0.4534  0.0256  0.7584
  424TMC3    O2 6388   0.014   4.254   1.095  0.0011 -0.5030  0.1858
  425MPD2     C 6389   4.567   4.279  17.694  0.4992 -0.1941  0.2077
  425MPD2    C1 6390   4.517   4.204  17.591  0.3187 -0.5103  0.1042
  425MPD2    C2 6391   4.381   4.192  17.571 -0.5456  0.5943  0.2688
  425MPD2    C3 6392   4.302   4.268  17.651 -0.0916 -0.4453 -0.4903
  425MPD2    C4 6393   4.355   4.342  17.757 -0.0677 -0.2598 -0.8615
  425MPD2    C5 6394   4.482   4.336   0.023  0.6923 -0.4230  0.1719
  425MPD2     H 6395   4.335   4.141  17.487 -2.6447  2.5759  0.2287
  425MPD2    H1 6396   4.302   4.413   0.058  0.1533  0.0396 -1.0122
  425MPD2    H2 6397   4.675   4.287  17.693  0.3168  2.3956  0.8335
  425MPD2    H3 6398   4.532   4.391   0.103 -0.2603 -0.7814  1.0110
  425MPD2     N 6399   4.164   4.250  17.625  0.6016 -0.2416 -0.3233
  425MPD2    H5 6400   4.135   4.188  17.550 -0.9157 -0.5860  0.5446
  425MPD2    N1 6401   4.607   4.144  17.502 -0.1581 -0.1677  0.1096
  425MPD2    H7 6402   4.697   4.110  17.533 -0.3290 -1.6588 -0.9793
  426TMC3    C1 6403   4.629   3.985  17.328  0.0357  0.4020 -0.6928
  426TMC3    C2 6404   4.613   3.958  17.197 -0.0967 -0.3444 -0.5332
  426TMC3    C3 6405   4.645   3.835  17.152  0.0681 -0.7525 -0.0373
  426TMC3    C4 6406   4.652   3.888  17.424 -0.3340  0.3909 -0.1151
  426TMC3    C5 6407   4.686   3.757  17.382  0.3497  0.3432  0.3934
  426TMC3    C6 6408   4.679   3.732  17.244  0.4820  0.4042 -0.2786
  426TMC3     C 6409   4.565   4.106  17.379  0.1594 -0.3213 -0.3329
  426TMC3     O 6410   4.492   4.164  17.300 -0.0783 -0.3963 -0.0401
  426TMC3     H 6411   4.589   4.042  17.134 -1.8220 -0.6149 -0.2280
  426TMC3    H1 6412   4.648   3.907  17.531 -0.4044  1.1694 -0.2558
  426TMC3    H2 6413   4.683   3.629  17.210 -1.3246  0.0655  0.5546
  426TMC3    C7 6414   4.613   3.649  17.457 -0.2419 -0.3576 -0.4025
  426TMC3    C8 6415   4.592   3.783  17.024  0.2891 -0.0191  0.3701
  426TMC3    O1 6416   4.658   3.535  17.451  0.6396  0.5577  0.6713
  426TMC3    O2 6417   4.664   3.714  16.956 -1.0006 -0.5555 -0.6126
  427MPD2     C 6418   2.929   1.387  15.051  0.6501  0.1456  0.1160
  427MPD2    C1 6419   2.869   1.330  15.156 -0.2868  0.2498 -0.7045
  427MPD2    C2 6420   2.729   1.314  15.158 -0.4550  0.0721  1.0220
  427MPD2    C3 6421   2.655   1.374  15.059 -0.7216  0.6062  0.6408
  427MPD2    C4 6422   2.714   1.452  14.962 -0.0627  0.5322 -0.0516
  427MPD2    C5 6423   2.848   1.448  14.958 -0.3268 -0.1534 -0.5162
  427MPD2     H 6424   2.670   1.260  15.232 -1.1642  1.0827  1.1984
  427MPD2    H1 6425   2.654   1.511  14.893  1.1400  1.1596 -0.5655
  427MPD2    H2 6426   3.037   1.384  15.040  0.5314  2.5911 -1.8197
  427MPD2    H3 6427   2.901   1.490  14.874 -1.3144  0.3867 -0.8650
  427MPD2     N 6428   2.513   1.363  15.049 -0.6504  0.2788 -0.3415
  427MPD2    H5 6429   2.472   1.427  14.982 -0.5689  0.2635 -0.4060
  427MPD2    N1 6430   2.952   1.268  15.256  0.3080 -0.3744  0.0092
  427MPD2    H7 6431   3.051   1.252  15.238 -0.1888 -2.5728 -0.8133
  428TMC3    C1 6432   3.002   1.122  15.441  0.1937 -0.0165  0.5350
  428TMC3    C2 6433   2.952   1.015  15.505 -0.0681 -0.0242 -0.1900
  428TMC3    C3 6434   3.041   0.926  15.564 -0.0205  0.1114 -0.0698
  428TMC3    C4 6435   3.140   1.139  15.422  0.2630 -0.6405  0.5817
  428TMC3    C5 6436   3.228   1.054  15.484  0.2353 -0.2525  0.1432
  428TMC3    C6 6437   3.177   0.951  15.567  0.1127 -0.3787  0.0079
  428TMC3     C 6438   2.911   1.214  15.376 -0.5658 -0.3343  0.1175
  428TMC3     O 6439   2.798   1.215  15.421 -0.3832 -0.1173 -0.3230
  428TMC3     H 6440   2.848   0.986  15.505  0.1052 -0.6352  0.7562
  428TMC3    H1 6441   3.168   1.228  15.366 -0.4948  0.1934  1.5500
  428TMC3    H2 6442   3.251   0.896  15.623 -0.9369 -0.5411  1.2235
  428TMC3    C7 6443   3.370   1.086  15.499  0.6680 -0.4517  0.3905
  428TMC3    C8 6444   3.001   0.817  15.644 -0.3780  0.0377 -0.6420
  428TMC3    O1 6445   3.431   1.033  15.588  0.1579 -0.4448  0.0494
  428TMC3    O2 6446   2.898   0.828  15.711  0.9918 -0.1046 -0.4488
  429MPD2     C 6447   4.123   1.576   0.096 -0.5903  0.0626 -0.0326
  429MPD2    C1 6448   4.079   1.484   0.001  0.3487  0.1772  0.6661
  429MPD2    C2 6449   4.110   1.514  17.629  0.6408  0.3356  0.1513
  429MPD2    C3 6450   4.173   1.635  17.592  0.1638  0.9325  0.0030
  429MPD2    C4 6451   4.201   1.734  17.688 -0.1428  0.1852  0.7611
  429MPD2    C5 6452   4.180   1.695   0.060  0.0343 -0.7591 -0.0099
  429MPD2     H 6453   4.098   1.437  17.554  0.9827 -0.0824  0.5273
  429MPD2    H1 6454   4.256   1.825  17.666 -0.7762  0.3722 -0.0204
  429MPD2    H2 6455   4.104   1.559   0.201 -1.2747 -0.6946 -0.2798
  429MPD2    H3 6456   4.212   1.756   0.144 -0.9464  0.9419 -0.8557
  429MPD2     N 6457   4.195   1.655  17.456 -0.6394  0.3442  0.2226
  429MPD2    H5 6458   4.218   1.577  17.397 -1.4944 -0.2201  0.6339
  429MPD2    N1 6459   4.022   1.371   0.048  0.0125  0.0450 -0.4554
  429MPD2    H7 6460   4.008   1.347   0.145 -2.6253  1.3136 -0.5005
  430TMC3    C1 6461   4.270   1.776  17.267 -0.0649 -0.5257  0.5583
  430TMC3    C2 6462   4.250   1.882  17.177  0.2830 -0.2758  0.3266
  430TMC3    C3 6463   4.337   1.892  17.070  0.8185 -0.4450  0.2117
  430TMC3    C4 6464   4.365   1.683  17.252  0.4276  0.2728  0.1822
  430TMC3    C5 6465   4.456   1.705  17.146  0.0069 -0.0461 -0.2298
  430TMC3    C6 6466   4.444   1.812  17.064  0.5643  0.3123  0.7787
  430TMC3     C 6467   4.210   1.776  17.394 -0.0710  0.6647 -0.0260
  430TMC3     O 6468   4.182   1.886  17.440  0.1980 -0.3042  0.6534
  430TMC3     H 6469   4.177   1.959  17.198 -0.2518 -0.8056  0.4291
  430TMC3    H1 6470   4.384   1.598  17.317 -0.7901 -0.0818  0.0807
  430TMC3    H2 6471   4.513   1.833  16.983  0.4608  0.6745  0.7826
  430TMC3    C7 6472   4.494   1.579  17.076 -0.4807  0.2835 -0.2161
  430TMC3    C8 6473   4.298   1.939  16.944  0.8160  0.3012  0.5097
  430TMC3    O1 6474   4.516   1.476  17.141  0.5435 -0.8030  0.3819
  430TMC3    O2 6475   4.333   1.869  16.851  0.1771 -0.3498  0.9357
  431MPD2     C 6476   4.501   2.111  12.904 -0.0375 -0.1350 -0.2672
  431MPD2    C1 6477   4.574   2.123  12.785 -0.6930 -0.0324 -0.0126
  431MPD2    C2 6478   4.571   2.025  12.691 -0.3570 -0.2401 -0.2058
  431MPD2    C3 6479   4.484   1.911  12.710 -0.4203 -0.1104  0.4757
  431MPD2    C4 6480   4.411   1.910  12.823  0.0807  0.4896 -0.3999
  431MPD2    C5 6481   4.423   2.001  12.925 -0.0485  0.4602 -0.4821
  431MPD2     H 6482   4.632   2.029  12.601  1.2496  2.5324  1.0319
  431MPD2    H1 6483   4.337   1.833  12.841  0.0102  0.5833 -0.2907
  431MPD2    H2 6484   4.506   2.174  12.991 -0.6738 -0.0699 -0.2804
  431MPD2    H3 6485   4.357   1.985  13.010 -0.2405 -0.0342 -0.7248
  431MPD2     N 6486   4.472   1.804  12.617  0.0031  0.3896 -0.7272
  431MPD2    H5 6487   4.403   1.732  12.636  1.0891  0.1532  2.4265
  431MPD2    N1 6488   4.665   2.231  12.769 -0.5086 -0.3609 -0.2918
  431MPD2    H7 6489   4.718   2.228  12.681  1.1575  2.3218  0.5990
  432TMC3    C1 6490   4.517   1.653  12.442 -0.1958 -0.2800  0.1405
  432TMC3    C2 6491   4.581   1.650  12.325 -0.7998  0.3850 -0.1113
  432TMC3    C3 6492   4.632   1.530  12.285  0.0624 -0.2191 -0.1812
  432TMC3    C4 6493   4.489   1.536  12.509 -0.1954 -0.2256  0.3723
  432TMC3    C5 6494   4.542   1.422  12.469 -0.0153 -0.0322  0.1175
  432TMC3    C6 6495   4.621   1.411  12.359  0.2396 -0.2371  0.2977
  432TMC3     C 6496   4.556   1.774  12.516 -0.0406 -0.3619 -0.0231
  432TMC3     O 6497   4.649   1.840  12.468  0.3318  0.2434  0.1528
  432TMC3     H 6498   4.602   1.742  12.272 -0.9095  1.4573  1.7079
  432TMC3    H1 6499   4.413   1.545  12.586 -1.1683 -1.7057 -0.4210
  432TMC3    H2 6500   4.668   1.319  12.327  0.1452  0.7006 -2.5445
  432TMC3    C7 6501   4.501   1.295  12.533  0.3386 -0.5385 -0.5169
  432TMC3    C8 6502   4.726   1.530  12.170  0.7180 -0.1426  0.2631
  432TMC3    O1 6503   4.538   1.189  12.486 -0.1620 -0.2727  0.2387
  432TMC3    O2 6504   4.695   1.597  12.071  0.1722 -0.0745  0.0990
  433MPD2     C 6505   3.531   0.109  10.930  0.6853  0.1339 -0.6531
  433MPD2    C1 6506   3.616   0.036  11.017  0.1557  0.1316  0.6805
  433MPD2    C2 6507   3.679   0.099  11.122  0.0623 -0.3679 -0.1981
  433MPD2    C3 6508   3.663   0.232  11.142  0.2411  0.6309 -0.0790
  433MPD2    C4 6509   3.572   0.304  11.062 -0.1495  0.1381 -0.1891
  433MPD2    C5 6510   3.498   0.240  10.970 -0.8149 -0.0002  0.4900
  433MPD2     H 6511   3.755   0.040  11.172 -1.3550 -2.0192  0.0042
  433MPD2    H1 6512   3.547   0.407  11.082 -0.1136  0.2847 -0.9129
  433MPD2    H2 6513   3.483   0.057  10.847 -1.4096  1.7976 -0.4921
  433MPD2    H3 6514   3.428   0.295  10.908  0.7308  1.9454  0.4850
  433MPD2     N 6515   3.728   0.290  11.256  0.3963 -0.1005 -0.5535
  433MPD2    H5 6516   3.780   0.220  11.308  0.4181  0.0413 -0.3849
  433MPD2    N1 6517   3.629   4.640  10.977 -0.5195 -0.1563  0.3143
  433MPD2    H7 6518   3.574   4.611  10.897 -1.5313 -0.9744  1.2927
  434TMC3    C1 6519   3.716   4.424  10.973  0.1562 -0.9671 -0.3632
  434TMC3    C2 6520   3.824   4.361  11.000  0.1464  0.0130 -0.5316
  434TMC3    C3 6521   3.826   4.233  11.049  0.1019 -0.2910 -0.3631
  434TMC3    C4 6522   3.600   4.357  10.992  0.5416 -0.5791  0.1442
  434TMC3    C5 6523   3.598   4.236  11.053  0.2586  0.4455  0.0767
  434TMC3    C6 6524   3.711   4.162  11.071  0.2331 -0.2262  0.5132
  434TMC3     C 6525   3.722   4.560  11.020 -0.0132 -0.0003 -0.3929
  434TMC3     O 6526   3.815   4.584  11.091  0.5362  0.1600  0.0986
  434TMC3     H 6527   3.916   4.416  10.984  1.3756 -1.1568  2.6541
  434TMC3    H1 6528   3.505   4.408  10.978  0.8900  0.0556  0.0919
  434TMC3    H2 6529   3.716   4.073  11.132 -1.1998  0.0644  1.0664
  434TMC3    C7 6530   3.491   4.146  11.020 -0.1197 -0.8203  0.2266
  434TMC3    C8 6531   3.951   4.180  11.097 -0.8909  0.2082  0.1998
  434TMC3    O1 6532   3.383   4.204  11.022 -0.1772 -0.0982 -0.6862
  434TMC3    O2 6533   4.053   4.249  11.091 -0.4379 -0.3290  0.2436
  435MPD2     C 6534   1.382   0.227  15.634  0.1840 -0.1949 -0.7112
  435MPD2    C1 6535   1.358   0.248  15.768  0.0435 -0.7050  0.0983
  435MPD2    C2 6536   1.444   0.205  15.862 -0.1638  0.5288  0.1956
  435MPD2    C3 6537   1.564   0.145  15.834  0.1849 -0.1020  0.6281
  435MPD2    C4 6538   1.586   0.121  15.699 -1.0738  0.1464  0.0198
  435MPD2    C5 6539   1.493   0.165  15.599 -0.5891  0.5175  0.3073
  435MPD2     H 6540   1.439   0.228  15.967 -2.7695  0.4903  0.0789
  435MPD2    H1 6541   1.679   0.075  15.668 -1.3061 -1.1359  1.2298
  435MPD2    H2 6542   1.310   0.269  15.565  1.5039  3.2249 -0.0346
  435MPD2    H3 6543   1.500   0.143  15.493 -2.1704 -0.1744  0.3487
  435MPD2     N 6544   1.653   0.104  15.936  0.0643  0.1393  0.1034
  435MPD2    H5 6545   1.605   0.094  16.025 -0.4145 -1.1410 -0.2904
  435MPD2    N1 6546   1.238   0.316  15.812 -0.8805  0.1411  0.8867
  435MPD2    H7 6547   1.234   0.362  15.902  0.7545  1.8370  0.1022
  436TMC3    C1 6548   0.896   0.501  15.976  0.2480 -0.0073  0.1406
  436TMC3    C2 6549   0.970   0.396  15.929 -0.2074 -0.1482  0.6811
  436TMC3    C3 6550   1.015   0.398  15.800 -0.7771  0.1541  0.3321
  436TMC3    C4 6551   0.871   0.611  15.899  0.1341  0.0341  0.1576
  436TMC3    C5 6552   0.919   0.615  15.771 -0.0707 -0.1582 -0.0389
  436TMC3    C6 6553   0.985   0.507  15.717  1.1944 -0.7933 -0.3844
  436TMC3     C 6554   0.871   0.493  16.119  0.5798  0.7580 -0.6001
  436TMC3     O 6555   0.843   0.386  16.166  0.0617 -0.6505  0.6708
  436TMC3     H 6556   0.991   0.320  16.004  1.9970  0.0106  0.2274
  436TMC3    H1 6557   0.842   0.701  15.953 -0.8179  0.5793 -1.2583
  436TMC3    H2 6558   1.031   0.529  15.621  0.4837 -0.1869 -0.5919
  436TMC3    C7 6559   0.989   0.737  15.739 -0.4097 -0.0350  0.3641
  436TMC3    C8 6560   1.120   0.324  15.742 -0.1688 -0.2884 -0.0625
  436TMC3    O1 6561   1.108   0.721  15.724 -0.6474 -0.1635  0.4195
  436TMC3    O2 6562   1.100   0.273  15.631  0.0576 -0.4096  0.1956
  437TMC3    C1 6563   4.187   2.801  13.046  0.1295 -0.7861 -1.2348
  437TMC3    C2 6564   4.066   2.833  12.992 -0.1665 -0.0806  0.5778
  437TMC3    C3 6565   4.067   2.869  12.861 -0.5214  0.3306 -0.0808
  437TMC3    C4 6566   4.310   2.789  12.973  0.6832  0.1768  0.1586
  437TMC3    C5 6567   4.300   2.821  12.841 -0.0338  0.1913 -0.0737
  437TMC3    C6 6568   4.182   2.863  12.787 -0.5831 -0.1705  0.3650
  437TMC3     C 6569   4.201   2.761  13.182 -0.2167  0.0989  0.0676
  437TMC3     O 6570   4.292   2.681  13.205  0.4263 -0.1784  0.6384
  437TMC3     H 6571   3.970   2.820  13.040 -0.5973 -1.5679 -0.7130
  437TMC3    H1 6572   4.405   2.752  13.012  1.7018  2.0325 -0.5549
  437TMC3    H2 6573   4.177   2.870  12.679  0.3055  1.3763  0.4217
  437TMC3    C7 6574   4.415   2.815  12.748  0.2048 -0.1660 -0.1793
  437TMC3    C8 6575   3.966   2.956  12.804 -0.5515  0.1127  0.3952
  437TMC3    O1 6576   4.399   2.844  12.630 -0.2306  0.1965  0.3312
  437TMC3    O2 6577   3.966   2.953  12.684 -0.1323 -0.0227  0.5947
  438MPD2     C 6578   1.976   2.829  16.796  0.1020  0.1665  0.3759
  438MPD2    C1 6579   2.041   2.730  16.860  0.3899 -0.3905  0.2908
  438MPD2    C2 6580   2.046   2.740  16.999  0.3199 -0.5198  0.8497
  438MPD2    C3 6581   1.983   2.839  17.076 -0.3552 -0.0079 -0.1802
  438MPD2    C4 6582   1.917   2.938  17.005 -0.5794  0.5026 -0.2151
  438MPD2    C5 6583   1.908   2.927  16.867 -0.1769  0.1373 -0.0256
  438MPD2     H 6584   2.105   2.665  17.050  2.0881  1.4587  1.7171
  438MPD2    H1 6585   1.866   3.019  17.055 -0.1654  1.3781 -1.2140
  438MPD2    H2 6586   1.974   2.835  16.688 -1.5456 -0.0321  0.3970
  438MPD2    H3 6587   1.862   3.006  16.808 -0.3183  0.3009  0.3029
  438MPD2     N 6588   1.991   2.840  17.214  0.0741  0.2145  0.1075
  438MPD2    H5 6589   1.953   2.920  17.262 -2.4056 -1.3398  0.7415
  438MPD2    N1 6590   2.130   2.639  16.804 -0.2458  0.1072  0.4929
  438MPD2    H7 6591   2.182   2.589  16.874 -1.2692 -1.5745  0.0489
  439TMC3    C1 6592   2.278   2.568  16.632  0.5294 -0.3697  0.2544
  439TMC3    C2 6593   2.295   2.525  16.501  0.0128 -0.1657 -0.1123
  439TMC3    C3 6594   2.404   2.451  16.477  0.3413  0.0553 -0.5282
  439TMC3    C4 6595   2.376   2.540  16.727  0.4604 -0.7368 -0.5767
  439TMC3    C5 6596   2.463   2.436  16.702  0.0490 -0.3064 -0.0693
  439TMC3    C6 6597   2.484   2.400  16.571 -0.6262 -0.1989  0.4296
  439TMC3     C 6598   2.163   2.644  16.667  0.4992  0.1489  0.0103
  439TMC3     O 6599   2.094   2.675  16.571 -0.6820 -0.3901 -0.2040
  439TMC3     H 6600   2.219   2.556  16.430 -0.9504 -0.1557  0.9218
  439TMC3    H1 6601   2.361   2.587  16.824  2.8383  0.1734 -0.6489
  439TMC3    H2 6602   2.561   2.331  16.538 -2.2198 -1.3413 -0.8611
  439TMC3    C7 6603   2.546   2.386  16.807  0.0306 -0.5982  0.3777
  439TMC3    C8 6604   2.451   2.423  16.339  0.1550 -0.4781  0.1299
  439TMC3    O1 6605   2.655   2.327  16.783 -0.2473  0.1704  0.1651
  439TMC3    O2 6606   2.497   2.308  16.316  0.2946 -0.4333 -0.0164
  440MPD2     C 6607   1.226   3.270  15.123  0.2224 -0.2434  0.4119
  440MPD2    C1 6608   1.278   3.381  15.187 -0.6079  0.3813  0.8417
  440MPD2    C2 6609   1.410   3.377  15.217  0.5380  0.0425  0.6252
  440MPD2    C3 6610   1.488   3.262  15.210 -0.0714  0.2138  0.0056
  440MPD2    C4 6611   1.433   3.155  15.150  0.2107  0.3515 -0.7416
  440MPD2    C5 6612   1.305   3.163  15.099 -0.1553 -0.4365  0.1536
  440MPD2     H 6613   1.452   3.466  15.264 -1.3496  0.4444  1.5255
  440MPD2    H1 6614   1.484   3.060  15.141  3.1416  1.6937  1.6800
  440MPD2    H2 6615   1.119   3.258  15.108  0.2414 -1.2152  1.0506
  440MPD2    H3 6616   1.261   3.079  15.048  0.5225  0.6413 -2.2178
  440MPD2     N 6617   1.620   3.254  15.254 -0.0401  1.3724  0.6477
  440MPD2    H5 6618   1.664   3.163  15.258  0.0330  1.4361  1.3897
  440MPD2    N1 6619   1.204   3.496  15.230 -0.6726  0.1274  0.3247
  440MPD2    H7 6620   1.253   3.570  15.279 -0.1538 -0.5794  0.8875
  441TMC3    C1 6621   1.792   3.305  15.409 -0.0164 -0.4841 -0.0897
  441TMC3    C2 6622   1.889   3.398  15.436  0.0820 -1.0086  0.1439
  441TMC3    C3 6623   1.952   3.390  15.560  0.0343  0.1589  0.3418
  441TMC3    C4 6624   1.764   3.201  15.491  0.2309  0.0266 -0.0348
  441TMC3    C5 6625   1.823   3.192  15.618 -0.2953 -0.3477  0.2860
  441TMC3    C6 6626   1.919   3.289  15.648 -0.4495  0.8855  0.1269
  441TMC3     C 6627   1.689   3.353  15.325  0.1225 -0.4703 -0.0037
  441TMC3     O 6628   1.684   3.472  15.304  0.1870 -0.1071  0.0815
  441TMC3     H 6629   1.911   3.469  15.357 -0.6158 -1.7182 -0.6860
  441TMC3    H1 6630   1.678   3.139  15.468  0.6216 -0.5424  0.0150
  441TMC3    H2 6631   1.970   3.297  15.743 -0.1299  0.0580  0.0268
  441TMC3    C7 6632   1.768   3.121  15.735  0.6071 -0.2108  0.4992
  441TMC3    C8 6633   1.993   3.518  15.613 -0.1232 -0.5140  0.0062
  441TMC3    O1 6634   1.718   3.190  15.820  0.1633  0.2837  0.5504
  441TMC3    O2 6635   2.075   3.523  15.703  0.2709 -0.2517  0.5467
  442MPD2     C 6636   3.931   3.884  16.483 -0.1443  0.2128  0.5319
  442MPD2    C1 6637   3.838   3.786  16.524 -0.2711 -0.2976  0.4239
  442MPD2    C2 6638   3.806   3.690  16.432  0.5959 -0.1255  0.9856
  442MPD2    C3 6639   3.875   3.680  16.309  0.1185 -0.0008 -0.3925
  442MPD2    C4 6640   3.969   3.779  16.278 -0.4564  0.0667  0.5588
  442MPD2    C5 6641   3.991   3.882  16.364 -0.1146 -0.1516  0.1028
  442MPD2     H 6642   3.738   3.612  16.461  1.8581 -1.6276 -0.0913
  442MPD2    H1 6643   4.021   3.784  16.183  0.0567 -0.5915  0.8034
  442MPD2    H2 6644   3.960   3.974  16.536 -0.0563  0.6176 -0.2092
  442MPD2    H3 6645   4.054   3.964  16.331 -1.4209  0.0156 -2.0063
  442MPD2     N 6646   3.865   3.560  16.228  0.0001 -0.0932  0.3678
  442MPD2    H5 6647   3.927   3.555  16.148 -0.2872  0.2956  0.1208
  442MPD2    N1 6648   3.779   3.790  16.651  0.2280 -0.4658 -0.1916
  442MPD2    H7 6649   3.706   3.722  16.665  0.7635 -0.9436  0.3180
  443TMC3    C1 6650   3.697   3.865  16.861 -0.0496 -0.0211 -0.4706
  443TMC3    C2 6651   3.631   3.978  16.905  0.5040  0.7188 -0.3692
  443TMC3    C3 6652   3.531   3.962  17.001  0.1608 -0.2286 -0.2519
  443TMC3    C4 6653   3.686   3.744  16.914 -0.5299  0.0915  0.6393
  443TMC3    C5 6654   3.590   3.733  17.010  0.3475 -0.1446 -0.2360
  443TMC3    C6 6655   3.513   3.838  17.059  0.2921  0.6041  1.1380
  443TMC3     C 6656   3.795   3.882  16.751  0.2788  0.0348 -0.3494
  443TMC3     O 6657   3.841   3.993  16.742 -0.1660 -0.0683  0.2644
  443TMC3     H 6658   3.650   4.073  16.856  0.4970  2.1281  2.3974
  443TMC3    H1 6659   3.745   3.657  16.892 -2.0031 -1.3321  2.2662
  443TMC3    H2 6660   3.418   3.820  17.110 -0.2270 -1.2899 -0.5072
  443TMC3    C7 6661   3.572   3.606  17.070  0.0871 -0.6601 -0.2665
  443TMC3    C8 6662   3.457   4.079  17.049  0.2164 -0.0788 -0.1135
  443TMC3    O1 6663   3.618   3.509  17.017 -0.2007  0.4861 -0.4662
  443TMC3    O2 6664   3.437   4.065  17.168  0.0227  0.2247 -0.2285
  444MPD2     C 6665   4.334   3.050  17.631 -0.5522 -0.2900  0.0549
  444MPD2    C1 6666   4.244   3.076  17.535 -0.1065 -0.3757 -0.1358
  444MPD2    C2 6667   4.278   3.046  17.405  0.2856  0.0815  0.5039
  444MPD2    C3 6668   4.403   2.991  17.369 -0.0907 -0.3780 -0.2090
  444MPD2    C4 6669   4.491   2.967  17.468  0.2242 -0.1313  0.2253
  444MPD2    C5 6670   4.457   2.991  17.600 -0.0223 -0.2053 -0.0405
  444MPD2     H 6671   4.206   3.071  17.327 -0.7804 -0.6376  1.2608
  444MPD2    H1 6672   4.594   2.935  17.456  0.6538  2.3018 -2.6401
  444MPD2    H2 6673   4.311   3.078  17.733 -2.3771 -1.7210  0.0326
  444MPD2    H3 6674   4.508   2.959  17.690  0.2648 -0.4331 -0.2851
  444MPD2     N 6675   4.428   2.958  17.232 -0.2797 -0.4969 -0.3051
  444MPD2    H5 6676   4.355   2.988  17.168 -1.4660 -0.6944  0.9560
  444MPD2    N1 6677   4.105   3.118  17.562  0.2238  0.1904  0.1064
  444MPD2    H7 6678   4.039   3.128  17.485 -1.9189 -0.2757  1.8960
  445TMC3    C1 6679   4.557   2.917  17.045 -0.6879  0.4538 -0.2313
  445TMC3    C2 6680   4.477   3.007  16.977  0.0191  0.1883 -0.0682
  445TMC3    C3 6681   4.495   3.010  16.837  0.0784 -0.2767 -0.6310
  445TMC3    C4 6682   4.656   2.842  16.984 -0.1541  0.0708  0.3471
  445TMC3    C5 6683   4.663   2.850  16.852 -0.4777  0.4373 -0.1909
  445TMC3    C6 6684   4.581   2.927  16.771  0.9750  0.3223 -0.1139
  445TMC3     C 6685   4.541   2.906  17.185  0.3335 -0.5687  0.1048
  445TMC3     O 6686   4.630   2.855  17.256  0.1746 -0.3461  0.0803
  445TMC3     H 6687   4.405   3.072  17.025 -1.7393 -1.4530 -0.4740
  445TMC3    H1 6688   4.721   2.781  17.046  0.6729  0.5335 -0.0589
  445TMC3    H2 6689   4.579   2.927  16.663 -1.5779  0.1271 -0.0453
  445TMC3    C7 6690   0.020   2.775  16.770  0.4717 -0.0157 -0.6316
  445TMC3    C8 6691   4.434   3.107  16.746  0.1143  0.3782  0.1858
  445TMC3    O1 6692   0.015   2.804  16.650  0.3212  0.3294 -0.0432
  445TMC3    O2 6693   4.454   3.097  16.625  0.0515  0.4971 -0.1799
  446MPD2     C 6694   3.604   4.246  11.456  0.2665 -0.3826  0.8618
  446MPD2    C1 6695   3.580   4.362  11.383  0.4995  0.5871  0.6344
  446MPD2    C2 6696   3.687   4.427  11.332  0.6234 -1.2591  0.3111
  446MPD2    C3 6697   3.814   4.391  11.370 -0.2141  0.1864  0.4673
  446MPD2    C4 6698   3.840   4.272  11.441 -0.3861  0.5728  0.3017
  446MPD2    C5 6699   3.727   4.201  11.486 -0.6961  0.4394 -0.4019
  446MPD2     H 6700   3.673   4.517  11.274  0.0439 -1.5278  0.0326
  446MPD2    H1 6701   3.942   4.234  11.449 -0.4848 -0.5862 -3.6712
  446MPD2    H2 6702   3.525   4.188  11.503 -0.3941 -0.3202 -0.1602
  446MPD2    H3 6703   3.744   4.114  11.548  2.6289 -0.9723 -3.2487
  446MPD2     N 6704   3.920   4.471  11.318 -0.2063 -0.5042 -0.0814
  446MPD2    H5 6705   3.890   4.528  11.239  0.0267  1.6269  1.3684
  446MPD2    N1 6706   3.445   4.407  11.370  0.1033 -0.3719  0.1603
  446MPD2    H7 6707   3.426   4.479  11.301 -2.3428  0.0031  1.2091
  447TMC3    C1 6708   4.136   4.533  11.250  0.4582 -0.0268 -0.0439
  447TMC3    C2 6709   4.082   4.639  11.175 -0.3122  0.7368 -0.3323
  447TMC3    C3 6710   4.131   4.660  11.049 -0.3979  0.1156 -0.4202
  447TMC3    C4 6711   4.235   4.459  11.205  0.5081  0.1902  0.5752
  447TMC3    C5 6712   4.292   4.493  11.086  0.6402 -0.1912  0.5219
  447TMC3    C6 6713   4.238   4.588  11.003 -0.1872 -0.2526  0.3595
  447TMC3     C 6714   4.057   4.465  11.350  0.1640 -0.2598 -0.3831
  447TMC3     O 6715   4.113   4.392  11.430  0.7754 -0.1024 -0.0375
  447TMC3     H 6716   3.995   4.698  11.200 -0.4583  0.2516  0.2924
  447TMC3    H1 6717   4.286   4.377  11.255  0.4852  0.5012  1.1041
  447TMC3    H2 6718   4.265   4.587  10.898 -2.7589  2.4963 -0.3216
  447TMC3    C7 6719   4.371   4.392  11.023  0.3553 -0.4658 -0.6209
  447TMC3    C8 6720   4.060   0.012  10.954 -0.5339 -0.0689 -0.0849
  447TMC3    O1 6721   4.440   4.428  10.928 -0.5675  0.9062  0.2149
  447TMC3    O2 6722   4.056   4.723  10.836 -0.6279  0.0525  0.1191
  448TMC3    C1 6723   2.101   0.030  17.685  0.1461  0.3948  0.9415
  448TMC3    C2 6724   2.139   4.692  17.579 -1.0777  0.1841  0.1131
  448TMC3    C3 6725   2.198   4.574  17.607 -0.1339  1.0657  0.4578
  448TMC3    C4 6726   2.126   4.735   0.055 -0.4218  0.3192 -0.2936
  448TMC3    C5 6727   2.176   4.611   0.079 -0.2780 -0.5479  0.3881
  448TMC3    C6 6728   2.224   4.530  17.737 -0.8750 -0.0963  0.4086
  448TMC3     C 6729   1.990   0.128  17.671 -0.4790 -0.0570  0.5072
  448TMC3     O 6730   1.916   0.146   0.004 -0.0725 -0.5322  0.4631
  448TMC3     H 6731   2.097   4.708  17.480 -1.4749  3.4168  0.7845
  448TMC3    H1 6732   2.079   0.050   0.134 -1.8653 -1.7929  0.3512
  448TMC3    H2 6733   2.272   4.434  17.753 -1.9645 -0.4393  1.7025
  448TMC3    C7 6734   2.212   4.577   0.218  0.1495 -0.0955  0.0941
  448TMC3    C8 6735   2.269   4.503  17.503  0.1391  0.1186  0.0656
  448TMC3    O1 6736   2.233   4.673   0.293  0.7222  0.3891  0.5259
  448TMC3    O2 6737   2.299   4.391  17.530 -0.4126  0.5759 -0.0382
  449MPD2     C 6738   3.244   2.963  13.193 -0.2068  0.8947  0.2662
  449MPD2    C1 6739   3.156   3.054  13.244  0.3812  0.5389  0.0471
  449MPD2    C2 6740   3.035   3.010  13.296  0.0441 -0.2249  0.5449
  449MPD2    C3 6741   2.999   2.878  13.298 -0.1142 -0.2552 -0.4078
  449MPD2    C4 6742   3.091   2.785  13.245 -0.8346  0.0169  0.3923
  449MPD2    C5 6743   3.210   2.829  13.191  0.0899  0.1655  0.2066
  449MPD2     H 6744   2.971   3.081  13.346 -1.2201 -1.6574  0.9529
  449MPD2    H1 6745   3.069   2.679  13.246 -1.1678  0.0607 -1.2861
  449MPD2    H2 6746   3.332   2.998  13.139 -0.1764 -0.9486 -0.8941
  449MPD2    H3 6747   3.279   2.751  13.160 -1.3090  0.9730 -4.9764
  449MPD2     N 6748   2.869   2.851  13.359  0.1230 -0.3851 -0.7360
  449MPD2    H5 6749   2.820   2.924  13.411 -0.8564 -0.7726 -1.1047
  449MPD2    N1 6750   3.189   3.187  13.273  0.1715  0.1169 -0.2411
  449MPD2    H7 6751   3.116   3.250  13.306  2.3592  2.0198  0.9862
  450TMC3    C1 6752   3.321   3.377  13.307 -0.1086 -0.2479 -0.1371
  450TMC3    C2 6753   3.430   3.378  13.395 -0.0370 -0.9683  0.4508
  450TMC3    C3 6754   3.407   3.411  13.530 -0.2473  0.3568  0.5385
  450TMC3    C4 6755   3.197   3.417  13.346 -0.4926 -0.2078 -0.2029
  450TMC3    C5 6756   3.181   3.444  13.474 -0.3069 -0.3176  0.3267
  450TMC3    C6 6757   3.280   3.447  13.567 -0.3872 -0.7467  1.0105
  450TMC3     C 6758   3.314   3.239  13.255 -0.2518  0.1609  0.6730
  450TMC3     O 6759   3.424   3.186  13.230 -0.3879  0.4222  0.2396
  450TMC3     H 6760   3.525   3.330  13.376  0.4764  0.5826 -0.8911
  450TMC3    H1 6761   3.114   3.431  13.278  1.0292  0.3242 -1.9607
  450TMC3    H2 6762   3.258   3.455  13.673  1.1602 -0.7773  1.3299
  450TMC3    C7 6763   3.048   3.391  13.521 -0.2092  0.6203 -0.6754
  450TMC3    C8 6764   3.459   3.320  13.624  0.0739  0.3646  0.0860
  450TMC3    O1 6765   2.984   3.331  13.437  0.2637 -0.4895 -0.0618
  450TMC3    O2 6766   3.380   3.255  13.690 -0.4454  0.7418 -0.1745
  451MPD2     C 6767   3.959   1.368   1.120  1.0683  0.1487 -0.1173
  451MPD2    C1 6768   4.092   1.362   1.102  0.2556  0.6482 -0.0650
  451MPD2    C2 6769   4.150   1.237   1.067 -0.7330 -0.6010 -0.4758
  451MPD2    C3 6770   4.069   1.131   1.062  0.3900  0.2738  0.4643
  451MPD2    C4 6771   3.935   1.140   1.071  0.6031  0.1020 -0.0012
  451MPD2    C5 6772   3.880   1.256   1.104  0.0522 -0.8550  0.2621
  451MPD2     H 6773   4.257   1.236   1.051 -1.1015  0.0044 -3.0327
  451MPD2    H1 6774   3.865   1.057   1.066 -0.0116  0.7559 -2.0358
  451MPD2    H2 6775   3.916   1.460   1.158  2.1128  1.4731 -2.1736
  451MPD2    H3 6776   3.775   1.259   1.130 -0.3342 -1.8900 -1.1629
  451MPD2     N 6777   4.123   0.997   1.042 -0.8744  0.1307  0.0538
  451MPD2    H5 6778   4.060   0.918   1.050  0.8166 -1.1840  0.4577
  451MPD2    N1 6779   4.164   1.486   1.114  0.0888  0.0190 -0.1682
  451MPD2    H7 6780   4.115   1.573   1.132  0.3244 -0.2293  1.6968
  452TMC3    C1 6781   4.287   0.841   0.981  0.6098 -0.1467  0.0089
  452TMC3    C2 6782   4.197   0.763   0.911 -0.2409  0.8793 -0.8050
  452TMC3    C3 6783   4.244   0.644   0.869  0.5102  0.3245  0.6600
  452TMC3    C4 6784   4.417   0.796   1.007 -0.3094 -0.0372  0.1400
  452TMC3    C5 6785   4.457   0.678   0.959  0.5239 -0.0895 -0.2582
  452TMC3    C6 6786   4.373   0.598   0.893  0.1458 -0.1395 -0.1080
  452TMC3     C 6787   4.254   0.965   1.040  0.0473 -0.7343  0.4103
  452TMC3     O 6788   4.355   1.024   1.074 -0.1394 -0.0219  0.3258
  452TMC3     H 6789   4.094   0.792   0.895 -0.6342 -0.9577 -1.6612
  452TMC3    H1 6790   4.487   0.858   1.062 -0.2985 -0.4882  0.6331
  452TMC3    H2 6791   4.413   0.507   0.849 -1.4625 -1.3542  0.9301
  452TMC3    C7 6792   4.601   0.644   0.963  0.0737  0.4810 -0.1426
  452TMC3    C8 6793   4.153   0.557   0.807 -0.3199  0.4547 -0.6716
  452TMC3    O1 6794   4.681   0.738   0.979  0.4590  0.1738  0.0185
  452TMC3    O2 6795   4.035   0.592   0.804 -0.5969  0.2675 -0.6465
  453TMC3    C1 6796   1.654   3.380  11.605 -0.2610  0.0471  0.8818
  453TMC3    C2 6797   1.559   3.286  11.624  0.8344 -0.3645 -0.0996
  453TMC3    C3 6798   1.444   3.291  11.547 -0.6140  0.1076 -0.6559
  453TMC3    C4 6799   1.632   3.489  11.527  0.4344  0.3025  0.3457
  453TMC3    C5 6800   1.508   3.500  11.468 -0.3039 -0.8674  0.0588
  453TMC3    C6 6801   1.416   3.401  11.473  0.0602  0.4183 -0.5361
  453TMC3     C 6802   1.769   3.390  11.688 -0.2747  0.3871  0.3007
  453TMC3     O 6803   1.809   3.505  11.716  0.5101  0.2542 -0.0161
  453TMC3     H 6804   1.572   3.225  11.713  0.1500  0.4733  0.5857
  453TMC3    H1 6805   1.697   3.576  11.522 -2.7399  2.6305 -0.7208
  453TMC3    H2 6806   1.326   3.406  11.412 -1.1815 -0.0714  1.2523
  453TMC3    C7 6807   1.472   3.632  11.412  1.1296 -0.4186  0.7311
  453TMC3    C8 6808   1.342   3.194  11.584  0.5098  0.3002  0.8091
  453TMC3    O1 6809   1.567   3.708  11.391 -0.4190 -0.1739  0.2208
  453TMC3    O2 6810   1.228   3.232  11.564  0.2997 -0.5783  0.7919
  454MPD2     C 6811   0.203   2.921  16.397  0.4795  0.4897 -0.1675
  454MPD2    C1 6812   0.176   2.969  16.267  0.4985  0.5845 -0.4866
  454MPD2    C2 6813   0.170   3.103  16.240  0.1463  0.0378  0.4083
  454MPD2    C3 6814   0.160   3.195  16.344  0.0197 -0.3052  0.0586
  454MPD2    C4 6815   0.177   3.147  16.473 -0.2184 -0.1509 -0.1840
  454MPD2    C5 6816   0.206   3.016  16.500 -0.3722  0.1695  0.1429
  454MPD2     H 6817   0.154   3.131  16.136  1.0675 -0.4436  0.1439
  454MPD2    H1 6818   0.188   3.212  16.559  0.5002 -0.2226 -0.2216
  454MPD2    H2 6819   0.229   2.817  16.410  0.3533  0.2564 -1.7235
  454MPD2    H3 6820   0.223   2.990  16.603  0.5035  2.7488  0.6519
  454MPD2     N 6821   0.113   3.325  16.330  0.1714  0.5138  1.0673
  454MPD2    H5 6822   0.078   3.370  16.413 -0.7084  1.5289  0.1469
  454MPD2    N1 6823   0.151   2.875  16.165  0.1334  0.0355 -0.2137
  454MPD2    H7 6824   0.136   2.921  16.075  1.3762 -0.7677 -0.8327
  455TMC3    C1 6825   4.694   3.450  16.211 -0.3449  0.5164 -0.1424
  455TMC3    C2 6826   4.681   3.538  16.318  1.0986 -0.0721 -0.6564
  455TMC3    C3 6827   4.558   3.552  16.372  0.2101  1.0485 -0.5511
  455TMC3    C4 6828   4.592   3.372  16.175  1.1638  0.0811  0.2626
  455TMC3    C5 6829   4.473   3.396  16.230  0.7361 -0.2822 -0.1683
  455TMC3    C6 6830   4.449   3.489  16.325  0.5675  0.1632 -0.2160
  455TMC3     C 6831   0.081   3.380  16.207  0.0607  0.5339 -0.6765
  455TMC3     O 6832   0.123   3.352  16.095 -0.2716 -0.1558 -0.5596
  455TMC3     H 6833   0.031   3.575  16.364  1.2366 -3.0727  1.5363
  455TMC3    H1 6834   4.599   3.300  16.094 -0.8120 -0.1470  0.2893
  455TMC3    H2 6835   4.360   3.481  16.387 -0.8271  1.8737 -1.9837
  455TMC3    C7 6836   4.405   3.274  16.244  0.2258  0.0443  0.3272
  455TMC3    C8 6837   4.549   3.632  16.501  0.4641  0.2413 -0.6320
  455TMC3    O1 6838   4.282   3.267  16.249 -0.6044 -0.0744  0.1945
  455TMC3    O2 6839   4.651   3.631  16.570  0.3589 -0.8366  0.1447
  456MPD2     C 6840   3.013   3.689  16.472 -0.3184  0.3650  0.5560
  456MPD2    C1 6841   2.913   3.604  16.517 -0.6563 -0.2054  0.1659
  456MPD2    C2 6842   2.855   3.626  16.639 -0.1703 -0.6419  0.7068
  456MPD2    C3 6843   2.893   3.738  16.721  0.0381 -0.4563  0.2642
  456MPD2    C4 6844   2.995   3.819  16.674  0.0874  0.2331 -0.6854
  456MPD2    C5 6845   3.051   3.794  16.551 -0.3276 -0.2979 -0.1528
  456MPD2     H 6846   2.770   3.570  16.675 -0.3086 -0.1907  1.0781
  456MPD2    H1 6847   3.035   3.915  16.708  1.2710 -0.3275 -0.4998
  456MPD2    H2 6848   3.067   3.677  16.379  2.3873 -0.0660  2.1894
  456MPD2    H3 6849   3.126   3.863  16.514  0.1754 -2.0630 -2.4561
  456MPD2     N 6850   2.835   3.765  16.847 -0.1316 -0.1644  0.2875
  456MPD2    H5 6851   2.763   3.703  16.883  0.8277 -1.4145  0.0893
  456MPD2    N1 6852   2.873   3.490  16.438  0.1942  0.2146 -0.1360
  456MPD2    H7 6853   2.918   3.484  16.347 -1.2136 -0.0201 -0.8177
  457TMC3    C1 6854   2.761   3.894  17.037  0.1204  0.0326 -0.1304
  457TMC3    C2 6855   2.699   4.015  17.060  0.0036  0.4004 -0.2208
  457TMC3    C3 6856   2.651   4.048  17.185  0.6585  0.0243  0.1369
  457TMC3    C4 6857   2.774   3.797  17.132  0.2142  0.3663 -0.0018
  457TMC3    C5 6858   2.730   3.833  17.262  0.0078 -0.3537 -0.0884
  457TMC3    C6 6859   2.659   3.951  17.288 -0.4229 -0.2520  0.2610
  457TMC3     C 6860   2.846   3.883  16.916  0.3944 -0.3125 -0.3321
  457TMC3     O 6861   2.913   3.986  16.903 -0.1483  0.2860 -0.1214
  457TMC3     H 6862   2.709   4.091  16.983  0.4869  0.0751 -0.4816
  457TMC3    H1 6863   2.839   3.712  17.114 -2.0577 -1.4270  0.2507
  457TMC3    H2 6864   2.593   3.968  17.373 -3.2317  0.4092 -2.0798
  457TMC3    C7 6865   2.739   3.733  17.364  0.0641 -0.0340  0.0016
  457TMC3    C8 6866   2.579   4.168  17.218 -0.0395  0.1489 -0.5768
  457TMC3    O1 6867   2.779   3.622  17.341  0.2493 -0.0820 -0.1058
  457TMC3    O2 6868   2.544   4.172  17.337  0.0906  0.1037 -0.4389
  458MPD2     C 6869   0.182   2.847  12.685 -0.6869 -0.6229 -0.5472
  458MPD2    C1 6870   0.151   2.842  12.821 -0.7533 -0.2464 -0.2004
  458MPD2    C2 6871   0.022   2.800  12.854  0.1010 -0.3600  0.8655
  458MPD2    C3 6872   4.660   2.800  12.765  0.5243 -0.1361 -0.0024
  458MPD2    C4 6873   4.691   2.808  12.632  0.2191  0.4331 -0.8747
  458MPD2    C5 6874   0.079   2.837  12.598  0.1866  0.3647  0.1860
  458MPD2     H 6875   4.736   2.795  12.959  3.3422  0.5779  1.7464
  458MPD2    H1 6876   4.620   2.787  12.552 -1.1702  1.1482  0.1797
  458MPD2    H2 6877   0.281   2.866  12.646 -0.2811  0.6171  1.0903
  458MPD2    H3 6878   0.095   2.848  12.491  0.1932 -0.5157  0.0989
  458MPD2     N 6879   4.531   2.785  12.814  0.2175 -0.0632  0.2626
  458MPD2    H5 6880   4.520   2.784  12.914  2.2687 -1.2131  0.4861
  458MPD2    N1 6881   0.256   2.864  12.914 -0.3335  0.0135 -0.0681
  458MPD2    H7 6882   0.338   2.903  12.871 -1.1642  3.0811  1.0995
  459TMC3    C1 6883   0.365   2.851  13.125  0.6193  0.2739  0.0772
  459TMC3    C2 6884   0.487   2.885  13.074 -0.9470 -0.3567  0.1429
  459TMC3    C3 6885   0.604   2.874  13.150 -0.3091  0.3441 -0.5390
  459TMC3    C4 6886   0.361   2.777  13.238 -0.3286 -0.9000 -0.3955
  459TMC3    C5 6887   0.470   2.783  13.317  0.2477  0.4731 -0.2134
  459TMC3    C6 6888   0.592   2.826  13.275 -0.3611 -0.0005 -0.3023
  459TMC3     C 6889   0.244   2.848  13.050 -0.4714  0.0950 -0.4357
  459TMC3     O 6890   0.142   2.833  13.117 -0.1218 -0.1860  0.3834
  459TMC3     H 6891   0.495   2.934  12.977 -0.8371  0.1517  0.4072
  459TMC3    H1 6892   0.268   2.742  13.283 -0.8297  0.1664 -0.6079
  459TMC3    H2 6893   0.670   2.814  13.349  2.9265 -2.7545 -4.2246
  459TMC3    C7 6894   0.485   2.678  13.407 -0.1666  0.0612 -0.5126
  459TMC3    C8 6895   0.735   2.893  13.094 -0.3590  0.4819  0.1562
  459TMC3    O1 6896   0.576   2.598  13.400  0.7181 -0.3028  0.5956
  459TMC3    O2 6897   0.738   2.915  12.974 -0.5654  0.5483 -0.3117
  460MPD2     C 6898   3.966   0.348  11.013  0.1930  0.2815 -0.1252
  460MPD2    C1 6899   3.955   0.226  10.956  0.3516  0.3082  0.3937
  460MPD2    C2 6900   3.880   0.209  10.841 -0.2592 -0.6150 -0.1575
  460MPD2    C3 6901   3.820   0.315  10.781 -0.3382  0.2681 -0.8797
  460MPD2    C4 6902   3.829   0.441  10.842 -0.4950 -0.2953 -0.2083
  460MPD2    C5 6903   3.906   0.456  10.957 -0.6583  0.3487 -0.2706
  460MPD2     H 6904   3.855   0.112  10.799 -1.8570  0.2423 -1.1898
  460MPD2    H1 6905   3.779   0.525  10.796 -0.9287 -0.9932 -1.0181
  460MPD2    H2 6906   4.012   0.362  11.110 -1.9706  0.9199  0.8040
  460MPD2    H3 6907   3.909   0.556  10.999  1.1220  0.2746 -0.2022
  460MPD2     N 6908   3.733   0.291  10.670  0.4059 -0.6152  0.1932
  460MPD2    H5 6909   3.739   0.199  10.627  2.2919 -1.0682  1.4030
  460MPD2    N1 6910   4.025   0.129  11.017  0.6724 -0.0418  0.0509
  460MPD2    H7 6911   4.071   0.146  11.106  0.2282  0.6377  0.1518
  461TMC3    C1 6912   3.575   0.310  10.512 -0.4589 -0.2758 -0.8319
  461TMC3    C2 6913   3.554   0.178  10.530  0.2786 -0.6460  0.1384
  461TMC3    C3 6914   3.506   0.115  10.423 -0.2065 -0.6720 -0.7199
  461TMC3    C4 6915   3.519   0.383  10.410 -0.1938  0.1229 -0.0987
  461TMC3    C5 6916   3.481   0.314  10.298  0.4026  0.3939  0.1423
  461TMC3    C6 6917   3.468   0.178  10.307  0.1538  0.6004 -0.4126
  461TMC3     C 6918   3.640   0.380  10.621  0.0879  0.8168 -0.1529
  461TMC3     O 6919   3.597   0.491  10.654  0.4634  0.1311 -0.0572
  461TMC3     H 6920   3.560   0.130  10.627  1.9419  2.6478  1.6839
  461TMC3    H1 6921   3.515   0.492  10.412  2.0903  0.2172 -0.3170
  461TMC3    H2 6922   3.437   0.122  10.220 -0.9781  0.9969 -0.2673
  461TMC3    C7 6923   3.451   0.364  10.166  0.5064  0.6311 -0.4243
  461TMC3    C8 6924   3.430   0.001  10.450 -0.6308 -0.0907  0.3728
  461TMC3    O1 6925   3.405   0.282  10.085  0.2703 -0.1661  0.4104
  461TMC3    O2 6926   3.385   4.732  10.563 -0.6126  0.2395  0.0250
  462TMC3    C1 6927   4.276   1.438   0.768  0.0708 -0.0079  0.5302
  462TMC3    C2 6928   4.411   1.451   0.758  0.3478 -0.6003  0.7914
  462TMC3    C3 6929   4.467   1.347   0.681 -0.3243  0.0794 -0.1395
  462TMC3    C4 6930   4.207   1.324   0.751 -0.9243 -0.8527 -0.0841
  462TMC3    C5 6931   4.274   1.220   0.697 -0.7458  0.0267 -0.3586
  462TMC3    C6 6932   4.400   1.232   0.644 -0.5376  0.2830  0.0016
  462TMC3     C 6933   4.193   1.553   0.778  0.5128  0.2075  0.0484
  462TMC3     O 6934   4.076   1.531   0.788 -0.6991 -0.8095 -0.4378
  462TMC3     H 6935   4.476   1.532   0.790  0.8915 -0.2317 -1.2520
  462TMC3    H1 6936   4.109   1.314   0.796 -0.0769 -1.9209  1.5416
  462TMC3    H2 6937   4.456   1.144   0.612  1.3491  1.1759  0.8328
  462TMC3    C7 6938   4.207   1.095   0.684 -0.3866 -0.2193  0.0709
  462TMC3    C8 6939   4.604   1.364   0.646 -0.0086 -0.4512 -0.0825
  462TMC3    O1 6940   4.087   1.104   0.683 -0.4943 -0.5634 -0.5252
  462TMC3    O2 6941   4.670   1.452   0.706  0.0311 -0.1883 -0.3545
  463MPD2     C 6942   4.177   3.821   2.336  0.1298 -0.1179  0.3250
  463MPD2    C1 6943   4.172   3.854   2.200 -0.2422 -0.3374 -0.3855
  463MPD2    C2 6944   4.287   3.925   2.154 -0.1814  0.2752  0.5573
  463MPD2    C3 6945   4.394   3.961   2.242  0.7852  0.0479  0.1084
  463MPD2    C4 6946   4.390   3.918   2.369 -0.2966  0.1882 -0.3355
  463MPD2    C5 6947   4.284   3.846   2.414 -0.5683  0.0524 -0.1866
  463MPD2     H 6948   4.285   3.960   2.052  0.8855 -2.1518 -0.2933
  463MPD2    H1 6949   4.476   3.933   2.433  0.3501 -2.7899 -0.4843
  463MPD2    H2 6950   4.090   3.777   2.384  0.3498 -1.6378 -0.6613
  463MPD2    H3 6951   4.282   3.811   2.517  0.9184 -1.2743 -0.6088
  463MPD2     N 6952   4.514   4.021   2.198 -0.5469 -0.2760  0.1295
  463MPD2    H5 6953   4.594   4.028   2.259 -0.1644 -2.1710 -0.1592
  463MPD2    N1 6954   4.062   3.856   2.122  0.1289 -0.2752 -0.0832
  463MPD2    H7 6955   4.077   3.893   2.028 -1.9800  0.0803 -0.2976
  464TMC3    C1 6956   3.836   3.847   2.047 -0.3268 -0.4437  0.4079
  464TMC3    C2 6957   3.865   3.934   1.942  0.3637 -0.3171  0.5494
  464TMC3    C3 6958   3.772   3.966   1.849  0.4763  0.4575 -0.1677
  464TMC3    C4 6959   3.712   3.797   2.062  0.3402 -0.1740  0.0973
  464TMC3    C5 6960   3.632   3.829   1.957  0.4957  0.1181 -0.4830
  464TMC3    C6 6961   3.649   3.914   1.856 -0.5128 -0.2129  0.3446
  464TMC3     C 6962   3.935   3.815   2.153  0.0164  0.1082  0.6771
  464TMC3     O 6963   3.899   3.740   2.242  0.4774  0.0078  0.1412
  464TMC3     H 6964   3.967   3.971   1.932  0.3270 -0.3893 -0.1193
  464TMC3    H1 6965   3.691   3.719   2.135 -0.1323 -1.3130 -1.2507
  464TMC3    H2 6966   3.572   3.960   1.795 -0.8308 -1.1540  0.0299
  464TMC3    C7 6967   3.503   3.770   1.963  0.5191  0.9716 -0.1391
  464TMC3    C8 6968   3.802   4.046   1.731  0.3001  0.3723 -0.4395
  464TMC3    O1 6969   3.464   3.715   2.065 -0.4572 -0.3980 -0.5853
  464TMC3    O2 6970   3.738   4.020   1.634 -0.0938 -0.3677  0.2525
  465MPD2     C 6971   1.673   2.667  17.195 -0.3127  0.3505  0.4208
  465MPD2    C1 6972   1.569   2.762  17.224  0.5135 -0.2285 -0.0694
  465MPD2    C2 6973   1.509   2.827  17.117 -0.2459 -0.2076 -0.7486
  465MPD2    C3 6974   1.549   2.808  16.983 -0.2810  0.1635  0.2739
  465MPD2    C4 6975   1.652   2.711  16.962  0.1838  0.4611  0.3933
  465MPD2    C5 6976   1.709   2.641  17.064  0.3797 -0.0307  0.1319
  465MPD2     H 6977   1.437   2.905  17.138  0.5888 -0.0614  1.5460
  465MPD2    H1 6978   1.694   2.701  16.863  0.4186  1.2048  0.4149
  465MPD2    H2 6979   1.718   2.606  17.274  0.9684 -1.3335 -1.6170
  465MPD2    H3 6980   1.794   2.577  17.043  1.1922  0.9696  0.3774
  465MPD2     N 6981   1.494   2.890  16.884  0.9394  1.1885 -0.7662
  465MPD2    H5 6982   1.421   2.953  16.916 -0.9132 -2.3915  2.0945
  465MPD2    N1 6983   1.512   2.783  17.351 -0.5044 -0.3017 -0.1197
  465MPD2    H7 6984   1.435   2.847  17.362  0.2555  0.2992  1.6915
  466TMC3    C1 6985   1.190   3.041  16.681  0.0618  0.2717  0.0047
  466TMC3    C2 6986   1.235   3.154  16.622  0.2714  0.1782 -0.0456
  466TMC3    C3 6987   1.368   3.173  16.609  0.6213 -0.7319 -0.6462
  466TMC3    C4 6988   1.284   2.947  16.725  0.1735 -0.6758  1.0505
  466TMC3    C5 6989   1.410   2.947  16.680  0.3322  0.4299 -0.0094
  466TMC3    C6 6990   1.452   3.068  16.624  0.2168  0.7409  0.4332
  466TMC3     C 6991   1.072   3.050  16.758  0.0805  0.4045 -0.1013
  466TMC3     O 6992   1.068   3.011  16.871  0.3528 -0.1399  0.1040
  466TMC3     H 6993   1.165   3.230  16.589 -0.8041 -1.2895 -1.1067
  466TMC3    H1 6994   1.252   2.869  16.794 -2.1283 -1.0792 -0.4584
  466TMC3    H2 6995   1.557   3.087  16.609  0.4643 -0.6337  0.4523
  466TMC3    C7 6996   1.508   2.879  16.751  0.1824 -0.4699 -0.4759
  466TMC3    C8 6997   1.415   3.304  16.580  0.1254 -0.2824 -0.2525
  466TMC3    O1 6998   1.594   2.822  16.682 -0.3905  0.4523 -0.6581
  466TMC3    O2 6999   1.530   3.309  16.538 -0.4800 -0.3717 -0.6713
  467TMC3    C1 7000   2.378   1.811  13.897 -1.1326 -0.9501  0.2777
  467TMC3    C2 7001   2.310   1.924  13.924  0.3630 -0.6681  0.1658
  467TMC3    C3 7002   2.176   1.913  13.948  0.8243  0.3498 -0.0987
  467TMC3    C4 7003   2.320   1.687  13.899  0.4905  0.2739 -0.1406
  467TMC3    C5 7004   2.182   1.685  13.920  0.0666  0.5222 -0.0694
  467TMC3    C6 7005   2.104   1.800  13.949  0.6520 -0.4683 -0.2118
  467TMC3     C 7006   2.513   1.814  13.848 -0.3101  0.3719  0.6777
  467TMC3     O 7007   2.589   1.720  13.857  0.4603 -0.3737  0.4710
  467TMC3     H 7008   2.364   2.016  13.946  1.1038 -0.6336 -1.8092
  467TMC3    H1 7009   2.382   1.600  13.881  2.1377  1.4986 -0.3761
  467TMC3    H2 7010   2.000   1.794  13.978  0.7789  0.4314  0.4017
  467TMC3    C7 7011   2.129   1.556  13.968 -0.4907 -0.0981  0.2558
  467TMC3    C8 7012   2.107   2.045  13.948  0.1898  0.0486  0.2804
  467TMC3    O1 7013   2.212   1.467  13.968  0.6320  0.2131 -0.0376
  467TMC3    O2 7014   2.165   2.141  13.998 -0.5489 -0.3681  0.1101
  468MPD2     C 7015   0.865   0.048  10.971  0.2196 -0.8694  0.6770
  468MPD2    C1 7016   0.995   0.016  11.008 -0.5242 -1.2065 -0.0332
  468MPD2    C2 7017   1.056   4.633  10.968 -0.7709  0.1234  0.1568
  468MPD2    C3 7018   0.982   4.533  10.914  0.8286 -0.0950  0.6600
  468MPD2    C4 7019   0.857   4.570  10.868  0.2802 -0.5375  0.2976
  468MPD2    C5 7020   0.799   4.698  10.899 -0.2677 -0.1497  0.2362
  468MPD2     H 7021   1.161   4.626  10.991 -0.1399  1.6314 -2.3100
  468MPD2    H1 7022   0.794   4.493  10.827  0.2108 -0.9960  1.2616
  468MPD2    H2 7023   0.811   0.141  10.985 -0.7455 -1.3441  0.1045
  468MPD2    H3 7024   0.701   4.715  10.857 -0.2162  1.1106  0.6240
  468MPD2     N 7025   1.024   4.400  10.889  0.7574 -0.1359 -0.0057
  468MPD2    H5 7026   0.967   4.333  10.838  0.5851  0.1148 -0.1450
  468MPD2    N1 7027   1.072   0.116  11.079 -0.6619 -0.0600 -0.1684
  468MPD2    H7 7028   1.173   0.110  11.081 -0.6216  0.9971  1.0950
  469TMC3    C1 7029   1.103   0.309  11.220  0.7174  0.3059 -0.3441
  469TMC3    C2 7030   1.236   0.274  11.233 -0.1439 -0.3102  0.2173
  469TMC3    C3 7031   1.304   0.360  11.313  0.6257 -0.6798  0.2385
  469TMC3    C4 7032   1.045   0.420  11.265 -0.1276 -0.1284  0.1134
  469TMC3    C5 7033   1.117   0.496  11.352  0.1888  0.0248  0.7449
  469TMC3    C6 7034   1.248   0.466  11.380  0.5146  0.1577 -0.2564
  469TMC3     C 7035   1.013   0.227  11.143  0.2779 -0.4465 -0.3226
  469TMC3     O 7036   0.895   0.244  11.168 -0.7943 -0.2787 -0.5013
  469TMC3     H 7037   1.281   0.183  11.196  1.4432  0.8669 -0.7373
  469TMC3    H1 7038   0.951   0.464  11.233  0.9795  0.9151 -1.6764
  469TMC3    H2 7039   1.306   0.532  11.442 -1.3106 -2.1743  3.9182
  469TMC3    C7 7040   1.061   0.613  11.415 -0.0466  0.4251  0.8434
  469TMC3    C8 7041   1.438   0.315  11.357  0.3768 -0.2084  0.4135
  469TMC3    O1 7042   1.132   0.705  11.453  0.1036 -0.4581 -0.2707
  469TMC3    O2 7043   1.495   0.238  11.286 -0.5978  1.0630  0.0340
  470TMC3    C1 7044   3.023   1.004   0.483 -0.2669 -0.5076 -0.2428
  470TMC3    C2 7045   3.107   1.047   0.582 -0.4485  0.3778  0.0885
  470TMC3    C3 7046   3.069   1.036   0.714 -0.3691 -0.1129  0.1940
  470TMC3    C4 7047   2.902   0.951   0.517 -0.3413 -0.0392 -0.9017
  470TMC3    C5 7048   2.858   0.966   0.647  0.2595 -0.0405  0.3090
  470TMC3    C6 7049   2.947   1.000   0.751  0.5630 -0.1598 -0.7127
  470TMC3     C 7050   3.069   1.021   0.347  0.1512 -0.5026  0.8025
  470TMC3     O 7051   3.183   1.056   0.335  0.2084  0.4475  0.3316
  470TMC3     H 7052   3.198   1.101   0.557  0.4312 -0.7222  0.9136
  470TMC3    H1 7053   2.828   0.928   0.441  1.5314 -1.2367 -2.3803
  470TMC3    H2 7054   2.916   1.008   0.855 -0.6985  1.4878 -1.2095
  470TMC3    C7 7055   2.722   0.933   0.673  0.0494 -0.5532  0.9756
  470TMC3    C8 7056   3.136   1.132   0.802 -0.4933  0.5709  0.6108
  470TMC3    O1 7057   2.665   0.852   0.600  0.8182  0.4322 -0.1239
  470TMC3    O2 7058   3.065   1.204   0.868  0.6013 -0.3877  0.4636
  471MPD2     C 7059   4.066   2.207  16.591 -0.3029 -0.4656 -0.0787
  471MPD2    C1 7060   4.108   2.082  16.593  0.6192 -0.0601  0.3904
  471MPD2    C2 7061   4.158   2.031  16.710 -0.2592 -0.1578 -0.1090
  471MPD2    C3 7062   4.168   2.108  16.826  0.1245 -0.8477 -0.0206
  471MPD2    C4 7063   4.119   2.237  16.823  0.0117 -0.3699 -0.1956
  471MPD2    C5 7064   4.067   2.284  16.703  0.4194  0.0404 -0.5052
  471MPD2     H 7065   4.176   1.924  16.718  3.0496  0.4844  0.9222
  471MPD2    H1 7066   4.134   2.293  16.915 -1.1313  0.6926 -0.6635
  471MPD2    H2 7067   4.032   2.261  16.503  0.8774 -1.0891 -0.9136
  471MPD2    H3 7068   4.036   2.387  16.697 -1.2786 -0.3575  1.0932
  471MPD2     N 7069   4.220   2.050  16.942  0.3680  0.4789  0.7072
  471MPD2    H5 7070   4.207   2.104  17.028  0.0462  3.8199 -1.4589
  471MPD2    N1 7071   4.091   1.985  16.493  0.0696  0.0446  1.1997
  471MPD2    H7 7072   4.124   1.892  16.520  1.3051  0.6139  1.6304
  472TMC3    C1 7073   4.030   1.878  16.292  0.8620 -0.8311  0.1695
  472TMC3    C2 7074   3.934   1.874  16.198  0.9201 -0.1683 -0.4502
  472TMC3    C3 7075   3.903   1.755  16.146  0.4399  0.0345  0.3467
  472TMC3    C4 7076   4.088   1.765  16.343 -0.4396  0.7261 -0.2790
  472TMC3    C5 7077   4.061   1.646  16.282  0.1631 -0.4005 -0.5189
  472TMC3    C6 7078   3.966   1.641  16.179  0.4606 -0.2513  0.7590
  472TMC3     C 7079   4.033   2.001  16.373 -0.3635  0.3767 -0.4815
  472TMC3     O 7080   3.978   2.103  16.335 -0.1721 -0.1356 -0.5311
  472TMC3     H 7081   3.882   1.964  16.168  1.0841 -0.4393 -1.5316
  472TMC3    H1 7082   4.169   1.768  16.415  0.6589 -1.6869 -1.3857
  472TMC3    H2 7083   3.933   1.551  16.128  1.2477 -0.6143  0.8732
  472TMC3    C7 7084   4.095   1.523  16.344  0.2721  0.5340 -0.0001
  472TMC3    C8 7085   3.770   1.750  16.094  0.3049  0.3259  0.1088
  472TMC3    O1 7086   4.091   1.510  16.468 -0.0091 -0.4145  0.3608
  472TMC3    O2 7087   3.761   1.813  15.992 -0.0622 -0.1917 -0.4641
  473MPD2     C 7088   4.153   4.265  14.344  0.8851 -0.4041 -0.0220
  473MPD2    C1 7089   4.134   4.329  14.226 -0.2380  0.5768 -0.0991
  473MPD2    C2 7090   4.137   4.476  14.233 -0.1425 -0.0814 -0.5475
  473MPD2    C3 7091   4.182   4.535  14.351 -0.3023  0.5321 -0.5394
  473MPD2    C4 7092   4.203   4.462  14.458  0.5338 -0.0310 -0.4504
  473MPD2    C5 7093   4.188   4.329  14.459  0.1491  0.4191  0.5610
  473MPD2     H 7094   4.127   4.528  14.138 -0.7465  0.4964 -0.1682
  473MPD2    H1 7095   4.226   4.505  14.554  0.1654  2.4289 -1.4670
  473MPD2    H2 7096   4.138   4.158  14.354  0.6347 -0.2096  1.7001
  473MPD2    H3 7097   4.211   4.273  14.549  1.8888 -0.2467 -0.2874
  473MPD2     N 7098   4.215   4.668  14.366 -0.2732 -0.7249  0.6301
  473MPD2    H5 7099   4.252   4.690  14.458 -0.7580 -0.7433  0.8273
  473MPD2    N1 7100   4.093   4.270  14.105 -0.7121  0.4450 -0.5452
  473MPD2    H7 7101   4.102   4.328  14.022  1.0033  0.0668 -0.6361
  474TMC3    C1 7102   4.236   0.152  14.350  0.1592 -0.5486 -0.8927
  474TMC3    C2 7103   4.137   0.243  14.367  0.3266 -0.5704  0.5802
  474TMC3    C3 7104   4.147   0.323  14.477  0.7159  0.1921 -0.3980
  474TMC3    C4 7105   4.332   0.129  14.446  0.3375 -0.6031 -0.1204
  474TMC3    C5 7106   4.329   0.206  14.561  0.1075 -0.4276 -0.3390
  474TMC3    C6 7107   4.241   0.305  14.574 -0.6565 -0.1871  0.3374
  474TMC3     C 7108   4.195   0.029  14.286  0.1152  0.4745 -0.0164
  474TMC3     O 7109   4.124   0.036  14.185 -0.0154  0.2629 -0.7464
  474TMC3     H 7110   4.051   0.244  14.301  0.4529 -0.5642  0.4147
  474TMC3    H1 7111   4.403   0.047  14.431  1.8447  0.6204  0.3258
  474TMC3    H2 7112   4.220   0.356  14.667 -0.2511 -0.3619  0.5264
  474TMC3    C7 7113   4.323   0.104  14.666 -0.2391 -1.0141  0.1522
  474TMC3    C8 7114   4.044   0.431  14.482 -0.0345 -0.0193  0.2724
  474TMC3    O1 7115   4.280   4.735  14.629  0.8042  0.6735 -1.2678
  474TMC3    O2 7116   3.934   0.385  14.463  0.3357  0.1466 -0.4916
  475MPD2     C 7117   1.706   2.413  11.050  0.4251  0.7383 -0.0798
  475MPD2    C1 7118   1.707   2.549  11.040  0.4122  0.4358  0.5536
  475MPD2    C2 7119   1.619   2.624  11.110 -0.6466 -0.4954 -0.7003
  475MPD2    C3 7120   1.538   2.565  11.202  0.1383  0.2995  0.4265
  475MPD2    C4 7121   1.548   2.434  11.225  0.6678  0.0085 -0.1176
  475MPD2    C5 7122   1.631   2.354  11.148 -0.8259  0.3519  0.0509
  475MPD2     H 7123   1.608   2.729  11.082 -2.9903 -0.1561  1.4210
  475MPD2    H1 7124   1.499   2.392  11.312  1.1420  0.4881  0.3812
  475MPD2    H2 7125   1.776   2.353  10.993 -1.0505 -0.1436 -0.9562
  475MPD2    H3 7126   1.645   2.248  11.169 -0.1414  0.2032 -1.1715
  475MPD2     N 7127   1.440   2.649  11.265  0.0839 -0.3160 -0.1904
  475MPD2    H5 7128   1.450   2.745  11.235  0.2862 -0.4990 -0.7016
  475MPD2    N1 7129   1.787   2.606  10.935  0.8095 -0.5380  0.4113
  475MPD2    H7 7130   1.842   2.539  10.882  3.2251  0.4747  1.6430
  476TMC3    C1 7131   1.899   2.757  10.803 -0.3684  0.2813  0.4047
  476TMC3    C2 7132   1.890   2.660  10.707  0.2780  0.4621  0.6733
  476TMC3    C3 7133   2.006   2.593  10.669 -0.4197 -0.1990  0.3069
  476TMC3    C4 7134   2.019   2.804  10.839  0.6914  0.2752  0.6607
  476TMC3    C5 7135   2.132   2.754  10.781 -0.1024 -0.1627 -0.0295
  476TMC3    C6 7136   2.131   2.643  10.703  0.1010 -0.3112  0.4749
  476TMC3     C 7137   1.816   2.744  10.922 -0.2205 -0.8085 -0.0322
  476TMC3     O 7138   1.797   2.837  10.998 -0.3716 -0.3887  0.4094
  476TMC3     H 7139   1.799   2.604  10.687 -0.9041  1.9598  1.8802
  476TMC3    H1 7140   2.024   2.881  10.915  0.8473  1.7544 -0.8488
  476TMC3    H2 7141   2.220   2.594  10.664  0.9425  1.9851 -0.4453
  476TMC3    C7 7142   2.267   2.804  10.819 -0.4900 -0.5308 -0.0233
  476TMC3    C8 7143   1.989   2.452  10.684 -0.0313 -0.4304  0.3140
  476TMC3    O1 7144   2.360   2.739  10.784 -0.4228 -0.3001 -0.5241
  476TMC3    O2 7145   1.902   2.423  10.765 -1.0610  0.0920  0.7931
  477MPD2     C 7146   0.250   4.296  12.047 -0.1853 -0.6187  0.2115
  477MPD2    C1 7147   0.185   4.202  11.963 -0.1592 -0.7527 -0.0153
  477MPD2    C2 7148   0.195   4.066  11.997  1.0594  0.0704 -0.1294
  477MPD2    C3 7149   0.238   4.027  12.124 -0.0385 -0.0885  0.0844
  477MPD2    C4 7150   0.302   4.117  12.194  0.6698  0.0469  0.1614
  477MPD2    C5 7151   0.303   4.248  12.165  0.8114  1.0196  0.6178
  477MPD2     H 7152   0.169   3.989  11.925  1.1765 -0.1557  0.0703
  477MPD2    H1 7153   0.340   4.091  12.293  1.3156  0.6760  0.0845
  477MPD2    H2 7154   0.253   4.403  12.031 -1.8798 -0.8340 -1.5884
  477MPD2    H3 7155   0.338   4.318  12.240 -0.7323  2.2826  0.1382
  477MPD2     N 7156   0.212   3.889  12.171 -0.0640  0.0750  0.0362
  477MPD2    H5 7157   0.189   3.821  12.100  0.3591  0.3710 -0.3850
  477MPD2    N1 7158   0.114   4.246  11.850 -0.1673  0.2144 -1.1983
  477MPD2    H7 7159   0.124   4.337  11.806 -0.3824  1.5309  1.4847
  478TMC3    C1 7160   4.674   4.244  11.703 -0.0389 -0.5238 -0.4094
  478TMC3    C2 7161   4.607   4.349  11.752 -0.1392  0.0191 -0.0247
  478TMC3    C3 7162   4.482   4.375  11.702  0.9936  0.3669  0.9211
  478TMC3    C4 7163   4.607   4.155  11.622  0.1839  0.4959 -0.3511
  478TMC3    C5 7164   4.489   4.188  11.573  0.1341  0.3339 -0.4330
  478TMC3    C6 7165   4.428   4.304  11.602 -0.2405  0.2372 -0.6884
  478TMC3     C 7166   0.015   4.170  11.797 -0.2568 -0.1240 -1.0227
  478TMC3     O 7167   4.696   4.073  11.846 -0.1236 -0.0374  0.3551
  478TMC3     H 7168   4.649   4.401  11.837  1.7301 -0.7888 -0.4341
  478TMC3    H1 7169   4.645   4.060  11.585 -1.3438 -1.0602  2.0152
  478TMC3    H2 7170   4.322   4.320  11.584  0.1025  0.7179 -2.2872
  478TMC3    C7 7171   4.411   4.068  11.525  0.2318  0.3181  0.7791
  478TMC3    C8 7172   4.398   4.453  11.796  0.6100 -0.5363  0.0656
  478TMC3    O1 7173   4.460   3.957  11.511 -0.3852  0.0307 -0.5036
  478TMC3    O2 7174   4.432   4.445  11.913  0.9919  0.3139 -0.2329
  479MPD2     C 7175   3.549   1.334  15.310 -0.7746  0.4417  0.1135
  479MPD2    C1 7176   3.527   1.255  15.417 -0.2118  0.0551 -0.1649
  479MPD2    C2 7177   3.609   1.263  15.531  0.1985  0.4435  0.1202
  479MPD2    C3 7178   3.714   1.357  15.532 -0.1757 -0.1924 -0.3033
  479MPD2    C4 7179   3.737   1.422  15.414  0.1038  0.2182 -0.2545
  479MPD2    C5 7180   3.661   1.412  15.306  0.6431  0.1131  0.0601
  479MPD2     H 7181   3.585   1.203  15.618 -1.3514 -1.1959 -1.4434
  479MPD2    H1 7182   3.829   1.480  15.406 -0.6587  1.6501  1.3573
  479MPD2    H2 7183   3.475   1.323  15.231 -1.4356 -2.2851  1.1002
  479MPD2    H3 7184   3.677   1.470  15.216  0.7672 -0.9770 -0.6223
  479MPD2     N 7185   3.800   1.392  15.639 -0.2154 -0.5998 -0.4289
  479MPD2    H5 7186   3.885   1.440  15.608 -1.0571 -0.5983 -2.7386
  479MPD2    N1 7187   3.412   1.180  15.404  0.4192 -0.0058 -0.0708
  479MPD2    H7 7188   3.351   1.203  15.326  0.7660  1.0693 -0.0260
  480TMC3    C1 7189   3.526   1.208  15.981 -0.9346 -0.3995  0.1142
  480TMC3    C2 7190   3.413   1.272  15.946  0.1442 -0.5140 -0.5899
  480TMC3    C3 7191   3.424   1.370  15.853  0.1099 -0.0050 -0.4329
  480TMC3    C4 7192   3.648   1.228  15.919 -0.3109  0.1431  0.0255
  480TMC3    C5 7193   3.652   1.325  15.828 -0.4870 -0.2233  0.1694
  480TMC3    C6 7194   3.547   1.410  15.800  0.2000  0.7033 -0.2813
  480TMC3     C 7195   3.507   1.082  16.049  0.9197  0.2465 -0.8620
  480TMC3     O 7196   3.411   1.019  16.011  0.0206 -0.1741 -0.2230
  480TMC3     H 7197   3.319   1.232  15.981 -0.3207  3.2642  2.3556
  480TMC3    H1 7198   3.738   1.170  15.933 -1.4997 -1.5403  0.7096
  480TMC3    H2 7199   3.575   1.491  15.735  0.8221  0.4037 -0.3858
  480TMC3    C7 7200   3.790   1.349  15.769  0.4699  0.2615  0.3877
  480TMC3    C8 7201   3.314   1.401  15.774  0.3334 -0.4558 -0.0299
  480TMC3    O1 7202   3.879   1.323  15.847  0.3274  0.2863 -0.2055
  480TMC3    O2 7203   3.214   1.342  15.811 -0.3280  0.1589  0.8380
  481MPD2     C 7204   0.748   1.226  14.487 -0.0516 -0.0723 -0.2389
  481MPD2    C1 7205   0.624   1.175  14.521 -0.0969  0.5410  0.4368
  481MPD2    C2 7206   0.590   1.173  14.661  0.4086  0.0449 -0.0059
  481MPD2    C3 7207   0.684   1.204  14.757 -0.0970  0.3115  0.2351
  481MPD2    C4 7208   0.809   1.246  14.720 -0.6814  0.9265  0.4250
  481MPD2    C5 7209   0.836   1.264  14.589  0.0196  0.1949 -0.5380
  481MPD2     H 7210   0.491   1.134  14.683  0.7844 -1.0730 -0.2755
  481MPD2    H1 7211   0.882   1.286  14.790 -0.1188 -0.0609  0.4016
  481MPD2    H2 7212   0.779   1.232  14.384 -1.9827  0.5546 -0.7881
  481MPD2    H3 7213   0.934   1.306  14.570  1.0491 -2.0239 -0.1405
  481MPD2     N 7214   0.660   1.183  14.889  0.3069  0.0100  0.1059
  481MPD2    H5 7215   0.739   1.194  14.951  0.3858 -0.4536  0.0858
  481MPD2    N1 7216   0.539   1.147  14.406 -0.0014  0.3587  0.1524
  481MPD2    H7 7217   0.579   1.136  14.314  0.8348 -2.0941  0.7962
  482TMC3    C1 7218   0.347   1.091  14.274  0.1044  0.6895 -0.4843
  482TMC3    C2 7219   0.256   0.988  14.270  0.1329 -0.1903  0.4892
  482TMC3    C3 7220   0.193   0.973  14.153  0.1242  0.0748  0.5246
  482TMC3    C4 7221   0.367   1.179  14.175 -0.5549  0.2522 -0.9052
  482TMC3    C5 7222   0.290   1.173  14.057 -0.2252  0.1445  0.5090
  482TMC3    C6 7223   0.200   1.069  14.051 -0.2929 -0.5058 -0.2496
  482TMC3     C 7224   0.402   1.108  14.404 -0.5552  0.4430 -0.4663
  482TMC3     O 7225   0.339   1.071  14.503 -0.0133  0.2603  0.5113
  482TMC3     H 7226   0.258   0.915  14.351  0.5319 -0.7238 -0.0018
  482TMC3    H1 7227   0.429   1.262  14.205 -2.1409  0.9204  0.5658
  482TMC3    H2 7228   0.159   1.030  13.959  0.3756 -3.4619  0.7111
  482TMC3    C7 7229   0.278   1.288  13.971  0.7081  0.2818  0.3620
  482TMC3    C8 7230   0.101   0.860  14.149  0.1298 -0.1233 -0.0947
  482TMC3    O1 7231   0.348   1.385  13.998  0.2232 -0.1100 -0.2130
  482TMC3    O2 7232   0.127   0.765  14.219 -0.1209 -0.2546 -0.2044
  483TMC3    C1 7233   2.949   0.060  17.578  0.0140  0.1237  0.4056
  483TMC3    C2 7234   2.994   0.186  17.605 -0.1971 -0.6014  0.0885
  483TMC3    C3 7235   2.959   0.242  17.726  0.4936  0.5148  0.4835
  483TMC3    C4 7236   2.859   4.737  17.653  0.9330  0.3164 -0.2363
  483TMC3    C5 7237   2.811   0.058  17.760  1.0931  0.0663 -0.0876
  483TMC3    C6 7238   2.860   0.178   0.042  0.0068  0.5254  0.4725
  483TMC3     C 7239   3.036   4.713  17.500 -0.4478 -0.4361  0.1268
  483TMC3     O 7240   3.098   0.021  17.404  0.6620 -0.0520 -0.4484
  483TMC3     H 7241   3.068   0.233  17.541 -1.2854  0.6557 -0.2604
  483TMC3    H1 7242   2.816   4.640  17.628 -2.0182  1.3905  0.6282
  483TMC3    H2 7243   2.823   0.229   0.130 -1.1395 -0.0178  0.3103
  483TMC3    C7 7244   2.743   4.716   0.097 -0.6081 -0.3896  0.5816
  483TMC3    C8 7245   3.040   0.357   0.010  0.4735 -0.5925 -0.3637
  483TMC3    O1 7246   2.744   4.592   0.087  0.9479 -0.6257 -0.3752
  483TMC3    O2 7247   3.132   0.394  17.698 -0.1035 -0.0755  0.3837
  484MPD2     C 7248   1.049   2.911  13.280 -0.2875 -0.4505 -0.4471
  484MPD2    C1 7249   0.967   2.916  13.169  0.7223 -0.2808 -0.1376
  484MPD2    C2 7250   1.020   2.917  13.039 -0.8292  0.1995 -0.3595
  484MPD2    C3 7251   1.152   2.931  13.029 -0.1388  0.1330 -0.3148
  484MPD2    C4 7252   1.234   2.954  13.140 -0.6010  0.2289  0.5704
  484MPD2    C5 7253   1.180   2.936  13.263  0.4580  0.2929 -0.1197
  484MPD2     H 7254   0.958   2.901  12.951 -0.1031 -1.1936 -0.6106
  484MPD2    H1 7255   1.340   2.973  13.130 -0.9906  1.8078 -0.6165
  484MPD2    H2 7256   1.015   2.895  13.382 -0.6926  1.1378 -0.3387
  484MPD2    H3 7257   1.239   2.939  13.354 -0.7035  0.1258  0.6504
  484MPD2     N 7258   1.217   2.938  12.897 -0.1618  0.2765  0.2345
  484MPD2    H5 7259   1.318   2.949  12.900 -0.0726 -0.3747 -0.4213
  484MPD2    N1 7260   0.828   2.914  13.194 -0.1034  0.2122 -0.7423
  484MPD2    H7 7261   0.798   2.893  13.289  0.9780 -0.9263 -0.6541
  485TMC3    C1 7262   1.238   2.935  12.656  0.1276 -0.5062  0.1886
  485TMC3    C2 7263   1.320   3.048  12.664  0.4494  0.2789  0.0479
  485TMC3    C3 7264   1.380   3.099  12.552  0.1789  0.9048  0.1056
  485TMC3    C4 7265   1.200   2.883  12.532 -0.2576 -0.6706 -0.3669
  485TMC3    C5 7266   1.254   2.940  12.425  0.2856 -0.1172 -0.0710
  485TMC3    C6 7267   1.353   3.041  12.431  0.1743  0.1812 -0.5222
  485TMC3     C 7268   1.157   2.913  12.776  0.2232  0.1421 -0.3028
  485TMC3     O 7269   1.052   2.855  12.756  0.2973 -0.2866  0.6613
  485TMC3     H 7270   1.345   3.096  12.758 -0.4976 -3.1495  2.0870
  485TMC3    H1 7271   1.131   2.801  12.517 -2.6365  1.2402  0.1629
  485TMC3    H2 7272   1.388   3.096  12.344 -2.9111  1.5056 -0.9512
  485TMC3    C7 7273   1.265   2.857  12.308 -0.7356  0.0631 -0.3826
  485TMC3    C8 7274   1.522   3.119  12.555 -0.3605  0.3331  0.5349
  485TMC3    O1 7275   1.297   2.742  12.339  0.3137 -0.2930 -0.2858
  485TMC3    O2 7276   1.586   3.122  12.450 -0.4072 -0.6685 -0.0517
  486MPD2     C 7277   3.476   1.629  13.120 -0.1615  0.0675 -0.3227
  486MPD2    C1 7278   3.369   1.552  13.094  0.8634  0.1163 -0.9050
  486MPD2    C2 7279   3.242   1.604  13.117 -0.1267  0.0690  0.2340
  486MPD2    C3 7280   3.230   1.733  13.167  0.0001 -0.5831 -0.1305
  486MPD2    C4 7281   3.342   1.814  13.197  0.2275 -0.5521 -0.3845
  486MPD2    C5 7282   3.462   1.758  13.166  0.0217  0.6906  0.4883
  486MPD2     H 7283   3.152   1.559  13.078 -0.9904  2.0399 -0.0364
  486MPD2    H1 7284   3.335   1.916  13.235  1.6448 -0.8744  0.7691
  486MPD2    H2 7285   3.576   1.595  13.097  0.1769  2.5671 -2.4131
  486MPD2    H3 7286   3.542   1.813  13.214 -0.4251  2.7338 -1.0975
  486MPD2     N 7287   3.098   1.778  13.187 -0.2603  0.5259 -0.0970
  486MPD2    H5 7288   3.026   1.718  13.148  0.3432  0.4828 -1.1508
  486MPD2    N1 7289   3.397   1.419  13.048 -0.7834 -0.0766  0.3414
  486MPD2    H7 7290   3.489   1.376  13.054 -1.0081 -0.8217 -1.5030
  487TMC3    C1 7291   3.339   1.203  12.963 -0.2989 -0.2128 -0.2191
  487TMC3    C2 7292   3.243   1.107  12.963 -0.4341 -0.5098  0.0111
  487TMC3    C3 7293   3.273   0.978  12.971 -0.0363  0.5304 -0.6062
  487TMC3    C4 7294   3.473   1.166  12.957 -0.2005 -0.4136 -0.1979
  487TMC3    C5 7295   3.500   1.030  12.933 -0.2325 -0.2795 -0.4097
  487TMC3    C6 7296   3.399   0.935  12.939  0.1366 -0.0340 -0.4004
  487TMC3     C 7297   3.292   1.342  12.996  0.9545  0.0471  0.1174
  487TMC3     O 7298   3.184   1.376  12.951 -0.2757 -0.1529 -0.2437
  487TMC3     H 7299   3.141   1.145  12.959 -0.3611 -0.1543  1.3834
  487TMC3    H1 7300   3.552   1.239  12.944 -0.9001  0.3171 -0.3342
  487TMC3    H2 7301   3.417   0.828  12.936 -0.9461 -0.1846 -1.5063
  487TMC3    C7 7302   3.609   1.001  12.845 -0.2209  0.4052 -0.7700
  487TMC3    C8 7303   3.196   0.913  13.075  0.0157  0.0792 -0.3843
  487TMC3    O1 7304   3.620   1.064  12.743  0.8506 -0.6947 -0.4589
  487TMC3    O2 7305   3.096   0.985  13.099  0.5375  0.1640  0.3834
  488MPD2     C 7306   3.100   3.123  16.434 -0.1814 -0.1251 -0.1038
  488MPD2    C1 7307   3.155   3.200  16.535  0.9125  0.7031  0.2878
  488MPD2    C2 7308   3.166   3.160  16.666  0.4203 -0.7208 -0.2342
  488MPD2    C3 7309   3.118   3.041  16.708  0.1849  0.3557  0.0404
  488MPD2    C4 7310   3.061   2.958  16.612 -0.5605 -0.2329 -0.4985
  488MPD2    C5 7311   3.056   3.008  16.480  0.1563  0.3300  0.9281
  488MPD2     H 7312   3.215   3.224  16.739  0.4666  0.0962 -0.9891
  488MPD2    H1 7313   3.034   2.855  16.631  1.3823 -0.5353  0.5777
  488MPD2    H2 7314   3.087   3.157  16.332  0.6317  2.2655  0.5949
  488MPD2    H3 7315   3.011   2.953  16.398 -0.5118  3.5842 -0.8935
  488MPD2     N 7316   3.144   3.010  16.839  0.2230  0.2129 -0.1066
  488MPD2    H5 7317   3.188   3.081  16.896 -0.9066  1.2838 -0.5808
  488MPD2    N1 7318   3.216   3.327  16.509  0.3539  0.1085  0.3454
  488MPD2    H7 7319   3.268   3.369  16.586  0.6196 -2.8702  1.8227
  489TMC3    C1 7320   3.204   2.883  17.014 -0.1039 -0.0861  0.6048
  489TMC3    C2 7321   3.307   2.972  17.039 -0.6819  0.6261 -0.1401
  489TMC3    C3 7322   3.360   2.989  17.164  0.3374 -0.0989 -0.0334
  489TMC3    C4 7323   3.150   2.807  17.111  0.0941  0.7949  0.1526
  489TMC3    C5 7324   3.194   2.843  17.237 -0.0635 -0.4170  0.2006
  489TMC3    C6 7325   3.295   2.931  17.267  0.4043  0.3038  0.0981
  489TMC3     C 7326   3.124   2.886  16.895 -0.2476 -0.7906 -0.6504
  489TMC3     O 7327   3.072   2.783  16.850 -0.0785  0.6865  0.1529
  489TMC3     H 7328   3.349   3.032  16.959 -2.0351 -1.0432 -2.0853
  489TMC3    H1 7329   3.085   2.724  17.090 -1.3642  1.6021  1.4432
  489TMC3    H2 7330   3.341   2.937  17.365  2.0887  1.6948 -0.7760
  489TMC3    C7 7331   3.134   2.790  17.356 -0.4030 -0.4298 -0.1073
  489TMC3    C8 7332   3.435   3.104  17.189  0.6515  0.2795  0.2399
  489TMC3    O1 7333   3.174   2.836  17.464  0.2057 -0.0006  0.6497
  489TMC3    O2 7334   3.501   3.142  17.095  0.0959 -0.4663  0.1666
  490MPD2     C 7335   3.868   2.275   0.293  0.1668  0.4817  0.5350
  490MPD2    C1 7336   3.962   2.241   0.195 -0.1853  0.1590 -0.6319
  490MPD2    C2 7337   4.079   2.316   0.174  0.7774  0.0572 -0.1858
  490MPD2    C3 7338   4.111   2.424   0.254  0.4995  0.6591  0.4332
  490MPD2    C4 7339   4.023   2.446   0.360 -0.3490  0.0277 -0.4212
  490MPD2    C5 7340   3.910   2.375   0.385  0.4827  0.4057 -0.3802
  490MPD2     H 7341   4.151   2.299   0.094  0.7488  1.5556 -0.5281
  490MPD2    H1 7342   4.048   2.523   0.431  0.1917  3.0481 -3.8853
  490MPD2    H2 7343   3.781   2.211   0.308  0.2726  0.2590  0.2073
  490MPD2    H3 7344   3.851   2.385   0.475 -0.9961  1.8498 -1.5063
  490MPD2     N 7345   4.210   2.517   0.228 -0.6632 -0.0510 -0.3835
  490MPD2    H5 7346   4.240   2.579   0.303 -0.4753 -0.8612  0.2203
  490MPD2    N1 7347   3.933   2.117   0.125 -0.4194  0.0661 -0.2720
  490MPD2    H7 7348   3.848   2.064   0.142 -2.1933  3.0543  0.0074
  491TMC3    C1 7349   3.961   1.945  17.730 -0.8321  0.0288 -0.2338
  491TMC3    C2 7350   3.903   1.857   0.056  0.8103  0.4086  0.2461
  491TMC3    C3 7351   3.834   1.751   0.005 -0.1113  0.3320  0.3022
  491TMC3    C4 7352   3.940   1.937  17.596 -0.2907  0.2448 -0.0630
  491TMC3    C5 7353   3.862   1.834  17.547  0.9049 -0.3802  0.5915
  491TMC3    C6 7354   3.818   1.733  17.629  0.0024 -0.1242  0.8197
  491TMC3     C 7355   4.002   2.076   0.015 -0.0691 -0.1379  0.3793
  491TMC3     O 7356   4.086   2.130  17.708 -0.2646 -0.2936  0.2863
  491TMC3     H 7357   3.929   1.869   0.160 -2.5035  2.7900  0.7973
  491TMC3    H1 7358   3.979   2.016  17.532  0.0559  0.1920  0.0816
  491TMC3    H2 7359   3.739   1.670  17.589  0.1952  0.3745 -0.3257
  491TMC3    C7 7360   3.831   1.835  17.409 -0.5140  0.5405  0.6167
  491TMC3    C8 7361   3.740   1.705   0.098 -0.0574 -0.1483  0.2559
  491TMC3    O1 7362   3.779   1.736  17.363  0.4602 -0.0936 -0.6720
  491TMC3    O2 7363   3.740   1.766   0.209  0.2110  0.4318  0.2013
  492MPD2     C 7364   4.086   2.287  11.383  0.1142 -0.7460  0.2970
  492MPD2    C1 7365   3.948   2.285  11.364  0.3612  0.2660  1.1924
  492MPD2    C2 7366   3.878   2.198  11.440  0.7661 -0.7423  0.3054
  492MPD2    C3 7367   3.937   2.128  11.545 -0.2587 -0.4465  0.1041
  492MPD2    C4 7368   4.075   2.131  11.566 -0.3758 -0.1600  0.5150
  492MPD2    C5 7369   4.141   2.212  11.486 -0.0391  0.2949  0.3496
  492MPD2     H 7370   3.770   2.190  11.430  0.5971  2.1288 -0.3765
  492MPD2    H1 7371   4.124   2.065  11.637  0.3888 -0.2879 -0.1271
  492MPD2    H2 7372   4.151   2.330  11.308  0.8471  1.1047  1.9894
  492MPD2    H3 7373   4.249   2.210  11.494 -0.0737  0.2659  0.8141
  492MPD2     N 7374   3.864   2.051  11.640 -0.1356 -0.1032 -0.5387
  492MPD2    H5 7375   3.922   2.010  11.712 -1.5781 -1.6996 -0.2628
  492MPD2    N1 7376   3.900   2.367  11.263  0.0840  0.2845 -0.4228
  492MPD2    H7 7377   3.970   2.428  11.221 -0.3362  1.9935  1.3475
  493TMC3    C1 7378   3.754   2.469  11.100 -0.5934 -0.1027  0.9251
  493TMC3    C2 7379   3.816   2.591  11.112 -0.4828 -0.4005  0.4448
  493TMC3    C3 7380   3.777   2.684  11.016  0.0517  0.1792  0.1603
  493TMC3    C4 7381   3.673   2.430  11.000  0.4323 -0.2837 -0.3241
  493TMC3    C5 7382   3.631   2.529  10.913  1.0679  1.2516 -0.9941
  493TMC3    C6 7383   3.694   2.656  10.913  0.4921  0.6991  0.2496
  493TMC3     C 7384   3.767   2.377  11.216 -0.6895 -0.2664 -0.2685
  493TMC3     O 7385   3.677   2.319  11.264  0.0452  0.1212  0.1015
  493TMC3     H 7386   3.887   2.611  11.191 -1.5453  1.6751  0.8462
  493TMC3    H1 7387   3.625   2.333  11.008  1.2170 -0.7651 -1.4452
  493TMC3    H2 7388   3.665   2.731  10.841 -3.0786 -1.8464 -0.9759
  493TMC3    C7 7389   3.508   2.514  10.839  0.3381  0.3215 -0.1205
  493TMC3    C8 7390   3.833   2.812  11.023 -0.6813 -0.6904 -0.1815
  493TMC3    O1 7391   3.479   2.577  10.738  0.2230 -0.1720 -0.3794
  493TMC3    O2 7392   3.871   2.840  11.133  0.0357 -0.2325 -0.1669
  494TMC3    C1 7393   4.639   3.988   0.500  0.1981 -0.3219  0.1353
  494TMC3    C2 7394   4.700   3.870   0.511 -0.2423  0.0046  0.0373
  494TMC3    C3 7395   0.055   3.835   0.426  0.2584  0.2442  0.1155
  494TMC3    C4 7396   4.685   4.086   0.415  0.2848  0.6819  0.0521
  494TMC3    C5 7397   0.045   4.052   0.332 -0.2796 -0.3907 -0.3970
  494TMC3    C6 7398   0.100   3.928   0.333  0.4045 -0.0371 -0.7568
  494TMC3     C 7399   4.514   4.017   0.573 -0.6810 -0.7535  0.0816
  494TMC3     O 7400   4.481   4.135   0.581 -0.1556 -0.1828  0.3035
  494TMC3     H 7401   4.695   3.805   0.597  0.3398  0.9474  0.7880
  494TMC3    H1 7402   4.610   4.161   0.394 -2.2507 -1.5514  1.1555
  494TMC3    H2 7403   0.177   3.907   0.259  1.1374  0.2537 -0.0722
  494TMC3    C7 7404   0.088   4.147   0.229  0.3630  0.1300 -0.4686
  494TMC3    C8 7405   0.112   3.702   0.420  0.1029  0.0708 -0.4792
  494TMC3    O1 7406   0.158   4.101   0.140 -0.3927  0.4959  0.0025
  494TMC3    O2 7407   0.036   3.616   0.469  0.1476 -0.1456  0.2832
  495TMC3    C1 7408   3.507   1.751  14.858 -0.1506 -0.3962  0.2004
  495TMC3    C2 7409   3.396   1.762  14.778  1.1298 -0.1143  0.4937
  495TMC3    C3 7410   3.270   1.723  14.821  0.0167 -0.0944  0.7223
  495TMC3    C4 7411   3.497   1.721  14.988 -0.0932 -0.1329  0.7484
  495TMC3    C5 7412   3.369   1.685  15.033 -0.1802 -0.3666 -0.0408
  495TMC3    C6 7413   3.256   1.688  14.951  0.0045 -0.6396  0.1511
  495TMC3     C 7414   3.632   1.799  14.810 -0.0451 -0.0059 -0.0396
  495TMC3     O 7415   3.713   1.836  14.892 -0.8692 -0.1932 -0.0856
  495TMC3     H 7416   3.409   1.811  14.682  0.4177  0.6686  0.7970
  495TMC3    H1 7417   3.583   1.697  15.050  1.6219  1.9811 -0.8470
  495TMC3    H2 7418   3.159   1.649  14.980 -0.0382  0.1791  1.1438
  495TMC3    C7 7419   3.355   1.666  15.176 -0.6988 -0.4573 -0.0954
  495TMC3    C8 7420   3.194   1.637  14.726 -0.0256 -0.6448 -0.6043
  495TMC3    O1 7421   3.452   1.658  15.242  0.0304  0.3033 -0.0647
  495TMC3    O2 7422   3.162   1.524  14.770  0.2439  0.6295 -0.0734
  496MPD2     C 7423   0.702   2.136  15.413 -0.1386 -0.5717 -0.0759
  496MPD2    C1 7424   0.746   2.074  15.527 -0.0651  0.3491  0.7189
  496MPD2    C2 7425   0.655   2.059  15.634 -0.1178  0.1973 -0.5676
  496MPD2    C3 7426   0.527   2.101  15.629  0.2756 -0.4256  0.2005
  496MPD2    C4 7427   0.493   2.185  15.523 -0.6116  0.0841 -0.1005
  496MPD2    C5 7428   0.579   2.194  15.416  0.2152 -0.0271 -0.0735
  496MPD2     H 7429   0.682   2.003  15.723 -1.5226 -0.5935 -0.6427
  496MPD2    H1 7430   0.400   2.238  15.509 -0.7710 -0.0926  0.2832
  496MPD2    H2 7431   0.767   2.144  15.327  0.6097 -0.5059  0.4967
  496MPD2    H3 7432   0.535   2.246  15.332  0.4713  1.3142  0.6229
  496MPD2     N 7433   0.437   2.058  15.728  0.2133 -0.5416  0.8655
  496MPD2    H5 7434   0.472   2.007  15.808  1.5499 -1.3232 -0.1984
  496MPD2    N1 7435   0.876   2.026  15.516  0.1048 -0.3697 -0.1420
  496MPD2    H7 7436   0.932   2.056  15.436 -0.6616  2.0207  0.2266
  497TMC3    C1 7437   0.234   1.954  15.788 -0.2142  0.1085  0.5647
  497TMC3    C2 7438   0.155   1.884  15.704 -0.0551  0.6434  0.5004
  497TMC3    C3 7439   0.112   1.763  15.737 -0.8919 -0.4585  0.4564
  497TMC3    C4 7440   0.294   1.898  15.898 -0.0804 -0.5425 -0.3458
  497TMC3    C5 7441   0.252   1.771  15.929 -0.2623 -0.2163 -0.9970
  497TMC3    C6 7442   0.149   1.711  15.859  0.0178 -0.1324 -0.5051
  497TMC3     C 7443   0.302   2.069  15.721  0.1164  0.0451 -0.0711
  497TMC3     O 7444   0.234   2.158  15.669 -0.2288 -0.1483  0.0092
  497TMC3     H 7445   0.136   1.931  15.608  2.8549  0.5109 -0.1332
  497TMC3    H1 7446   0.367   1.948  15.960 -1.0055 -0.7500  0.8957
  497TMC3    H2 7447   0.122   1.612  15.892 -1.2581  0.2707 -0.3539
  497TMC3    C7 7448   0.310   1.688  16.032  0.4463  0.2558  0.1005
  497TMC3    C8 7449   0.048   1.661  15.650 -0.0222 -0.5973 -0.3334
  497TMC3    O1 7450   0.245   1.591  16.064 -0.3045  0.3305 -0.0949
  497TMC3    O2 7451   4.725   1.569  15.708 -0.2183  0.2724 -0.1801
  498MPD2     C 7452   1.548   2.904  10.774 -0.2590 -0.0822 -0.0607
  498MPD2    C1 7453   1.547   2.784  10.702 -0.1702 -0.0324 -0.1262
  498MPD2    C2 7454   1.450   2.681  10.738 -0.0059  0.2094 -0.5721
  498MPD2    C3 7455   1.378   2.691  10.855 -0.2040  0.4190  0.9322
  498MPD2    C4 7456   1.371   2.809  10.921 -0.5349  0.7925  0.0562
  498MPD2    C5 7457   1.460   2.914  10.881  0.0168 -0.6476  0.6656
  498MPD2     H 7458   1.451   2.580  10.698  0.3628  0.9156 -2.3547
  498MPD2    H1 7459   1.300   2.835  10.999  0.1782  1.1857  0.5831
  498MPD2    H2 7460   1.594   2.995  10.735 -2.0051  0.6346 -0.4415
  498MPD2    H3 7461   1.460   3.013  10.924 -0.7094  0.3311 -1.5872
  498MPD2     N 7462   1.310   2.574  10.906 -0.2225 -0.0931  0.0331
  498MPD2    H5 7463   1.310   2.483  10.862  1.0354 -0.7539  1.3895
  498MPD2    N1 7464   1.618   2.775  10.582  0.2723 -0.7701 -0.1349
  498MPD2    H7 7465   1.599   2.695  10.522  0.0453 -0.7036 -0.1513
  499TMC3    C1 7466   1.699   2.835  10.373  0.0515  0.4187  0.4097
  499TMC3    C2 7467   1.749   2.710  10.355 -0.5720 -1.0352  0.8490
  499TMC3    C3 7468   1.807   2.690  10.234  0.0309  0.2356 -0.2392
  499TMC3    C4 7469   1.686   2.933  10.276  0.3300  1.1872  1.0004
  499TMC3    C5 7470   1.732   2.898  10.156  0.7637 -0.2867 -0.2057
  499TMC3    C6 7471   1.798   2.780  10.133  0.4354 -0.2723 -0.0518
  499TMC3     C 7472   1.679   2.882  10.509  0.1490 -0.2436  0.3173
  499TMC3     O 7473   1.692   3.005  10.528 -0.0506  0.0689 -0.2537
  499TMC3     H 7474   1.771   2.642  10.437  3.9741  0.7018  1.0427
  499TMC3    H1 7475   1.637   3.024  10.306 -0.5683  0.9812  0.1657
  499TMC3    H2 7476   1.847   2.763  10.038  0.3687  0.3220 -0.1897
  499TMC3    C7 7477   1.738   2.997  10.050  0.1350  0.2128  0.5716
  499TMC3    C8 7478   1.878   2.564  10.212  0.2029  0.0565  0.1026
  499TMC3    O1 7479   1.818   2.966   9.964 -0.0787  0.3128 -0.4408
  499TMC3    O2 7480   1.928   2.519  10.314 -0.7919  0.0228  0.1619
  500MPD2     C 7481   3.062   3.033  11.007 -0.8614 -0.3255  0.5012
  500MPD2    C1 7482   3.109   3.107  10.907 -0.2921  0.3456 -0.4526
  500MPD2    C2 7483   3.020   3.138  10.806  0.3132  0.5200  0.5258
  500MPD2    C3 7484   2.895   3.081  10.793  0.1251 -0.3305  0.3512
  500MPD2    C4 7485   2.858   2.994  10.892  0.1817 -0.4717 -0.3080
  500MPD2    C5 7486   2.938   2.974  10.998 -0.4774  0.3090  0.0758
  500MPD2     H 7487   3.051   3.203  10.726  0.4470 -0.7955 -0.4899
  500MPD2    H1 7488   2.768   2.934  10.880 -0.1166 -0.1073  0.0989
  500MPD2    H2 7489   3.119   3.006  11.095 -0.9825 -0.0440  0.6664
  500MPD2    H3 7490   2.911   2.909  11.080 -0.2424  1.0068  0.7024
  500MPD2     N 7491   2.811   3.115  10.686  0.4652  0.5839 -0.4737
  500MPD2    H5 7492   2.725   3.060  10.686  0.7471  0.1484 -0.7776
  500MPD2    N1 7493   3.237   3.164  10.902  0.6941  0.1668 -0.1792
  500MPD2    H7 7494   3.243   3.254  10.856  0.0563  1.2175  1.8241
  501TMC3    C1 7495   3.461   3.183  10.977  0.9114 -0.1637  0.1027
  501TMC3    C2 7496   3.483   3.287  10.882 -0.3401  0.0926  0.2665
  501TMC3    C3 7497   3.589   3.372  10.915 -0.2701 -0.7399 -0.0529
  501TMC3    C4 7498   3.551   3.152  11.078 -0.7267 -0.2730  0.2317
  501TMC3    C5 7499   3.650   3.236  11.102  0.1770  0.6389 -0.6173
  501TMC3    C6 7500   3.670   3.352  11.029  0.1512  0.4608 -0.4657
  501TMC3     C 7501   3.344   3.100  10.973 -0.2386 -0.5455  0.5221
  501TMC3     O 7502   3.354   2.983  11.001  0.0247  0.4847  0.2111
  501TMC3     H 7503   3.426   3.310  10.793  1.6734 -0.4927 -1.1580
  501TMC3    H1 7504   3.529   3.068  11.143  0.0871  0.8930  2.0146
  501TMC3    H2 7505   3.744   3.426  11.057  1.8705 -1.7650  0.8309
  501TMC3    C7 7506   3.713   3.210  11.226 -0.0829 -0.0385 -0.1570
  501TMC3    C8 7507   3.568   3.515  10.897 -0.0371 -0.1868 -0.0117
  501TMC3    O1 7508   3.710   3.093  11.268 -0.4663  0.6268  0.4652
  501TMC3    O2 7509   3.669   3.588  10.910  0.0593 -0.6194  0.2314
  502TMC3    C1 7510   3.199   2.650  15.056  0.7741  0.2498  0.0392
  502TMC3    C2 7511   3.154   2.774  15.078  0.7221 -0.2019  0.1905
  502TMC3    C3 7512   3.020   2.797  15.063  0.0116 -0.1497 -0.0436
  502TMC3    C4 7513   3.115   2.539  15.035  0.0841  0.4508  0.1948
  502TMC3    C5 7514   2.983   2.562  15.045  0.9150  0.0860 -0.0907
  502TMC3    C6 7515   2.932   2.695  15.045  0.6728  0.0889 -0.0029
  502TMC3     C 7516   3.306   2.624  15.150  0.4877 -0.0830 -0.3385
  502TMC3     O 7517   3.393   2.711  15.163 -0.0336  0.1904  0.3982
  502TMC3     H 7518   3.220   2.854  15.109 -1.2611  1.2234  0.6562
  502TMC3    H1 7519   3.160   2.444  15.007  0.1889  1.3040 -2.4401
  502TMC3    H2 7520   2.825   2.708  15.029  0.9796  0.0612 -2.0788
  502TMC3    C7 7521   2.918   2.470  15.133  0.1588 -0.0490  0.3539
  502TMC3    C8 7522   2.990   2.936  15.047  1.0434 -0.1365  0.3610
  502TMC3    O1 7523   2.980   2.367  15.150  0.0988 -0.5578  0.1093
  502TMC3    O2 7524   3.073   3.009  15.000 -0.5135  0.5755  0.1414
  503MPD2     C 7525   0.328   3.335  16.819 -0.4700 -0.4853  0.3645
  503MPD2    C1 7526   0.319   3.379  16.953 -0.3588  0.0231  0.6258
  503MPD2    C2 7527   0.293   3.289  17.055  0.2954 -0.1468 -0.6100
  503MPD2    C3 7528   0.283   3.154  17.037 -0.2219 -0.3151 -0.4237
  503MPD2    C4 7529   0.299   3.108  16.907 -0.4221 -0.9935  0.0392
  503MPD2    C5 7530   0.317   3.200  16.806  0.4887 -0.4560  0.7116
  503MPD2     H 7531   0.275   3.316  17.159 -1.4854 -1.5707 -0.5338
  503MPD2    H1 7532   0.290   3.003  16.879  0.6340 -1.1623  0.3338
  503MPD2    H2 7533   0.350   3.402  16.736 -1.9109 -2.3346 -1.5111
  503MPD2    H3 7534   0.325   3.170  16.702  0.5329  1.1961  0.2325
  503MPD2     N 7535   0.286   3.065  17.140 -0.1367 -0.1996  0.0492
  503MPD2    H5 7536   0.294   3.095  17.237 -0.2825  2.1340 -0.6611
  503MPD2    N1 7537   0.314   3.516  16.984  0.1130  0.1961 -0.0180
  503MPD2    H7 7538   0.319   3.539  17.083 -0.5015  3.9310 -0.8625
  504TMC3    C1 7539   0.282   2.863  17.265 -0.7405 -0.5450  0.1237
  504TMC3    C2 7540   0.212   2.758  17.303  0.3428  0.0066  0.2950
  504TMC3    C3 7541   0.238   2.700  17.425 -0.6186 -0.5666 -0.0751
  504TMC3    C4 7542   0.391   2.907  17.336  0.1662 -0.1434  0.0484
  504TMC3    C5 7543   0.427   2.841  17.455  0.3355 -0.3013  0.5099
  504TMC3    C6 7544   0.351   2.738  17.504 -0.1090 -0.2133 -0.2643
  504TMC3     C 7545   0.256   2.929  17.141 -0.9726  0.1448 -0.4205
  504TMC3     O 7546   0.219   2.848  17.054  0.0380 -0.0496  0.2173
  504TMC3     H 7547   0.139   2.719  17.232  2.3096 -0.1181 -1.6850
  504TMC3    H1 7548   0.460   2.968  17.277 -0.2751 -0.7740 -1.1133
  504TMC3    H2 7549   0.398   2.666  17.570 -0.4124  0.8280  1.0892
  504TMC3    C7 7550   0.572   2.817  17.451  0.1040  0.6167 -0.7133
  504TMC3    C8 7551   0.143   2.612  17.484  0.0522  0.4309  0.0630
  504TMC3    O1 7552   0.638   2.821  17.348 -0.2018  0.3310  0.5289
  504TMC3    O2 7553   0.051   2.565  17.414  0.0801 -0.0689 -0.6527
  505MPD2     C 7554   0.698   1.755  11.148 -0.4201 -0.2509 -0.6721
  505MPD2    C1 7555   0.711   1.631  11.210 -0.0204 -0.3923 -0.6173
  505MPD2    C2 7556   0.713   1.629  11.346  0.2942 -0.4675 -0.6282
  505MPD2    C3 7557   0.688   1.740  11.430 -0.2880  0.4865  0.0626
  505MPD2    C4 7558   0.676   1.865  11.372 -0.4232  0.7890 -0.1668
  505MPD2    C5 7559   0.693   1.866  11.232 -0.3397 -0.4080  0.4216
  505MPD2     H 7560   0.736   1.540  11.403 -4.6542 -1.9290 -0.9037
  505MPD2    H1 7561   0.679   1.960  11.425  0.7294 -0.0746  1.3242
  505MPD2    H2 7562   0.708   1.770  11.042  2.3793 -0.4946 -0.4491
  505MPD2    H3 7563   0.702   1.966  11.191  2.5843 -0.3644  1.1729
  505MPD2     N 7564   0.683   1.726  11.570  0.0700 -0.1968  0.0100
  505MPD2    H5 7565   0.701   1.633  11.606  2.5582  0.6036  0.8458
  505MPD2    N1 7566   0.716   1.522  11.127 -0.4110  0.5522 -0.3933
  505MPD2    H7 7567   0.708   1.541  11.028 -2.2836  2.2144  0.0863
  506TMC3    C1 7568   0.805   1.309  11.058  0.1077  0.3453 -0.0223
  506TMC3    C2 7569   0.869   1.377  10.960  0.7490  0.3427 -0.7507
  506TMC3    C3 7570   1.000   1.341  10.935 -0.0693  0.5964  0.2794
  506TMC3    C4 7571   0.856   1.193  11.111  1.2423  0.0781 -0.8612
  506TMC3    C5 7572   0.986   1.163  11.083 -0.1195  0.4298 -0.1825
  506TMC3    C6 7573   1.059   1.237  10.996 -0.1119  0.2073 -0.2683
  506TMC3     C 7574   0.753   1.396  11.162  0.0255 -0.3968  0.3262
  506TMC3     O 7575   0.746   1.343  11.271 -0.1793 -0.2938 -0.5582
  506TMC3     H 7576   0.826   1.461  10.907  0.8151  0.8864  0.0489
  506TMC3    H1 7577   0.792   1.135  11.176 -0.6604  1.4369 -1.4875
  506TMC3    H2 7578   1.164   1.222  10.972 -0.1790  0.6935 -0.8663
  506TMC3    C7 7579   1.068   1.136  11.202  0.0410 -0.0732 -0.5007
  506TMC3    C8 7580   1.066   1.427  10.843  0.3960 -0.5249  0.3381
  506TMC3    O1 7581   1.171   1.076  11.203  0.0067 -0.2151 -0.2274
  506TMC3    O2 7582   1.128   1.374  10.752  0.2608 -0.6540 -0.3114
  507TMC3    C1 7583   1.739   2.758  15.212 -0.5625  0.7310  0.0910
  507TMC3    C2 7584   1.702   2.644  15.145  0.5711 -0.3164  0.3970
  507TMC3    C3 7585   1.744   2.633  15.017  0.3951 -0.0127 -0.1904
  507TMC3    C4 7586   1.824   2.851  15.161 -0.1325  0.2236 -1.0347
  507TMC3    C5 7587   1.857   2.842  15.031  0.5966 -0.0741 -0.3472
  507TMC3    C6 7588   1.824   2.731  14.959 -0.4122 -0.2539  0.2121
  507TMC3     C 7589   1.657   2.823  15.317  0.1358 -0.0496  0.6368
  507TMC3     O 7590   1.677   2.941  15.339 -0.0422  0.3634  0.3816
  507TMC3     H 7591   1.629   2.574  15.185  0.9362 -0.5506  0.6514
  507TMC3    H1 7592   1.859   2.936  15.220 -0.9629  0.0186 -0.2490
  507TMC3    H2 7593   1.855   2.737  14.856 -1.9299  0.4990 -0.2100
  507TMC3    C7 7594   1.851   2.961  14.945 -0.1495  0.9253  0.4831
  507TMC3    C8 7595   1.635   2.598  14.940 -0.7354 -0.5202 -0.0415
  507TMC3    O1 7596   1.781   2.941  14.845  0.5366 -0.2899 -0.4048
  507TMC3    O2 7597   1.564   2.499  14.968  1.2255 -0.3059 -0.2552
  508MPD2     C 7598   2.364   0.047  16.466 -0.2460  0.5477  0.6373
  508MPD2    C1 7599   2.394   0.162  16.534 -0.0604  0.3785 -0.2730
  508MPD2    C2 7600   2.368   0.287  16.472 -0.7134 -0.2264  0.0604
  508MPD2    C3 7601   2.327   0.286  16.338 -0.0320 -0.2305 -0.7752
  508MPD2    C4 7602   2.308   0.165  16.272  0.1114  0.3471 -0.3973
  508MPD2    C5 7603   2.308   0.050  16.345 -0.3992 -0.1352 -0.3099
  508MPD2     H 7604   2.376   0.375  16.534  0.7856  1.2245 -2.2041
  508MPD2    H1 7605   2.283   0.157  16.167 -1.6003  0.7587 -0.0164
  508MPD2    H2 7606   2.372   4.691  16.514 -0.0766 -0.2456 -0.9852
  508MPD2    H3 7607   2.268   4.709  16.285  1.1023  0.0137 -1.5213
  508MPD2     N 7608   2.311   0.409  16.273 -0.2971  0.1885  0.0649
  508MPD2    H5 7609   2.337   0.494  16.323  1.9011  0.0238 -0.8197
  508MPD2    N1 7610   2.445   0.142  16.662  0.2457 -0.2412 -0.0043
  508MPD2    H7 7611   2.432   0.052  16.706  0.7039 -0.5944 -0.5979
  509TMC3    C1 7612   2.184   0.719  15.939  0.1979  0.5513  0.2402
  509TMC3    C2 7613   2.276   0.810  15.979 -0.7273 -1.1586  0.2227
  509TMC3    C3 7614   2.361   0.782  16.085  0.9204 -0.8657  0.0060
  509TMC3    C4 7615   2.166   0.607  16.023  0.0795  0.5891 -0.1789
  509TMC3    C5 7616   2.259   0.579  16.114  0.5171  0.2432 -0.1650
  509TMC3    C6 7617   2.360   0.658  16.150 -0.4534 -0.1856  0.3818
  509TMC3     C 7618   2.102   0.721  15.821  0.1430  0.1356 -0.1123
  509TMC3     O 7619   2.019   0.632  15.806 -0.2619 -0.1117  0.1371
  509TMC3     H 7620   2.290   0.906  15.930  2.6297 -1.4973  0.5153
  509TMC3    H1 7621   2.088   0.537  15.996  1.5561 -0.2990 -2.1127
  509TMC3    H2 7622   2.443   0.618  16.207 -1.3210 -3.7227 -0.8160
  509TMC3    C7 7623   2.263   0.438  16.148  0.5659  0.3255  0.3298
  509TMC3    C8 7624   2.474   0.875  16.105  0.2445 -0.0989  0.5360
  509TMC3    O1 7625   2.215   0.358  16.067 -0.2273  0.2051 -0.1585
  509TMC3    O2 7626   2.452   0.981  16.055 -0.1425  0.0433  0.1912
  510MPD2     C 7627   0.092   2.441  14.874  0.7169  0.0707  0.0864
  510MPD2    C1 7628   0.087   2.307  14.860 -0.2977 -0.5584 -1.0949
  510MPD2    C2 7629   0.194   2.242  14.799 -0.2704  0.1627 -0.3519
  510MPD2    C3 7630   0.297   2.313  14.748  0.4553 -0.1842  0.4680
  510MPD2    C4 7631   0.305   2.452  14.761 -0.2329  0.0992  0.3549
  510MPD2    C5 7632   0.199   2.515  14.829 -0.3530 -0.4062  0.0590
  510MPD2     H 7633   0.203   2.134  14.799  1.2260  0.3060 -2.6501
  510MPD2    H1 7634   0.384   2.507  14.712 -0.0556 -2.1285 -1.8252
  510MPD2    H2 7635   0.002   2.485  14.914 -0.3005 -2.8807  0.9969
  510MPD2    H3 7636   0.201   2.623  14.839 -1.4213 -0.0483 -3.3170
  510MPD2     N 7637   0.398   2.231  14.697 -0.1793  0.1748  0.4533
  510MPD2    H5 7638   0.401   2.134  14.725  0.8535 -0.2032 -0.9515
  510MPD2    N1 7639   4.713   2.240  14.913 -0.6504  0.0034  0.1863
  510MPD2    H7 7640   4.654   2.295  14.974  0.0899 -0.1004  0.9972
  511TMC3    C1 7641   4.579   2.054  14.995 -0.1050 -0.4436  0.0070
  511TMC3    C2 7642   4.588   2.077  15.128  0.3222  0.1300  0.6816
  511TMC3    C3 7643   4.540   1.980  15.213 -0.0063 -0.6438 -0.0508
  511TMC3    C4 7644   4.526   1.942  14.943 -0.1284  0.2011  0.0938
  511TMC3    C5 7645   4.469   1.851  15.032  0.0748 -0.5992 -0.6226
  511TMC3    C6 7646   4.482   1.863  15.172  0.4355  0.6287 -0.0112
  511TMC3     C 7647   4.692   2.101  14.913 -0.0076 -0.5196  0.3763
  511TMC3     O 7648   0.005   2.026  14.837 -0.1038 -0.2176  0.1689
  511TMC3     H 7649   4.651   2.158  15.163  1.4618 -1.1567  1.6293
  511TMC3    H1 7650   4.513   1.934  14.836 -2.3779  3.0153  0.1468
  511TMC3    H2 7651   4.430   1.794  15.237 -1.7858  0.4358 -1.9909
  511TMC3    C7 7652   4.404   1.735  14.968  0.5421  0.2951 -0.1664
  511TMC3    C8 7653   4.515   2.022  15.349 -0.1056  0.1586  0.5220
  511TMC3    O1 7654   4.386   1.741  14.847  0.2883  0.2792 -0.0511
  511TMC3    O2 7655   4.530   2.140  15.367 -0.1298 -0.3259  0.2837
  512TMC3    C1 7656   3.727   1.386  13.734  0.1012  0.2188  0.8405
  512TMC3    C2 7657   3.835   1.365  13.812 -0.2282  0.3475  0.1308
  512TMC3    C3 7658   3.923   1.265  13.780 -0.3433  0.0255 -0.3766
  512TMC3    C4 7659   3.721   1.330  13.608 -0.3161 -0.4496 -0.3935
  512TMC3    C5 7660   3.818   1.244  13.570 -0.2720  0.3167 -0.0258
  512TMC3    C6 7661   3.923   1.211  13.657  0.2289 -0.2675 -0.0980
  512TMC3     C 7662   3.615   1.468  13.774  0.1704 -0.4244 -0.0211
  512TMC3     O 7663   3.516   1.457  13.707 -0.6080  0.6162  0.2840
  512TMC3     H 7664   3.836   1.405  13.913  0.2938  0.8748 -0.0832
  512TMC3    H1 7665   3.666   1.387  13.534 -0.0695  0.6144  0.2523
  512TMC3    H2 7666   4.010   1.158  13.618 -0.4805 -2.4650  1.2831
  512TMC3    C7 7667   3.841   1.245  13.422  0.4694  0.4202  0.7623
  512TMC3    C8 7668   4.053   1.269  13.835 -0.1076 -1.0921  1.0775
  512TMC3    O1 7669   3.774   1.317  13.347  0.0966 -0.4875 -0.3581
  512TMC3    O2 7670   4.126   1.172  13.818  0.0768  0.5577  0.1524
  513MPD2     C 7671   0.569   0.847  13.752  0.3966  0.4584 -0.0248
  513MPD2    C1 7672   0.591   0.960  13.681  0.3178  0.8217 -0.2460
  513MPD2    C2 7673   0.615   1.079  13.752 -0.0821  0.5638 -0.1118
  513MPD2    C3 7674   0.628   1.084  13.892 -0.4729 -0.5982 -0.2673
  513MPD2    C4 7675   0.623   0.963  13.964 -0.3635 -0.1828 -0.8160
  513MPD2    C5 7676   0.583   0.853  13.890 -0.3185  0.7556 -0.2151
  513MPD2     H 7677   0.637   1.169  13.696  1.4204  1.4173  1.8785
  513MPD2    H1 7678   0.629   0.941  14.070  0.0494  0.0486 -0.7952
  513MPD2    H2 7679   0.546   0.757  13.696 -1.0234  2.1375 -2.1963
  513MPD2    H3 7680   0.567   0.756  13.937  3.1739  1.7007  2.8868
  513MPD2     N 7681   0.680   1.205  13.950 -0.0005 -0.0871 -0.0256
  513MPD2    H5 7682   0.698   1.283  13.887  0.8336 -0.7372 -0.5814
  513MPD2    N1 7683   0.600   0.968  13.538  0.6048  0.2854  0.2052
  513MPD2    H7 7684   0.627   1.061  13.506  1.6911  0.6241  2.0805
  514TMC3    C1 7685   0.626   0.921  13.304 -0.0264  1.0972 -0.1161
  514TMC3    C2 7686   0.600   0.838  13.191 -0.3258 -0.0064 -0.1427
  514TMC3    C3 7687   0.652   0.886  13.066  0.7943  0.0813 -0.2904
  514TMC3    C4 7688   0.708   1.028  13.294  0.5970 -0.3010 -0.1857
  514TMC3    C5 7689   0.757   1.068  13.177  1.1514  0.2850 -0.1758
  514TMC3    C6 7690   0.724   1.004  13.056  0.5349 -0.4986 -0.7553
  514TMC3     C 7691   0.585   0.874  13.438  0.1272  0.7489  0.3691
  514TMC3     O 7692   0.561   0.756  13.458  0.6065 -0.1975  0.6235
  514TMC3     H 7693   0.526   0.759  13.193 -1.5946  1.2022  0.0075
  514TMC3    H1 7694   0.740   1.075  13.386 -1.0597  0.3360  0.0687
  514TMC3    H2 7695   0.763   1.052  12.967  3.3184 -1.1592  0.0777
  514TMC3    C7 7696   0.840   1.182  13.174  0.8992 -0.0996  0.8491
  514TMC3    C8 7697   0.658   0.796  12.953  0.2820 -0.1461  0.0113
  514TMC3    O1 7698   0.933   1.168  13.094  0.0038  0.1582  0.4270
  514TMC3    O2 7699   0.614   0.687  12.981  0.0527  0.3406  0.1903
  515MPD2     C 7700   3.709   3.275  15.320  0.3413 -0.3946 -0.5661
  515MPD2    C1 7701   3.802   3.274  15.213  0.1781  0.2906 -0.3002
  515MPD2    C2 7702   3.917   3.354  15.221 -0.2976 -0.4386 -0.4166
  515MPD2    C3 7703   3.949   3.420  15.338  0.4123 -0.4842 -0.6609
  515MPD2    C4 7704   3.857   3.422  15.442  0.4369 -0.3657 -0.3073
  515MPD2    C5 7705   3.735   3.351  15.431 -1.0193  0.3959  0.1339
  515MPD2     H 7706   3.975   3.352  15.129 -0.1867  0.3185 -0.3649
  515MPD2    H1 7707   3.868   3.480  15.532 -0.1476 -1.0605  0.2101
  515MPD2    H2 7708   3.615   3.221  15.323  0.5656 -0.6083  2.3978
  515MPD2    H3 7709   3.664   3.343  15.513  0.4927 -1.5044  1.2501
  515MPD2     N 7710   4.072   3.477  15.365  0.1678 -0.2095  0.2734
  515MPD2    H5 7711   4.079   3.504  15.462  0.6319  0.7775 -0.0328
  515MPD2    N1 7712   3.785   3.189  15.097  0.2062  0.1907 -0.3136
  515MPD2    H7 7713   3.831   3.200  15.007  0.7865 -0.2664 -0.0696
  516TMC3    C1 7714   3.688   3.018  14.966  0.1608  0.5175  0.1794
  516TMC3    C2 7715   3.677   3.080  14.850 -0.5983  0.3216 -0.5506
  516TMC3    C3 7716   3.656   3.010  14.734  0.3492 -0.2590 -0.0604
  516TMC3    C4 7717   3.688   2.878  14.968  0.0303 -0.0724 -0.3132
  516TMC3    C5 7718   3.661   2.810  14.854  0.5708  0.6924  0.8692
  516TMC3    C6 7719   3.639   2.876  14.732  0.4592  0.1116 -0.0386
  516TMC3     C 7720   3.690   3.096  15.092 -0.1257 -0.1475  0.0261
  516TMC3     O 7721   3.643   3.036  15.188 -0.6347 -0.2519 -0.5676
  516TMC3     H 7722   3.673   3.189  14.847  0.4744  0.3334 -1.2404
  516TMC3    H1 7723   3.698   2.836  15.067  2.6165  1.2854 -0.0038
  516TMC3    H2 7724   3.590   2.826  14.649 -0.8098  1.4539 -0.0964
  516TMC3    C7 7725   3.651   2.669  14.866 -0.0853  0.7927 -0.0369
  516TMC3    C8 7726   3.604   3.082  14.616  0.8323  0.1021  0.0259
  516TMC3    O1 7727   3.682   2.628  14.978 -0.3169  0.2486 -0.5923
  516TMC3    O2 7728   3.568   3.196  14.632 -0.4991 -0.3555 -0.0736
  517MPD2     C 7729   3.387   4.594   0.041  1.0646 -0.5092  0.9032
  517MPD2    C1 7730   3.524   4.619   0.024  1.0647 -0.7293 -0.3544
  517MPD2    C2 7731   3.571   0.005   0.045  0.4545  0.1008 -0.0973
  517MPD2    C3 7732   3.481   0.106   0.084  0.4670 -0.0682  0.8175
  517MPD2    C4 7733   3.347   0.078   0.088 -0.5372  0.6765 -0.1552
  517MPD2    C5 7734   3.300   4.692   0.075 -0.2544  0.1653  0.9744
  517MPD2     H 7735   3.676   0.027   0.027  0.6167 -0.4083  0.2664
  517MPD2    H1 7736   3.278   0.156   0.119 -2.1475 -0.7613 -0.1691
  517MPD2    H2 7737   3.343   4.496   0.024 -2.2581  1.3199 -1.2743
  517MPD2    H3 7738   3.195   4.667   0.088 -0.4782  0.3248 -0.5348
  517MPD2     N 7739   3.527   0.238   0.118 -0.1667  0.1333  0.3866
  517MPD2    H5 7740   3.469   0.299   0.175  3.7165  4.1668  0.0066
  517MPD2    N1 7741   3.620   4.517  17.737  0.2221 -0.5539  0.4643
  517MPD2    H7 7742   3.707   4.560  17.707 -1.1338  0.1744 -2.4680
  518TMC3    C1 7743   3.709   4.316  17.667  0.0390  0.7181  0.3196
  518TMC3    C2 7744   3.675   4.187  17.636  0.1132  0.2425  0.3979
  518TMC3    C3 7745   3.780   4.097  17.625  0.1450 -0.3851  0.5818
  518TMC3    C4 7746   3.837   4.366  17.670 -0.6054  0.0621 -0.3246
  518TMC3    C5 7747   3.932   4.273  17.655  0.1463  0.0658 -0.1130
  518TMC3    C6 7748   3.910   4.138  17.639  0.2698 -0.4109 -0.0011
  518TMC3     C 7749   3.591   4.389  17.715  0.1872 -0.2931 -0.4782
  518TMC3     O 7750   3.493   4.325  17.747  0.7134  0.0222 -0.2782
  518TMC3     H 7751   3.571   4.157  17.626  0.3388 -0.5879  0.5667
  518TMC3    H1 7752   3.864   4.467  17.700  1.7607 -0.4249 -0.8327
  518TMC3    H2 7753   3.996   4.076  17.615  1.0800  0.5982  0.3221
  518TMC3    C7 7754   4.065   4.320  17.687  0.0104  0.4638 -0.4199
  518TMC3    C8 7755   3.756   3.957  17.673 -0.0523 -0.4271  0.1413
  518TMC3    O1 7756   4.077   4.416  17.760 -0.0719 -0.0984 -0.6465
  518TMC3    O2 7757   3.850   3.880  17.667 -0.2244  0.1116 -0.3518
  519MPD2     C 7758   0.591   3.197  14.979  0.7266  0.2973 -0.1975
  519MPD2    C1 7759   0.525   3.199  14.861 -0.4205  0.0359 -0.1288
  519MPD2    C2 7760   0.589   3.166  14.744  0.3510  0.4001  0.0338
  519MPD2    C3 7761   0.721   3.132  14.750 -0.4251  0.2316 -1.6221
  519MPD2    C4 7762   0.786   3.128  14.875 -0.2510  0.3897 -0.1626
  519MPD2    C5 7763   0.723   3.168  14.991 -0.8362  0.2808 -0.4620
  519MPD2     H 7764   0.530   3.156  14.654  0.0423  0.6455  0.2109
  519MPD2    H1 7765   0.889   3.096  14.884  0.1264  1.0079 -2.2789
  519MPD2    H2 7766   0.527   3.230  15.060  1.2371  1.3871 -0.2275
  519MPD2    H3 7767   0.764   3.163  15.091  0.6214 -0.0137 -1.0652
  519MPD2     N 7768   0.791   3.092  14.640 -0.2817 -0.9332 -0.1726
  519MPD2    H5 7769   0.883   3.049  14.643  0.1588 -0.0235 -0.4272
  519MPD2    N1 7770   0.390   3.237  14.868 -0.1122  0.1618 -0.4764
  519MPD2    H7 7771   0.354   3.244  14.963  2.5493  1.6342  0.4073
  520TMC3    C1 7772   0.837   3.047  14.407  0.2200 -0.0217  0.3430
  520TMC3    C2 7773   0.793   3.063  14.277  0.3608  0.2391  0.1322
  520TMC3    C3 7774   0.858   2.996  14.173  0.4327 -0.2343 -0.9354
  520TMC3    C4 7775   0.928   2.941  14.441 -0.6813  0.6037  1.0238
  520TMC3    C5 7776   0.984   2.873  14.328 -0.2538 -0.1125 -0.2311
  520TMC3    C6 7777   0.957   2.905  14.194  0.7507  0.1361  0.3163
  520TMC3     C 7778   0.749   3.104  14.511 -0.1012 -0.4137  0.6257
  520TMC3     O 7779   0.647   3.168  14.467 -0.3115 -0.0532  0.2520
  520TMC3     H 7780   0.719   3.139  14.256 -0.0871 -0.1748  0.2119
  520TMC3    H1 7781   0.956   2.927  14.545  0.6734  1.1587  0.7245
  520TMC3    H2 7782   1.012   2.864  14.110 -0.0604 -0.8880  0.2909
  520TMC3    C7 7783   1.038   2.742  14.359 -0.1386 -0.3271  0.0238
  520TMC3    C8 7784   0.789   3.007  14.043  0.6367 -0.0153 -0.5270
  520TMC3    O1 7785   1.010   2.701  14.474 -0.0430 -0.5275 -0.3304
  520TMC3    O2 7786   0.850   2.960  13.947 -0.0945  0.3146 -0.3960
  521MPD2     C 7787   1.422   0.735   0.361  0.0962  0.6989  0.4422
  521MPD2    C1 7788   1.394   0.647   0.257  0.4956  0.2328  0.4162
  521MPD2    C2 7789   1.511   0.612   0.187  0.1774  0.0377  0.6123
  521MPD2    C3 7790   1.639   0.647   0.226 -0.6719 -0.1509  0.3515
  521MPD2    C4 7791   1.658   0.722   0.332  0.2204 -0.4132  0.1145
  521MPD2    C5 7792   1.548   0.778   0.394 -0.4448 -0.8166 -0.0312
  521MPD2     H 7793   1.502   0.558   0.093  1.1456 -0.3940  0.7618
  521MPD2    H1 7794   1.754   0.750   0.373  0.5950 -0.9810 -0.3842
  521MPD2    H2 7795   1.344   0.779   0.422 -1.2440  0.6560 -1.2426
  521MPD2    H3 7796   1.563   0.853   0.471  4.4143 -0.9089 -0.9214
  521MPD2     N 7797   1.741   0.607   0.142  0.2308 -0.0671 -0.6759
  521MPD2    H5 7798   1.713   0.574   0.050 -1.0688 -2.1204  0.4649
  521MPD2    N1 7799   1.260   0.599   0.246 -0.2533  0.5084  0.1766
  521MPD2    H7 7800   1.195   0.638   0.313  0.3624 -1.1935  1.7760
  522TMC3    C1 7801   1.972   0.576   0.084 -0.2574 -0.1262  0.3010
  522TMC3    C2 7802   2.067   0.489   0.115  0.7114 -0.2813  0.5630
  522TMC3    C3 7803   2.181   0.505   0.046 -0.1654  0.2911  0.2415
  522TMC3    C4 7804   1.975   0.669  17.748 -0.4609 -0.2606  0.1329
  522TMC3    C5 7805   2.089   0.679  17.668 -0.0654 -0.5741 -0.5998
  522TMC3    C6 7806   2.200   0.596  17.701 -1.0716  0.0563  0.3582
  522TMC3     C 7807   1.875   0.599   0.181 -0.5721  0.2267  0.4623
  522TMC3     O 7808   1.916   0.584   0.296  0.0054 -0.0171  0.8306
  522TMC3     H 7809   2.043   0.395   0.164  0.3931 -0.7459 -0.4893
  522TMC3    H1 7810   1.884   0.728  17.741  0.3069  1.0796  1.4757
  522TMC3    H2 7811   2.289   0.604  17.640 -0.3095  0.6005  1.5589
  522TMC3    C7 7812   2.105   0.791  17.573  0.0134  0.0200 -0.8077
  522TMC3    C8 7813   2.257   0.384   0.038 -0.6516 -0.0718  0.0404
  522TMC3    O1 7814   2.220   0.831  17.550  0.6580 -0.6131 -0.0206
  522TMC3    O2 7815   2.251   0.314   0.138 -0.0496  0.0141  0.5723
  523MPD2     C 7816   3.536   0.700  10.050 -0.4414 -0.0375  0.6300
  523MPD2    C1 7817   3.487   0.573  10.037 -0.5803  0.1052  0.1609
  523MPD2    C2 7818   3.430   0.528   9.915  0.0687  0.0186 -0.6416
  523MPD2    C3 7819   3.386   0.627   9.821  0.1377 -0.3504  0.8899
  523MPD2    C4 7820   3.420   0.762   9.842 -0.8213 -0.0845 -0.8561
  523MPD2    C5 7821   3.502   0.794   9.952 -0.0528  0.6180 -0.7453
  523MPD2     H 7822   3.399   0.424   9.909  0.7985 -0.3155  1.1917
  523MPD2    H1 7823   3.391   0.844   9.777  0.1431 -0.2365 -1.4826
  523MPD2    H2 7824   3.572   0.739  10.146 -0.6545  0.2386  0.5974
  523MPD2    H3 7825   3.515   0.899   9.975  0.6133  0.2709  0.4951
  523MPD2     N 7826   3.290   0.606   9.720 -0.2046  0.2648 -0.5243
  523MPD2    H5 7827   3.261   0.691   9.672 -1.0256  0.7391  0.7976
  523MPD2    N1 7828   3.502   0.490  10.151  0.2066  0.2220  0.1098
  523MPD2    H7 7829   3.544   0.536  10.231 -0.4378  0.4972  0.2835
  524TMC3    C1 7830   3.132   0.530   9.569  0.3290  0.2551  0.2065
  524TMC3    C2 7831   3.089   0.435   9.483 -0.1838 -0.1418 -0.1490
  524TMC3    C3 7832   2.965   0.445   9.428 -0.3640 -0.0390 -0.0898
  524TMC3    C4 7833   3.048   0.634   9.608  0.0173 -0.7302  0.0119
  524TMC3    C5 7834   2.918   0.626   9.568 -0.3752  0.6173 -0.1171
  524TMC3    C6 7835   2.873   0.533   9.473  0.4337 -0.2258 -0.3941
  524TMC3     C 7836   3.240   0.492   9.660  0.6437 -0.1246 -0.2423
  524TMC3     O 7837   3.291   0.382   9.649  0.0328  0.0816 -0.2429
  524TMC3     H 7838   3.154   0.359   9.441 -0.0219 -1.2049  2.0134
  524TMC3    H1 7839   3.070   0.711   9.681 -0.1921 -0.2060 -0.4755
  524TMC3    H2 7840   2.771   0.533   9.438  1.5307 -1.8373 -3.5865
  524TMC3    C7 7841   2.826   0.724   9.635  0.1831  0.2008  0.7742
  524TMC3    C8 7842   2.935   0.358   9.314 -0.2885  0.3959 -0.7184
  524TMC3    O1 7843   2.869   0.785   9.732 -0.2216  0.3322 -0.4005
  524TMC3    O2 7844   2.860   0.400   9.224 -0.5191 -0.1699 -0.3008
  525MPD2     C 7845   1.813   2.405  14.734 -0.7904 -0.0030 -0.2709
  525MPD2    C1 7846   1.940   2.398  14.793 -0.2526  0.3969  0.7610
  525MPD2    C2 7847   2.034   2.486  14.757  0.1187 -0.2709  0.6452
  525MPD2    C3 7848   2.004   2.593  14.675 -0.0324 -0.5449 -0.2053
  525MPD2    C4 7849   1.875   2.600  14.623 -0.5775  0.1273  0.0029
  525MPD2    C5 7850   1.776   2.515  14.656 -0.0039 -0.2866 -0.2975
  525MPD2     H 7851   2.135   2.476  14.797  0.1716 -1.1337  0.2858
  525MPD2    H1 7852   1.853   2.679  14.552  1.1072  0.0637 -0.5961
  525MPD2    H2 7853   1.738   2.328  14.750 -2.1196  0.8805 -2.2554
  525MPD2    H3 7854   1.675   2.526  14.617 -0.4819  2.1198  1.6447
  525MPD2     N 7855   2.095   2.692  14.639  0.9179  0.2278 -0.7607
  525MPD2    H5 7856   2.054   2.767  14.584  1.4207 -0.8669 -2.6410
  525MPD2    N1 7857   1.974   2.294  14.884  0.4093  0.6855  0.5076
  525MPD2    H7 7858   2.073   2.284  14.904  0.0833 -0.4654  1.5677
  526TMC3    C1 7859   1.930   2.102  15.014 -1.0125 -0.1672 -0.5875
  526TMC3    C2 7860   1.863   2.059  15.123 -0.4539 -0.8133  0.1267
  526TMC3    C3 7861   1.928   1.957  15.192 -0.2510  0.3409 -0.4516
  526TMC3    C4 7862   2.045   2.051  14.960 -0.1635  0.4610  0.0808
  526TMC3    C5 7863   2.100   1.949  15.029 -1.0399  0.8572 -0.0055
  526TMC3    C6 7864   2.044   1.904  15.144  0.0169  0.1528 -0.7158
  526TMC3     C 7865   1.882   2.224  14.948  0.2051  0.1055 -0.8218
  526TMC3     O 7866   1.764   2.253  14.966 -0.1066  0.1328 -0.0847
  526TMC3     H 7867   1.770   2.108  15.149  0.0851 -0.1562  0.8111
  526TMC3    H1 7868   2.077   2.086  14.863 -1.8231 -0.9818 -0.9927
  526TMC3    H2 7869   2.085   1.814  15.189 -0.8231 -0.5070 -1.2497
  526TMC3    C7 7870   2.224   1.882  14.979 -0.4455  0.3484 -0.2406
  526TMC3    C8 7871   1.916   1.966  15.333  0.6779 -0.2978 -0.0094
  526TMC3    O1 7872   2.269   1.786  15.043 -0.3215 -0.3394 -0.0600
  526TMC3    O2 7873   2.016   1.945  15.398 -0.0852  0.0459  0.3790
  527MPD2     C 7874   4.181   0.067   1.738  0.8474  0.5471 -0.3026
  527MPD2    C1 7875   4.116   0.039   1.612 -0.3598 -0.3146 -0.2557
  527MPD2    C2 7876   4.199   0.030   1.501 -0.0127  0.5939 -0.4943
  527MPD2    C3 7877   4.336   0.033   1.506 -0.0171  0.0913  0.2290
  527MPD2    C4 7878   4.389   0.068   1.631 -0.8198  0.8658  0.8426
  527MPD2    C5 7879   4.316   0.081   1.745 -0.1433  0.3713  0.5095
  527MPD2     H 7880   4.153   0.008   1.405 -1.7686  0.5683  0.3393
  527MPD2    H1 7881   4.496   0.076   1.647 -0.5732 -0.6530 -0.1352
  527MPD2    H2 7882   4.132   0.082   1.834 -1.0963  0.7755 -1.3223
  527MPD2    H3 7883   4.379   0.115   1.827 -0.9627  3.5504 -0.1764
  527MPD2     N 7884   4.417   4.740   1.397 -0.7884  0.1479 -0.6872
  527MPD2    H5 7885   4.378   4.737   1.303  0.5735  2.7295 -1.3388
  527MPD2    N1 7886   3.979   0.019   1.596 -0.3167 -0.1935 -0.2482
  527MPD2    H7 7887   3.951   0.006   1.499 -0.6198  0.4637 -0.2478
  528TMC3    C1 7888   3.761   4.688   1.629 -0.7039 -0.2707  0.4651
  528TMC3    C2 7889   3.745   4.673   1.496 -0.2338  0.3518 -0.1642
  528TMC3    C3 7890   3.659   4.576   1.454  0.0596 -0.3714 -1.0595
  528TMC3    C4 7891   3.690   4.614   1.722 -0.1676  0.1823  0.3845
  528TMC3    C5 7892   3.609   4.506   1.676 -0.1208  0.1432  0.4415
  528TMC3    C6 7893   3.595   4.488   1.542 -0.4326  0.2277 -0.0905
  528TMC3     C 7894   3.879   0.014   1.688 -0.1300 -0.4145 -0.2085
  528TMC3     O 7895   3.881   0.015   1.812 -0.1840 -0.0763  0.4397
  528TMC3     H 7896   3.801   4.736   1.428 -1.0526  2.3862  1.0548
  528TMC3    H1 7897   3.713   4.619   1.827 -0.2930  0.4500  0.3987
  528TMC3    H2 7898   3.517   4.420   1.509 -1.7053  1.8542 -0.4543
  528TMC3    C7 7899   3.554   4.423   1.773  0.3331  0.2546  0.9627
  528TMC3    C8 7900   3.636   4.586   1.309 -0.0258  0.5670 -0.1666
  528TMC3    O1 7901   3.620   4.416   1.879 -0.3534 -0.4861 -0.2014
  528TMC3    O2 7902   3.695   4.677   1.261 -0.2621 -0.6110 -0.3656
  529MPD2     C 7903   1.563   3.253   1.110  0.2458  0.6151 -0.4586
  529MPD2    C1 7904   1.703   3.286   1.099 -0.4930 -0.1413 -0.0458
  529MPD2    C2 7905   1.732   3.402   1.023 -0.2368  0.1457  0.5174
  529MPD2    C3 7906   1.631   3.487   0.974 -0.4029 -0.5043  0.7782
  529MPD2    C4 7907   1.499   3.456   0.999 -0.7235  0.1909  0.0405
  529MPD2    C5 7908   1.463   3.337   1.058 -0.0092 -0.3388 -0.2999
  529MPD2     H 7909   1.838   3.420   1.018 -0.1376 -0.4871  0.4388
  529MPD2    H1 7910   1.422   3.525   0.967 -1.2583 -0.3765  0.0995
  529MPD2    H2 7911   1.534   3.158   1.154 -1.4466  0.7266 -1.3562
  529MPD2    H3 7912   1.361   3.304   1.074 -0.0657  0.1455  0.3422
  529MPD2     N 7913   1.648   3.603   0.890 -0.3275 -0.3470 -0.4831
  529MPD2    H5 7914   1.562   3.650   0.863 -1.6099 -1.6629  1.2232
  529MPD2    N1 7915   1.806   3.195   1.135  0.6742  0.0111  0.3984
  529MPD2    H7 7916   1.900   3.225   1.112  1.0852 -0.7408  1.1008
  530TMC3    C1 7917   1.927   3.028   1.259 -0.1057 -0.3874 -0.0778
  530TMC3    C2 7918   2.038   3.110   1.287 -0.3293  0.5352 -0.2062
  530TMC3    C3 7919   2.164   3.052   1.309  0.0106 -0.3805  0.0864
  530TMC3    C4 7920   1.931   2.892   1.278 -0.1238  0.1757  0.0893
  530TMC3    C5 7921   2.057   2.840   1.304  0.4234  0.6738 -0.7768
  530TMC3    C6 7922   2.172   2.916   1.308 -0.1962 -0.3004 -0.3751
  530TMC3     C 7923   1.796   3.085   1.211 -0.2279 -0.3015  0.1276
  530TMC3     O 7924   1.695   3.016   1.232  0.7385 -0.2860  0.3478
  530TMC3     H 7925   2.018   3.216   1.284 -1.4645  0.3614  1.1483
  530TMC3    H1 7926   1.843   2.830   1.280  0.3720 -0.4958  1.1079
  530TMC3    H2 7927   2.261   2.861   1.337  0.5973  1.7364  1.0358
  530TMC3    C7 7928   2.062   2.696   1.336 -0.0002 -0.0909  0.8598
  530TMC3    C8 7929   2.277   3.135   1.348  1.2378  0.0688  0.1423
  530TMC3    O1 7930   2.156   2.638   1.287 -0.1629  0.0285 -0.2489
  530TMC3    O2 7931   2.247   3.245   1.394 -0.3139 -0.5699 -0.6985
  531MPD2     C 7932   1.131   1.461  13.505 -0.3697  0.7562  0.2050
  531MPD2    C1 7933   1.012   1.425  13.566 -0.3488  0.3517  0.8646
  531MPD2    C2 7934   0.923   1.352  13.497  0.4012  0.5079 -0.5180
  531MPD2    C3 7935   0.942   1.323  13.361  0.4473  0.7127 -0.1269
  531MPD2    C4 7936   1.064   1.349  13.297  0.0198  0.2576  0.2075
  531MPD2    C5 7937   1.154   1.418  13.376 -0.2342  0.1499 -0.0155
  531MPD2     H 7938   0.832   1.318  13.545  1.7782  0.7858  2.2665
  531MPD2    H1 7939   1.089   1.310  13.199  0.3216 -3.7583  1.8628
  531MPD2    H2 7940   1.209   1.512  13.560  0.3176  0.5086 -0.5359
  531MPD2    H3 7941   1.254   1.426  13.335 -0.1952 -0.5800 -0.0761
  531MPD2     N 7942   0.840   1.246  13.295  0.1002  0.2175  0.3931
  531MPD2    H5 7943   0.759   1.229  13.353 -0.6997  1.4327 -0.3466
  531MPD2    N1 7944   1.005   1.456  13.704 -1.2872  0.0542 -0.7153
  531MPD2    H7 7945   1.091   1.496  13.739 -1.9096  0.8595 -0.1127
  532TMC3    C1 7946   0.907   1.457  13.926  0.2352 -0.1145 -0.3823
  532TMC3    C2 7947   0.793   1.422  13.987  0.0811  0.2293  0.2667
  532TMC3    C3 7948   0.787   1.352  14.102 -0.2423  0.8188 -0.1906
  532TMC3    C4 7949   1.027   1.420  13.989  0.1414  0.1449  0.3116
  532TMC3    C5 7950   1.021   1.359  14.108  0.0385 -0.4024  0.9331
  532TMC3    C6 7951   0.905   1.332  14.172  0.0322 -0.4837 -0.4353
  532TMC3     C 7952   0.891   1.442  13.784  0.6521  0.0758 -0.1161
  532TMC3     O 7953   0.779   1.399  13.756 -0.0592 -0.3841  0.4107
  532TMC3     H 7954   0.697   1.461  13.955 -0.7695 -1.6842  0.4636
  532TMC3    H1 7955   1.117   1.468  13.951  0.5757  0.5177  1.8131
  532TMC3    H2 7956   0.898   1.255  14.248 -1.3117  0.9098  0.8811
  532TMC3    C7 7957   1.142   1.287  14.151 -0.2560 -0.1124 -0.2045
  532TMC3    C8 7958   0.708   1.232  14.082 -0.2412 -0.6564 -0.2074
  532TMC3    O1 7959   1.157   1.273  14.272 -0.2886  0.2250  0.0642
  532TMC3    O2 7960   0.683   1.157  14.177 -0.5360 -0.2034 -0.1557
  533TMC3    C1 7961   2.271   2.845  14.662 -0.4933 -0.0533  0.2368
  533TMC3    C2 7962   2.403   2.855  14.681 -0.3968 -0.4973 -0.0722
  533TMC3    C3 7963   2.463   2.963  14.740  0.8577  0.1285  0.1528
  533TMC3    C4 7964   2.185   2.929  14.730  1.5288 -0.9274 -0.5459
  533TMC3    C5 7965   2.250   3.026  14.806  0.5156 -0.4258  0.4745
  533TMC3    C6 7966   2.381   3.059  14.794  0.5622  0.3445 -0.3091
  533TMC3     C 7967   2.228   2.705  14.680  0.1961  0.1085 -0.4139
  533TMC3     O 7968   2.307   2.621  14.719 -0.2442  0.1634 -0.4477
  533TMC3     H 7969   2.471   2.791  14.625  1.5860  0.4783  1.2274
  533TMC3    H1 7970   2.077   2.925  14.730  1.5373 -1.1231 -1.6986
  533TMC3    H2 7971   2.429   3.141  14.846  0.6221  0.3061 -0.3037
  533TMC3    C7 7972   2.214   2.993  14.940  0.8271  0.4696 -0.0575
  533TMC3    C8 7973   2.574   3.014  14.663  0.4678  0.3717 -0.1249
  533TMC3    O1 7974   2.158   2.886  14.953  0.2848 -0.1173 -0.1982
  533TMC3    O2 7975   2.568   3.135  14.630 -0.5943  0.0585  0.2486
  534MPD2     C 7976   3.236   3.669   1.890  0.0334  0.3079 -0.8466
  534MPD2    C1 7977   3.333   3.705   1.802 -0.4463  0.5083 -0.9326
  534MPD2    C2 7978   3.311   3.691   1.663  0.0174  0.7805 -0.5515
  534MPD2    C3 7979   3.182   3.666   1.619 -0.5480  0.0243  0.2019
  534MPD2    C4 7980   3.081   3.627   1.708  0.8287  0.0694  0.9585
  534MPD2    C5 7981   3.118   3.625   1.841  0.4878  0.2149 -0.1681
  534MPD2     H 7982   3.387   3.711   1.589 -0.9976 -2.9411 -2.5862
  534MPD2    H1 7983   2.979   3.614   1.675  1.0008  1.5813 -0.1738
  534MPD2    H2 7984   3.246   3.677   1.998  1.2717 -2.6734 -0.7431
  534MPD2    H3 7985   3.044   3.607   1.918  0.0653 -0.3403 -0.7106
  534MPD2     N 7986   3.152   3.643   1.480 -0.5698 -0.0141 -0.5215
  534MPD2    H5 7987   3.066   3.592   1.464 -2.6379  3.0479  0.8788
  534MPD2    N1 7988   3.454   3.760   1.835  0.3106 -0.6537  0.4418
  534MPD2    H7 7989   3.517   3.785   1.759 -0.4539 -0.2093 -0.0484
  535TMC3    C1 7990   3.171   3.629   1.250  0.0390 -0.2939 -0.3423
  535TMC3    C2 7991   3.059   3.688   1.212  0.6315  0.0439  0.4953
  535TMC3    C3 7992   3.039   3.713   1.078 -0.3046 -0.0670 -0.1377
  535TMC3    C4 7993   3.265   3.594   1.160 -0.5132  0.4194  0.6395
  535TMC3    C5 7994   3.253   3.636   1.034  0.5486 -0.3994 -0.6298
  535TMC3    C6 7995   3.136   3.691   0.987  0.2154  0.1304  0.2421
  535TMC3     C 7996   3.229   3.672   1.371  0.1194 -0.6386  0.2416
  535TMC3     O 7997   3.348   3.710   1.363  0.6479 -0.4989  0.3572
  535TMC3     H 7998   2.999   3.740   1.287  0.5420 -0.1677  0.5692
  535TMC3    H1 7999   3.360   3.558   1.198  0.6392  1.7908 -0.9102
  535TMC3    H2 8000   3.131   3.722   0.883 -2.6476 -0.3541  0.2429
  535TMC3    C7 8001   3.383   3.655   0.972 -0.1991  0.1211 -0.0956
  535TMC3    C8 8002   2.905   3.737   1.020  0.5894  0.1635 -0.0199
  535TMC3    O1 8003   3.470   3.572   0.995  0.2011 -0.2870  0.2731
  535TMC3    O2 8004   2.893   3.751   0.899 -0.0095  0.3688  0.2182
  536MPD2     C 8005   3.638   2.018  16.298 -0.2264 -0.0697 -0.0343
  536MPD2    C1 8006   3.532   1.931  16.313  1.0626  0.4735  0.8762
  536MPD2    C2 8007   3.427   1.943  16.225  0.1581 -0.3339  0.2201
  536MPD2    C3 8008   3.423   2.047  16.129 -0.5135 -0.0062 -0.0940
  536MPD2    C4 8009   3.536   2.121  16.112  0.1614  0.8178  0.4274
  536MPD2    C5 8010   3.642   2.111  16.198 -0.5915  0.4805  0.3196
  536MPD2     H 8011   3.345   1.872  16.224 -0.1843  0.0638  0.1200
  536MPD2    H1 8012   3.548   2.188  16.027 -0.6028 -0.7911 -0.9344
  536MPD2    H2 8013   3.719   2.011  16.369 -0.6105 -1.4585  0.2691
  536MPD2    H3 8014   3.721   2.184  16.183 -0.0272 -0.1241  0.3485
  536MPD2     N 8015   3.322   2.069  16.035 -0.1198 -0.1145 -0.1687
  536MPD2    H5 8016   3.336   2.141  15.964 -2.0929 -1.4578 -1.9189
  536MPD2    N1 8017   3.532   1.842  16.426  0.7019  0.5483 -0.0847
  536MPD2    H7 8018   3.614   1.852  16.485  0.9317 -2.7328  0.1493
  537TMC3    C1 8019   3.470   1.674  16.580  0.0436 -0.2903 -0.5354
  537TMC3    C2 8020   3.548   1.739  16.675  0.1948 -0.6214  0.4640
  537TMC3    C3 8021   3.538   1.681  16.804 -0.1717 -0.5182 -0.1125
  537TMC3    C4 8022   3.400   1.558  16.598  0.6644  0.0138 -1.1930
  537TMC3    C5 8023   3.388   1.508  16.726  0.7578  0.5257  1.0705
  537TMC3    C6 8024   3.448   1.574  16.830  0.1646  0.2733 -0.1735
  537TMC3     C 8025   3.439   1.744  16.459  0.1125  0.7665  0.9268
  537TMC3     O 8026   3.323   1.733  16.412 -0.0773  0.3398 -0.2174
  537TMC3     H 8027   3.597   1.833  16.655  0.4814 -0.5980  1.2612
  537TMC3    H1 8028   3.346   1.530  16.508 -2.6048  1.5038  0.2836
  537TMC3    H2 8029   3.437   1.537  16.931  1.4826 -0.4992 -0.3237
  537TMC3    C7 8030   3.295   1.387  16.740 -0.6986 -0.0736  0.4322
  537TMC3    C8 8031   3.603   1.735  16.925 -0.4456 -0.2349 -0.0722
  537TMC3    O1 8032   3.242   1.335  16.640  0.4685 -0.1621  0.1210
  537TMC3    O2 8033   3.635   1.655  17.012 -0.5227 -0.9562 -0.7113
  538TMC3    C1 8034   4.222   0.651  11.505 -0.2858  0.0610 -0.4375
  538TMC3    C2 8035   4.328   0.569  11.492 -0.2043 -0.1083  0.3351
  538TMC3    C3 8036   4.371   0.559  11.363 -0.6101  0.3534  0.5205
  538TMC3    C4 8037   4.156   0.719  11.409 -0.2133 -0.3003 -0.4576
  538TMC3    C5 8038   4.202   0.698  11.281  0.0743 -0.2976  0.6720
  538TMC3    C6 8039   4.316   0.631  11.261  0.2966  0.1404 -0.4886
  538TMC3     C 8040   4.193   0.699  11.638  0.2913 -0.2003  0.1331
  538TMC3     O 8041   4.087   0.746  11.659 -0.0177  0.1459 -0.0038
  538TMC3     H 8042   4.372   0.506  11.568 -1.7941 -0.8790  0.6247
  538TMC3    H1 8043   4.072   0.786  11.423 -0.1933 -0.1437 -1.0592
  538TMC3    H2 8044   4.346   0.607  11.159  2.2235  0.6425 -0.0470
  538TMC3    C7 8045   4.121   0.749  11.169  0.4000  0.6389  0.1107
  538TMC3    C8 8046   4.480   0.471  11.329  0.0040  0.1236 -0.0972
  538TMC3    O1 8047   4.009   0.783  11.207 -0.4800  0.4728  0.0696
  538TMC3    O2 8048   4.492   0.377  11.407  0.0443  0.1637  0.1134
  539MPD2     C 8049   4.156   4.582  11.918  0.3275 -0.1028  0.2998
  539MPD2    C1 8050   4.199   4.599  11.787  0.8508 -0.3188  0.5651
  539MPD2    C2 8051   4.141   4.702  11.709 -0.5725  0.3942 -0.0215
  539MPD2    C3 8052   4.044   0.043  11.759 -0.2807  0.9009  0.4652
  539MPD2    C4 8053   3.999   0.022  11.893 -0.4102  0.8359  0.5465
  539MPD2    C5 8054   4.048   4.652  11.962  0.1010 -1.0223 -0.1683
  539MPD2     H 8055   4.186   4.717  11.612 -1.7044 -0.1866 -0.6357
  539MPD2    H1 8056   3.923   0.088  11.934 -0.9409 -0.6888  2.0034
  539MPD2    H2 8057   4.205   4.506  11.977 -0.2782  0.0541  1.0112
  539MPD2    H3 8058   4.010   4.642  12.063  0.9671  0.8765  0.3465
  539MPD2     N 8059   4.002   0.162  11.700  0.3257 -0.1667  0.1585
  539MPD2    H5 8060   3.940   0.223  11.752 -0.3562 -0.5780 -0.1723
  539MPD2    N1 8061   4.305   4.526  11.731  0.0651  0.5954 -0.0089
  539MPD2    H7 8062   4.317   4.541  11.631  2.4547  0.6837  0.3106
  540TMC3    C1 8063   3.985   0.344  11.547 -0.1177 -0.6158 -0.0577
  540TMC3    C2 8064   3.934   0.348  11.420 -0.0927 -0.0964  0.0362
  540TMC3    C3 8065   3.837   0.446  11.393 -0.4551  0.8647  0.4655
  540TMC3    C4 8066   3.944   0.422  11.645 -0.1930  0.0841  0.2779
  540TMC3    C5 8067   3.839   0.511  11.618 -0.6577 -0.3705  0.0254
  540TMC3    C6 8068   3.791   0.526  11.491  0.5946  0.3173  0.1110
  540TMC3     C 8069   4.043   0.215  11.584 -0.0863 -0.8844  0.6386
  540TMC3     O 8070   4.105   0.163  11.493 -0.0152  0.6443  0.5044
  540TMC3     H 8071   3.972   0.273  11.351  0.5548 -0.1758  0.4787
  540TMC3    H1 8072   3.980   0.416  11.747 -1.0942  1.0917  0.6477
  540TMC3    H2 8073   3.698   0.579  11.472 -0.1330 -0.4791  1.4489
  540TMC3    C7 8074   3.759   0.571  11.718 -0.0745  0.1940 -0.5481
  540TMC3    C8 8075   3.743   0.425  11.285 -0.2879  0.1948  0.5275
  540TMC3    O1 8076   3.641   0.588  11.693  0.1540 -0.4378  0.3677
  540TMC3    O2 8077   3.687   0.522  11.239  0.1632  0.8221 -0.2136
  541MPD2     C 8078   2.688   1.543  13.565  0.2145  0.1767 -0.3215
  541MPD2    C1 8079   2.738   1.425  13.507  0.4122 -0.4856  0.5921
  541MPD2    C2 8080   2.715   1.404  13.375 -0.5473 -0.2748  0.6753
  541MPD2    C3 8081   2.652   1.496  13.290  0.1542  0.1227  0.1772
  541MPD2    C4 8082   2.614   1.619  13.351  0.2649 -0.1191 -0.0243
  541MPD2    C5 8083   2.632   1.638  13.484  0.2885 -0.3497  0.0192
  541MPD2     H 8084   2.746   1.310  13.330 -0.0044  0.6990 -0.9890
  541MPD2    H1 8085   2.575   1.704  13.296  1.3195  0.2689 -0.1742
  541MPD2    H2 8086   2.696   1.575  13.668 -1.4408  1.7930 -0.7100
  541MPD2    H3 8087   2.604   1.732  13.529 -2.4968 -0.5110 -1.4226
  541MPD2     N 8088   2.614   1.466  13.152  0.4904 -0.0106 -0.0766
  541MPD2    H5 8089   2.652   1.385  13.105  0.2392  0.0101 -0.3175
  541MPD2    N1 8090   2.794   1.321  13.580  0.0182  0.1029 -0.0492
  541MPD2    H7 8091   2.816   1.240  13.523  1.5806  0.8182 -0.4359
  542TMC3    C1 8092   2.495   1.523  12.939 -0.7544  0.4074 -0.4383
  542TMC3    C2 8093   2.588   1.470  12.857  0.2712  0.2963 -0.3627
  542TMC3    C3 8094   2.607   1.519  12.732  0.0690  0.5728  0.6217
  542TMC3    C4 8095   2.409   1.614  12.890  0.6935  0.7660  0.0801
  542TMC3    C5 8096   2.427   1.651  12.758  0.6000  0.5924 -0.1767
  542TMC3    C6 8097   2.523   1.607  12.677 -0.0745 -0.0202  0.0904
  542TMC3     C 8098   2.513   1.536  13.087  0.7757 -0.7155  0.0382
  542TMC3     O 8099   2.439   1.614  13.144 -0.6233  0.1073 -0.4186
  542TMC3     H 8100   2.663   1.402  12.896  2.1078  2.4852 -0.0849
  542TMC3    H1 8101   2.323   1.633  12.954  1.1918  2.5577  0.2237
  542TMC3    H2 8102   2.542   1.653  12.580 -1.6263 -2.2008 -1.2349
  542TMC3    C7 8103   2.339   1.763  12.720 -1.0512  0.5532  0.2452
  542TMC3    C8 8104   2.665   1.431  12.635  0.4032  0.0462 -0.5817
  542TMC3    O1 8105   2.339   1.789  12.600 -0.1596 -0.5088 -0.2518
  542TMC3    O2 8106   2.612   1.442  12.527  0.2382  0.0646 -0.4970
  543TMC3    C1 8107   2.039   2.785  17.427  0.7671  0.0014  0.1377
  543TMC3    C2 8108   1.984   2.703  17.528  0.1179 -0.5583  0.7084
  543TMC3    C3 8109   1.986   2.752  17.661 -0.6917  0.4414 -0.3420
  543TMC3    C4 8110   2.112   2.891  17.455 -0.2595  0.0832  0.6612
  543TMC3    C5 8111   2.117   2.932  17.585 -0.2367 -0.3400  0.0373
  543TMC3    C6 8112   2.056   2.871  17.692  0.3508  0.2787 -0.3753
  543TMC3     C 8113   2.034   2.735  17.289 -0.5938  0.1851  0.0605
  543TMC3     O 8114   2.074   2.623  17.265 -0.1949  0.3089 -0.0312
  543TMC3     H 8115   1.908   2.629  17.505 -1.5286  2.1154 -2.5392
  543TMC3    H1 8116   2.178   2.934  17.381 -0.0500 -1.3621  0.0210
  543TMC3    H2 8117   2.069   2.904   0.033 -1.2400  0.0145 -0.0939
  543TMC3    C7 8118   2.207   3.039  17.621  0.9822  0.1582 -0.4080
  543TMC3    C8 8119   1.907   2.697   0.009  0.3136 -0.1918 -0.5875
  543TMC3    O1 8120   2.185   3.108  17.718 -0.6900  0.4263 -0.1044
  543TMC3    O2 8121   1.879   2.780   0.091 -0.3259  0.0130  0.6778
  544MPD2     C 8122   1.650   2.325   0.239  0.4271 -0.5705 -0.6794
  544MPD2    C1 8123   1.721   2.270   0.136  0.6779 -0.0218 -0.0258
  544MPD2    C2 8124   1.795   2.355   0.060  0.7193  0.0917  0.6487
  544MPD2    C3 8125   1.806   2.485   0.095 -0.6404 -0.3236  0.7984
  544MPD2    C4 8126   1.758   2.535   0.210  0.5643 -0.6877  0.5493
  544MPD2    C5 8127   1.680   2.448   0.285  0.1766 -0.1799  0.4127
  544MPD2     H 8128   1.836   2.327  17.725 -4.9873  0.9424 -1.9896
  544MPD2    H1 8129   1.763   2.641   0.233  2.3975 -0.4003 -1.1826
  544MPD2    H2 8130   1.574   2.271   0.295  0.9211 -1.0152 -0.4314
  544MPD2    H3 8131   1.630   2.480   0.376 -0.6944 -1.5375  0.4162
  544MPD2     N 8132   1.881   2.560  17.761 -0.2727  0.1508 -0.1537
  544MPD2    H5 8133   1.933   2.508  17.690 -2.2731 -1.4557 -0.4258
  544MPD2    N1 8134   1.677   2.139   0.089  0.0489  0.1421  0.3843
  544MPD2    H7 8135   1.587   2.100   0.116 -0.8400  1.9305  0.0249
  545TMC3    C1 8136   1.688   1.958  17.708  0.0068 -0.0239  0.3858
  545TMC3    C2 8137   1.582   1.994  17.627 -0.3725 -0.2503  0.3288
  545TMC3    C3 8138   1.540   1.909  17.537 -0.1323  0.1140 -0.0424
  545TMC3    C4 8139   1.758   1.839  17.689  0.0842 -0.3720  0.2113
  545TMC3    C5 8140   1.713   1.755  17.591  0.4123  0.3681  0.1467
  545TMC3    C6 8141   1.603   1.784  17.513  0.2303  0.1899 -0.3138
  545TMC3     C 8142   1.765   2.056   0.019 -0.1665  1.0146  0.6418
  545TMC3     O 8143   1.886   2.060   0.013  0.0356  0.5347 -0.2339
  545TMC3     H 8144   1.541   2.094  17.638  1.2932  0.6146 -1.2248
  545TMC3    H1 8145   1.849   1.815  17.742 -1.0782 -1.9065  1.4867
  545TMC3    H2 8146   1.570   1.716  17.436  1.0580  0.6366 -1.0687
  545TMC3    C7 8147   1.784   1.637  17.549 -0.3807 -0.5545 -0.1112
  545TMC3    C8 8148   1.448   1.950  17.439  0.0808  0.0151  0.2642
  545TMC3    O1 8149   1.731   1.556  17.476 -0.5757  0.1526  0.0653
  545TMC3    O2 8150   1.443   1.882  17.336 -0.0159  0.5088 -0.5225
  546MPD2     C 8151   3.564   2.644  17.142  0.6199 -0.1017 -0.0086
  546MPD2    C1 8152   3.506   2.626  17.266 -0.9788 -0.3677 -0.1301
  546MPD2    C2 8153   3.544   2.718  17.369  0.0671 -0.0610 -0.4674
  546MPD2    C3 8154   3.654   2.796  17.349 -0.0393 -0.1520 -0.2426
  546MPD2    C4 8155   3.715   2.798  17.224  0.5763 -0.4428 -0.1359
  546MPD2    C5 8156   3.671   2.727  17.117  0.1977  0.2072  0.4387
  546MPD2     H 8157   3.500   2.715  17.468  0.4728 -2.8600 -0.3716
  546MPD2    H1 8158   3.804   2.858  17.211 -0.6119  1.5194  0.7892
  546MPD2    H2 8159   3.538   2.571  17.067  0.5048 -1.0485  0.9537
  546MPD2    H3 8160   3.712   2.732  17.016  1.0490  0.1020  0.7812
  546MPD2     N 8161   3.707   2.887  17.446  0.0984  0.6915 -0.4590
  546MPD2    H5 8162   3.794   2.925  17.411  2.0003 -0.4411  3.1030
  546MPD2    N1 8163   3.406   2.529  17.284  0.5351 -0.4878  0.0734
  546MPD2    H7 8164   3.388   2.463  17.209 -1.4174 -0.7347  0.7569
  547TMC3    C1 8165   3.229   2.415  17.365 -0.6006  0.6740  0.9977
  547TMC3    C2 8166   3.178   2.421  17.231 -0.4158 -0.5364 -0.1135
  547TMC3    C3 8167   3.107   2.317  17.181  0.0790 -0.3309  0.2301
  547TMC3    C4 8168   3.201   2.306  17.442  0.0573  0.0035 -0.0742
  547TMC3    C5 8169   3.142   2.196  17.383 -0.5439  1.0538 -0.5281
  547TMC3    C6 8170   3.099   2.205  17.259 -0.5032  0.8483  0.2065
  547TMC3     C 8171   3.333   2.505  17.397 -0.4567 -0.3929  0.8130
  547TMC3     O 8172   3.337   2.559  17.502  0.2319  0.2114 -0.0446
  547TMC3     H 8173   3.177   2.512  17.172 -0.1079 -0.1055  0.5478
  547TMC3    H1 8174   3.226   2.321  17.547  1.6000  2.1118 -0.7346
  547TMC3    H2 8175   3.054   2.124  17.204  1.0599  0.8774 -1.1011
  547TMC3    C7 8176   3.044   2.141  17.478  0.5739  0.1340 -0.6683
  547TMC3    C8 8177   2.983   2.352  17.123 -0.2478  0.3431 -0.2031
  547TMC3    O1 8178   3.030   2.206  17.582  0.5109 -0.0894  0.1317
  547TMC3    O2 8179   2.981   2.437  17.037 -0.2318  1.0371  0.4279
  548MPD2     C 8180   3.262   3.051  12.783 -0.6356 -0.4269  0.2267
  548MPD2    C1 8181   3.192   2.946  12.839  0.3942 -1.0170 -0.0038
  548MPD2    C2 8182   3.255   2.823  12.835 -0.3570 -0.5116 -0.1462
  548MPD2    C3 8183   3.377   2.815  12.761 -0.7324  0.7965  0.3697
  548MPD2    C4 8184   3.444   2.923  12.709  0.4126  0.4017 -0.0739
  548MPD2    C5 8185   3.387   3.048  12.725 -0.4013  0.4955  0.7621
  548MPD2     H 8186   3.203   2.734  12.867  1.9323 -0.7266  2.9732
  548MPD2    H1 8187   3.542   2.932  12.664  1.1341 -1.6397  1.1262
  548MPD2    H2 8188   3.224   3.149  12.812 -0.3486 -0.1608 -0.2943
  548MPD2    H3 8189   3.442   3.133  12.687 -0.3684 -0.8935 -2.3267
  548MPD2     N 8190   3.421   2.678  12.741  0.6386 -0.2729 -0.0390
  548MPD2    H5 8191   3.362   2.603  12.775  0.4579  0.6807  1.7112
  548MPD2    N1 8192   3.063   2.978  12.889 -0.5694  0.0848 -0.1585
  548MPD2    H7 8193   3.040   3.076  12.900  2.5892  0.7384  0.6254
  549TMC3    C1 8194   2.849   2.934  12.969 -0.7465  0.2930  0.6341
  549TMC3    C2 8195   2.792   3.027  12.884  1.0590  0.7376 -0.0395
  549TMC3    C3 8196   2.659   3.052  12.889 -0.5478 -0.4245  0.1269
  549TMC3    C4 8197   2.763   2.854  13.047 -0.4492 -0.2083 -0.4999
  549TMC3    C5 8198   2.632   2.885  13.041  0.0477 -0.3599 -0.7876
  549TMC3    C6 8199   2.574   2.980  12.965  0.1009 -0.2489  0.2784
  549TMC3     C 8200   2.976   2.879  12.937  0.2301  0.0068  0.2724
  549TMC3     O 8201   2.984   2.758  12.948  0.1506  0.0064  0.3943
  549TMC3     H 8202   2.848   3.062  12.798 -0.5382  0.1996 -1.3253
  549TMC3    H1 8203   2.809   2.775  13.105  0.6112  0.5716 -0.2806
  549TMC3    H2 8204   2.469   3.009  12.970 -0.3546 -2.0092  0.8098
  549TMC3    C7 8205   2.542   2.804  13.121  0.0105  0.3226 -0.6736
  549TMC3    C8 8206   2.610   3.177  12.826 -0.2073 -0.3214  0.2994
  549TMC3    O1 8207   2.433   2.851  13.149  0.2097 -0.4456 -0.2359
  549TMC3    O2 8208   2.495   3.179  12.784  0.4177 -0.6820  0.6024
  550TMC3    C1 8209   1.527   1.553  13.045 -0.0190 -0.6405  0.6010
  550TMC3    C2 8210   1.500   1.683  13.080  0.0783 -0.1733 -0.4007
  550TMC3    C3 8211   1.455   1.769  12.984  0.9408 -0.1917 -1.2663
  550TMC3    C4 8212   1.512   1.507  12.912  0.4115  0.2270  0.6333
  550TMC3    C5 8213   1.457   1.595  12.818 -0.3734 -0.0436 -0.0185
  550TMC3    C6 8214   1.423   1.724  12.856 -0.6730  0.0925  0.6052
  550TMC3     C 8215   1.611   1.474  13.141  0.1012 -0.3304 -0.3161
  550TMC3     O 8216   1.617   1.497  13.261  0.1897 -0.0431 -0.3449
  550TMC3     H 8217   1.517   1.704  13.185 -0.0562 -0.6177 -0.2903
  550TMC3    H1 8218   1.524   1.403  12.886  1.7899  0.1469  1.5544
  550TMC3    H2 8219   1.374   1.794  12.791  1.0262  1.2314  0.5633
  550TMC3    C7 8220   1.421   1.546  12.684 -0.3528  0.3807  0.9759
  550TMC3    C8 8221   1.429   1.901  13.020  0.2142 -0.0093 -0.4709
  550TMC3    O1 8222   1.398   1.426  12.672  0.1891  0.2619 -0.2829
  550TMC3    O2 8223   1.368   1.971  12.940  0.0110 -0.0190 -0.0637
  551TMC3    C1 8224   4.480   3.666  13.686 -0.4503  0.4796 -0.0432
  551TMC3    C2 8225   4.601   3.601  13.684 -0.4490  0.2971  0.0729
  551TMC3    C3 8226   4.687   3.616  13.795  0.0349 -0.3486  0.4621
  551TMC3    C4 8227   4.454   3.752  13.794 -0.2840 -0.0265 -0.4734
  551TMC3    C5 8228   4.540   3.759  13.899 -0.6844 -0.4662 -0.3980
  551TMC3    C6 8229   4.650   3.688  13.902  0.6836  0.2664  0.3404
  551TMC3     C 8230   4.380   3.656  13.585  0.6585 -0.2983  0.3604
  551TMC3     O 8231   4.280   3.730  13.588  1.2968  0.0159 -0.3692
  551TMC3     H 8232   4.639   3.546  13.599  0.4739  0.8633  0.1233
  551TMC3    H1 8233   4.361   3.807  13.787  0.2986  0.8100 -1.5982
  551TMC3    H2 8234   4.708   3.682  13.993 -0.4233  0.3042  1.0377
  551TMC3    C7 8235   4.500   3.845  14.012  0.0737  0.5601  0.3351
  551TMC3    C8 8236   0.091   3.605  13.763 -0.2068  0.0926 -0.2011
  551TMC3    O1 8237   4.544   3.805  14.117 -0.2678  0.3781 -0.3206
  551TMC3    O2 8238   0.124   3.513  13.688 -0.2011 -0.5271 -0.2303
  552MPD2     C 8239   0.990   0.966  14.572 -0.0165 -0.6074 -0.2761
  552MPD2    C1 8240   1.112   0.938  14.516 -0.6887  0.2328  0.3872
  552MPD2    C2 8241   1.217   0.898  14.592  0.0108  0.6916  0.5992
  552MPD2    C3 8242   1.206   0.899  14.737 -0.3112  0.5683 -0.0919
  552MPD2    C4 8243   1.083   0.921  14.792  0.0014  0.0230 -0.2601
  552MPD2    C5 8244   0.974   0.949  14.707 -0.0368 -0.1687  0.2163
  552MPD2     H 8245   1.308   0.861  14.548 -0.8775 -2.0039  1.0474
  552MPD2    H1 8246   1.060   0.908  14.897  1.4013 -0.1318  0.0179
  552MPD2    H2 8247   0.900   0.994  14.519 -0.9156 -3.0207 -0.0175
  552MPD2    H3 8248   0.881   0.965  14.761 -0.8599 -0.2979 -1.1803
  552MPD2     N 8249   1.313   0.869  14.826  0.6628  0.0324  0.1411
  552MPD2    H5 8250   1.285   0.841  14.919 -0.1996 -4.2015 -1.4115
  552MPD2    N1 8251   1.133   0.928  14.379 -0.1278 -0.1981  0.1217
  552MPD2    H7 8252   1.222   0.886  14.358  1.5800  2.0536  2.8406
  553TMC3    C1 8253   1.090   0.936  14.143  0.5936  0.1341  0.2280
  553TMC3    C2 8254   0.994   0.955  14.043  0.4790 -0.1659  0.1003
  553TMC3    C3 8255   1.015   0.902  13.917 -0.9084  0.0563 -0.8805
  553TMC3    C4 8256   1.211   0.877  14.120 -1.1620 -1.0190 -0.4394
  553TMC3    C5 8257   1.227   0.826  13.993 -0.7768  0.0706 -0.4674
  553TMC3    C6 8258   1.130   0.834  13.902 -0.1867 -0.3143  0.1532
  553TMC3     C 8259   1.043   0.953  14.280  0.1109 -0.5160  0.4807
  553TMC3     O 8260   0.935   1.013  14.297 -0.2754  0.0177 -0.2506
  553TMC3     H 8261   0.913   1.026  14.055 -0.3350 -1.5833  2.9938
  553TMC3    H1 8262   1.282   0.862  14.201  0.5202 -3.2689 -2.3539
  553TMC3    H2 8263   1.153   0.822  13.797  0.6883 -0.2442  0.3415
  553TMC3    C7 8264   1.353   0.767  13.954  0.0730 -0.1064 -0.6627
  553TMC3    C8 8265   0.998   1.003  13.808  0.1529  0.1382 -0.1931
  553TMC3    O1 8266   1.360   0.722  13.840  0.0199  0.0489 -0.1565
  553TMC3    O2 8267   1.072   1.101  13.832  0.5765  0.0637 -0.6333
  554TMC3    C1 8268   3.445   0.112  11.542  0.6016 -0.5012 -0.1976
  554TMC3    C2 8269   3.331   0.046  11.537 -0.6382  0.9467  0.4560
  554TMC3    C3 8270   3.229   0.096  11.453 -0.0050  0.2256  0.5822
  554TMC3    C4 8271   3.459   0.236  11.483 -0.3785  0.0192 -0.2873
  554TMC3    C5 8272   3.352   0.282  11.407  0.4953  0.2624  0.4245
  554TMC3    C6 8273   3.236   0.212  11.380  0.0561 -0.5979  0.7493
  554TMC3     C 8274   3.563   0.047  11.603  0.7571  0.3503 -0.6170
  554TMC3     O 8275   3.659   0.111  11.633 -0.2039 -0.1591  0.5603
  554TMC3     H 8276   3.317   4.690  11.584 -1.0565  1.8842  2.2548
  554TMC3    H1 8277   3.547   0.298  11.495 -0.0881 -0.6314  0.8991
  554TMC3    H2 8278   3.160   0.252  11.314  1.1132  1.3282  0.6803
  554TMC3    C7 8279   3.358   0.405  11.330  0.1740  0.3162  0.0817
  554TMC3    C8 8280   3.114   0.009  11.433 -0.0317 -0.7682 -0.2916
  554TMC3    O1 8281   3.301   0.400  11.220  0.8274  0.0273  0.3294
  554TMC3    O2 8282   3.093   4.663  11.512 -0.7071  0.3943 -0.4922
  555TMC3    C1 8283   2.588   4.310  15.091  0.5545 -0.7632 -0.2636
  555TMC3    C2 8284   2.542   4.417  15.169 -0.1676  0.2637 -0.2806
  555TMC3    C3 8285   2.499   4.387  15.296  0.2496  0.3181 -0.5920
  555TMC3    C4 8286   2.620   4.187  15.143 -1.1036  0.3670  0.1136
  555TMC3    C5 8287   2.583   4.170  15.274  0.1384  0.3781 -0.4326
  555TMC3    C6 8288   2.517   4.266  15.347  0.4157  0.1009  0.0883
  555TMC3     C 8289   2.647   4.349  14.967 -0.5794 -0.2055 -0.0157
  555TMC3     O 8290   2.741   4.283  14.933 -0.5328  0.1689 -0.0403
  555TMC3     H 8291   2.540   4.520  15.136  0.6626  0.3302 -0.1115
  555TMC3    H1 8292   2.664   4.115  15.075 -1.2378  3.5137 -3.2586
  555TMC3    H2 8293   2.503   4.246  15.453  2.0855 -0.4874  0.1862
  555TMC3    C7 8294   2.595   4.038  15.331 -0.6159 -0.4053 -0.0097
  555TMC3    C8 8295   2.457   4.495  15.378 -0.3762  0.3476 -0.6032
  555TMC3    O1 8296   2.518   4.007  15.424  0.2472  0.1412  0.2254
  555TMC3    O2 8297   2.454   4.607  15.325  0.3347  0.6601  0.1330
  556MPD2     C 8298   0.510   1.201  10.722 -0.0583  0.2701  0.4638
  556MPD2    C1 8299   0.419   1.143  10.806  0.0669 -0.1344 -0.4434
  556MPD2    C2 8300   0.363   1.025  10.763 -0.7206  0.4992 -0.6591
  556MPD2    C3 8301   0.398   0.958  10.649  0.4183  0.0021  0.4593
  556MPD2    C4 8302   0.489   1.020  10.563  0.0256  0.2145  0.7112
  556MPD2    C5 8303   0.539   1.138  10.602 -0.3758 -0.8228  0.9889
  556MPD2     H 8304   0.300   0.967  10.831  0.1061 -0.0597 -0.3694
  556MPD2    H1 8305   0.518   0.977  10.468 -1.8810 -0.7554  0.5887
  556MPD2    H2 8306   0.558   1.293  10.755 -1.8326  2.0631 -1.9012
  556MPD2    H3 8307   0.611   1.175  10.531 -0.3858 -0.7744  1.0037
  556MPD2     N 8308   0.337   0.836  10.623  0.0560 -0.1914  0.2959
  556MPD2    H5 8309   0.279   0.798  10.696  0.8409 -1.4880  0.2406
  556MPD2    N1 8310   0.374   1.199  10.928  0.6297 -0.1947  0.4314
  556MPD2    H7 8311   0.300   1.146  10.973 -0.1034  0.3870 -0.0648
  557TMC3    C1 8312   0.301   0.630  10.509  0.8120 -0.9536  0.0412
  557TMC3    C2 8313   0.280   0.576  10.388 -0.5805  0.1245  0.3937
  557TMC3    C3 8314   0.223   0.449  10.388 -0.2469  0.3841 -0.3792
  557TMC3    C4 8315   0.249   0.577  10.623 -0.6278  0.0985 -0.7186
  557TMC3    C5 8316   0.182   0.455  10.613  0.6271  0.0547  0.4246
  557TMC3    C6 8317   0.171   0.383  10.497  0.3976 -0.1302 -0.1331
  557TMC3     C 8318   0.366   0.758  10.510 -0.1480 -0.2699 -0.4181
  557TMC3     O 8319   0.449   0.776  10.423  0.4478 -0.1559 -0.0601
  557TMC3     H 8320   0.330   0.613  10.299  0.6640 -0.5075  0.8207
  557TMC3    H1 8321   0.250   0.620  10.722  1.2287 -2.4721  0.3908
  557TMC3    H2 8322   0.142   0.278  10.491  1.4563 -0.4838  0.8175
  557TMC3    C7 8323   0.151   0.375  10.740  0.2352  0.2117  1.3683
  557TMC3    C8 8324   0.222   0.375  10.260 -0.1367 -0.6360 -0.5534
  557TMC3    O1 8325   0.158   0.253  10.728  0.3418  0.1566 -0.5023
  557TMC3    O2 8326   0.298   0.417  10.176 -0.2160  0.1388  0.4805
  558TMC3    C1 8327   2.717   3.212  10.505 -0.6530 -0.3717 -0.4120
  558TMC3    C2 8328   2.594   3.223  10.556 -0.1265 -0.3902  0.2642
  558TMC3    C3 8329   2.486   3.244  10.473  0.4512 -0.3407 -0.2822
  558TMC3    C4 8330   2.734   3.225  10.370  0.4461  0.5190 -0.6800
  558TMC3    C5 8331   2.625   3.242  10.288 -0.3793  0.4897 -0.0874
  558TMC3    C6 8332   2.499   3.254  10.339  0.6878 -0.8826 -0.3960
  558TMC3     C 8333   2.834   3.211  10.589  0.7616 -0.5499 -0.5445
  558TMC3     O 8334   2.934   3.254  10.548 -0.0200  0.1427 -0.0485
  558TMC3     H 8335   2.581   3.202  10.661  1.3430  2.0880  0.9559
  558TMC3    H1 8336   2.834   3.218  10.331  0.3663 -2.8363 -0.3236
  558TMC3    H2 8337   2.419   3.292  10.276  1.4391  0.6994 -0.3940
  558TMC3    C7 8338   2.651   3.282  10.146  0.0938  0.7889 -0.2434
  558TMC3    C8 8339   2.358   3.268  10.538  0.9190 -0.3627 -0.2193
  558TMC3    O1 8340   2.770   3.306  10.131 -0.2337 -0.2808 -0.1257
  558TMC3    O2 8341   2.263   3.267  10.461  0.1127  0.1932 -0.4188
  559MPD2     C 8342   2.756   4.409  10.625  0.6247 -0.4883 -0.0027
  559MPD2    C1 8343   2.697   4.334  10.717  0.0863 -0.0173 -0.1131
  559MPD2    C2 8344   2.764   4.308  10.836  0.8668  0.1770  0.0374
  559MPD2    C3 8345   2.893   4.369  10.860 -0.2174 -0.7664 -0.2756
  559MPD2    C4 8346   2.950   4.437  10.758 -0.3558  0.1137  0.1609
  559MPD2    C5 8347   2.876   4.460  10.650 -0.2801  0.3818  0.7705
  559MPD2     H 8348   2.711   4.241  10.903 -1.1765 -0.0138 -1.7715
  559MPD2    H1 8349   3.048   4.479  10.779 -1.2162  0.9631  2.4582
  559MPD2    H2 8350   2.708   4.445  10.534 -0.1730  2.1080  1.4276
  559MPD2    H3 8351   2.918   4.516  10.567  1.4043 -3.6069 -1.0488
  559MPD2     N 8352   2.950   4.350  10.987 -0.8568  0.1251  0.0070
  559MPD2    H5 8353   2.886   4.289  11.038  1.8768 -1.8404  1.1092
  559MPD2    N1 8354   2.567   4.275  10.689 -0.3260  0.4324  0.4222
  559MPD2    H7 8355   2.543   4.274  10.591  0.8409  1.5375  0.1185
  560TMC3    C1 8356   3.070   4.376  11.190  0.0037  0.1646  0.1278
  560TMC3    C2 8357   2.969   4.318  11.254 -0.3506  0.1113 -0.1118
  560TMC3    C3 8358   2.985   4.286  11.383  0.6159 -0.0710 -0.3375
  560TMC3    C4 8359   3.192   4.402  11.252 -0.1600 -0.1560 -0.0652
  560TMC3    C5 8360   3.204   4.383  11.387  0.0945 -0.3758 -0.3475
  560TMC3    C6 8361   3.097   4.322  11.450  0.4058 -0.0707 -0.5005
  560TMC3     C 8362   3.064   4.397  11.044 -0.5467  0.0132 -0.0348
  560TMC3     O 8363   3.163   4.463  11.000  0.1290 -0.1126  0.2632
  560TMC3     H 8364   2.882   4.286  11.198 -0.6938 -0.6320  0.8555
  560TMC3    H1 8365   3.273   4.458  11.206 -0.8839  0.9416 -0.0234
  560TMC3    H2 8366   3.111   4.299  11.555  0.4131 -0.6716 -0.6338
  560TMC3    C7 8367   3.341   4.365  11.445  0.5475 -0.4979 -1.2124
  560TMC3    C8 8368   2.912   4.169  11.419  0.1532 -0.1038  0.4654
  560TMC3    O1 8369   3.343   4.318  11.560  0.2991  0.4692 -0.5746
  560TMC3    O2 8370   2.811   4.139  11.352 -0.1684  0.4984  0.1102
  561TMC3    C1 8371   0.156   3.389  11.098 -0.5526  0.1460  0.7898
  561TMC3    C2 8372   0.058   3.362  11.195 -0.5044  0.6791  0.2204
  561TMC3    C3 8373   0.098   3.414  11.320 -0.4297 -0.2263  0.4023
  561TMC3    C4 8374   0.254   3.485  11.106 -1.2293  0.6964  0.3478
  561TMC3    C5 8375   0.292   3.526  11.228 -0.1960  0.6956  0.0227
  561TMC3    C6 8376   0.216   3.482  11.336 -0.4602 -0.2000  0.3411
  561TMC3     C 8377   0.127   3.312  10.976 -0.2604 -0.1788 -0.9589
  561TMC3     O 8378   0.028   3.237  10.981  0.1036 -0.1815  0.2354
  561TMC3     H 8379   4.717   3.290  11.190  1.8050 -2.1080  2.4818
  561TMC3    H1 8380   0.311   3.518  11.019 -1.3539 -0.7399 -0.2714
  561TMC3    H2 8381   0.241   3.523  11.433  1.5701  0.5850 -0.5274
  561TMC3    C7 8382   0.341   3.664  11.240 -0.3600 -0.0931  0.6403
  561TMC3    C8 8383   0.028   3.359  11.433 -0.2409  0.0755  0.3383
  561TMC3    O1 8384   0.262   3.731  11.303  0.5021  0.3061  0.1255
  561TMC3    O2 8385   4.685   3.269  11.412 -0.0017  0.2918  0.2701
  562TMC3    C1 8386   2.018   4.711  16.933 -0.0177 -0.6585 -0.5846
  562TMC3    C2 8387   2.027   0.109  16.904  0.8195  0.0894 -0.3189
  562TMC3    C3 8388   2.060   0.149  16.775 -0.0134  0.0236 -0.2417
  562TMC3    C4 8389   2.058   4.619  16.839  0.1192  0.4022  0.2593
  562TMC3    C5 8390   2.099   4.665  16.713 -0.4541  0.0194 -0.0687
  562TMC3    C6 8391   2.097   0.057  16.679 -0.5970 -0.1170  0.4017
  562TMC3     C 8392   1.971   4.666  17.057  0.1508  0.3249 -0.6274
  562TMC3     O 8393   2.017   4.557  17.084 -0.2903 -0.7918  0.4868
  562TMC3     H 8394   1.991   0.185  16.972  0.9101 -0.8884  0.8295
  562TMC3    H1 8395   2.055   4.513  16.860  4.9808  0.0028 -1.1489
  562TMC3    H2 8396   2.134   0.098  16.585  0.4156 -0.6506  0.5664
  562TMC3    C7 8397   2.074   4.577  16.607  0.0279  0.8715  0.6377
  562TMC3    C8 8398   2.050   0.290  16.755  0.8924 -0.3237 -0.2699
  562TMC3    O1 8399   2.015   4.621  16.514 -0.2617 -0.3206 -0.2580
  562TMC3    O2 8400   2.082   0.364  16.845 -0.1273  0.4043 -1.0892
  563MPD2     C 8401   0.169   0.852  15.801  0.7419  0.4118 -0.0714
  563MPD2    C1 8402   0.148   0.928  15.914  0.1183 -0.6095 -0.6251
  563MPD2    C2 8403   0.265   0.962  15.980  0.9657  0.0688  0.1549
  563MPD2    C3 8404   0.392   0.921  15.936  0.5415  0.3121  0.7342
  563MPD2    C4 8405   0.408   0.848  15.820  0.0778 -0.7025 -0.4079
  563MPD2    C5 8406   0.291   0.802  15.758 -0.0525  0.4823 -0.1285
  563MPD2     H 8407   0.246   1.018  16.071 -0.8083  0.2312 -0.3103
  563MPD2    H1 8408   0.497   0.796  15.787  0.4567 -0.5720  0.4057
  563MPD2    H2 8409   0.080   0.837  15.740  1.6891 -2.1426 -0.8559
  563MPD2    H3 8410   0.307   0.770  15.655 -0.9588 -0.6892  0.1055
  563MPD2     N 8411   0.498   0.957  16.019  0.6166 -0.0645 -0.1464
  563MPD2    H5 8412   0.474   1.013  16.100  1.3592 -1.0457  0.7548
  563MPD2    N1 8413   0.028   0.969  15.976 -0.0301 -0.5422 -0.4714
  563MPD2    H7 8414   0.048   1.011  16.066 -1.6424 -0.6695 -0.0599
  564TMC3    C1 8415   4.570   0.930  16.062  0.0322 -0.0898  0.2948
  564TMC3    C2 8416   4.438   0.903  16.037  0.4302  0.4159 -0.4470
  564TMC3    C3 8417   4.368   0.860  16.150 -0.2344  0.2205  0.1215
  564TMC3    C4 8418   4.634   0.906  16.180 -0.2257 -0.1625 -0.1627
  564TMC3    C5 8419   4.561   0.847  16.280  0.2829  0.8827  0.0436
  564TMC3    C6 8420   4.426   0.836  16.271  0.0595  0.0027  0.8676
  564TMC3     C 8421   4.645   0.939  15.942  0.4152  0.0350  0.5674
  564TMC3     O 8422   4.596   0.878  15.851  0.2296  0.5402 -0.1573
  564TMC3     H 8423   4.386   0.928  15.945  1.4847 -3.5895 -2.1543
  564TMC3    H1 8424   4.738   0.917  16.206  0.0445  0.2478 -1.4238
  564TMC3    H2 8425   4.376   0.811  16.364  2.2729 -1.2429  1.7273
  564TMC3    C7 8426   4.628   0.800  16.397 -0.0959  0.8141 -0.7890
  564TMC3    C8 8427   4.252   0.777  16.131 -0.2174 -0.7313  0.2484
  564TMC3    O1 8428   4.724   0.864  16.441  0.0841  0.5834 -0.2782
  564TMC3    O2 8429   4.203   0.735  16.233  0.0224 -0.5757  0.2103
  565TMC3    C1 8430   4.379   2.436  10.778  0.4339  0.5351 -0.0330
  565TMC3    C2 8431   4.435   2.323  10.829 -0.0198 -0.2948  0.2951
  565TMC3    C3 8432   4.396   2.209  10.773 -0.6773 -0.6531  1.0451
  565TMC3    C4 8433   4.289   2.430  10.672 -0.4098  0.0381 -0.0427
  565TMC3    C5 8434   4.252   2.305  10.629  0.2321 -0.5817 -0.3904
  565TMC3    C6 8435   4.292   2.189  10.686 -0.6202 -0.4996 -0.3741
  565TMC3     C 8436   4.425   2.556  10.842 -0.1114  0.3418 -0.5254
  565TMC3     O 8437   4.479   2.545  10.954  0.2944  0.3366  0.2500
  565TMC3     H 8438   4.511   2.328  10.906  0.6685  1.7366 -0.5128
  565TMC3    H1 8439   4.248   2.523  10.634 -0.6770 -0.2164 -0.3775
  565TMC3    H2 8440   4.266   2.094  10.640  3.5001 -1.6859 -0.2764
  565TMC3    C7 8441   4.176   2.287  10.501 -0.0530  0.8397  0.3009
  565TMC3    C8 8442   4.460   2.091  10.823 -0.1798 -0.2933 -0.3412
  565TMC3    O1 8443   4.114   2.183  10.482 -0.6143 -0.2311 -0.0965
  565TMC3    O2 8444   4.515   2.101  10.932 -0.2908  0.0284 -1.0181
  566MPD2     C 8445   2.134   4.527  14.447 -0.0478 -0.1479  0.0983
  566MPD2    C1 8446   2.236   4.569  14.370 -0.2891 -0.4293  0.4224
  566MPD2    C2 8447   2.208   4.669  14.285 -0.6509  0.0983  0.2070
  566MPD2    C3 8448   2.082   4.718  14.264  0.3925 -0.3025 -0.2209
  566MPD2    C4 8449   1.981   4.673  14.345  0.3256  0.6267 -0.5745
  566MPD2    C5 8450   2.007   4.579  14.439 -0.2576  0.5632  0.7333
  566MPD2     H 8451   2.296   4.707  14.233 -1.2259  1.3122  0.1322
  566MPD2    H1 8452   1.877   4.704  14.341 -0.1342 -0.8256 -0.0054
  566MPD2    H2 8453   2.156   4.442  14.511 -2.3424 -1.0467 -0.2944
  566MPD2    H3 8454   1.932   4.528  14.498 -0.9137 -1.0791 -1.5077
  566MPD2     N 8455   2.052   0.077  14.172  0.9557 -0.7481 -0.5700
  566MPD2    H5 8456   1.954   0.098  14.157  1.1186  1.1233  0.9589
  566MPD2    N1 8457   2.368   4.513  14.389 -0.7130  0.0596  0.3566
  566MPD2    H7 8458   2.367   4.438  14.457  1.3441  0.2088  0.5710
  567TMC3    C1 8459   2.573   4.435  14.328 -0.2540 -0.0104 -0.0470
  567TMC3    C2 8460   2.657   4.434  14.224  0.2910  0.2829 -0.3443
  567TMC3    C3 8461   2.752   4.340  14.217 -0.6854  0.6819 -0.4962
  567TMC3    C4 8462   2.596   4.364  14.442  0.5095  0.0287  0.7011
  567TMC3    C5 8463   2.689   4.266  14.426 -0.5483 -0.3621  0.2145
  567TMC3    C6 8464   2.766   4.249  14.316  0.4542 -0.2246 -0.0375
  567TMC3     C 8465   2.479   4.548  14.319  0.2694 -0.4454 -0.4218
  567TMC3     O 8466   2.496   4.640  14.240 -0.6518 -0.5766  0.5168
  567TMC3     H 8467   2.652   4.511  14.148 -0.5674 -0.7846 -1.3586
  567TMC3    H1 8468   2.550   4.391  14.536 -1.6094 -0.1733 -0.2592
  567TMC3    H2 8469   2.832   4.163  14.310 -0.9419 -1.1995 -1.3318
  567TMC3    C7 8470   2.715   4.175  14.536 -0.2058 -0.0101  0.6029
  567TMC3    C8 8471   2.830   4.328  14.092 -0.5421 -0.6320 -0.3450
  567TMC3    O1 8472   2.831   4.140  14.551 -0.7150 -0.6415  1.2298
  567TMC3    O2 8473   2.827   4.429  14.026 -0.4589 -0.4339  0.6631
  568MPD2     C 8474   3.716   4.201  16.457  0.0358 -0.2434  0.1069
  568MPD2    C1 8475   3.739   4.302  16.552 -0.0838 -0.7184  0.1949
  568MPD2    C2 8476   3.718   4.430  16.523 -0.0361  0.3210 -0.1963
  568MPD2    C3 8477   3.674   4.468  16.396  0.8191 -0.0843  0.0285
  568MPD2    C4 8478   3.646   4.365  16.305  0.6685 -0.0188  0.2746
  568MPD2    C5 8479   3.668   4.238  16.335  0.2601  0.3499  0.0127
  568MPD2     H 8480   3.739   4.514  16.589  0.0353  0.3215 -0.2193
  568MPD2    H1 8481   3.610   4.386  16.205  3.2028 -0.2091 -0.6751
  568MPD2    H2 8482   3.714   4.101  16.498  1.2865  0.7295  2.5757
  568MPD2    H3 8483   3.649   4.155  16.267 -0.6093 -0.3275  1.0806
  568MPD2     N 8484   3.656   4.603  16.369  0.2638 -0.2489 -0.3432
  568MPD2    H5 8485   3.670   4.669  16.445  0.6738 -0.2243 -0.4416
  568MPD2    N1 8486   3.800   4.253  16.662 -0.6885  0.6516  0.4451
  568MPD2    H7 8487   3.838   4.159  16.662 -2.1484  0.0629 -0.2888
  569TMC3    C1 8488   3.625   0.059  16.266 -0.2292  0.4449  0.4715
  569TMC3    C2 8489   3.650   0.100  16.395  0.0894 -0.7254  0.9645
  569TMC3    C3 8490   3.721   0.208  16.407  0.3436 -0.3674  0.0865
  569TMC3    C4 8491   3.665   0.123  16.164  0.2304 -0.0571  0.0515
  569TMC3    C5 8492   3.742   0.230  16.180 -0.4100  0.5691 -0.2723
  569TMC3    C6 8493   3.772   0.278  16.303 -0.0658  0.5105  0.1789
  569TMC3     C 8494   3.611   4.658  16.253 -0.0363  0.4864  0.2809
  569TMC3     O 8495   3.565   4.614  16.149  0.7660 -0.2462 -0.2597
  569TMC3     H 8496   3.604   0.056  16.483 -0.4445  1.6194  1.8532
  569TMC3    H1 8497   3.643   0.077  16.068  1.2127  0.7800 -0.5855
  569TMC3    H2 8498   3.834   0.364  16.326  0.5489  0.9281 -2.9850
  569TMC3    C7 8499   3.790   0.298  16.061 -0.7953 -0.3266  0.0407
  569TMC3    C8 8500   3.765   0.229  16.543 -0.1590 -0.4223  0.9914
  569TMC3    O1 8501   3.746   0.262  15.953 -0.1497 -0.3767  0.1076
  569TMC3    O2 8502   3.715   0.159  16.627  0.0771  0.1381 -0.4893
  570TMC3    C1 8503   3.305   3.508  16.379  0.0168 -0.4616  0.0095
  570TMC3    C2 8504   3.321   3.564  16.256  0.4175 -0.2467  0.2325
  570TMC3    C3 8505   3.388   3.686  16.242  0.0935 -0.5356 -0.2237
  570TMC3    C4 8506   3.330   3.580  16.491 -0.0044  0.2911 -0.0352
  570TMC3    C5 8507   3.389   3.703  16.468 -0.4596  0.3924  0.2897
  570TMC3    C6 8508   3.429   3.755  16.350  0.4326 -0.0141 -0.1498
  570TMC3     C 8509   3.219   3.389  16.388 -0.9052 -0.3599 -0.7492
  570TMC3     O 8510   3.152   3.366  16.284 -0.0958  0.2239  0.3052
  570TMC3     H 8511   3.302   3.507  16.166 -3.9254 -1.5157  1.9890
  570TMC3    H1 8512   3.300   3.548  16.590 -1.3819  0.0182 -0.5419
  570TMC3    H2 8513   3.489   3.845  16.354  1.0993 -0.4811  0.3003
  570TMC3    C7 8514   3.387   3.802  16.579 -0.2911 -0.9518  0.0031
  570TMC3    C8 8515   3.458   3.714  16.118  0.7196 -0.5697  1.2167
  570TMC3    O1 8516   3.411   3.767  16.696 -0.8330  0.3884 -0.3451
  570TMC3    O2 8517   3.546   3.799  16.122  0.2447  0.6201 -0.1303
  571MPD2     C 8518   1.310   0.119   0.348  0.1431  0.5439  0.6160
  571MPD2    C1 8519   1.195   0.133   0.420  0.2392  0.1246 -0.1252
  571MPD2    C2 8520   1.180   0.244   0.498 -0.2316  0.5720  0.4174
  571MPD2    C3 8521   1.282   0.339   0.509 -0.2138  1.0200  0.0570
  571MPD2    C4 8522   1.391   0.330   0.431 -0.0889  0.1955  0.6494
  571MPD2    C5 8523   1.403   0.217   0.360 -0.0009 -0.0033 -0.5238
  571MPD2     H 8524   1.083   0.257   0.546  0.1132  2.0282  0.7289
  571MPD2    H1 8525   1.474   0.400   0.435 -0.7402  1.0699 -1.0928
  571MPD2    H2 8526   1.335   0.034   0.285  1.3223  0.8370  0.6987
  571MPD2    H3 8527   1.484   0.216   0.288 -1.4140 -0.6273 -2.1256
  571MPD2     N 8528   1.270   0.450   0.591  0.1371  0.0510  0.0687
  571MPD2    H5 8529   1.349   0.514   0.597  0.6133 -0.5860  0.4547
  571MPD2    N1 8530   1.106   0.027   0.412 -0.1813 -0.0914 -0.3461
  571MPD2    H7 8531   1.127   4.694   0.346  0.7069 -0.1331 -0.0160
  572TMC3    C1 8532   1.188   0.599   0.757  0.0146  0.4389 -0.0535
  572TMC3    C2 8533   1.099   0.612   0.864  0.3163  0.5823 -0.1045
  572TMC3    C3 8534   1.090   0.727   0.931  0.4280 -0.6290 -0.1958
  572TMC3    C4 8535   1.280   0.699   0.725  0.4297  0.1451 -0.2259
  572TMC3    C5 8536   1.253   0.819   0.787 -0.0152  0.0265  0.0587
  572TMC3    C6 8537   1.181   0.829   0.903 -0.2230  0.7128  0.2217
  572TMC3     C 8538   1.170   0.474   0.680 -0.1583  0.4597 -0.1898
  572TMC3     O 8539   1.093   0.393   0.736  0.2954  0.4588 -0.2484
  572TMC3     H 8540   1.014   0.544   0.866 -1.3015  2.5639 -1.4394
  572TMC3    H1 8541   1.332   0.697   0.631  1.1205 -0.3581  0.1675
  572TMC3    H2 8542   1.178   0.924   0.956  2.1917  0.8191  0.1315
  572TMC3    C7 8543   1.258   0.938   0.706 -0.5289 -0.1190  1.0145
  572TMC3    C8 8544   0.954   0.781   0.950  0.1533  0.5571 -0.7874
  572TMC3    O1 8545   1.347   0.949   0.627 -0.6333  0.0908  0.6195
  572TMC3    O2 8546   0.929   0.895   0.909 -0.4454  0.1430  0.2833
  573MPD2     C 8547   2.185   1.693   0.782 -0.9033  0.0053 -0.0448
  573MPD2    C1 8548   2.316   1.720   0.752 -0.0971  0.4395 -1.0969
  573MPD2    C2 8549   2.385   1.671   0.643 -0.5076 -0.2364 -0.4746
  573MPD2    C3 8550   2.314   1.590   0.558  0.0730  0.5582 -0.4952
  573MPD2    C4 8551   2.176   1.573   0.579  0.2125 -0.1023 -0.1147
  573MPD2    C5 8552   2.115   1.622   0.689  0.0002  0.1965  0.2721
  573MPD2     H 8553   2.492   1.678   0.631 -0.5266 -2.2274 -1.7628
  573MPD2    H1 8554   2.118   1.503   0.519  0.6718  0.7143 -1.5184
  573MPD2    H2 8555   2.149   1.724   0.880 -0.0088 -1.9996  0.9097
  573MPD2    H3 8556   2.012   1.601   0.713  0.0971 -1.3976 -0.6360
  573MPD2     N 8557   2.373   1.539   0.439  0.0829  0.1131  0.2373
  573MPD2    H5 8558   2.314   1.469   0.395 -0.1359 -0.5472  1.5847
  573MPD2    N1 8559   2.387   1.810   0.835 -0.1493 -0.6204  0.2658
  573MPD2    H7 8560   2.327   1.842   0.911  1.9510  0.3513  1.4971
  574TMC3    C1 8561   2.549   1.475   0.294  1.0935  0.7321 -0.4458
  574TMC3    C2 8562   2.460   1.408   0.212 -0.2606 -0.9626  0.3718
  574TMC3    C3 8563   2.511   1.350   0.101  0.4536  0.3626  0.4994
  574TMC3    C4 8564   2.686   1.482   0.263  0.0575 -0.6912 -0.4296
  574TMC3    C5 8565   2.734   1.416   0.149  0.8071 -0.5314 -0.1191
  574TMC3    C6 8566   2.643   1.344   0.074  0.0932 -0.3199 -0.0995
  574TMC3     C 8567   2.501   1.564   0.393  0.0937 -0.8846  0.3788
  574TMC3     O 8568   2.581   1.648   0.429 -0.0587 -1.0319  0.1228
  574TMC3     H 8569   2.352   1.413   0.225 -0.5056 -0.4722 -2.0251
  574TMC3    H1 8570   2.750   1.544   0.325  0.0659 -0.8495 -0.2766
  574TMC3    H2 8571   2.680   1.298  17.745  0.2341  0.3977 -0.4087
  574TMC3    C7 8572   2.858   1.467   0.094  0.4960 -0.2793  0.6137
  574TMC3    C8 8573   2.413   1.329   0.002 -0.4333  0.0598 -0.3383
  574TMC3    O1 8574   2.922   1.527   0.181  0.1739  0.5526  0.5618
  574TMC3    O2 8575   2.453   1.260  17.668  0.2829  0.3143  0.3441
  575TMC3    C1 8576   0.033   1.679  11.502  0.3108  0.0942 -0.0451
  575TMC3    C2 8577   4.735   1.556  11.547 -0.2150  0.2480  1.4530
  575TMC3    C3 8578   4.654   1.487  11.461 -0.4122 -0.5933 -0.0922
  575TMC3    C4 8579   0.012   1.729  11.377  0.4014 -0.0737 -0.1497
  575TMC3    C5 8580   4.686   1.649  11.290  0.1456  0.1952  0.1840
  575TMC3    C6 8581   4.632   1.530  11.330 -0.8030 -0.3889 -0.2331
  575TMC3     C 8582   0.068   1.769  11.608 -0.4453 -0.0027  0.0473
  575TMC3     O 8583   0.107   1.717  11.708  0.0184  0.0329 -0.2151
  575TMC3     H 8584   0.002   1.526  11.651 -0.1923  0.4561  1.5105
  575TMC3    H1 8585   0.054   1.824  11.346  0.6866  0.3373  1.4867
  575TMC3    H2 8586   4.586   1.474  11.250  0.7678  1.5689 -2.5101
  575TMC3    C7 8587   4.633   1.715  11.171  0.3276  0.3177 -0.2544
  575TMC3    C8 8588   4.567   1.391  11.518 -0.3712 -0.4545  0.6581
  575TMC3    O1 8589   4.638   1.840  11.178  0.7071  0.1591 -0.0829
  575TMC3    O2 8590   4.579   1.371  11.638 -0.2138  0.3859  0.4643
  576MPD2     C 8591   0.064   3.418  12.898  0.5447 -0.2978 -0.3002
  576MPD2    C1 8592   0.061   3.547  12.850  0.2094 -0.4534 -0.3358
  576MPD2    C2 8593   0.035   3.657  12.934 -1.0518  0.1380 -0.3250
  576MPD2    C3 8594   0.014   3.636  13.070 -0.5214  0.3133  0.0683
  576MPD2    C4 8595   0.028   3.510  13.126  0.4582 -0.5389 -0.0804
  576MPD2    C5 8596   0.052   3.403  13.039 -0.0812  0.0600  0.0938
  576MPD2     H 8597   0.013   3.755  12.894 -0.5509 -0.0030 -0.9332
  576MPD2    H1 8598   0.029   3.504  13.234  0.9110  0.6638 -0.0170
  576MPD2    H2 8599   0.090   3.324  12.852  1.9254 -0.0737  0.0178
  576MPD2    H3 8600   0.063   3.306  13.088  1.5294 -0.6859 -1.7392
  576MPD2     N 8601   4.724   3.752  13.145  0.1202 -0.6481  0.4792
  576MPD2    H5 8602   4.719   3.841  13.094  1.5499 -0.2338  1.0707
  576MPD2    N1 8603   0.092   3.583  12.717  0.0062  0.2333 -0.0357
  576MPD2    H7 8604   0.124   3.677  12.695  2.4278 -0.5653  0.0750
  577TMC3    C1 8605   0.148   3.542  12.487 -0.4432  0.0863  0.9171
  577TMC3    C2 8606   0.099   3.465  12.385 -0.4937  0.0336  0.2995
  577TMC3    C3 8607   0.080   3.522  12.265  0.4016  0.3353  0.1078
  577TMC3    C4 8608   0.184   3.668  12.464 -0.6756  0.2809  0.1563
  577TMC3    C5 8609   0.167   3.719  12.337 -0.6302  0.5845 -0.0612
  577TMC3    C6 8610   0.106   3.647  12.234  0.6589 -0.2072 -0.4280
  577TMC3     C 8611   0.142   3.491  12.623  0.0531  0.4094 -0.7946
  577TMC3     O 8612   0.151   3.370  12.640  0.7880 -0.2871 -0.1713
  577TMC3     H 8613   0.067   3.367  12.419  1.8481 -1.6219 -2.2439
  577TMC3    H1 8614   0.235   3.728  12.538  2.1853 -2.3076  0.2365
  577TMC3    H2 8615   0.083   3.689  12.137 -0.6289 -0.1507 -0.0993
  577TMC3    C7 8616   0.212   3.857  12.305  0.5437  0.1469  0.0485
  577TMC3    C8 8617   0.020   3.435  12.169 -0.3767  1.0898  0.2454
  577TMC3    O1 8618   0.231   3.924  12.402  0.1603  0.2753  0.8606
  577TMC3    O2 8619   4.705   3.339  12.216 -0.1965  0.4132 -0.7309
  578MPD2     C 8620   2.745   4.236   0.195 -0.5328 -0.8895 -0.8236
  578MPD2    C1 8621   2.783   4.110   0.232 -0.3975  0.4913  0.8091
  578MPD2    C2 8622   2.693   4.035   0.301  0.2275 -0.6904 -0.1319
  578MPD2    C3 8623   2.562   4.081   0.327 -0.5544 -0.0945 -0.1245
  578MPD2    C4 8624   2.524   4.212   0.284 -0.4107  0.2672  1.1388
  578MPD2    C5 8625   2.615   4.280   0.213 -0.4719 -0.3057 -0.4350
  578MPD2     H 8626   2.714   3.935   0.337  0.4730  0.8339  3.9570
  578MPD2    H1 8627   2.428   4.254   0.310 -1.5591 -0.1810 -2.4167
  578MPD2    H2 8628   2.817   4.286   0.131  1.4870 -1.6952  0.8256
  578MPD2    H3 8629   2.589   4.382   0.189  0.0131 -0.1477 -0.2977
  578MPD2     N 8630   2.470   4.008   0.399 -0.3513  0.0739 -0.1793
  578MPD2    H5 8631   2.507   3.933   0.457 -1.3844  1.2730  2.0234
  578MPD2    N1 8632   2.897   4.044   0.175 -0.4094 -0.2953 -0.7152
  578MPD2    H7 8633   2.919   4.074   0.080  0.3758  0.0587 -0.4242
  579TMC3    C1 8634   2.266   3.919   0.454  0.0574 -0.0588 -0.2495
  579TMC3    C2 8635   2.305   3.903   0.585  0.0231 -0.0449 -0.4571
  579TMC3    C3 8636   2.260   3.795   0.657 -0.1600  0.4037  0.1748
  579TMC3    C4 8637   2.167   3.840   0.399  0.0619  0.0828 -0.3200
  579TMC3    C5 8638   2.107   3.749   0.488 -0.3989 -0.5576 -0.3462
  579TMC3    C6 8639   2.155   3.723   0.616  0.9640 -0.1833 -0.6422
  579TMC3     C 8640   2.337   4.015   0.371  0.1784  0.0338  0.5863
  579TMC3     O 8641   2.275   4.062   0.274 -0.7622 -0.4333  0.1915
  579TMC3     H 8642   2.367   3.978   0.632 -1.3419 -0.2405  1.6648
  579TMC3    H1 8643   2.127   3.861   0.301  0.4596 -0.1140 -0.5262
  579TMC3    H2 8644   2.119   3.636   0.670  0.5125  1.2704  1.4004
  579TMC3    C7 8645   1.976   3.703   0.455  0.8639  0.0562 -0.1562
  579TMC3    C8 8646   2.281   3.779   0.800 -0.0514 -0.2146 -0.7625
  579TMC3    O1 8647   1.902   3.769   0.385 -0.2363  0.1344  0.1722
  579TMC3    O2 8648   2.186   3.738   0.869  0.4470 -0.2790  0.4522
  580TMC3    C1 8649   2.483   2.767  12.527 -0.6959 -0.3852  0.0920
  580TMC3    C2 8650   2.573   2.865  12.553  0.0231 -0.2441  0.1352
  580TMC3    C3 8651   2.688   2.843  12.619  0.0763  0.1257  0.0822
  580TMC3    C4 8652   2.504   2.641  12.572 -0.1177 -0.7053 -0.5609
  580TMC3    C5 8653   2.617   2.622  12.645  0.0221  0.0657  0.8553
  580TMC3    C6 8654   2.719   2.720  12.667 -0.6573 -0.2927  0.2355
  580TMC3     C 8655   2.402   2.780  12.410 -1.0763  0.0002  0.1020
  580TMC3     O 8656   2.390   2.897  12.368  0.3437 -0.7881 -0.2663
  580TMC3     H 8657   2.552   2.960  12.505 -2.8973 -1.6256 -1.2936
  580TMC3    H1 8658   2.421   2.571  12.571 -0.7696  0.0809 -1.7425
  580TMC3    H2 8659   2.809   2.685  12.716 -1.5670 -1.9741  0.7130
  580TMC3    C7 8660   2.639   2.497  12.716 -0.4154 -0.4949  0.2904
  580TMC3    C8 8661   2.798   2.927  12.575 -0.3693 -0.0866  0.0380
  580TMC3    O1 8662   2.711   2.497  12.816 -0.2880  0.4604 -0.2482
  580TMC3    O2 8663   2.783   3.047  12.575 -0.0416 -0.3756 -0.0157
  581MPD2     C 8664   0.585   2.820  14.808 -0.4686 -0.1381 -0.5428
  581MPD2    C1 8665   0.602   2.775  14.933 -0.5297 -0.8073  0.3863
  581MPD2    C2 8666   0.494   2.773  15.015 -0.4015  0.5931 -0.7194
  581MPD2    C3 8667   0.358   2.791  14.965 -0.2160 -0.1091  0.0335
  581MPD2    C4 8668   0.348   2.843  14.838 -0.4738  0.3872 -0.5664
  581MPD2    C5 8669   0.461   2.858  14.764  1.1772 -0.1109 -0.4346
  581MPD2     H 8670   0.516   2.754  15.119  1.0655  0.1754 -1.1050
  581MPD2    H1 8671   0.251   2.868  14.798 -1.4020 -1.2941  0.6296
  581MPD2    H2 8672   0.667   2.841  14.740 -0.3390  1.7125  0.2118
  581MPD2    H3 8673   0.446   2.901  14.666  1.1056  2.3258  0.6589
  581MPD2     N 8674   0.239   2.782  15.046  0.4685  0.4596 -0.3465
  581MPD2    H5 8675   0.151   2.816  15.010 -0.4723 -1.8768 -0.2681
  581MPD2    N1 8676   0.734   2.740  14.966 -0.0067  0.2601  0.1628
  581MPD2    H7 8677   0.793   2.730  14.884  0.5988  1.8838  0.4064
  582TMC3    C1 8678   0.890   2.592  15.070  0.4990 -0.3488  0.2062
  582TMC3    C2 8679   0.917   2.538  15.192 -0.2194  0.0339  0.2244
  582TMC3    C3 8680   0.937   2.401  15.196  0.5879  0.0598  0.1148
  582TMC3    C4 8681   0.866   2.505  14.963  0.2858  0.2351 -0.3465
  582TMC3    C5 8682   0.874   2.369  14.973  0.9548 -0.0062 -0.2612
  582TMC3    C6 8683   0.910   2.313  15.093  0.4385  0.6801  0.3334
  582TMC3     C 8684   0.784   2.687  15.083  0.7173  0.5168  0.2597
  582TMC3     O 8685   0.720   2.673  15.189  0.6186  0.0459 -0.4586
  582TMC3     H 8686   0.962   2.607  15.263  0.6536 -1.3878  1.0331
  582TMC3    H1 8687   0.842   2.554  14.869  1.7876  0.5489 -0.5604
  582TMC3    H2 8688   0.907   2.205  15.106 -1.2368  0.8722  1.5665
  582TMC3    C7 8689   0.752   2.308  14.935  0.3163  0.0228 -0.5086
  582TMC3    C8 8690   0.950   2.351  15.326 -0.2654  0.1614 -0.3652
  582TMC3    O1 8691   0.746   2.187  14.943  0.0459  0.1185 -0.6547
  582TMC3    O2 8692   1.006   2.241  15.337  0.4604  0.7657  0.4052
  583MPD2     C 8693   0.721   3.940  16.865 -0.2819 -0.1734  0.1649
  583MPD2    C1 8694   0.712   4.067  16.803 -0.8458 -0.0146 -0.1325
  583MPD2    C2 8695   0.633   4.164  16.868  0.1067  0.7139 -0.6766
  583MPD2    C3 8696   0.568   4.138  16.990 -0.1765 -0.1420  0.0344
  583MPD2    C4 8697   0.597   4.017  17.055 -0.3022 -0.1257  0.2037
  583MPD2    C5 8698   0.666   3.916  16.991 -0.0541  0.3181  0.2359
  583MPD2     H 8699   0.617   4.261  16.822 -1.1204  0.4246 -0.8677
  583MPD2    H1 8700   0.557   4.001  17.154  1.0089  0.3667  0.8067
  583MPD2    H2 8701   0.776   3.853  16.832  0.7627  1.1063 -1.4033
  583MPD2    H3 8702   0.687   3.829  17.052 -1.1670  0.0190  0.1963
  583MPD2     N 8703   0.481   4.236  17.055 -0.2850 -0.4506 -1.3113
  583MPD2    H5 8704   0.455   4.311  16.992  1.0755  1.0367 -0.0974
  583MPD2    N1 8705   0.775   4.095  16.677 -0.1583 -0.6211  0.3756
  583MPD2    H7 8706   0.755   4.177  16.621 -1.1842 -0.2517  1.2978
  584TMC3    C1 8707   0.359   4.353  17.219  0.5127 -0.4707  0.1105
  584TMC3    C2 8708   0.435   4.464  17.179  0.4497 -0.6301  0.3396
  584TMC3    C3 8709   0.464   4.555  17.279  0.2911 -0.3584  0.5277
  584TMC3    C4 8710   0.311   4.344  17.348  0.6635 -0.0640 -0.2370
  584TMC3    C5 8711   0.342   4.439  17.437  0.1592 -0.5428 -0.4047
  584TMC3    C6 8712   0.430   4.541  17.407  0.1936  0.3154 -0.2916
  584TMC3     C 8713   0.428   4.231  17.181 -0.4437  0.3068  0.3392
  584TMC3     O 8714   0.421   4.143  17.263 -0.1141  0.1206  0.0711
  584TMC3     H 8715   0.464   4.486  17.077  1.9213 -0.4218  0.8049
  584TMC3    H1 8716   0.265   4.253  17.384 -0.8273  1.0025  0.5763
  584TMC3    H2 8717   0.450   4.605  17.492  0.7518 -1.4904  0.9375
  584TMC3    C7 8718   0.300   4.408  17.577 -0.0073  0.0860 -0.3854
  584TMC3    C8 8719   0.559   4.671  17.246 -0.0564  0.1685 -0.1230
  584TMC3    O1 8720   0.308   4.291  17.610  0.4859 -0.5469 -0.1417
  584TMC3    O2 8721   0.570   4.695  17.128 -0.5318  0.4540 -0.3249
  585MPD2     C 8722   3.717   3.251   0.389  0.1757  0.6984 -0.6480
  585MPD2    C1 8723   3.849   3.268   0.385 -0.0734 -0.0840  0.3151
  585MPD2    C2 8724   3.929   3.172   0.331  0.0431 -0.1442  0.2218
  585MPD2    C3 8725   3.879   3.056   0.276 -0.2843  0.2065  0.5359
  585MPD2    C4 8726   3.746   3.031   0.283  0.7583 -0.3879  0.2946
  585MPD2    C5 8727   3.667   3.128   0.341  0.0594 -0.1375  0.7813
  585MPD2     H 8728   4.036   3.189   0.331  0.3303 -1.9856 -2.0477
  585MPD2    H1 8729   3.697   2.944   0.240  0.6665  0.5195 -1.4172
  585MPD2    H2 8730   3.645   3.317   0.437  1.7094  2.0651 -0.2289
  585MPD2    H3 8731   3.560   3.109   0.342 -0.0585  0.6263  3.4129
  585MPD2     N 8732   3.955   2.953   0.215  0.1507 -0.6034 -0.7657
  585MPD2    H5 8733   3.903   2.886   0.158 -1.5482  1.2582 -1.4157
  585MPD2    N1 8734   3.892   3.395   0.437 -0.3645  0.2104  1.0129
  585MPD2    H7 8735   3.819   3.462   0.457 -0.4687  0.4537 -0.1943
  586TMC3    C1 8736   4.140   2.841   0.129 -0.2172  0.1437  0.6560
  586TMC3    C2 8737   4.091   2.817   0.005  0.3997 -0.0939 -0.4608
  586TMC3    C3 8738   4.186   2.759  17.684 -0.8192  0.1793 -0.1667
  586TMC3    C4 8739   4.243   2.765   0.179 -0.2772  0.0129  0.0950
  586TMC3    C5 8740   4.311   2.674   0.096 -0.2809 -0.1163  0.3605
  586TMC3    C6 8741   4.298   2.693  17.721 -0.0180 -0.2365  0.5681
  586TMC3     C 8742   4.088   2.948   0.217  0.2104  0.6275 -0.4666
  586TMC3     O 8743   4.168   2.999   0.300  0.1249  0.3801 -0.2479
  586TMC3     H 8744   4.016   2.881  17.723  1.1576  0.6295 -0.7033
  586TMC3    H1 8745   4.296   2.786   0.272  0.1953 -0.3519 -0.0921
  586TMC3    H2 8746   4.370   2.645  17.656 -0.9865  1.9819 -2.1421
  586TMC3    C7 8747   4.272   2.533   0.110 -0.3173 -0.1936  0.1852
  586TMC3    C8 8748   4.148   2.766  17.540 -0.1809  0.0015 -0.2889
  586TMC3    O1 8749   4.276   2.474   0.006  0.2047  0.4435 -0.2459
  586TMC3    O2 8750   4.035   2.796  17.509 -0.9036  0.3327  0.3642
  587TMC3    C1 8751   1.903   1.608  16.992 -0.3143 -0.0366  0.1953
  587TMC3    C2 8752   1.899   1.709  17.081  0.8231 -0.1847 -0.2377
  587TMC3    C3 8753   1.973   1.698  17.198  0.0555 -0.2579 -0.8522
  587TMC3    C4 8754   1.980   1.499  17.013  0.2187 -0.0245 -0.1616
  587TMC3    C5 8755   2.056   1.492  17.126  0.0230  0.4446  0.6077
  587TMC3    C6 8756   2.054   1.592  17.224 -0.4330  0.2630 -0.0962
  587TMC3     C 8757   1.827   1.613  16.870 -0.1953 -0.6421  0.5873
  587TMC3     O 8758   1.870   1.556  16.771 -0.4563  0.6029 -0.2602
  587TMC3     H 8759   1.850   1.801  17.051  0.8680 -0.4392 -1.0898
  587TMC3    H1 8760   1.986   1.423  16.936 -2.0175  0.6983 -1.0861
  587TMC3    H2 8761   2.139   1.601  17.291 -0.2712  1.1135 -0.4144
  587TMC3    C7 8762   2.183   1.408  17.128  0.0412 -0.4851 -0.8519
  587TMC3    C8 8763   1.984   1.820  17.277 -0.3247 -0.8680  0.4041
  587TMC3    O1 8764   2.255   1.426  17.220 -0.4451  0.0361 -0.2262
  587TMC3    O2 8765   2.088   1.834  17.345  0.4579 -0.3588 -0.3206
  588TMC3    C1 8766   3.840   4.472  10.268  0.1985  0.3377  0.0099
  588TMC3    C2 8767   3.761   4.361  10.273 -0.2096  0.2561 -0.5722
  588TMC3    C3 8768   3.821   4.244  10.302  0.5192 -0.3012  0.9532
  588TMC3    C4 8769   3.972   4.470  10.306 -0.2498 -0.1230 -0.1024
  588TMC3    C5 8770   4.034   4.341  10.336 -0.0719 -0.1025 -0.2509
  588TMC3    C6 8771   3.959   4.228  10.319  0.5501 -0.4241  0.6044
  588TMC3     C 8772   3.776   4.600  10.276  0.1069 -0.7420  0.5942
  588TMC3     O 8773   3.677   4.620  10.206 -0.2211  0.0278  0.0930
  588TMC3     H 8774   3.654   4.377  10.262 -0.5996 -2.4218 -0.7603
  588TMC3    H1 8775   4.033   4.556  10.281  0.5367 -0.0262  2.1741
  588TMC3    H2 8776   4.009   4.133  10.332  1.3511  0.0215  0.7409
  588TMC3    C7 8777   4.182   4.337  10.343  0.5987  0.6457 -0.4793
  588TMC3    C8 8778   3.732   4.130  10.280  0.4344 -0.5330  1.1270
  588TMC3    O1 8779   4.252   4.254  10.286 -0.0130  0.2814  0.0018
  588TMC3    O2 8780   3.617   4.139  10.241  0.6068 -0.0130 -0.0211
  589TMC3    C1 8781   3.097   1.875   1.218 -0.0757  0.3626 -0.5956
  589TMC3    C2 8782   3.202   1.943   1.274  0.1536  0.0475  0.1161
  589TMC3    C3 8783   3.322   1.881   1.281  0.3303  0.4677  0.0430
  589TMC3    C4 8784   3.111   1.757   1.155 -1.0721  0.3126  0.0867
  589TMC3    C5 8785   3.239   1.704   1.160  0.6607  0.3152  0.2167
  589TMC3    C6 8786   3.346   1.759   1.231  0.9690 -0.3362  0.5083
  589TMC3     C 8787   2.972   1.943   1.180 -0.1404 -0.5496 -0.8663
  589TMC3     O 8788   2.910   1.892   1.084 -0.4603  0.5908  0.0558
  589TMC3     H 8789   3.190   2.045   1.311 -1.2051 -0.0669 -0.0189
  589TMC3    H1 8790   3.023   1.705   1.119  1.0065 -1.6541 -2.1841
  589TMC3    H2 8791   3.445   1.715   1.225  1.7193  1.5003 -0.7172
  589TMC3    C7 8792   3.254   1.581   1.094 -0.0812  0.6161  0.6707
  589TMC3    C8 8793   3.419   1.945   1.365  0.1553 -0.0227  0.4484
  589TMC3    O1 8794   3.146   1.527   1.068 -0.5481 -0.3198 -0.6889
  589TMC3    O2 8795   3.391   2.003   1.470  0.7205 -0.0091 -1.1670
  590MPD2     C 8796   3.033   4.593  16.742 -0.7755  0.6740  0.2203
  590MPD2    C1 8797   2.993   4.718  16.734 -0.5763 -0.1543  0.0230
  590MPD2    C2 8798   3.050   0.056  16.635 -0.1459  0.3593 -0.4144
  590MPD2    C3 8799   3.141   0.006  16.546  0.5728  0.5100  0.4998
  590MPD2    C4 8800   3.190   4.624  16.558  0.2937  0.1159  0.4968
  590MPD2    C5 8801   3.130   4.544  16.660  0.2324  0.6272 -0.4077
  590MPD2     H 8802   3.011   0.156  16.624 -0.7081  0.1473 -0.3565
  590MPD2    H1 8803   3.274   4.592  16.497  0.0980  0.6439 -0.0527
  590MPD2    H2 8804   2.989   4.522  16.811  1.3172 -1.6800 -0.8823
  590MPD2    H3 8805   3.159   4.441  16.678  2.1452  1.3737  0.8181
  590MPD2     N 8806   3.188   0.102  16.456  0.2027 -0.5051  1.0028
  590MPD2    H5 8807   3.162   0.198  16.474 -0.0600 -0.6777  1.5367
  590MPD2    N1 8808   2.889   0.028  16.810 -0.0839 -0.0377  0.2065
  590MPD2    H7 8809   2.868   0.123  16.783 -0.5567 -0.0527  0.5244
  591TMC3    C1 8810   3.289   0.199  16.260  0.6521 -0.1874  0.3415
  591TMC3    C2 8811   3.320   0.195  16.126 -0.2199  0.2033  0.4097
  591TMC3    C3 8812   3.390   0.304  16.068  0.0032  0.3226  0.2855
  591TMC3    C4 8813   3.317   0.312  16.333  0.2665  0.2333 -0.4596
  591TMC3    C5 8814   3.393   0.409  16.275  0.1838 -0.1878  0.0301
  591TMC3    C6 8815   3.431   0.415  16.143 -0.3253 -0.5285 -0.3505
  591TMC3     C 8816   3.259   0.073  16.342 -0.5088  0.8532  0.6999
  591TMC3     O 8817   3.282   4.708  16.285  0.7089  0.6568  0.1391
  591TMC3     H 8818   3.298   0.102  16.075  1.3161  0.0287  0.0901
  591TMC3    H1 8819   3.317   0.313  16.441 -1.3621 -0.9421 -0.4402
  591TMC3    H2 8820   3.522   0.464  16.110  0.0105 -1.2437 -0.4853
  591TMC3    C7 8821   3.439   0.512  16.361 -0.2001 -0.5105 -0.9955
  591TMC3    C8 8822   3.425   0.303  15.928 -0.0316 -0.0315 -0.0925
  591TMC3    O1 8823   3.489   0.476  16.465 -0.4922  0.3047  0.1433
  591TMC3    O2 8824   3.420   0.198  15.873 -0.4989  0.1266  0.3768
  592MPD2     C 8825   3.370   2.075  11.784  0.3966 -0.5115 -0.1983
  592MPD2    C1 8826   3.358   2.097  11.917  0.4035 -0.2187  1.1136
  592MPD2    C2 8827   3.282   2.017  11.998 -0.4124 -0.4187  0.6251
  592MPD2    C3 8828   3.201   1.923  11.938 -0.5160  0.1997  0.1984
  592MPD2    C4 8829   3.204   1.904  11.798 -0.4769  0.0207 -0.4836
  592MPD2    C5 8830   3.295   1.976  11.725  0.2796  0.6114  0.3105
  592MPD2     H 8831   3.281   2.019  12.106 -0.0673  0.5905  0.6116
  592MPD2    H1 8832   3.145   1.822  11.758  1.4117  0.0847 -3.3846
  592MPD2    H2 8833   3.440   2.140  11.732  0.3111 -0.5132 -0.3157
  592MPD2    H3 8834   3.307   1.942  11.623 -1.6569 -1.3752  0.7434
  592MPD2     N 8835   3.115   1.856  12.027  0.4339  0.0620  0.3786
  592MPD2    H5 8836   3.128   1.868  12.127 -2.0509  0.8423  0.6274
  592MPD2    N1 8837   3.436   2.209  11.968 -0.4201 -0.1600  0.0967
  592MPD2    H7 8838   3.500   2.256  11.905 -0.2399  0.8392  1.0325
  593TMC3    C1 8839   3.529   2.351  12.139  0.7528  1.0957 -0.3393
  593TMC3    C2 8840   3.499   2.458  12.214  0.0950  0.9314  0.4771
  593TMC3    C3 8841   3.593   2.553  12.240 -0.4096 -0.7398  0.6387
  593TMC3    C4 8842   3.659   2.336  12.087  0.7729  0.5796 -0.2318
  593TMC3    C5 8843   3.749   2.436  12.114 -0.6671  0.2468  0.0777
  593TMC3    C6 8844   3.714   2.551  12.184  0.6717  0.5000 -0.2893
  593TMC3     C 8845   3.420   2.266  12.099  0.3692  0.3947 -0.1475
  593TMC3     O 8846   3.344   2.234  12.191 -0.4444  0.0878  0.2584
  593TMC3     H 8847   3.402   2.470  12.261  0.0685  0.5300  0.5231
  593TMC3    H1 8848   3.688   2.267  12.009 -0.4760 -0.8043  0.5324
  593TMC3    H2 8849   3.794   2.624  12.194  0.6558  0.3946  0.5871
  593TMC3    C7 8850   3.874   2.451  12.036 -0.2152 -0.3015 -0.9638
  593TMC3    C8 8851   3.545   2.678  12.289 -0.4096 -0.1856  0.7042
  593TMC3    O1 8852   3.900   2.568  12.013 -0.0091 -0.0708 -0.1201
  593TMC3    O2 8853   3.426   2.679  12.315 -1.2619  0.3235  0.2633
  594MPD2     C 8854   2.223   0.770  15.091  0.6321 -0.4691  0.4101
  594MPD2    C1 8855   2.137   0.842  15.006  0.5017 -0.2634 -0.4430
  594MPD2    C2 8856   2.197   0.932  14.922 -0.1297  0.4763  0.0901
  594MPD2    C3 8857   2.331   0.948  14.918 -1.0045  0.1850 -0.6123
  594MPD2    C4 8858   2.408   0.882  15.008 -0.3619  0.2273 -0.0010
  594MPD2    C5 8859   2.349   0.796  15.100  0.3902 -0.3448  0.0721
  594MPD2     H 8860   2.138   0.990  14.852 -1.0140 -0.3178  0.1701
  594MPD2    H1 8861   2.516   0.887  14.997 -0.4814 -2.8791 -2.5813
  594MPD2    H2 8862   2.175   0.709  15.166  0.2326  1.7310  1.9423
  594MPD2    H3 8863   2.396   0.729  15.172 -1.4204 -1.6703  0.0240
  594MPD2     N 8864   2.388   1.025  14.812 -0.0560  0.2102 -0.0495
  594MPD2    H5 8865   2.321   1.057  14.743  1.1027 -1.3539 -1.8971
  594MPD2    N1 8866   2.003   0.824  15.017  0.6580  0.0552  0.5159
  594MPD2    H7 8867   1.977   0.742  15.071  0.9965  0.2674  1.0015
  595TMC3    C1 8868   2.716   1.247  14.573 -0.1092 -0.5213 -0.1546
  595TMC3    C2 8869   2.676   1.137  14.632 -0.1728 -0.7462  0.1819
  595TMC3    C3 8870   2.545   1.127  14.672  0.0106  0.1957 -0.0139
  595TMC3    C4 8871   2.642   1.359  14.559  0.4019 -0.3152 -0.6546
  595TMC3    C5 8872   2.517   1.352  14.613 -0.2912  0.7081 -0.2834
  595TMC3    C6 8873   2.466   1.235  14.669 -0.4145  0.1055  0.1934
  595TMC3     C 8874   2.853   1.270  14.543  0.6812  0.3357  0.4425
  595TMC3     O 8875   2.934   1.227  14.621  0.4618 -0.2794  0.2073
  595TMC3     H 8876   2.751   1.063  14.657  2.4682  2.5185  1.8840
  595TMC3    H1 8877   2.684   1.454  14.528 -1.5257  0.5062 -0.7938
  595TMC3    H2 8878   2.366   1.230  14.712  0.0186  0.9862  1.2994
  595TMC3    C7 8879   2.458   1.476  14.679 -0.5040  0.2568 -0.7949
  595TMC3    C8 8880   2.525   1.041  14.786 -0.4240  0.0884 -0.3065
  595TMC3    O1 8881   2.383   1.457  14.773  0.5715 -0.8572  0.2217
  595TMC3    O2 8882   2.619   0.986  14.838  0.0887 -0.1301 -0.4939
  596MPD2     C 8883   1.447   3.911  17.063 -0.4956 -0.1512  0.0887
  596MPD2    C1 8884   1.458   4.032  17.001 -0.1000  0.3462 -0.3341
  596MPD2    C2 8885   1.526   4.042  16.882 -0.4175  0.4811 -0.0197
  596MPD2    C3 8886   1.569   3.923  16.821  0.6619 -0.1377  0.2218
  596MPD2    C4 8887   1.557   3.800  16.881  0.4444 -0.4981  0.4049
  596MPD2    C5 8888   1.494   3.799  17.001 -0.0144 -0.0041  0.4854
  596MPD2     H 8889   1.546   4.138  16.836  1.2411  0.0557 -0.2094
  596MPD2    H1 8890   1.595   3.712  16.829  0.8928 -0.7336  1.1372
  596MPD2    H2 8891   1.405   3.897  17.162 -3.0942  2.3346 -0.6669
  596MPD2    H3 8892   1.464   3.706  17.048 -0.9345 -0.5368 -1.1802
  596MPD2     N 8893   1.628   3.922  16.692 -0.0991  0.3903  0.0812
  596MPD2    H5 8894   1.672   3.841  16.648 -0.5222  0.4738 -0.5021
  596MPD2    N1 8895   1.399   4.157  17.048  0.5274 -0.8222  0.2924
  596MPD2    H7 8896   1.405   4.236  16.985  1.0052 -2.2699 -1.4988
  597TMC3    C1 8897   1.287   4.310  17.186 -0.6309  0.6855  0.2421
  597TMC3    C2 8898   1.361   4.410  17.130  0.3815  1.0853 -0.5152
  597TMC3    C3 8899   1.317   4.537  17.166 -0.3018  0.0356 -0.0232
  597TMC3    C4 8900   1.181   4.337  17.274 -0.3586 -0.3673 -0.9868
  597TMC3    C5 8901   1.166   4.466  17.324  0.3861 -0.7874  0.0093
  597TMC3    C6 8902   1.228   4.569  17.269  0.0064 -1.1192  0.3776
  597TMC3     C 8903   1.332   4.173  17.169  0.4977 -0.0958  0.1583
  597TMC3     O 8904   1.280   4.084  17.239  0.0509  0.1451  0.6924
  597TMC3     H 8905   1.448   4.385  17.072  0.5568  1.0042 -0.2189
  597TMC3    H1 8906   1.138   4.245  17.311  1.5118 -1.2114 -0.9257
  597TMC3    H2 8907   1.198   4.670  17.294  1.0626 -0.3867 -1.2355
  597TMC3    C7 8908   1.080   4.472  17.442 -0.1495 -0.0482  0.2226
  597TMC3    C8 8909   1.379   4.643  17.100 -0.8743  0.1161 -0.0987
  597TMC3    O1 8910   0.981   4.405  17.445 -0.0043 -0.2793 -0.1288
  597TMC3    O2 8911   1.346   0.017  17.129  0.6104  0.5088 -0.2338
  598TMC3    C1 8912   4.521   1.015  15.481 -0.6692  0.4255 -0.3366
  598TMC3    C2 8913   4.420   0.987  15.570  0.3083  0.5740 -1.1260
  598TMC3    C3 8914   4.299   0.947  15.523  0.7771  0.5842  0.4255
  598TMC3    C4 8915   4.497   1.023  15.347  0.8777  1.4146 -0.0398
  598TMC3    C5 8916   4.374   0.983  15.307  0.5051 -0.6134 -0.0964
  598TMC3    C6 8917   4.272   0.947  15.389 -0.3538 -0.1430  0.4042
  598TMC3     C 8918   4.650   1.081  15.528  0.3753  1.1758 -0.3782
  598TMC3     O 8919   0.006   1.073  15.452  0.3958 -0.3836 -0.5587
  598TMC3     H 8920   4.451   0.983  15.674  1.1572 -0.2002 -1.4022
  598TMC3    H1 8921   4.570   1.067  15.280  2.1327 -2.1644 -1.0386
  598TMC3    H2 8922   4.176   0.904  15.365  0.1331 -0.1398 -1.5580
  598TMC3    C7 8923   4.347   1.040  15.180  0.4923 -0.0101 -0.8789
  598TMC3    C8 8924   4.197   0.904  15.626  0.3574  0.2168 -0.4261
  598TMC3    O1 8925   4.304   0.968  15.092  0.0186 -0.5630 -0.4734
  598TMC3    O2 8926   4.233   0.883  15.737 -0.0983 -0.6442 -0.5792
  599MPD2     C 8927   4.561   3.219  15.858 -0.6998 -0.2487 -0.3942
  599MPD2    C1 8928   4.482   3.113  15.891  0.1334 -0.5832  0.1136
  599MPD2    C2 8929   4.348   3.118  15.902 -0.1969  0.2899 -0.0297
  599MPD2    C3 8930   4.290   3.245  15.908  0.8681 -0.5156 -0.0384
  599MPD2    C4 8931   4.368   3.355  15.877  0.4261  0.7117  0.3813
  599MPD2    C5 8932   4.499   3.340  15.851 -0.0175 -0.0161  0.3407
  599MPD2     H 8933   4.285   3.030  15.905 -0.4471  0.4227 -1.6268
  599MPD2    H1 8934   4.322   3.452  15.892 -2.0623 -0.2615 -0.8840
  599MPD2    H2 8935   4.668   3.215  15.846 -0.4757 -1.1771  2.0826
  599MPD2    H3 8936   4.554   3.431  15.828 -2.4483  1.8181  1.7059
  599MPD2     N 8937   4.158   3.271  15.947 -0.4798  0.4627  0.1265
  599MPD2    H5 8938   4.129   3.368  15.959  2.3829  1.3597 -0.0705
  599MPD2    N1 8939   4.547   2.991  15.900 -0.7662  0.4206 -0.5639
  599MPD2    H7 8940   4.648   2.994  15.900 -0.7519  0.2362  1.0902
  600TMC3    C1 8941   3.932   3.247  15.990 -0.1049  0.5844 -0.4978
  600TMC3    C2 8942   3.822   3.214  15.919  0.5585 -0.7426  0.2254
  600TMC3    C3 8943   3.698   3.253  15.960  0.1592 -0.8389  0.0866
  600TMC3    C4 8944   3.920   3.326  16.099  0.5353 -0.1436 -0.1791
  600TMC3    C5 8945   3.796   3.361  16.137  0.2039  0.1420 -0.1344
  600TMC3    C6 8946   3.685   3.334  16.071  0.9305  0.0122 -0.1442
  600TMC3     C 8947   4.057   3.183  15.958  0.1265  0.4402 -0.4580
  600TMC3     O 8948   4.059   3.061  15.935  0.0485  0.7006  0.3976
  600TMC3     H 8949   3.837   3.146  15.836 -1.3067 -1.2404  0.2922
  600TMC3    H1 8950   4.006   3.342  16.163  1.9521  0.9445 -2.3547
  600TMC3    H2 8951   3.596   3.388  16.100 -1.1090 -1.7816 -3.1096
  600TMC3    C7 8952   3.778   3.455  16.246  0.4248 -0.1465  0.7460
  600TMC3    C8 8953   3.577   3.222  15.879 -0.3389 -0.0653  0.4689
  600TMC3    O1 8954   3.669   3.457  16.310  0.4938  0.0458  0.4815
  600TMC3    O2 8955   3.593   3.183  15.763 -0.1959  0.2686 -0.3020
  601MPD2     C 8956   1.054   1.403   0.639  0.3562 -0.4355 -0.1310
  601MPD2    C1 8957   1.170   1.347   0.586  0.1599 -0.0239  0.3796
  601MPD2    C2 8958   1.202   1.219   0.621  0.9510 -0.1777  0.4067
  601MPD2    C3 8959   1.113   1.143   0.696  0.3212 -0.4037  0.4739
  601MPD2    C4 8960   0.997   1.199   0.749 -0.0491 -0.2755 -0.2169
  601MPD2    C5 8961   0.975   1.333   0.723  0.3384  0.0175 -0.4717
  601MPD2     H 8962   1.291   1.173   0.581 -0.0203 -1.7364  0.0151
  601MPD2    H1 8963   0.927   1.157   0.820 -0.3156 -1.4768 -1.1691
  601MPD2    H2 8964   1.012   1.499   0.610  0.6652 -0.6115 -1.1827
  601MPD2    H3 8965   0.881   1.382   0.746  0.1494 -0.8402  0.5614
  601MPD2     N 8966   1.146   1.007   0.732  0.2935 -0.5345 -0.4631
  601MPD2    H5 8967   1.077   0.958   0.787  1.9652 -0.5218  1.6493
  601MPD2    N1 8968   1.256   1.419   0.492 -0.0452  0.4709 -0.4051
  601MPD2    H7 8969   1.336   1.370   0.452 -0.1856 -0.3293  0.2979
  602TMC3    C1 8970   1.321   1.601   0.352 -0.3989 -0.8294  0.0303
  602TMC3    C2 8971   1.343   1.738   0.365 -0.0027  0.4484 -0.2742
  602TMC3    C3 8972   1.396   1.806   0.257  0.9076 -0.0551  0.0529
  602TMC3    C4 8973   1.352   1.538   0.240  0.2382 -0.2984 -0.3051
  602TMC3    C5 8974   1.416   1.604   0.140  0.2455  0.3511 -0.0490
  602TMC3    C6 8975   1.431   1.740   0.145 -0.5308 -0.1382  0.0017
  602TMC3     C 8976   1.232   1.548   0.449 -0.2075 -0.1079 -0.5302
  602TMC3     O 8977   1.146   1.628   0.482  0.2252  0.2161 -0.0068
  602TMC3     H 8978   1.316   1.796   0.452 -1.7195  1.2420 -1.3311
  602TMC3    H1 8979   1.338   1.431   0.230  0.5249 -0.5449  1.8700
  602TMC3    H2 8980   1.457   1.795   0.056  1.7109  0.4196  0.9687
  602TMC3    C7 8981   1.375   1.574   0.003 -0.5989 -0.3583  0.2723
  602TMC3    C8 8982   1.336   1.936   0.225  0.1048 -0.0618  0.1067
  602TMC3    O1 8983   1.459   1.521  17.695  0.1495 -0.3005 -0.4807
  602TMC3    O2 8984   1.423   2.019   0.189  0.2659  0.2067  0.2401
  603TMC3    C1 8985   4.088   1.679  11.036 -0.2960 -0.4285  0.6525
  603TMC3    C2 8986   4.187   1.635  11.123 -0.4217 -0.2798  0.6179
  603TMC3    C3 8987   4.267   1.730  11.189 -0.4592  0.5209 -0.1437
  603TMC3    C4 8988   4.084   1.812  11.005  0.1237 -0.0378 -0.0864
  603TMC3    C5 8989   4.169   1.904  11.066 -0.6256 -0.1369 -0.3558
  603TMC3    C6 8990   4.260   1.858  11.157  0.3162  0.1707  0.0108
  603TMC3     C 8991   4.002   1.573  10.977 -0.5321 -0.4770 -0.3903
  603TMC3     O 8992   4.012   1.464  11.019 -0.2417  0.0692  0.0475
  603TMC3     H 8993   4.189   1.534  11.163  2.2975  0.2179  1.7300
  603TMC3    H1 8994   3.993   1.851  10.961  0.2682  0.4072  0.0112
  603TMC3    H2 8995   4.336   1.930  11.182  0.2757  0.1632  0.1572
  603TMC3    C7 8996   4.155   2.050  11.051 -0.0457  0.8817  0.4734
  603TMC3    C8 8997   4.310   1.702  11.322  0.4068 -0.5970  0.3126
  603TMC3    O1 8998   4.213   2.114  11.140  0.4571 -0.0126  0.2550
  603TMC3    O2 8999   4.331   1.580  11.343 -0.8412 -0.0693 -0.0296
  604MPD2     C 9000   0.982   0.627  16.599  0.4945  0.9528  0.5005
  604MPD2    C1 9001   0.882   0.548  16.548  0.5557 -0.5242  1.0245
  604MPD2    C2 9002   0.866   0.531  16.416  0.5444 -0.0952 -0.4328
  604MPD2    C3 9003   0.950   0.594  16.322  0.0058  0.0895 -0.6875
  604MPD2    C4 9004   1.051   0.668  16.374  0.2486 -0.3662 -0.5056
  604MPD2    C5 9005   1.070   0.678  16.510 -0.4019 -0.3209  0.5510
  604MPD2     H 9006   0.783   0.477  16.373  0.9788 -0.9401 -0.2223
  604MPD2    H1 9007   1.116   0.730  16.312 -1.4619 -1.8055 -3.7674
  604MPD2    H2 9008   1.000   0.657  16.701  1.7648 -1.2072  0.8997
  604MPD2    H3 9009   1.142   0.746  16.554 -0.6096  0.6141 -0.5747
  604MPD2     N 9010   0.927   0.595  16.184 -0.3021  0.0902 -0.3360
  604MPD2    H5 9011   1.000   0.635  16.127 -0.6141 -0.5450 -1.1854
  604MPD2    N1 9012   0.796   0.494  16.648  0.0404 -0.2041  0.5244
  604MPD2    H7 9013   0.824   0.505  16.745  1.6547  0.9344 -0.0747
  605TMC3    C1 9014   0.601   0.445  16.763 -0.4987  0.0954  0.3710
  605TMC3    C2 9015   0.664   0.535  16.844 -0.4822  0.2911 -0.4918
  605TMC3    C3 9016   0.601   0.649  16.879 -0.1169 -0.1086 -0.3151
  605TMC3    C4 9017   0.473   0.457  16.732 -0.3030  0.3376 -0.4587
  605TMC3    C5 9018   0.410   0.575  16.765 -0.1819 -0.7018 -0.1992
  605TMC3    C6 9019   0.473   0.672  16.842  0.0677 -0.4770 -0.1384
  605TMC3     C 9020   0.676   0.442  16.635 -0.7714 -0.0642 -0.3683
  605TMC3     O 9021   0.614   0.411  16.532  0.5873 -0.4011  0.1106
  605TMC3     H 9022   0.758   0.506  16.890 -1.2634 -0.4212  0.6714
  605TMC3    H1 9023   0.425   0.386  16.665  1.2031 -0.1374 -1.0247
  605TMC3    H2 9024   0.428   0.767  16.869  1.9851 -0.0535  1.5881
  605TMC3    C7 9025   0.282   0.601  16.717  0.6855  0.2648  0.3042
  605TMC3    C8 9026   0.672   0.730  16.979  0.7835 -0.5519 -0.0224
  605TMC3    O1 9027   0.258   0.724  16.698 -1.1146  0.3803 -0.4051
  605TMC3    O2 9028   0.675   0.852  16.957  0.2699 -0.4987  0.1624
  606TMC3    C1 9029   1.593   4.027  17.453 -0.2995 -0.2066  1.1938
  606TMC3    C2 9030   1.539   4.047  17.580  0.2406  0.1987 -0.9304
  606TMC3    C3 9031   1.462   3.950  17.634  0.5445  0.3679 -0.0062
  606TMC3    C4 9032   1.581   3.909  17.387  0.3001 -0.0177 -0.7922
  606TMC3    C5 9033   1.512   3.812  17.451  0.1682 -1.0829  0.2955
  606TMC3    C6 9034   1.455   3.824  17.576  0.2450  0.4877  0.0909
  606TMC3     C 9035   1.624   4.135  17.361 -0.2117  0.0406  0.1468
  606TMC3     O 9036   1.586   4.242  17.405 -0.7923 -0.0622  0.6896
  606TMC3     H 9037   1.561   4.133  17.642 -1.0529  0.3822 -0.7363
  606TMC3    H1 9038   1.607   3.889  17.284  0.5240 -2.8387 -0.1928
  606TMC3    H2 9039   1.416   3.741  17.633  1.4275 -0.2545 -0.1872
  606TMC3    C7 9040   1.510   3.678  17.393  0.0502  0.1125  0.1786
  606TMC3    C8 9041   1.435   3.967   0.016  0.0020 -0.6925  0.2008
  606TMC3    O1 9042   1.597   3.648  17.315  0.3552 -0.4569  0.0650
  606TMC3    O2 9043   1.521   4.035   0.075 -0.8111  0.4582 -0.0962
  607MPD2     C 9044   3.304   1.540  12.058  0.6518  0.5809  0.8944
  607MPD2    C1 9045   3.435   1.545  12.075  0.4971  0.5466 -0.6277
  607MPD2    C2 9046   3.490   1.510  12.192  0.0476 -0.0389 -0.2237
  607MPD2    C3 9047   3.421   1.465  12.299 -0.9980 -0.3793 -0.1565
  607MPD2    C4 9048   3.286   1.457  12.282 -0.2424  0.0058  0.1828
  607MPD2    C5 9049   3.232   1.483  12.161  0.0396 -0.7184 -0.2149
  607MPD2     H 9050   3.597   1.521  12.201  0.2224 -1.8527 -0.0129
  607MPD2    H1 9051   3.223   1.411  12.356 -0.4090  1.8568  1.1838
  607MPD2    H2 9052   3.265   1.568  11.961 -0.0116 -1.4989  0.5459
  607MPD2    H3 9053   3.125   1.470  12.149 -0.2689  0.4601  1.2347
  607MPD2     N 9054   3.487   1.427  12.421 -0.7694 -0.5897  0.2188
  607MPD2    H5 9055   3.587   1.413  12.419 -0.7487 -0.8660  2.6661
  607MPD2    N1 9056   3.523   1.616  11.983 -0.3946  0.3986 -0.4247
  607MPD2    H7 9057   3.617   1.635  12.014 -0.8939 -0.6116  1.7302
  608TMC3    C1 9058   3.563   1.807  11.874  0.0735 -0.2208 -0.9895
  608TMC3    C2 9059   3.604   1.846  11.998 -1.0643  0.5008 -0.0278
  608TMC3    C3 9060   3.697   1.948  11.999  0.2257 -0.0496  0.1878
  608TMC3    C4 9061   3.608   1.856  11.757  0.5283 -0.1348  0.8118
  608TMC3    C5 9062   3.705   1.946  11.765  0.1865 -0.3223  0.9585
  608TMC3    C6 9063   3.755   1.997  11.886  0.0511  0.5972 -0.0427
  608TMC3     C 9064   3.480   1.688  11.875  0.6696  0.4508 -0.3842
  608TMC3     O 9065   3.392   1.669  11.795 -0.4381 -0.1980 -0.5335
  608TMC3     H 9066   3.549   1.824  12.089 -0.0529  2.2783  1.0137
  608TMC3    H1 9067   3.581   1.808  11.664  1.2299 -0.1309  0.6062
  608TMC3    H2 9068   3.827   2.078  11.881  0.6974  0.1544  1.6863
  608TMC3    C7 9069   3.730   2.018  11.640 -0.1737  0.1097  0.5024
  608TMC3    C8 9070   3.785   1.969  12.117 -0.0149  1.0595 -0.2348
  608TMC3    O1 9071   3.642   2.020  11.557 -0.1857  0.1331  0.6464
  608TMC3    O2 9072   3.869   2.060  12.108 -0.3306  0.2095  0.1295
  609TMC3    C1 9073   1.687   0.610   9.152  0.5474 -0.0799  0.2808
  609TMC3    C2 9074   1.604   0.622   9.043 -0.1839  0.0397  0.0605
  609TMC3    C3 9075   1.638   0.574   8.920 -0.6730  0.2609 -0.3996
  609TMC3    C4 9076   1.802   0.536   9.143  0.1466  0.3487 -0.4690
  609TMC3    C5 9077   1.829   0.470   9.023  0.5974 -0.4539 -0.6020
  609TMC3    C6 9078   1.755   0.492   8.906 -0.0385 -1.0230  0.1244
  609TMC3     C 9079   1.662   0.681   9.268 -0.4849  0.2445 -0.6910
  609TMC3     O 9080   1.717   0.629   9.363 -0.1595  0.3259 -0.2871
  609TMC3     H 9081   1.512   0.678   9.056 -0.3342  0.0319 -0.9611
  609TMC3    H1 9082   1.858   0.506   9.231 -1.6823 -0.4862  0.4123
  609TMC3    H2 9083   1.796   0.472   8.808 -0.7633  1.2476 -0.6620
  609TMC3    C7 9084   1.935   0.372   9.028  0.2755 -0.3592  0.2179
  609TMC3    C8 9085   1.545   0.553   8.805 -0.4003 -0.4588  0.1026
  609TMC3    O1 9086   2.020   0.392   9.110 -0.1652 -0.3720 -0.3465
  609TMC3    O2 9087   1.581   0.485   8.711 -0.0819 -0.3781  0.1825
  610TMC3    C1 9088   4.113   2.360  12.925 -0.2680  0.5643  0.4628
  610TMC3    C2 9089   4.211   2.367  12.828  0.5990  0.1837  0.1639
  610TMC3    C3 9090   4.232   2.248  12.762 -0.3307 -0.5869 -0.1378
  610TMC3    C4 9091   4.039   2.252  12.957 -0.0222  0.4143  0.9423
  610TMC3    C5 9092   4.060   2.143  12.891  0.1479 -0.2705 -0.4277
  610TMC3    C6 9093   4.154   2.135  12.793  0.9076  0.0856 -0.4842
  610TMC3     C 9094   4.019   2.478  12.917 -0.0816 -0.4197 -0.0933
  610TMC3     O 9095   4.004   2.530  12.808 -0.0025  0.0072 -0.1135
  610TMC3     H 9096   4.248   2.460  12.788 -0.3022 -0.5068 -2.2943
  610TMC3    H1 9097   3.969   2.259  13.040 -0.8256  2.1002  0.1035
  610TMC3    H2 9098   4.171   2.037  12.751 -2.0112 -1.5638  2.2214
  610TMC3    C7 9099   4.040   2.012  12.970 -0.2919  0.6632  0.0295
  610TMC3    C8 9100   4.299   2.257  12.628  0.6175 -0.5661 -0.4733
  610TMC3    O1 9101   4.108   1.915  12.934 -0.2812 -0.3067 -0.0970
  610TMC3    O2 9102   4.369   2.353  12.614 -0.2184 -0.2512  0.3013
  611MPD2     C 9103   3.082   1.938  10.166 -0.7538  0.9848 -0.9247
  611MPD2    C1 9104   3.112   1.948  10.298  0.0054  0.4691  0.2121
  611MPD2    C2 9105   3.214   2.035  10.347 -0.3525  0.4497  0.7598
  611MPD2    C3 9106   3.290   2.107  10.249 -0.0972  0.3926 -0.3347
  611MPD2    C4 9107   3.253   2.098  10.118 -0.2303  0.0984 -0.4238
  611MPD2    C5 9108   3.154   2.015  10.077  0.3702 -0.1954 -0.1896
  611MPD2     H 9109   3.229   2.037  10.454  1.0113 -1.2154  0.5983
  611MPD2    H1 9110   3.300   2.159  10.042 -1.5626  0.0511 -1.2700
  611MPD2    H2 9111   2.999   1.878  10.131  1.5491 -1.6497 -1.8605
  611MPD2    H3 9112   3.138   2.015   9.970  0.7042  0.4712 -0.2371
  611MPD2     N 9113   3.392   2.195  10.274  0.1498 -0.2031  0.2292
  611MPD2    H5 9114   3.425   2.255  10.199 -2.4756  1.4791  0.4527
  611MPD2    N1 9115   3.034   1.867  10.380  0.4088 -0.4531  0.6254
  611MPD2    H7 9116   2.954   1.822  10.338  1.3284 -0.2175 -1.3597
  612TMC3    C1 9117   3.502   2.337  10.416 -0.3856  0.5149  0.4115
  612TMC3    C2 9118   3.617   2.347  10.486  0.0171  0.8652 -0.8032
  612TMC3    C3 9119   3.688   2.466  10.496 -0.0236 -0.1888 -0.1012
  612TMC3    C4 9120   3.436   2.445  10.365  0.3183 -0.0716  0.0647
  612TMC3    C5 9121   3.518   2.564  10.363 -0.0058 -0.1777  0.5989
  612TMC3    C6 9122   3.638   2.574  10.428  0.2223 -0.2290  0.3019
  612TMC3     C 9123   3.443   2.210  10.399 -0.4469  0.1996 -0.7793
  612TMC3     O 9124   3.445   2.131  10.488 -0.4156  0.2182  0.2973
  612TMC3     H 9125   3.653   2.261  10.541  0.5195  1.1328 -0.7101
  612TMC3    H1 9126   3.342   2.429  10.315 -1.0713  0.3116  2.5614
  612TMC3    H2 9127   3.691   2.666  10.447 -0.3949  0.3292 -0.6687
  612TMC3    C7 9128   3.461   2.681  10.307  0.0865 -0.0387  0.1494
  612TMC3    C8 9129   3.785   2.489  10.600  0.6723 -0.4907  0.2756
  612TMC3    O1 9130   3.547   2.769  10.285 -0.0947 -0.3250 -0.0166
  612TMC3    O2 9131   3.820   2.601  10.628 -0.6186  0.1597 -0.0631
  613MPD2     C 9132   2.992   4.393  16.423  0.2327 -0.2691 -0.2891
  613MPD2    C1 9133   2.864   4.385  16.480  0.4956 -0.0224  0.3891
  613MPD2    C2 9134   2.816   4.265  16.530 -0.1413 -0.0500  0.4691
  613MPD2    C3 9135   2.878   4.143  16.497  0.8984  0.2908  0.0097
  613MPD2    C4 9136   3.008   4.151  16.440  1.1792  0.2879  0.0806
  613MPD2    C5 9137   3.063   4.272  16.406  0.1234 -1.0403  0.5683
  613MPD2     H 9138   2.710   4.250  16.545  0.2645 -1.3105  2.0451
  613MPD2    H1 9139   3.065   4.061  16.418 -1.4861 -0.8543 -2.1572
  613MPD2    H2 9140   3.039   4.485  16.391  0.1510 -0.4946 -1.0580
  613MPD2    H3 9141   3.159   4.272  16.354 -0.1948  0.5621 -0.0164
  613MPD2     N 9142   2.813   4.019  16.511 -0.0623  0.1561  0.4283
  613MPD2    H5 9143   2.852   3.945  16.454 -1.2922  0.3401 -0.6361
  613MPD2    N1 9144   2.796   4.507  16.479 -0.0886 -0.0082  0.7348
  613MPD2    H7 9145   2.835   4.584  16.425  1.7108 -2.3664 -1.3232
  614TMC3    C1 9146   2.570   4.517  16.439  0.3054  0.1798  0.3453
  614TMC3    C2 9147   2.489   4.406  16.457 -0.9525  0.4182  0.3202
  614TMC3    C3 9148   2.429   4.365  16.343  0.0958  0.2798 -0.0812
  614TMC3    C4 9149   2.591   4.588  16.320  0.3542  0.4039  0.2858
  614TMC3    C5 9150   2.512   4.538  16.214  0.6005  0.4049  0.1316
  614TMC3    C6 9151   2.426   4.431  16.222 -0.8183 -0.0334  0.3404
  614TMC3     C 9152   2.671   4.522  16.536 -0.1042  0.1261 -0.9173
  614TMC3     O 9153   2.633   4.484  16.649  0.0606 -0.1203 -0.2756
  614TMC3     H 9154   2.504   4.335  16.537 -0.0527 -1.3049 -1.3856
  614TMC3    H1 9155   2.654   4.676  16.311 -1.1809  1.5468  0.7530
  614TMC3    H2 9156   2.377   4.393  16.133 -0.6708 -0.2075  0.3328
  614TMC3    C7 9157   2.499   4.623  16.097 -0.1694  0.0522  0.4560
  614TMC3    C8 9158   2.406   4.219  16.343 -0.2772 -0.0713  0.3014
  614TMC3    O1 9159   2.502   0.004  16.108 -0.0739 -0.2558  0.3632
  614TMC3    O2 9160   2.498   4.151  16.386 -0.2155  0.3247  0.5688
  615MPD2     C 9161   2.110   0.956  16.432 -0.6130 -0.1140 -0.0711
  615MPD2    C1 9162   2.121   1.070  16.358 -0.3398 -0.5541 -0.0839
  615MPD2    C2 9163   2.059   1.068  16.236 -0.9369  0.1921  0.4394
  615MPD2    C3 9164   1.997   0.958  16.183  0.0044 -0.6583  0.6605
  615MPD2    C4 9165   1.988   0.841  16.258 -0.4635  0.4217 -0.2870
  615MPD2    C5 9166   2.048   0.844  16.380 -0.1118 -0.3363 -0.3106
  615MPD2     H 9167   2.060   1.160  16.179 -1.2073 -0.2916 -0.3437
  615MPD2    H1 9168   1.943   0.747  16.226  0.4118 -0.2522  0.4468
  615MPD2    H2 9169   2.161   0.945  16.527 -0.4412 -0.0327 -0.1527
  615MPD2    H3 9170   2.054   0.752  16.436  0.3597  0.7710  1.4745
  615MPD2     N 9171   1.948   0.975  16.058 -0.6818  0.3821  0.1576
  615MPD2    H5 9172   1.967   1.063  16.011 -2.5079  0.0290 -1.2253
  615MPD2    N1 9173   2.158   1.194  16.410  0.2757 -0.2009  0.1306
  615MPD2    H7 9174   2.143   1.273  16.348 -1.5196  0.4696  1.3890
  616TMC3    C1 9175   2.209   1.344  16.593 -0.0709  0.3724 -0.3630
  616TMC3    C2 9176   2.302   1.382  16.691 -0.1140 -0.1152 -0.2719
  616TMC3    C3 9177   2.310   1.513  16.724 -0.5962  0.0048 -0.1798
  616TMC3    C4 9178   2.125   1.436  16.531 -0.0602  0.3040  0.2104
  616TMC3    C5 9179   2.150   1.569  16.565  0.0513  0.2900  0.9681
  616TMC3    C6 9180   2.228   1.607  16.669 -0.2806 -0.6322 -0.2819
  616TMC3     C 9181   2.214   1.211  16.537  0.6601 -0.3539 -0.6240
  616TMC3     O 9182   2.285   1.130  16.599 -0.6130  0.6816  0.0722
  616TMC3     H 9183   2.364   1.306  16.737  0.1250  1.1237  1.4529
  616TMC3    H1 9184   2.048   1.413  16.459  1.1205  0.8787 -1.2348
  616TMC3    H2 9185   2.240   1.714  16.682 -2.3247 -0.3234 -0.9375
  616TMC3    C7 9186   2.077   1.677  16.505 -0.4156  0.4333 -0.0688
  616TMC3    C8 9187   2.431   1.568  16.784  0.3085  0.5154 -0.0042
  616TMC3    O1 9188   2.042   1.760  16.587 -0.0714 -0.1591  0.4051
  616TMC3    O2 9189   2.436   1.672  16.854  0.3358  0.2946 -0.1622
  617MPD2     C 9190   0.318   3.895  14.144  0.2401  0.4805 -0.0702
  617MPD2    C1 9191   0.334   3.810  14.250 -0.1711  0.1227 -0.4204
  617MPD2    C2 9192   0.224   3.769  14.327  0.4820  0.5421  0.7107
  617MPD2    C3 9193   0.103   3.822  14.293 -1.0428  0.4648 -0.0127
  617MPD2    C4 9194   0.091   3.895  14.178 -0.1950 -0.2500  0.2698
  617MPD2    C5 9195   0.194   3.923  14.100  0.3345 -0.2835  0.1634
  617MPD2     H 9196   0.238   3.710  14.417 -2.0240 -2.9733 -1.1785
  617MPD2    H1 9197   4.731   3.924  14.150 -0.4106 -2.5520 -1.2626
  617MPD2    H2 9198   0.411   3.931  14.101  0.1013  0.4539 -0.3941
  617MPD2    H3 9199   0.179   3.971  14.004  3.1593  1.1585  0.4471
  617MPD2     N 9200   4.716   3.789  14.347 -0.1631 -0.0296  0.4031
  617MPD2    H5 9201   4.629   3.829  14.316 -0.2221  0.0371  0.6534
  617MPD2    N1 9202   0.471   3.780  14.292  0.3374 -0.1181  0.2713
  617MPD2    H7 9203   0.547   3.832  14.248 -0.3242 -0.2800 -1.0646
  618TMC3    C1 9204   0.645   3.691  14.424 -0.2536  0.2624 -0.3100
  618TMC3    C2 9205   0.720   3.580  14.450  0.6718 -0.2698  0.2032
  618TMC3    C3 9206   0.859   3.594  14.489  0.1815 -0.7621 -0.2775
  618TMC3    C4 9207   0.703   3.814  14.436 -0.0065  0.4936  0.0812
  618TMC3    C5 9208   0.835   3.823  14.471 -0.2074  0.8102 -0.1361
  618TMC3    C6 9209   0.915   3.716  14.499 -0.1226  0.0030 -0.1329
  618TMC3     C 9210   0.507   3.679  14.389  0.5413  1.0460 -0.4034
  618TMC3     O 9211   0.450   3.573  14.401  0.3048  0.0431  0.0412
  618TMC3     H 9212   0.672   3.483  14.449 -1.6733  0.8831  1.0332
  618TMC3    H1 9213   0.640   3.901  14.421 -0.0944  0.7549  2.0828
  618TMC3    H2 9214   1.021   3.734  14.515 -0.0410  1.4447 -2.2393
  618TMC3    C7 9215   0.896   3.952  14.458 -0.6270  0.5461 -0.4908
  618TMC3    C8 9216   0.942   3.493  14.428  0.6004  1.0032  0.5358
  618TMC3    O1 9217   0.853   4.034  14.537 -0.0926 -0.3278 -0.0402
  618TMC3    O2 9218   0.900   3.412  14.346  0.0513  0.7313 -0.3147
  619MPD2     C 9219   1.687   0.542  13.281 -0.8475 -0.1225  0.3169
  619MPD2    C1 9220   1.582   0.612  13.323 -0.2192 -1.1083 -0.2270
  619MPD2    C2 9221   1.449   0.564  13.324  0.3338 -0.7948 -0.4315
  619MPD2    C3 9222   1.429   0.428  13.288 -0.0286 -0.7769  0.6771
  619MPD2    C4 9223   1.539   0.356  13.254 -0.7566 -0.2853 -0.1035
  619MPD2    C5 9224   1.669   0.412  13.255 -0.3426 -0.1357  0.2101
  619MPD2     H 9225   1.368   0.625  13.364  0.3140 -1.7505  0.9944
  619MPD2    H1 9226   1.541   0.251  13.228  2.5302 -0.2832  0.0764
  619MPD2    H2 9227   1.785   0.588  13.281 -0.5683 -0.7249 -1.3327
  619MPD2    H3 9228   1.758   0.351  13.239 -0.2641  0.1261 -0.3414
  619MPD2     N 9229   1.305   0.360  13.305 -0.2620  0.1945  0.0894
  619MPD2    H5 9230   1.312   0.261  13.286  0.7820 -0.1634  2.2762
  619MPD2    N1 9231   1.597   0.743  13.379 -0.0815 -0.1423 -0.3971
  619MPD2    H7 9232   1.518   0.795  13.415  0.6085 -0.2964  1.3061
  620TMC3    C1 9233   1.686   0.958  13.424 -0.4405 -0.4100  0.2092
  620TMC3    C2 9234   1.580   1.015  13.369 -0.5461  0.0083 -0.0636
  620TMC3    C3 9235   1.536   1.133  13.427 -0.3137  0.0167 -0.3292
  620TMC3    C4 9236   1.754   1.012  13.527 -0.2580  0.2530 -0.1141
  620TMC3    C5 9237   1.702   1.124  13.586  0.0204  0.6277  0.7160
  620TMC3    C6 9238   1.600   1.189  13.528 -0.2639  0.0011 -0.0387
  620TMC3     C 9239   1.711   0.814  13.402 -0.5020 -0.4389  0.2147
  620TMC3     O 9240   1.825   0.771  13.412  0.2062 -0.0892  0.0941
  620TMC3     H 9241   1.531   0.966  13.286 -1.0175  0.5711 -0.1146
  620TMC3    H1 9242   1.822   0.957  13.590 -1.3609  0.9220  1.6690
  620TMC3    H2 9243   1.571   1.282  13.575 -0.5487 -0.5311  0.8324
  620TMC3    C7 9244   1.702   1.129  13.732  0.7728  0.2641  0.2622
  620TMC3    C8 9245   1.395   1.136  13.460 -0.0088 -0.6187  0.3894
  620TMC3    O1 9246   1.810   1.104  13.789  0.3206 -0.0080 -0.4008
  620TMC3    O2 9247   1.365   1.191  13.569 -0.3121 -0.0066 -0.4372
  621MPD2     C 9248   1.817   4.542  10.744  0.1262 -0.0985 -0.0734
  621MPD2    C1 9249   1.825   4.550  10.604  0.4482  0.7965 -0.2912
  621MPD2    C2 9250   1.860   4.671  10.549 -0.3198 -0.2896  0.6705
  621MPD2    C3 9251   1.856   0.041  10.623 -0.2719  0.2969 -0.0451
  621MPD2    C4 9252   1.839   0.038  10.758  0.4850 -0.2669 -0.3654
  621MPD2    C5 9253   1.817   4.653  10.813 -0.0202  0.1902 -0.2782
  621MPD2     H 9254   1.888   4.683  10.445  1.6637  1.3023  1.4013
  621MPD2    H1 9255   1.863   0.119  10.825 -0.6646  0.2269 -0.5520
  621MPD2    H2 9256   1.796   4.449  10.796 -0.2004 -0.6643 -1.2126
  621MPD2    H3 9257   1.804   4.658  10.921  2.3881 -2.4601  0.1581
  621MPD2     N 9258   1.880   0.163  10.557  0.0107  0.1171  0.6451
  621MPD2    H5 9259   1.904   0.166  10.459  4.1196 -1.7875  1.5835
  621MPD2    N1 9260   1.803   4.437  10.522 -0.6796  0.1163 -0.0896
  621MPD2    H7 9261   1.798   4.448  10.421 -0.7827 -1.2212 -0.2286
  622TMC3    C1 9262   1.731   4.222  10.457 -0.5390  0.2270  0.4909
  622TMC3    C2 9263   1.690   4.104  10.509 -0.0571  0.4343 -0.3778
  622TMC3    C3 9264   1.587   4.034  10.461  0.3366  0.2151 -0.4528
  622TMC3    C4 9265   1.666   4.271  10.349 -0.7212  0.2734  0.6538
  622TMC3    C5 9266   1.555   4.205  10.301  0.3119  0.0534 -0.4455
  622TMC3    C6 9267   1.512   4.079  10.351 -0.3164 -0.1711 -0.5499
  622TMC3     C 9268   1.775   4.311  10.564 -0.3781 -0.0957 -0.1205
  622TMC3     O 9269   1.772   4.255  10.671 -0.0643  0.5204  0.2743
  622TMC3     H 9270   1.742   4.058  10.593 -0.0874 -0.9741 -1.1346
  622TMC3    H1 9271   1.698   4.360  10.297  0.4068 -2.1314 -2.7208
  622TMC3    H2 9272   1.421   4.026  10.327 -1.0356  1.1833 -0.8412
  622TMC3    C7 9273   1.444   4.282  10.240  0.2075  0.5489 -0.1892
  622TMC3    C8 9274   1.545   3.922  10.542  0.2353 -0.5976 -0.1198
  622TMC3    O1 9275   1.341   4.213  10.251  0.6936  0.3740  0.2456
  622TMC3    O2 9276   1.629   3.835  10.554 -0.1836  0.0345 -0.5261
  623MPD2     C 9277   1.260   1.166  16.362 -0.1751 -0.5580  0.2409
  623MPD2    C1 9278   1.160   1.121  16.438 -0.4561  0.2750 -0.5584
  623MPD2    C2 9279   1.171   1.137  16.578  0.5131 -0.1255  0.0793
  623MPD2    C3 9280   1.282   1.186  16.640  0.3633  0.1667 -0.0522
  623MPD2    C4 9281   1.388   1.227  16.563 -0.5894 -0.0088  0.2494
  623MPD2    C5 9282   1.375   1.208  16.426  0.5544 -0.4186  0.0438
  623MPD2     H 9283   1.091   1.108  16.644  0.5765 -0.8213 -0.1480
  623MPD2    H1 9284   1.481   1.275  16.592 -0.4221  0.6081 -1.3287
  623MPD2    H2 9285   1.268   1.154  16.255  0.1665 -1.4895  0.3650
  623MPD2    H3 9286   1.459   1.231  16.361  0.4429 -0.6108 -0.1659
  623MPD2     N 9287   1.284   1.186  16.783 -0.2883 -0.1151 -0.0599
  623MPD2    H5 9288   1.209   1.143  16.835  0.2921  0.5865  1.3503
  623MPD2    N1 9289   1.043   1.057  16.390 -0.6085  0.5583 -0.4135
  623MPD2    H7 9290   0.970   1.026  16.453  2.3560  0.4285  2.9913
  624TMC3    C1 9291   1.455   1.090  17.204  0.4909  0.0256 -0.0140
  624TMC3    C2 9292   1.329   1.038  17.236 -0.3126  0.0104  0.2164
  624TMC3    C3 9293   1.219   1.084  17.159 -0.7781 -0.6776  0.1022
  624TMC3    C4 9294   1.472   1.164  17.088 -0.7928  0.2756  0.4388
  624TMC3    C5 9295   1.364   1.183  17.006 -0.3133  0.3425  0.1595
  624TMC3    C6 9296   1.232   1.151  17.042 -0.6236  0.2420 -0.0399
  624TMC3     C 9297   1.567   1.047  17.287  0.3224  0.0561 -0.7342
  624TMC3     O 9298   1.547   1.008  17.399  0.3328 -0.1985 -0.2858
  624TMC3     H 9299   1.321   0.966  17.316  0.2737  0.6458  0.8382
  624TMC3    H1 9300   1.564   1.206  17.050 -0.9695  0.2153 -0.0632
  624TMC3    H2 9301   1.146   1.171  16.980 -0.3777  0.6803 -0.2385
  624TMC3    C7 9302   1.390   1.216  16.871 -0.2236 -0.8000  0.7205
  624TMC3    C8 9303   1.092   1.010  17.171 -0.3683 -0.2812  0.7092
  624TMC3    O1 9304   1.503   1.250  16.837 -0.6524 -0.4746  0.2098
  624TMC3    O2 9305   1.012   1.037  17.082 -0.4630 -0.1216  0.4443
  625MPD2     C 9306   0.652   1.882   0.852 -0.8172 -0.2080  0.2841
  625MPD2    C1 9307   0.605   2.008   0.866  0.4391  0.1855  0.2659
  625MPD2    C2 9308   0.688   2.097   0.938  1.1839 -0.6707 -0.4655
  625MPD2    C3 9309   0.807   2.063   0.997 -0.0897 -0.2618 -0.0933
  625MPD2    C4 9310   0.843   1.927   0.985  0.3304 -0.1741 -0.1353
  625MPD2    C5 9311   0.763   1.843   0.922  0.3652 -0.5872  0.1580
  625MPD2     H 9312   0.651   2.199   0.942  0.3392 -0.9407 -1.7778
  625MPD2    H1 9313   0.936   1.898   1.032 -0.4505  0.6919  1.9758
  625MPD2    H2 9314   0.598   1.803   0.800  2.1415 -1.8280 -0.3188
  625MPD2    H3 9315   0.809   1.745   0.927 -2.3195 -1.9315 -1.5540
  625MPD2     N 9316   0.885   2.164   1.057 -0.4951  0.0831  0.0327
  625MPD2    H5 9317   0.844   2.256   1.066 -0.6225 -0.0172  0.5106
  625MPD2    N1 9318   0.487   2.063   0.804  0.0307 -0.0375  0.0357
  625MPD2    H7 9319   0.447   2.149   0.840 -1.7235 -0.9678  0.3539
  626TMC3    C1 9320   0.337   2.103   0.639  0.1098  0.4632  0.0294
  626TMC3    C2 9321   0.327   2.091   0.503  0.2145 -0.4084  0.3122
  626TMC3    C3 9322   0.262   2.199   0.445  0.7849 -0.5844  0.2350
  626TMC3    C4 9323   0.274   2.200   0.716  0.4138  0.5752 -0.5560
  626TMC3    C5 9324   0.196   2.291   0.650 -0.1119  0.2479 -0.6615
  626TMC3    C6 9325   0.189   2.295   0.514  0.0909  0.0236  0.3959
  626TMC3     C 9326   0.428   2.012   0.694  0.2426  0.3813  0.0424
  626TMC3     O 9327   0.460   1.903   0.640  0.5176 -0.5453 -0.0064
  626TMC3     H 9328   0.373   2.014   0.443  1.9639  0.4333  0.5877
  626TMC3    H1 9329   0.282   2.209   0.823 -2.7353 -0.0605 -0.2598
  626TMC3    H2 9330   0.117   2.361   0.467 -0.2806  0.5040  1.6261
  626TMC3    C7 9331   0.111   2.394   0.719 -0.5564 -0.4374  0.0752
  626TMC3    C8 9332   0.220   2.178   0.313 -0.0692 -0.1277  0.6177
  626TMC3    O1 9333   0.047   2.467   0.645  0.1833 -0.3974  0.1775
  626TMC3    O2 9334   0.209   2.063   0.283  0.2656 -0.0711  0.0359
  627MPD2     C 9335   4.311   2.928  14.819 -1.3365 -0.0634  0.0633
  627MPD2    C1 9336   4.358   2.818  14.887  0.4385  0.3741 -0.1119
  627MPD2    C2 9337   4.285   2.701  14.889  0.1103 -0.3753 -0.1789
  627MPD2    C3 9338   4.177   2.690  14.807 -0.2772 -0.6358  0.1816
  627MPD2    C4 9339   4.139   2.791  14.723  0.4166 -0.2372 -0.5599
  627MPD2    C5 9340   4.205   2.911  14.735  0.3137  0.4973  0.5514
  627MPD2     H 9341   4.310   2.610  14.942 -1.1939 -1.4352 -1.3861
  627MPD2    H1 9342   4.044   2.793  14.670 -0.7515  1.2061  1.5972
  627MPD2    H2 9343   4.362   3.023  14.830  2.1805 -1.7126 -2.0395
  627MPD2    H3 9344   4.178   2.995  14.672  0.1076 -0.9659 -1.3110
  627MPD2     N 9345   4.107   2.567  14.801 -0.5542 -0.1050 -0.1773
  627MPD2    H5 9346   4.137   2.504  14.875  0.1933 -1.5226 -1.6797
  627MPD2    N1 9347   4.463   2.842  14.978  0.0596 -0.2889 -0.2769
  627MPD2    H7 9348   4.501   2.936  14.980 -0.8699  0.0657  0.5477
  628TMC3    C1 9349   4.619   2.812  15.130  0.1578  0.1849 -0.8316
  628TMC3    C2 9350   4.736   2.739  15.137  0.3660  0.5561  0.3655
  628TMC3    C3 9351   0.097   2.804  15.205 -0.7628  0.2761  0.3304
  628TMC3    C4 9352   4.613   2.941  15.186  0.0460  0.0140 -0.6006
  628TMC3    C5 9353   4.716   2.988  15.263 -0.2510  0.2687  0.5428
  628TMC3    C6 9354   0.080   2.914  15.289 -0.3150 -0.3321  0.0783
  628TMC3     C 9355   4.517   2.748  15.053  0.4833  0.6138 -0.1051
  628TMC3     O 9356   4.523   2.625  15.038 -0.4517  0.2435 -0.3981
  628TMC3     H 9357   0.000   2.638  15.099 -1.6207  0.6618 -0.2028
  628TMC3    H1 9358   4.525   3.004  15.186 -0.0977 -0.1929 -1.4200
  628TMC3    H2 9359   0.160   2.961  15.345  0.0578  0.0530 -0.7881
  628TMC3    C7 9360   4.741   3.132  15.261  0.0132  0.0450  0.0633
  628TMC3    C8 9361   0.231   2.769  15.177 -0.6703  0.0124 -0.2061
  628TMC3    O1 9362   0.088   3.176  15.328 -0.2523  0.1237 -0.4381
  628TMC3    O2 9363   0.318   2.787  15.262 -0.0226  0.1634 -0.5917
  629MPD2     C 9364   2.939   1.516  16.747 -0.7562 -0.3317  1.0865
  629MPD2    C1 9365   2.878   1.425  16.666  0.6424  0.2902  0.1607
  629MPD2    C2 9366   2.739   1.412  16.661 -0.8535 -0.4907 -0.4173
  629MPD2    C3 9367   2.659   1.504  16.731 -0.3426 -0.3293  0.1682
  629MPD2    C4 9368   2.721   1.609  16.793 -0.3321 -0.2338  0.0487
  629MPD2    C5 9369   2.860   1.611  16.806  0.4202  0.0540  0.5553
  629MPD2     H 9370   2.694   1.342  16.591 -1.3224  0.5176 -1.1306
  629MPD2    H1 9371   2.663   1.692  16.833 -0.7038  0.2957 -1.6178
  629MPD2    H2 9372   3.046   1.534  16.745 -0.6278 -1.0387  1.8224
  629MPD2    H3 9373   2.900   1.700  16.853  0.3750  1.3948 -1.9635
  629MPD2     N 9374   2.522   1.494  16.721  0.4607  0.5825 -0.6498
  629MPD2    H5 9375   2.487   1.420  16.661 -0.3146 -1.3376  2.1439
  629MPD2    N1 9376   2.965   1.353  16.582  0.6909 -0.0355  0.2531
  629MPD2    H7 9377   3.059   1.383  16.562  0.3157  0.9718  0.0037
  630TMC3    C1 9378   3.026   1.170  16.456 -0.8758  0.1811  0.3976
  630TMC3    C2 9379   3.119   1.246  16.385  0.1896  0.1097  0.3405
  630TMC3    C3 9380   3.244   1.198  16.363 -0.5598 -0.7568 -0.1099
  630TMC3    C4 9381   3.064   1.047  16.498  0.1201  0.0979  0.1081
  630TMC3    C5 9382   3.196   1.013  16.491 -0.3365  0.2761  0.1288
  630TMC3    C6 9383   3.290   1.079  16.420  0.2510 -0.2655 -0.3893
  630TMC3     C 9384   2.921   1.230  16.528  0.4494 -0.0562 -0.3209
  630TMC3     O 9385   2.834   1.156  16.580 -0.0611 -0.1820 -0.4634
  630TMC3     H 9386   3.093   1.345  16.348 -0.4300 -0.0795  0.2611
  630TMC3    H1 9387   3.004   1.004  16.577  1.2751  1.4192  1.7040
  630TMC3    H2 9388   3.387   1.035  16.401 -0.6608 -2.7610  0.8690
  630TMC3    C7 9389   3.251   0.953  16.613 -0.2981  0.0941  0.1525
  630TMC3    C8 9390   3.340   1.301  16.324  0.4340 -0.9635  0.1971
  630TMC3    O1 9391   3.194   0.857  16.661 -1.1272 -0.4353 -0.2132
  630TMC3    O2 9392   3.454   1.294  16.370  0.3894  0.3247  0.1189
  631MPD2     C 9393   1.275   1.582  16.003  0.7436  0.6425  0.7203
  631MPD2    C1 9394   1.322   1.595  15.877  0.7371  0.3382  1.0946
  631MPD2    C2 9395   1.389   1.485  15.818  0.0033  0.5002  0.4337
  631MPD2    C3 9396   1.420   1.372  15.894 -0.4639 -1.1251  0.1569
  631MPD2    C4 9397   1.377   1.370  16.020 -0.7228  0.2931 -0.3748
  631MPD2    C5 9398   1.302   1.472  16.082 -0.2220 -0.1202  0.5382
  631MPD2     H 9399   1.425   1.492  15.716  1.1844 -4.6489  0.4880
  631MPD2    H1 9400   1.409   1.285  16.079 -1.4024  0.4481  0.2047
  631MPD2    H2 9401   1.234   1.673  16.047 -2.5006 -0.8671  0.8411
  631MPD2    H3 9402   1.266   1.453  16.183 -0.9395 -0.1951  0.2697
  631MPD2     N 9403   1.486   1.266  15.828 -0.5465  0.2184  0.1231
  631MPD2    H5 9404   1.512   1.290  15.733 -0.6219 -1.3701 -0.3109
  631MPD2    N1 9405   1.294   1.712  15.808 -0.4423  0.9469  0.0395
  631MPD2    H7 9406   1.244   1.784  15.859 -1.4620  0.5262 -0.3672
  632TMC3    C1 9407   1.289   1.859  15.624 -0.5656 -0.1909 -0.6634
  632TMC3    C2 9408   1.163   1.887  15.662 -0.5567  0.0444  0.8268
  632TMC3    C3 9409   1.075   1.910  15.559  0.1917 -0.1597  0.5092
  632TMC3    C4 9410   1.332   1.870  15.492 -0.1845 -1.0436 -0.2853
  632TMC3    C5 9411   1.241   1.913  15.399  0.3019 -0.5352 -0.7130
  632TMC3    C6 9412   1.111   1.931  15.424 -0.2010 -0.1298 -0.1534
  632TMC3     C 9413   1.345   1.742  15.683 -0.2942 -0.8786 -0.0062
  632TMC3     O 9414   1.410   1.684  15.601 -0.3622  0.3249 -0.9813
  632TMC3     H 9415   1.133   1.884  15.766  1.4193 -0.1255  1.4014
  632TMC3    H1 9416   1.438   1.869  15.470 -0.3162  1.3188 -1.0668
  632TMC3    H2 9417   1.037   1.944  15.345 -0.9519 -2.7075  0.1060
  632TMC3    C7 9418   1.274   1.859  15.273  0.7826  0.8152  0.3104
  632TMC3    C8 9419   0.939   1.935  15.601 -0.2627  0.7109 -0.2838
  632TMC3    O1 9420   1.247   1.916  15.169 -0.3015  0.6177 -0.1888
  632TMC3    O2 9421   0.893   1.886  15.704 -0.3150  0.2608  0.1290
  633MPD2     C 9422   0.813   3.926  17.486 -0.1318  0.0598  0.5143
  633MPD2    C1 9423   0.827   3.853  17.368  0.8688  0.0057 -0.2245
  633MPD2    C2 9424   0.784   3.717  17.367  1.1183  0.3592 -0.0642
  633MPD2    C3 9425   0.726   3.657  17.480  0.1638 -0.1420 -0.3823
  633MPD2    C4 9426   0.727   3.730  17.598  0.1203  0.0260  0.2282
  633MPD2    C5 9427   0.768   3.858  17.598 -0.3536 -0.1476  0.2777
  633MPD2     H 9428   0.797   3.663  17.274 -0.7653 -2.0687  1.0925
  633MPD2    H1 9429   0.686   3.687  17.689  0.4425 -0.2789  0.2284
  633MPD2    H2 9430   0.848   4.027  17.502  0.8796  0.1424 -2.1439
  633MPD2    H3 9431   0.770   3.903  17.697  0.4483  0.1812  0.1121
  633MPD2     N 9432   0.690   3.521  17.488 -0.4656 -0.2767  0.0201
  633MPD2    H5 9433   0.673   3.480  17.580  2.3774  0.1351  0.7316
  633MPD2    N1 9434   0.885   3.904  17.250  0.1475  0.0261 -1.0375
  633MPD2    H7 9435   0.895   3.842  17.171 -1.0546  0.5220 -1.5808
  634TMC3    C1 9436   0.994   4.048  17.097 -0.5307 -0.3210 -0.2483
  634TMC3    C2 9437   1.044   3.945  17.038 -0.4262 -0.7264  0.1264
  634TMC3    C3 9438   1.112   3.960  16.914  0.6674 -0.0144  0.2812
  634TMC3    C4 9439   0.989   4.175  17.037  0.7435  0.7789  0.1693
  634TMC3    C5 9440   1.054   4.188  16.914  0.3705 -0.2958  0.6254
  634TMC3    C6 9441   1.119   4.085  16.850  0.1784  0.5675 -0.5051
  634TMC3     C 9442   0.922   4.034  17.227  0.0498 -0.4007  0.3543
  634TMC3     O 9443   0.897   4.136  17.291 -0.4975  0.0947  0.5305
  634TMC3     H 9444   1.065   3.856  17.096  1.4560  0.1564  0.7960
  634TMC3    H1 9445   0.934   4.252  17.089  2.3274  1.4126  0.8959
  634TMC3    H2 9446   1.169   4.105  16.756  0.1289 -0.0769 -0.6630
  634TMC3    C7 9447   1.035   4.311  16.833  0.0940  0.2020  0.3741
  634TMC3    C8 9448   1.150   3.835  16.840 -0.1124 -0.7307 -0.0705
  634TMC3    O1 9449   1.098   4.329  16.731 -0.4708  0.0020 -0.0572
  634TMC3    O2 9450   1.108   3.737  16.899  0.1682 -0.0316  0.1375
  635TMC3    C1 9451   0.941   4.602   0.486  0.0311  0.4996  0.3990
  635TMC3    C2 9452   0.848   4.565   0.582  0.7139 -0.6435 -0.2332
  635TMC3    C3 9453   0.800   4.438   0.567 -0.3336  0.5698 -1.2379
  635TMC3    C4 9454   0.983   4.523   0.389  0.2205 -0.4264  0.0387
  635TMC3    C5 9455   0.942   4.396   0.380 -0.0804 -0.4019 -0.3975
  635TMC3    C6 9456   0.847   4.352   0.467 -0.5147  0.0846  0.4435
  635TMC3     C 9457   1.004   4.738   0.506  0.1785 -0.0599  0.9927
  635TMC3     O 9458   0.990   0.050   0.615 -0.2129  0.7321 -0.3827
  635TMC3     H 9459   0.808   4.642   0.647 -1.0734 -2.2749  0.5983
  635TMC3    H1 9460   1.051   4.565   0.316  0.6128  0.3915  0.8762
  635TMC3    H2 9461   0.796   4.257   0.453 -1.3612  0.8727 -1.7033
  635TMC3    C7 9462   0.964   4.326   0.256  0.4620 -0.6436 -0.4478
  635TMC3    C8 9463   0.700   4.394   0.671 -0.4275 -1.1400  0.0959
  635TMC3    O1 9464   0.878   4.246   0.227  0.9768 -0.7028 -0.2789
  635TMC3    O2 9465   0.633   4.486   0.712 -0.3033 -0.3246  0.1736
  636MPD2     C 9466   1.980   4.296  16.518  0.1992 -0.2905 -0.4477
  636MPD2    C1 9467   2.102   4.333  16.572 -0.1479 -0.3628 -0.4533
  636MPD2    C2 9468   2.195   4.230  16.595 -0.7032 -0.1168 -1.1976
  636MPD2    C3 9469   2.176   4.100  16.562 -0.2872  0.7400  0.6607
  636MPD2    C4 9470   2.056   4.076  16.491 -0.1386  0.6276  0.3165
  636MPD2    C5 9471   1.959   4.169  16.476  0.0879  0.5078 -0.9099
  636MPD2     H 9472   2.279   4.257  16.658 -0.9778  1.4818 -1.5383
  636MPD2    H1 9473   2.036   3.979  16.447 -1.6742  0.0164  2.3850
  636MPD2    H2 9474   1.905   4.374  16.513  0.3823 -0.1964 -1.7182
  636MPD2    H3 9475   1.867   4.141  16.428 -0.2594 -2.2387  1.3520
  636MPD2     N 9476   2.278   4.005  16.594  0.1904  0.2300  0.0329
  636MPD2    H5 9477   2.363   4.034  16.642  0.3871  0.7999 -0.6636
  636MPD2    N1 9478   2.133   4.458  16.627  0.0380  0.3547  0.4024
  636MPD2    H7 9479   2.207   4.457  16.697  0.1144  0.3708  0.3204
  637TMC3    C1 9480   2.397   3.809  16.560  0.1567  0.2773 -0.2407
  637TMC3    C2 9481   2.501   3.872  16.618  0.3220 -0.0764  0.9408
  637TMC3    C3 9482   2.622   3.880  16.556 -0.2478 -0.1523  0.0989
  637TMC3    C4 9483   2.410   3.739  16.440 -0.1444  0.6143  1.0702
  637TMC3    C5 9484   2.538   3.742  16.385 -0.4456  0.3455  0.6035
  637TMC3    C6 9485   2.638   3.817  16.435 -0.0243  0.5453 -0.1447
  637TMC3     C 9486   2.270   3.866  16.583 -0.9759  0.4439  0.3109
  637TMC3     O 9487   2.169   3.807  16.556 -0.4825  0.4576 -0.1373
  637TMC3     H 9488   2.490   3.923  16.712 -0.3606  1.3265  0.1020
  637TMC3    H1 9489   2.327   3.705  16.379  1.9169 -0.8762 -0.9092
  637TMC3    H2 9490   2.732   3.812  16.381 -0.6009  1.1924 -1.2035
  637TMC3    C7 9491   2.562   3.692  16.251  0.3468  0.2275  0.0535
  637TMC3    C8 9492   2.694   4.003  16.588 -0.0130  0.0739  0.2523
  637TMC3    O1 9493   2.653   3.611  16.239  0.2662  0.0150 -0.5819
  637TMC3    O2 9494   2.632   4.079  16.664  0.0751  0.0471 -0.4696
  638MPD2     C 9495   2.216   3.202  15.238  0.1793 -0.3684 -0.0660
  638MPD2    C1 9496   2.219   3.083  15.163  0.4121 -0.5641  0.5238
  638MPD2    C2 9497   2.200   2.961  15.223 -0.3816  0.0907  0.4328
  638MPD2    C3 9498   2.177   2.962  15.356  0.0050 -0.3639 -0.5678
  638MPD2    C4 9499   2.171   3.073  15.429 -0.2706 -0.1579  0.1150
  638MPD2    C5 9500   2.191   3.194  15.372 -0.0258  0.5106  0.5363
  638MPD2     H 9501   2.193   2.868  15.169 -0.0687 -0.2595  0.9977
  638MPD2    H1 9502   2.140   3.065  15.533 -0.6917 -2.1245 -0.1736
  638MPD2    H2 9503   2.236   3.303  15.202 -2.3459 -0.6292 -2.1837
  638MPD2    H3 9504   2.175   3.280  15.436  1.9899 -0.0337  1.7655
  638MPD2     N 9505   2.142   2.835  15.406  0.3731  0.0112 -0.5574
  638MPD2    H5 9506   2.173   2.754  15.353  2.5246 -0.8448  1.9882
  638MPD2    N1 9507   2.241   3.092  15.025  0.2743 -0.0368 -0.7964
  638MPD2    H7 9508   2.266   3.181  14.984  0.1263 -0.4339 -1.7347
  639TMC3    C1 9509   2.061   2.664  15.525  0.4794  0.2628 -0.4239
  639TMC3    C2 9510   1.943   2.601  15.518 -0.6971  0.2560 -0.1944
  639TMC3    C3 9511   1.941   2.466  15.497 -0.3216  0.2335 -0.6598
  639TMC3    C4 9512   2.178   2.597  15.521 -0.4928  0.1558 -0.4116
  639TMC3    C5 9513   2.174   2.461  15.496  0.4682 -0.0024  0.3460
  639TMC3    C6 9514   2.057   2.391  15.498 -0.0888 -0.4195  0.2613
  639TMC3     C 9515   2.063   2.809  15.514  0.1312  0.1160  0.1242
  639TMC3     O 9516   2.003   2.885  15.591  0.3044 -0.3202  0.3292
  639TMC3     H 9517   1.852   2.659  15.524 -2.0727 -1.8999  0.0547
  639TMC3    H1 9518   2.268   2.649  15.551  0.6038 -0.1991 -3.0901
  639TMC3    H2 9519   2.053   2.283  15.491  0.5098 -0.3236 -1.6460
  639TMC3    C7 9520   2.296   2.380  15.498 -0.2927 -0.1382 -0.4025
  639TMC3    C8 9521   1.841   2.412  15.406 -0.6227  0.4792  0.1713
  639TMC3    O1 9522   2.299   2.266  15.540  0.1415  0.4214 -0.0610
  639TMC3    O2 9523   1.886   2.355  15.309 -0.0489  0.2844 -0.6483
  640MPD2     C 9524   1.965   1.074   9.966  0.3652  0.0588  0.2423
  640MPD2    C1 9525   1.968   1.151   9.854  0.7843 -0.2960  0.9592
  640MPD2    C2 9526   1.982   1.290   9.852  0.6114 -0.1584 -0.3930
  640MPD2    C3 9527   1.996   1.358   9.973  0.1386 -0.1907  0.3024
  640MPD2    C4 9528   1.988   1.286  10.090 -0.0420  0.9717  0.5147
  640MPD2    C5 9529   1.970   1.147  10.083  0.4490  0.5279  0.2256
  640MPD2     H 9530   1.990   1.346   9.760  0.8225  0.4003 -0.0325
  640MPD2    H1 9531   2.007   1.333  10.186  1.6992 -2.7789  1.9979
  640MPD2    H2 9532   1.953   0.967   9.978  0.2057  0.0780  0.2551
  640MPD2    H3 9533   1.976   1.097  10.179 -2.1477  2.6603  1.4948
  640MPD2     N 9534   2.005   1.499   9.982 -0.4318  0.3483 -0.3745
  640MPD2    H5 9535   2.001   1.543  10.073  1.2294 -2.3527  1.0399
  640MPD2    N1 9536   1.961   1.077   9.728 -0.3524  0.0140 -0.2532
  640MPD2    H7 9537   1.962   0.976   9.733  1.9193  0.0807  0.5253
  641TMC3    C1 9538   1.975   1.031   9.504  0.0266 -0.5693  0.1894
  641TMC3    C2 9539   2.058   0.925   9.535  0.4058 -0.2385 -0.4187
  641TMC3    C3 9540   2.073   0.830   9.435  0.7134 -0.6744 -0.2661
  641TMC3    C4 9541   1.923   1.063   9.378  0.3289  0.0876 -0.0599
  641TMC3    C5 9542   1.954   0.967   9.279 -0.0481 -0.1082  0.5084
  641TMC3    C6 9543   2.021   0.853   9.309  0.0673 -0.0138  0.1174
  641TMC3     C 9544   1.960   1.130   9.602 -0.7161 -0.0807 -0.3064
  641TMC3     O 9545   1.921   1.239   9.562  0.4475 -0.2378 -0.8115
  641TMC3     H 9546   2.113   0.917   9.628 -0.0809 -0.3753 -0.1454
  641TMC3    H1 9547   1.862   1.150   9.355 -0.4601 -0.7333 -1.0176
  641TMC3    H2 9548   2.035   0.779   9.231  0.2141 -2.4269  2.4128
  641TMC3    C7 9549   1.894   0.988   9.146 -0.4405 -0.2577 -0.3339
  641TMC3    C8 9550   2.165   0.716   9.449 -0.0027  0.8719  0.1435
  641TMC3    O1 9551   1.840   1.096   9.124  0.0053 -0.1585  0.0673
  641TMC3    O2 9552   2.204   0.660   9.346 -0.7498 -0.8608  0.0218
  642TMC3    C1 9553   3.566   2.506  12.668 -0.1297 -0.2496  0.2285
  642TMC3    C2 9554   3.699   2.483  12.642  0.3731  0.1463  0.3742
  642TMC3    C3 9555   3.726   2.356  12.583  0.1410  0.2357  0.1292
  642TMC3    C4 9556   3.467   2.413  12.648  0.4112  0.5186  0.5934
  642TMC3    C5 9557   3.502   2.293  12.599 -0.1061  0.4329 -0.3786
  642TMC3    C6 9558   3.629   2.259  12.567  0.4884 -0.4259 -0.7346
  642TMC3     C 9559   3.535   2.647  12.668  0.8787 -0.2759  0.5920
  642TMC3     O 9560   3.624   2.713  12.618  0.1801 -0.0956  0.5548
  642TMC3     H 9561   3.776   2.557  12.660  0.0818  0.3875  0.6411
  642TMC3    H1 9562   3.363   2.442  12.652  1.1632  3.4685 -1.7399
  642TMC3    H2 9563   3.645   2.163  12.520 -1.8038 -1.8869  1.4588
  642TMC3    C7 9564   3.397   2.199  12.584  0.4751  0.2049  0.6416
  642TMC3    C8 9565   3.841   2.352  12.503 -0.1164  0.0792  0.3111
  642TMC3    O1 9566   3.423   2.093  12.532 -0.1699  0.5785 -0.2917
  642TMC3    O2 9567   3.826   2.284  12.401 -0.2882  0.4098 -0.1422
  643TMC3    C1 9568   2.380   2.292   0.238 -0.5918  0.1389 -0.0047
  643TMC3    C2 9569   2.274   2.353   0.174 -0.2454 -0.2035  0.0370
  643TMC3    C3 9570   2.234   2.301   0.048  0.5989 -0.0136 -0.6260
  643TMC3    C4 9571   2.436   2.181   0.185  0.1013 -0.0469 -0.0256
  643TMC3    C5 9572   2.408   2.149   0.057  0.5309 -0.4296  0.2134
  643TMC3    C6 9573   2.303   2.206  17.750 -0.4973  0.1150  0.0487
  643TMC3     C 9574   2.449   2.366   0.341  0.3984 -0.9647 -0.2514
  643TMC3     O 9575   2.404   2.483   0.359 -0.3921  0.1144 -0.4710
  643TMC3     H 9576   2.216   2.428   0.226 -0.2430 -2.0411  2.6948
  643TMC3    H1 9577   2.514   2.121   0.232  0.8362 -0.4828 -1.7979
  643TMC3    H2 9578   2.299   2.183  17.644 -0.6005  2.5613 -0.4758
  643TMC3    C7 9579   2.539   2.137  17.747  0.5455  0.1816 -0.3938
  643TMC3    C8 9580   2.191   2.404  17.715 -0.6677  0.4669  0.1116
  643TMC3    O1 9581   2.643   2.162   0.046  0.4591  0.2104  0.0559
  643TMC3    O2 9582   2.146   2.374  17.607 -0.0488 -0.0328 -0.1663
  644MPD2     C 9583   1.623   1.352   9.072  0.3708 -0.6847 -0.1216
  644MPD2    C1 9584   1.710   1.424   9.150  0.1973  0.1126  0.7203
  644MPD2    C2 9585   1.676   1.540   9.220 -0.3676  0.5969  0.2454
  644MPD2    C3 9586   1.547   1.576   9.216 -0.8741  0.9164  0.0874
  644MPD2    C4 9587   1.453   1.506   9.147 -0.2576  0.2691  1.1147
  644MPD2    C5 9588   1.492   1.386   9.080  0.3793  0.3152  0.5587
  644MPD2     H 9589   1.747   1.600   9.276 -0.0580 -0.0372  0.5351
  644MPD2    H1 9590   1.349   1.535   9.158 -0.4409 -0.1192  0.3842
  644MPD2    H2 9591   1.653   1.261   9.021  0.6703 -0.4113 -0.4359
  644MPD2    H3 9592   1.421   1.321   9.031  0.1539 -0.6286  2.1584
  644MPD2     N 9593   1.516   1.690   9.290 -0.2430 -0.2566 -0.3638
  644MPD2    H5 9594   1.595   1.731   9.339  0.9149 -0.4328 -2.0638
  644MPD2    N1 9595   1.844   1.372   9.163  0.3522  0.3986  0.0011
  644MPD2    H7 9596   1.859   1.277   9.131 -1.5383  0.6898 -1.7179
  645TMC3    C1 9597   1.378   1.833   9.423  0.2175  0.5776 -0.0056
  645TMC3    C2 9598   1.463   1.815   9.532  0.4171  0.3263  0.2718
  645TMC3    C3 9599   1.450   1.909   9.631 -0.0683 -0.2683 -0.3021
  645TMC3    C4 9600   1.289   1.937   9.416 -0.6495 -0.2001  0.2539
  645TMC3    C5 9601   1.294   2.031   9.513 -0.6805 -0.2405  0.5123
  645TMC3    C6 9602   1.380   2.019   9.625  0.2250  0.2369  0.3942
  645TMC3     C 9603   1.391   1.752   9.301 -0.2150 -0.4962  0.2087
  645TMC3     O 9604   1.287   1.740   9.238  0.0682 -0.3281  0.1363
  645TMC3     H 9605   1.525   1.728   9.545 -0.3994 -0.6240 -2.0666
  645TMC3    H1 9606   1.220   1.954   9.333  1.3450 -1.4097 -1.6429
  645TMC3    H2 9607   1.383   2.098   9.699  0.2990  0.5480  0.0595
  645TMC3    C7 9608   1.207   2.148   9.491 -0.7452  0.4281  0.1815
  645TMC3    C8 9609   1.501   1.864   9.760  0.7606  0.3146 -0.0451
  645TMC3    O1 9610   1.172   2.168   9.375  0.1728 -0.2716 -0.1261
  645TMC3    O2 9611   1.582   1.773   9.752  0.1607 -0.5920 -0.1140
  646MPD2     C 9612   2.105   1.679  14.670 -0.3065 -0.7455 -0.5242
  646MPD2    C1 9613   2.029   1.660  14.783  1.1792  0.8016 -1.6809
  646MPD2    C2 9614   1.926   1.747  14.815  0.3963  0.2069  0.5116
  646MPD2    C3 9615   1.901   1.856  14.726 -0.4550 -0.6066  0.6331
  646MPD2    C4 9616   1.987   1.882  14.623 -0.3860 -0.2026  0.4407
  646MPD2    C5 9617   2.085   1.790  14.588 -0.8907  0.3595  0.0559
  646MPD2     H 9618   1.864   1.730  14.902 -0.1462 -3.4254 -0.5838
  646MPD2    H1 9619   1.975   1.966  14.556 -0.4555 -0.0109  0.6924
  646MPD2    H2 9620   2.186   1.611  14.643 -1.7622 -2.7728  0.1804
  646MPD2    H3 9621   2.157   1.817  14.511 -0.4736  0.4994  0.4975
  646MPD2     N 9622   1.786   1.935  14.752 -0.7599  0.0491 -0.5193
  646MPD2    H5 9623   1.723   1.911  14.828  0.2072  0.3986  0.3931
  646MPD2    N1 9624   2.081   1.558  14.869 -0.1147 -0.4025  0.4279
  646MPD2    H7 9625   2.165   1.507  14.845 -2.1977 -3.0651 -1.1500
  647TMC3    C1 9626   2.099   1.418  15.044  0.7508 -0.2158  0.0637
  647TMC3    C2 9627   2.025   1.329  15.110 -0.0110  0.1585 -0.4286
  647TMC3    C3 9628   2.082   1.219  15.159  0.2273  0.3028 -0.3811
  647TMC3    C4 9629   2.237   1.406  15.022  0.0911  0.0098  0.7588
  647TMC3    C5 9630   2.293   1.287  15.070 -0.0832 -0.9126  0.2872
  647TMC3    C6 9631   2.213   1.200  15.135  0.2831  0.0941  0.0738
  647TMC3     C 9632   2.024   1.527  14.983  0.3815  0.0028 -0.5377
  647TMC3     O 9633   1.922   1.560  15.038  0.2242  0.4099 -0.6356
  647TMC3     H 9634   1.917   1.337  15.109 -0.0507 -0.4567 -0.4714
  647TMC3    H1 9635   2.289   1.487  14.974 -2.4228  0.1700 -1.6687
  647TMC3    H2 9636   2.265   1.109  15.163 -1.5336 -1.9193 -3.0788
  647TMC3    C7 9637   2.427   1.281  15.116 -0.2459  0.0783  0.3114
  647TMC3    C8 9638   2.004   1.116  15.215 -0.6343  0.1445 -0.2241
  647TMC3    O1 9639   2.459   1.194  15.198 -0.2859 -0.2454 -0.8257
  647TMC3    O2 9640   1.885   1.107  15.181  0.3887 -0.1059 -0.1433
  648TMC3    C1 9641   1.669   3.971  16.471 -0.7602 -0.1961  0.2706
  648TMC3    C2 9642   1.763   3.867  16.467  0.2337  0.8008  0.3495
  648TMC3    C3 9643   1.787   3.821  16.341 -0.7057  0.3485 -1.5840
  648TMC3    C4 9644   1.616   4.033  16.364 -0.6817  0.0658  0.0599
  648TMC3    C5 9645   1.660   4.001  16.237 -0.3251  0.2721  0.6743
  648TMC3    C6 9646   1.745   3.895  16.231 -0.0701  1.0360  0.2906
  648TMC3     C 9647   1.617   4.018  16.600  0.4936  0.7431 -0.1397
  648TMC3     O 9648   1.556   4.121  16.600  0.1913 -0.4930  0.0608
  648TMC3     H 9649   1.802   3.827  16.559  0.2296 -3.4151 -1.4930
  648TMC3    H1 9650   1.553   4.121  16.374 -0.7598  0.1473 -1.1071
  648TMC3    H2 9651   1.783   3.871  16.133  0.6979 -0.7641  1.0154
  648TMC3    C7 9652   1.648   4.094  16.124  0.7067  0.6706 -0.3993
  648TMC3    C8 9653   1.878   3.705  16.342 -0.7576 -0.1554 -0.2355
  648TMC3    O1 9654   1.731   4.077  16.036  0.1849 -0.4982  0.7568
  648TMC3    O2 9655   1.898   3.666  16.458  0.1645  0.3526 -0.4519
  649TMC3    C1 9656   0.454   0.418  13.065  0.3969  0.3056 -0.7780
  649TMC3    C2 9657   0.522   0.333  12.985 -0.0660  0.4375 -0.0751
  649TMC3    C3 9658   0.571   0.215  13.031  0.2908 -0.1661 -0.5306
  649TMC3    C4 9659   0.435   0.401  13.203  0.4191  0.0248  0.9508
  649TMC3    C5 9660   0.476   0.271  13.243 -0.2229  0.2929 -0.2247
  649TMC3    C6 9661   0.533   0.179  13.160  0.1249  0.0140 -0.3914
  649TMC3     C 9662   0.364   0.510  13.005  0.1219  0.2209 -0.5538
  649TMC3     O 9663   0.294   0.588  13.064 -0.0533 -0.0748 -0.0057
  649TMC3     H 9664   0.554   0.365  12.886  0.5348 -1.2139 -0.4040
  649TMC3    H1 9665   0.394   0.477  13.268  0.9696  0.5884  0.6327
  649TMC3    H2 9666   0.558   0.081  13.200 -0.1727  0.2939  0.4724
  649TMC3    C7 9667   0.448   0.237  13.385 -0.0025  0.2266 -0.4580
  649TMC3    C8 9668   0.664   0.138  12.954  0.9988 -0.4268  0.3363
  649TMC3    O1 9669   0.371   0.305  13.448  0.4072  0.2797 -0.2716
  649TMC3    O2 9670   0.675   0.170  12.840 -0.3247 -0.6505  0.1201
  650TMC3    C1 9671   2.921   1.914  13.276 -0.0236 -0.3430  0.4890
  650TMC3    C2 9672   2.892   2.032  13.336  0.2799  0.2819 -0.2720
  650TMC3    C3 9673   2.756   2.063  13.329  0.4166  0.0138  0.4741
  650TMC3    C4 9674   2.836   1.851  13.187  0.2813  0.0497 -0.2609
  650TMC3    C5 9675   2.707   1.905  13.168  0.5031 -1.2386  0.4831
  650TMC3    C6 9676   2.664   2.002  13.248 -0.0276  0.4124 -0.0288
  650TMC3     C 9677   3.067   1.889  13.254 -0.5434 -0.1987 -0.1717
  650TMC3     O 9678   3.133   1.983  13.302  0.5476 -0.2482 -0.0366
  650TMC3     H 9679   2.962   2.080  13.403 -0.7735  0.9130  0.3774
  650TMC3    H1 9680   2.876   1.765  13.134  0.2892  0.2164 -0.5219
  650TMC3    H2 9681   2.570   2.049  13.223 -0.3956 -0.9342 -1.2400
  650TMC3    C7 9682   2.665   1.910  13.033 -0.3952  0.3582 -0.6452
  650TMC3    C8 9683   2.743   2.207  13.323 -0.0078  0.7442  0.8467
  650TMC3    O1 9684   2.681   1.798  12.982 -0.0608  0.1326 -0.2907
  650TMC3    O2 9685   2.834   2.272  13.272 -0.5301 -0.1107  0.0120
  651MPD2     C 9686   1.620   3.820  11.018  0.5791  0.2674  1.0101
  651MPD2    C1 9687   1.610   3.922  10.931 -0.8795  0.0165  0.3097
  651MPD2    C2 9688   1.722   3.976  10.885  0.0728  0.2925  0.5695
  651MPD2    C3 9689   1.844   3.915  10.896 -0.1084 -1.1435  0.3652
  651MPD2    C4 9690   1.860   3.808  10.978 -0.2122  0.8001 -0.7342
  651MPD2    C5 9691   1.742   3.767  11.035  0.0784 -0.3395 -0.3573
  651MPD2     H 9692   1.708   4.064  10.822 -0.9491 -1.3304 -1.4777
  651MPD2    H1 9693   1.952   3.756  10.999 -0.6852 -0.3866 -1.6376
  651MPD2    H2 9694   1.538   3.776  11.074  1.7814 -2.0340  0.9876
  651MPD2    H3 9695   1.737   3.687  11.108  0.7005 -0.0447  0.0057
  651MPD2     N 9696   1.948   3.979  10.826 -0.2561  0.4310  0.5072
  651MPD2    H5 9697   1.921   4.048  10.756 -1.8908 -0.1907  0.5297
  651MPD2    N1 9698   1.481   3.988  10.921 -0.4470  0.4558  0.2941
  651MPD2    H7 9699   1.490   4.085  10.893 -2.6099 -0.3352 -3.2067
  652TMC3    C1 9700   2.342   4.195  10.729  0.2543  0.1006  0.5769
  652TMC3    C2 9701   2.274   4.118  10.813 -0.2918  0.0916  1.1386
  652TMC3    C3 9702   2.152   4.065  10.771  0.2717 -0.1650 -0.3799
  652TMC3    C4 9703   2.303   4.224  10.602  0.7688  0.1874 -0.4219
  652TMC3    C5 9704   2.172   4.197  10.567 -0.6918 -0.0133 -0.4438
  652TMC3    C6 9705   2.107   4.106  10.644 -0.1874 -0.6594 -0.2398
  652TMC3     C 9706   2.475   4.227  10.781  0.1481 -0.0694  0.2199
  652TMC3     O 9707   2.488   4.219  10.902 -0.0111  0.1203 -0.0147
  652TMC3     H 9708   2.314   4.072  10.902 -0.3302  1.2905  1.7735
  652TMC3    H1 9709   2.372   4.278  10.538  1.1048 -1.7321 -1.6957
  652TMC3    H2 9710   2.024   4.049  10.603 -1.3441 -0.2606  1.5179
  652TMC3    C7 9711   2.114   4.210  10.433 -0.1200  0.1965 -0.5918
  652TMC3    C8 9712   2.082   3.968  10.846  0.0010 -0.7394  0.3881
  652TMC3    O1 9713   2.031   4.127  10.401  0.7440 -0.3159  0.1585
  652TMC3    O2 9714   2.139   3.893  10.922 -0.0343  0.0910 -0.5062
  653MPD2     C 9715   0.434   3.884   0.063  0.1933  0.7199 -0.3694
  653MPD2    C1 9716   0.457   4.001  17.761 -0.4346 -0.1814  0.0691
  653MPD2    C2 9717   0.436   4.004  17.622  0.2534 -0.2027  0.5517
  653MPD2    C3 9718   0.409   3.887  17.549  0.4696  0.0484  0.2495
  653MPD2    C4 9719   0.393   3.770  17.615 -0.3699 -0.5200  0.1331
  653MPD2    C5 9720   0.401   3.771  17.754  0.4522 -0.3223  0.0378
  653MPD2     H 9721   0.461   4.098  17.574 -2.5489  0.3176  0.0842
  653MPD2    H1 9722   0.384   3.671  17.572  0.1098  0.0686 -1.3319
  653MPD2    H2 9723   0.424   3.892   0.170 -0.4478 -1.6475 -0.2555
  653MPD2    H3 9724   0.377   3.679   0.045 -1.5491  1.1058  1.6291
  653MPD2     N 9725   0.408   3.904  17.409  0.2864 -0.3842 -0.0685
  653MPD2    H5 9726   0.416   3.989  17.355 -2.9902 -1.7156 -2.6426
  653MPD2    N1 9727   0.493   4.123   0.062 -0.9384 -0.0620 -0.1606
  653MPD2    H7 9728   0.468   4.202   0.003 -0.2403 -1.1459 -1.9081
  654TMC3    C1 9729   0.361   3.836  17.189  0.0630  0.0415  0.4571
  654TMC3    C2 9730   0.262   3.933  17.156 -0.0363  0.2605 -0.1686
  654TMC3    C3 9731   0.230   3.954  17.023 -0.5491  0.1400 -0.5168
  654TMC3    C4 9732   0.384   3.737  17.096  0.6769  0.0523 -0.0413
  654TMC3    C5 9733   0.328   3.745  16.969 -0.1591 -0.1677  0.2226
  654TMC3    C6 9734   0.257   3.850  16.930 -0.4910 -0.4953 -0.5770
  654TMC3     C 9735   0.385   3.801  17.322 -0.3146 -0.9616 -0.0622
  654TMC3     O 9736   0.356   3.687  17.348  0.3875  0.2334 -0.0172
  654TMC3     H 9737   0.226   3.996  17.237  1.8044 -1.2562  1.8055
  654TMC3    H1 9738   0.435   3.646  17.128  1.5820  0.3499 -0.6438
  654TMC3    H2 9739   0.215   3.853  16.830 -0.2223  3.3164 -0.5724
  654TMC3    C7 9740   0.315   3.619  16.895  0.6387  0.2762 -0.0441
  654TMC3    C8 9741   0.136   4.056  16.986 -0.2698  0.7518  0.4113
  654TMC3    O1 9742   0.296   3.625  16.774 -0.0412 -0.1084 -0.2117
  654TMC3    O2 9743   0.081   4.111  17.081 -0.1374 -0.6660  0.3393
  655MPD2     C 9744   2.274   4.253  15.891  0.1627 -0.0463  0.0842
  655MPD2    C1 9745   2.181   4.330  15.824  0.1559  0.1089 -0.2537
  655MPD2    C2 9746   2.150   4.299  15.696  0.2426  0.5829 -0.1217
  655MPD2    C3 9747   2.209   4.197  15.625 -0.4963 -0.1204  0.0490
  655MPD2    C4 9748   2.309   4.131  15.688  0.2184  0.1203 -0.3591
  655MPD2    C5 9749   2.339   4.149  15.819 -0.2048 -0.5495  0.8092
  655MPD2     H 9750   2.059   4.354  15.674 -2.2023 -3.4526 -0.1121
  655MPD2    H1 9751   2.362   4.056  15.630 -1.6839 -1.1234 -0.4848
  655MPD2    H2 9752   2.293   4.264  15.997 -1.6098 -0.0141  0.3868
  655MPD2    H3 9753   2.425   4.096  15.858  0.6552  1.6932  1.9584
  655MPD2     N 9754   2.181   4.158  15.492 -0.1554  0.0168 -0.6397
  655MPD2    H5 9755   2.231   4.076  15.458 -0.3104 -1.2155  2.0324
  655MPD2    N1 9756   2.097   4.424  15.898  0.3121 -0.2329 -0.5715
  655MPD2    H7 9757   2.039   4.484  15.841  0.0405  1.7063  1.7741
  656TMC3    C1 9758   1.967   4.520  16.073  0.1198 -0.4023  0.2649
  656TMC3    C2 9759   1.895   4.491  16.183  0.0561  0.0700 -0.0641
  656TMC3    C3 9760   1.791   4.570  16.216  0.1761 -0.0609 -0.4411
  656TMC3    C4 9761   1.934   4.626  15.994 -0.4702  0.2506  0.3817
  656TMC3    C5 9762   1.830   4.703  16.026 -0.8617  0.2762  0.4935
  656TMC3    C6 9763   1.752   4.678  16.139 -0.3234  0.0837  0.0212
  656TMC3     C 9764   2.079   4.435  16.039 -0.2508  0.2964  0.4792
  656TMC3     O 9765   2.125   4.365  16.128  0.7861 -0.2017 -0.1040
  656TMC3     H 9766   1.900   4.404  16.248 -1.5396  0.7633  1.0089
  656TMC3    H1 9767   1.991   4.652  15.906 -2.7465 -0.0503 -1.1863
  656TMC3    H2 9768   1.669   0.001  16.170 -0.0086  0.4269  0.1625
  656TMC3    C7 9769   1.777   0.037  15.917  0.0639  0.2553 -0.1434
  656TMC3    C8 9770   1.690   4.521  16.307 -0.0920  0.4107 -0.6470
  656TMC3    O1 9771   1.846   0.034  15.813 -0.4676 -0.5952 -0.3493
  656TMC3    O2 9772   1.705   4.404  16.341  0.2032 -0.3956 -0.0128
  657TMC3    C1 9773   1.013   3.635  15.277 -0.4848  0.2352  0.0842
  657TMC3    C2 9774   1.087   3.743  15.319  0.6439  0.0775 -0.2193
  657TMC3    C3 9775   1.035   3.849  15.385 -0.6565 -0.6865  0.3444
  657TMC3    C4 9776   0.877   3.642  15.306  0.1123  0.2642 -0.2505
  657TMC3    C5 9777   0.831   3.751  15.373 -0.2357 -1.0151 -0.0880
  657TMC3    C6 9778   0.902   3.864  15.404  0.1319 -0.1659  0.3072
  657TMC3     C 9779   1.073   3.516  15.220  1.0029  0.1487  0.7366
  657TMC3     O 9780   0.986   3.434  15.189  0.1718  0.3494  0.3328
  657TMC3     H 9781   1.187   3.742  15.276 -0.0831 -2.6691 -1.8349
  657TMC3    H1 9782   0.810   3.559  15.284 -1.5648  1.7297 -0.7056
  657TMC3    H2 9783   0.866   3.948  15.462 -0.3767  0.2588 -0.6291
  657TMC3    C7 9784   0.718   3.721  15.448  0.6047  0.0275 -0.0494
  657TMC3    C8 9785   1.116   3.941  15.455  0.6284 -0.2967  0.4170
  657TMC3    O1 9786   0.710   3.599  15.483  0.0337  0.1931  0.4824
  657TMC3    O2 9787   1.084   4.060  15.455 -0.1848 -0.2647  0.3085
  658MPD2     C 9788   2.545   3.920  14.950 -0.1450  0.0443  0.3755
  658MPD2    C1 9789   2.451   4.015  14.921  0.8522  0.1092  0.8068
  658MPD2    C2 9790   2.471   4.097  14.811 -0.0373  0.2331  0.3088
  658MPD2    C3 9791   2.585   4.080  14.733  0.3024  0.2437  0.0126
  658MPD2    C4 9792   2.677   3.989  14.772 -0.3482 -0.0589  0.4373
  658MPD2    C5 9793   2.657   3.901  14.879  0.7352 -0.0324 -0.2718
  658MPD2     H 9794   2.403   4.173  14.776 -0.2912 -0.0885  0.0993
  658MPD2    H1 9795   2.768   3.974  14.715 -0.6427  0.1361 -0.0832
  658MPD2    H2 9796   2.517   3.858  15.034 -0.8800  0.3734  0.3795
  658MPD2    H3 9797   2.729   3.823  14.897  0.6591 -0.2646 -0.9775
  658MPD2     N 9798   2.602   4.162  14.620  0.3520 -0.3332  0.2691
  658MPD2    H5 9799   2.521   4.209  14.581  0.5383  0.1692  0.4898
  658MPD2    N1 9800   2.341   4.019  15.002  0.5311 -0.6266 -0.8075
  658MPD2    H7 9801   2.329   3.949  15.075  1.5582 -1.0177 -1.0274
  659TMC3    C1 9802   2.137   4.099  15.082  0.2701  0.0201  0.1502
  659TMC3    C2 9803   2.174   4.122  15.209  0.4652  1.4771  0.8675
  659TMC3    C3 9804   2.061   4.154  15.286  0.7701  0.0059  0.0188
  659TMC3    C4 9805   2.013   4.105  15.027 -0.4567  0.0658  0.0053
  659TMC3    C5 9806   1.911   4.134  15.108 -0.3537  0.7760 -0.2128
  659TMC3    C6 9807   1.938   4.164  15.238 -0.4915  0.3268  0.0104
  659TMC3     C 9808   2.235   4.105  14.981  0.0145 -0.3040 -0.2872
  659TMC3     O 9809   2.208   4.184  14.892  0.3557 -0.1295 -0.2165
  659TMC3     H 9810   2.276   4.100  15.238  0.6271  0.6127 -0.3793
  659TMC3    H1 9811   1.991   4.096  14.922 -1.7234 -2.9126  0.5147
  659TMC3    H2 9812   1.861   4.205  15.302 -1.2695  1.4497 -1.6432
  659TMC3    C7 9813   1.775   4.146  15.056 -0.1628  0.4233 -0.3386
  659TMC3    C8 9814   2.076   4.209  15.418 -0.1783  0.7085 -0.0729
  659TMC3    O1 9815   1.704   4.234  15.102  0.1497  0.0716  0.0219
  659TMC3    O2 9816   2.008   4.304  15.445 -0.4615 -0.0281 -0.2462
  660MPD2     C 9817   4.582   3.174  12.649  0.1187 -0.2828  0.0785
  660MPD2    C1 9818   4.451   3.195  12.679  0.5226 -0.1250 -0.5687
  660MPD2    C2 9819   4.409   3.180  12.813  0.5310 -0.0957 -0.6102
  660MPD2    C3 9820   4.496   3.136  12.912 -0.3308  0.4766  0.0687
  660MPD2    C4 9821   4.629   3.123  12.879  0.3035 -0.0860 -0.2673
  660MPD2    C5 9822   4.665   3.133  12.746  0.7356  0.1964 -0.1312
  660MPD2     H 9823   4.303   3.188  12.837  0.9095 -0.0217  1.0803
  660MPD2    H1 9824   4.704   3.091  12.950 -0.0601 -0.2818  0.0329
  660MPD2    H2 9825   4.619   3.193  12.549  1.3387 -1.2541  0.3275
  660MPD2    H3 9826   0.028   3.119  12.721 -0.0793 -2.8871 -1.7294
  660MPD2     N 9827   4.461   3.116  13.049  0.3850  0.0009 -0.0775
  660MPD2    H5 9828   4.545   3.095  13.103  0.6587 -0.4337 -0.6595
  660MPD2    N1 9829   4.370   3.250  12.575  0.0909  0.3299  0.1444
  660MPD2    H7 9830   4.397   3.252  12.478 -2.1025  0.4271 -0.4555
  661TMC3    C1 9831   4.182   3.352  12.484 -0.3323  0.3727 -0.2056
  661TMC3    C2 9832   4.251   3.427  12.394  0.0039 -0.5230 -0.5075
  661TMC3    C3 9833   4.183   3.478  12.285  0.5062  0.8460 -0.2586
  661TMC3    C4 9834   4.046   3.329  12.471  0.2129 -0.5658 -0.5615
  661TMC3    C5 9835   3.981   3.380  12.365  0.5110 -0.1948  0.1756
  661TMC3    C6 9836   4.050   3.455  12.268  0.4797  1.1867 -0.2262
  661TMC3     C 9837   4.242   3.304  12.598  0.2178  0.5026 -0.1877
  661TMC3     O 9838   4.178   3.310  12.702  0.4732 -0.5028 -0.2907
  661TMC3     H 9839   4.359   3.440  12.399 -0.0968  0.7540 -1.5626
  661TMC3    H1 9840   3.989   3.285  12.552  0.4425 -0.7815 -0.5163
  661TMC3    H2 9841   4.003   3.492  12.177 -0.1168  2.0810  0.4418
  661TMC3    C7 9842   3.848   3.334  12.330 -0.0759 -0.4998  0.2636
  661TMC3    C8 9843   4.258   3.541  12.173 -0.6815 -0.2128 -0.2709
  661TMC3    O1 9844   3.778   3.424  12.279  0.5403  0.3596 -0.2004
  661TMC3    O2 9845   4.206   3.520  12.061 -0.6473 -0.3725 -0.0953
  662MPD2     C 9846   4.193   2.579  17.068 -0.2728  0.4452 -0.9392
  662MPD2    C1 9847   4.301   2.547  17.139 -0.4080 -0.1093  0.1610
  662MPD2    C2 9848   4.322   2.592  17.267  0.8811  0.5784 -0.6483
  662MPD2    C3 9849   4.233   2.680  17.321 -0.4469  0.6673 -0.4029
  662MPD2    C4 9850   4.136   2.734  17.240  0.5411  0.2580  0.4159
  662MPD2    C5 9851   4.114   2.676  17.118 -0.1130  0.7043 -0.7458
  662MPD2     H 9852   4.407   2.563  17.328  0.0923 -2.0945 -0.8041
  662MPD2    H1 9853   4.068   2.811  17.273 -1.3307 -0.2768 -2.2200
  662MPD2    H2 9854   4.159   2.526  16.981  0.4783 -1.1031 -0.2889
  662MPD2    H3 9855   4.023   2.698  17.064 -1.5162  0.4546  1.5024
  662MPD2     N 9856   4.246   2.710  17.460  0.3632  0.6873  0.5340
  662MPD2    H5 9857   4.335   2.686  17.504  1.1699  2.4358 -0.1407
  662MPD2    N1 9858   4.400   2.452  17.098 -0.3753 -0.5992  0.3285
  662MPD2    H7 9859   4.466   2.422  17.170 -0.2940  2.5168  1.5289
  663TMC3    C1 9860   4.508   2.280  16.986 -0.8666 -0.6568 -0.2092
  663TMC3    C2 9861   4.561   2.250  17.111  0.1451 -0.4023  0.2824
  663TMC3    C3 9862   4.685   2.185  17.115 -0.9991  0.1316  0.3969
  663TMC3    C4 9863   4.568   2.239  16.866 -0.3087  0.3576 -0.3840
  663TMC3    C5 9864   4.679   2.156  16.882  0.0773  0.4344  0.1088
  663TMC3    C6 9865   0.007   2.145  16.999 -0.3256 -0.5639  0.1099
  663TMC3     C 9866   4.423   2.392  16.972  0.5179 -0.0699 -0.4820
  663TMC3     O 9867   4.365   2.416  16.869 -0.0188  0.6898 -0.2573
  663TMC3     H 9868   4.490   2.241  17.193  0.5421  0.1724  0.6907
  663TMC3    H1 9869   4.514   2.230  16.773  0.2799  0.7855 -0.7677
  663TMC3    H2 9870   0.098   2.087  17.011 -0.1563 -0.4447 -0.6069
  663TMC3    C7 9871   4.682   2.043  16.793  0.1307 -0.0350  0.0573
  663TMC3    C8 9872   4.680   2.075  17.207 -0.3264  0.6465  0.6927
  663TMC3    O1 9873   4.623   2.055  16.683 -0.4570 -0.5503 -0.3693
  663TMC3    O2 9874   4.705   1.967  17.151 -0.6699 -0.2444 -0.3897
  664MPD2     C 9875   2.808   0.518  17.554 -0.6119  0.4549  0.0542
  664MPD2    C1 9876   2.828   0.656  17.557 -0.0183  0.4395 -0.4861
  664MPD2    C2 9877   2.742   0.733  17.638  0.3560  0.1881 -0.0773
  664MPD2    C3 9878   2.661   0.666  17.726  1.3051 -0.0109  0.0984
  664MPD2    C4 9879   2.644   0.536  17.716 -0.1528 -0.0772 -0.1757
  664MPD2    C5 9880   2.713   0.455  17.635 -0.9431 -0.1839 -0.2532
  664MPD2     H 9881   2.759   0.840  17.641 -0.6701  0.4034 -1.7053
  664MPD2    H1 9882   2.564   0.492   0.014 -1.0668  1.3885 -0.3006
  664MPD2    H2 9883   2.872   0.450  17.498 -0.5885  1.6924 -1.4121
  664MPD2    H3 9884   2.694   0.349  17.626  0.9099 -0.5506  0.1433
  664MPD2     N 9885   2.591   0.744   0.064 -0.0271 -0.1633  0.4844
  664MPD2    H5 9886   2.573   0.843   0.048 -2.5352 -0.8351 -0.9560
  664MPD2    N1 9887   2.935   0.727  17.492 -0.0408  0.5177 -0.6120
  664MPD2    H7 9888   2.940   0.827  17.509  1.6688  0.0457  1.6639
  665TMC3    C1 9889   2.468   0.814   0.240 -0.1739 -0.4693 -0.1649
  665TMC3    C2 9890   2.363   0.776   0.317 -0.3902 -0.6253 -1.3502
  665TMC3    C3 9891   2.328   0.862   0.415 -0.1333  0.5836 -0.3070
  665TMC3    C4 9892   2.534   0.927   0.255  0.5219  0.4550 -0.1110
  665TMC3    C5 9893   2.496   1.015   0.352 -1.2196  0.2337  0.0751
  665TMC3    C6 9894   2.388   0.979   0.434  0.4950 -0.2876  0.2349
  665TMC3     C 9895   2.529   0.705   0.176 -0.3485 -0.7212  0.6803
  665TMC3     O 9896   2.506   0.590   0.210 -0.1232  0.1429 -0.2727
  665TMC3     H 9897   2.326   0.676   0.300  1.6898 -1.2207 -2.4410
  665TMC3    H1 9898   2.621   0.949   0.193  2.0101  0.4666  1.9715
  665TMC3    H2 9899   2.350   1.044   0.512  1.2540  1.0816 -0.5371
  665TMC3    C7 9900   2.600   1.117   0.387 -0.3157 -0.4430  0.0051
  665TMC3    C8 9901   2.216   0.832   0.504 -0.2641  0.2574 -0.0807
  665TMC3    O1 9902   2.709   1.100   0.338 -0.4731  0.2738 -0.4347
  665TMC3    O2 9903   2.167   0.934   0.556 -0.0441 -0.3373  0.7404
  666TMC3    C1 9904   1.899   0.406  10.531  0.1223  0.0114 -0.6617
  666TMC3    C2 9905   2.000   0.385  10.441  0.3220 -0.8833  0.1997
  666TMC3    C3 9906   2.049   0.491  10.372 -0.1553 -0.0355  0.0122
  666TMC3    C4 9907   1.832   0.523  10.543  0.1759 -0.3085  0.2570
  666TMC3    C5 9908   1.874   0.625  10.456  0.1419 -0.0826 -0.0898
  666TMC3    C6 9909   1.987   0.610  10.373 -0.2894 -0.0036  0.1816
  666TMC3     C 9910   1.849   0.292  10.614  0.0650  0.1986  0.1630
  666TMC3     O 9911   1.778   0.312  10.713 -0.3697  0.1108  0.6842
  666TMC3     H 9912   2.065   0.299  10.448 -1.3512 -2.1035  0.5792
  666TMC3    H1 9913   1.767   0.551  10.624 -1.9336 -0.8305 -1.2664
  666TMC3    H2 9914   2.014   0.684  10.299  1.8682 -2.7822 -1.7992
  666TMC3    C7 9915   1.817   0.760  10.477  0.3266  0.3759 -0.0899
  666TMC3    C8 9916   2.164   0.460  10.288  0.4407  0.6027 -0.1152
  666TMC3    O1 9917   1.706   0.757  10.522  0.2754  0.7722  0.8151
  666TMC3    O2 9918   2.139   0.379  10.197 -0.0413 -0.7909 -0.0983
  667MPD2     C 9919   3.818   1.428  14.509 -0.0393  0.3005  0.1388
  667MPD2    C1 9920   3.902   1.397  14.615  0.0443 -0.3705  0.3618
  667MPD2    C2 9921   3.918   1.259  14.643  0.0064 -0.0443 -0.1670
  667MPD2    C3 9922   3.848   1.163  14.563 -0.2875  0.1456  0.0872
  667MPD2    C4 9923   3.787   1.202  14.447  0.1179 -0.5726  0.1597
  667MPD2    C5 9924   3.767   1.337  14.421  0.2028 -0.1069  0.4663
  667MPD2     H 9925   3.963   1.219  14.733  2.6854  0.3147 -1.3716
  667MPD2    H1 9926   3.728   1.134  14.387 -0.9455  0.2632  0.2547
  667MPD2    H2 9927   3.789   1.530  14.486 -0.0254 -0.0403 -1.4097
  667MPD2    H3 9928   3.709   1.380  14.340 -0.0782  0.8844  1.1954
  667MPD2     N 9929   3.839   1.031  14.600 -0.3148  0.1190  0.0759
  667MPD2    H5 9930   3.787   0.973  14.535  2.4764  0.8582 -2.8406
  667MPD2    N1 9931   3.960   1.498  14.698 -0.2854  0.3397 -0.2262
  667MPD2    H7 9932   4.000   1.466  14.785 -0.4005 -0.6499 -0.5346
  668TMC3    C1 9933   4.027   1.707  14.764  0.5406 -0.6691  0.6562
  668TMC3    C2 9934   4.090   1.821  14.726 -0.4030  0.9048 -0.5277
  668TMC3    C3 9935   4.111   1.919  14.818 -0.0169 -0.5235  0.5281
  668TMC3    C4 9936   4.011   1.681  14.900  0.2624 -0.5941  0.0496
  668TMC3    C5 9937   4.048   1.777  14.994  0.7166  0.0052 -0.4452
  668TMC3    C6 9938   4.080   1.901  14.950 -0.4037  0.3380  0.0152
  668TMC3     C 9939   3.978   1.625  14.658 -0.0113  0.3191  0.3017
  668TMC3     O 9940   3.973   1.666  14.543  0.5147 -0.4064 -0.2993
  668TMC3     H 9941   4.112   1.841  14.622  0.5504  0.8505 -0.3414
  668TMC3    H1 9942   3.949   1.596  14.927  0.3523 -0.3767  0.9436
  668TMC3    H2 9943   4.099   1.984  15.018  2.1455 -1.0201  0.9295
  668TMC3    C7 9944   4.081   1.753  15.131  0.5430 -0.2280  0.1895
  668TMC3    C8 9945   4.179   2.043  14.789  0.4305  0.5126 -0.3223
  668TMC3    O1 9946   4.141   1.843  15.187  0.8415  0.2418 -0.0173
  668TMC3    O2 9947   4.148   2.138  14.859  0.0567  0.2283  0.0469
  669TMC3    C1 9948   1.616   0.736  15.101 -0.0261  0.5458 -0.6661
  669TMC3    C2 9949   1.513   0.757  15.005 -0.4684  0.5373 -0.8912
  669TMC3    C3 9950   1.536   0.834  14.898  0.2764  0.7082  0.4211
  669TMC3    C4 9951   1.741   0.789  15.095  0.5635 -0.4411  0.4603
  669TMC3    C5 9952   1.769   0.853  14.976 -0.0906  0.0062 -0.2902
  669TMC3    C6 9953   1.667   0.878  14.884 -0.0579  0.2471  0.5083
  669TMC3     C 9954   1.594   0.653  15.214  0.1300 -0.2693  0.3630
  669TMC3     O 9955   1.480   0.641  15.258  0.0844  0.2801 -0.1354
  669TMC3     H 9956   1.418   0.708  15.018  0.2636 -1.0712 -1.5572
  669TMC3    H1 9957   1.818   0.780  15.171  0.3434  1.8278  0.9562
  669TMC3    H2 9958   1.688   0.938  14.797 -0.9922 -0.3668 -0.1298
  669TMC3    C7 9959   1.904   0.890  14.942 -0.1301  0.5539  0.3821
  669TMC3    C8 9960   1.444   0.885  14.795 -0.0918 -1.1535 -0.1891
  669TMC3    O1 9961   1.905   0.964  14.847 -0.3200 -0.6310 -0.0411
  669TMC3    O2 9962   1.492   0.931  14.693  0.2888 -0.0337 -0.4447
  670MPD2     C 9963   0.107   3.304  14.036  0.0522  0.5863  0.4755
  670MPD2    C1 9964   0.213   3.348  14.104 -0.1708 -0.6862  0.7157
  670MPD2    C2 9965   0.195   3.381  14.237 -0.1374  0.1030  0.1437
  670MPD2    C3 9966   0.077   3.374  14.293 -0.2037 -0.2690  0.5710
  670MPD2    C4 9967   4.704   3.347  14.226  0.0809 -0.3393 -1.0139
  670MPD2    C5 9968   4.724   3.313  14.091 -0.2138 -0.7325 -0.2183
  670MPD2     H 9969   0.285   3.405  14.293  0.9249 -2.2889 -0.5272
  670MPD2    H1 9970   4.603   3.349  14.265  0.1434  1.4336 -0.9585
  670MPD2    H2 9971   0.123   3.277  13.932 -0.7154  1.5686  0.1039
  670MPD2    H3 9972   4.641   3.281  14.030  0.4917 -0.8112 -1.1319
  670MPD2     N 9973   0.074   3.393  14.432 -0.0425 -0.2793 -0.5906
  670MPD2    H5 9974   0.156   3.419  14.486 -0.2395 -0.4456 -0.2063
  670MPD2    N1 9975   0.351   3.355  14.058 -0.7222 -0.0167  0.1523
  670MPD2    H7 9976   0.416   3.380  14.132  1.4004 -1.7587 -1.1188
  671TMC3    C1 9977   0.007   3.328  14.641 -1.2301  0.0741  0.3655
  671TMC3    C2 9978   0.119   3.376  14.694  0.7733  0.1002  0.0010
  671TMC3    C3 9979   0.176   3.304  14.798  0.0507 -0.6043 -0.2208
  671TMC3    C4 9980   4.668   3.233  14.707 -0.6697  0.7677  0.2954
  671TMC3    C5 9981   4.721   3.170  14.815 -0.2383 -0.0440  0.6106
  671TMC3    C6 9982   0.106   3.203  14.860 -0.0632  0.0357  0.2570
  671TMC3     C 9983   4.702   3.362  14.506  0.7969 -0.1435 -1.0678
  671TMC3     O 9984   4.585   3.334  14.480 -0.4322 -0.0492  0.3846
  671TMC3     H 9985   0.185   3.443  14.640  0.6241  1.5928  1.6638
  671TMC3    H1 9986   4.563   3.213  14.687 -0.7601  0.4264  1.1434
  671TMC3    H2 9987   0.157   3.141  14.933  1.3011  0.2270 -0.5405
  671TMC3    C7 9988   4.711   3.027  14.801  0.3694  0.0165 -0.1991
  671TMC3    C8 9989   0.309   3.263  14.764  0.4846  0.4277  0.2127
  671TMC3    O1 9990   0.024   2.958  14.887  0.1854  0.1677  1.0681
  671TMC3    O2 9991   0.322   3.251  14.643 -0.2189 -0.2556 -0.4040
  672MPD2     C 9992   4.680   3.084   0.917 -0.1081 -0.1551 -0.3777
  672MPD2    C1 9993   0.040   3.120   0.830  1.0579  0.0023  0.2692
  672MPD2    C2 9994   0.120   3.223   0.870  0.1615 -0.2367  0.3948
  672MPD2    C3 9995   0.089   3.292   0.992  0.3895 -0.6047 -0.1934
  672MPD2    C4 9996   4.721   3.258   1.072  0.5397  0.2581 -0.0612
  672MPD2    C5 9997   4.646   3.156   1.028  0.7941 -0.0927 -0.1505
  672MPD2     H 9998   0.199   3.261   0.806  0.1461  1.2698  1.2761
  672MPD2    H1 9999   4.703   3.302   1.170 -0.8465  0.2655 -0.3089
  672MPD2    H210000   4.619   2.997   0.897  2.1697 -1.7676 -0.3377
  672MPD2    H310001   4.558   3.127   1.085  0.1690 -0.4694 -1.2957
  672MPD2     N10002   0.162   3.403   1.037 -0.0710  0.0887 -0.4149
  672MPD2    H510003   0.133   3.457   1.118 -1.0155 -1.8370  0.5462
  672MPD2    N110004   0.071   3.048   0.715 -0.3840  0.0174  0.1857
  672MPD2    H710005   0.146   3.086   0.657  0.2908  1.7606  2.1977
  673TMC3    C110006   0.067   2.909   0.540  0.4022 -0.0840 -0.0001
  673TMC3    C210007   0.101   2.780   0.512 -0.6632 -0.4384  0.5067
  673TMC3    C310008   0.180   2.752   0.402  0.0712  0.3823  0.3433
  673TMC3    C410009   0.121   3.013   0.470  0.1512 -0.6048 -0.6093
  673TMC3    C510010   0.211   2.984   0.369 -0.2581  0.3273 -0.1019
  673TMC3    C610011   0.241   2.859   0.341  1.0295  0.5885  0.3364
  673TMC3     C10012   0.017   2.937   0.670  0.1079  0.4032 -0.3169
  673TMC3     O10013   4.682   2.862   0.729 -0.5925 -0.1176 -0.5014
  673TMC3     H10014   0.063   2.690   0.559 -1.5290 -0.7328 -0.7655
  673TMC3    H110015   0.078   3.111   0.485 -0.4356 -0.8294 -0.8141
  673TMC3    H210016   0.321   2.830   0.274 -0.2201 -3.4786  0.5955
  673TMC3    C710017   0.295   3.092   0.310 -0.3188  0.1348 -0.7360
  673TMC3    C810018   0.265   2.639   0.432  0.0587 -0.1590 -1.1147
  673TMC3    O110019   0.401   3.062   0.265 -0.8296  0.0420  0.1634
  673TMC3    O210020   0.269   2.547   0.354 -0.4599  0.7888  0.0702
  674MPD2     C10021   4.691   3.805   0.045 -0.0444  0.2136  1.0305
  674MPD2    C110022   4.666   3.675   0.089 -0.2556  0.3849  0.0129
  674MPD2    C210023   4.557   3.650   0.175 -0.5836 -0.4350 -0.3256
  674MPD2    C310024   4.480   3.756   0.221 -0.1509 -0.1068 -0.4442
  674MPD2    C410025   4.515   3.890   0.188 -0.1459  1.0369 -0.1118
  674MPD2    C510026   4.618   3.907   0.097  0.6842  0.0622 -0.1989
  674MPD2     H10027   4.521   3.552   0.206  2.3708 -1.3715  0.0955
  674MPD2    H110028   4.455   3.976   0.214  0.9737  1.8804 -0.3376
  674MPD2    H210029   0.028   3.834  17.737 -0.3667 -0.6535  0.3100
  674MPD2    H310030   4.635   4.005   0.053  0.7260  0.8729  1.6236
  674MPD2     N10031   4.374   3.718   0.307  0.1841  0.1791 -0.1125
  674MPD2    H510032   4.356   3.620   0.326 -0.5344  1.0460  3.5635
  674MPD2    N110033   0.016   3.583   0.037 -0.0904 -0.4750  0.3393
  674MPD2    H710034   0.086   3.611  17.731  0.9647 -1.0057  1.2189
  675TMC3    C110035   0.083   3.361  17.741 -0.3491  0.0404  0.3714
  675TMC3    C210036   0.046   3.229  17.739 -0.1954  0.0673  0.5649
  675TMC3    C310037   0.142   3.133  17.730 -0.2123 -0.3893  0.0391
  675TMC3    C410038   0.222   3.385  17.749 -0.2580 -0.4983 -0.0893
  675TMC3    C510039   0.309   3.282  17.721  0.1628  0.1848  0.2742
  675TMC3    C610040   0.273   3.154  17.729  0.0036  0.3687  0.8831
  675TMC3     C10041   4.740   3.447   0.058 -0.3462 -0.3064 -0.0697
  675TMC3     O10042   4.659   3.391   0.131  0.6460  0.2522  0.0801
  675TMC3     H10043   4.683   3.208  17.716 -0.0500  1.0435 -0.9576
  675TMC3    H110044   0.271   3.481  17.755  0.3427 -0.8297  0.3398
  675TMC3    H210045   0.348   3.077  17.715  0.6910  1.6470 -2.4679
  675TMC3    C710046   0.456   3.312  17.738 -0.9820  0.6319  0.4436
  675TMC3    C810047   0.094   2.999   0.014  0.0183  0.4796  0.5787
  675TMC3    O110048   0.484   3.425  17.697 -0.7012 -0.6235  0.4219
  675TMC3    O210049   0.174   2.906   0.006  0.1292 -0.3128 -0.5321
  676MPD2     C10050   2.889   1.585  11.436 -0.0528  0.0020  0.3640
  676MPD2    C110051   2.781   1.515  11.481  0.4978 -0.9158 -0.1294
  676MPD2    C210052   2.758   1.386  11.436 -0.4406 -0.1917 -0.4327
  676MPD2    C310053   2.835   1.337  11.328 -0.8232 -0.6136  0.0546
  676MPD2    C410054   2.942   1.412  11.281 -0.2580  0.2582 -0.5786
  676MPD2    C510055   2.968   1.534  11.336 -0.4747 -0.0714  0.0703
  676MPD2     H10056   2.690   1.320  11.489  0.5441 -0.5411  0.3912
  676MPD2    H110057   3.011   1.375  11.205  2.4937 -1.2014  2.6067
  676MPD2    H210058   2.924   1.677  11.482  2.0074 -0.1779 -0.8360
  676MPD2    H310059   3.061   1.583  11.312  0.1058 -1.4949 -0.5826
  676MPD2     N10060   2.824   1.208  11.271  0.4228  0.0548  0.3393
  676MPD2    H510061   2.885   1.199  11.190 -0.0362 -2.7033  0.3206
  676MPD2    N110062   2.693   1.558  11.581 -0.2716  0.3358 -0.4774
  676MPD2    H710063   2.627   1.486  11.608 -0.7918  0.0561 -2.4976
  677TMC3    C110064   2.603   1.696  11.757 -0.2535  0.9489 -0.4549
  677TMC3    C210065   2.481   1.634  11.750 -0.1509  0.5882  0.1530
  677TMC3    C310066   2.382   1.667  11.840 -0.4915  0.0830 -0.2906
  677TMC3    C410067   2.632   1.789  11.849 -0.4481  0.7764 -0.8653
  677TMC3    C510068   2.528   1.835  11.929  0.1970 -1.1133 -0.3678
  677TMC3    C610069   2.410   1.773  11.929 -0.2320 -0.8124  0.3574
  677TMC3     C10070   2.710   1.672  11.653  0.3110 -0.7346 -0.2205
  677TMC3     O10071   2.801   1.759  11.641 -0.4427 -0.2264 -0.0879
  677TMC3     H10072   2.463   1.542  11.695  0.1489  1.6475 -1.7125
  677TMC3    H110073   2.734   1.822  11.864 -0.1445 -0.1583 -0.8726
  677TMC3    H210074   2.343   1.812  12.005  2.2509  3.2458  0.5245
  677TMC3    C710075   2.567   1.908  12.044 -0.7265 -1.1411 -0.1948
  677TMC3    C810076   2.246   1.615  11.827  0.2655  0.4745  0.5078
  677TMC3    O110077   2.505   1.899  12.150 -0.1499 -0.1455 -1.1338
  677TMC3    O210078   2.208   1.603  11.708 -0.0478  0.1970 -0.3980
  678MPD2     C10079   3.937   2.071   1.387 -0.5436  0.4684 -0.4164
  678MPD2    C110080   3.915   1.985   1.284  0.2520  0.3440  0.1220
  678MPD2    C210081   3.783   1.939   1.263  0.7994  0.0111 -0.2864
  678MPD2    C310082   3.675   1.978   1.349  0.1134  0.0772  0.1665
  678MPD2    C410083   3.699   2.062   1.456 -0.0519  0.1643 -0.5020
  678MPD2    C510084   3.833   2.111   1.473  0.4749  0.4726 -0.3228
  678MPD2     H10085   3.767   1.879   1.174 -0.9773 -0.1154  0.1246
  678MPD2    H110086   3.615   2.084   1.520  1.8189  1.5377  1.4817
  678MPD2    H210087   4.033   2.113   1.414 -1.3898  0.3344  2.7245
  678MPD2    H310088   3.862   2.169   1.560 -0.6936  0.8037 -0.1485
  678MPD2     N10089   3.544   1.933   1.306 -0.2765 -0.5124  0.2002
  678MPD2    H510090   3.544   1.868   1.228 -0.3975 -2.4646  1.8446
  678MPD2    N110091   4.017   1.922   1.205  0.2557 -0.5145 -1.0916
  678MPD2    H710092   3.994   1.846   1.142 -3.7309 -0.8816  0.7762
  679TMC3    C110093   4.330   1.654   1.119  0.1698 -0.8013  0.5984
  679TMC3    C210094   4.221   1.737   1.148 -0.1117 -0.1506  0.3826
  679TMC3    C310095   4.252   1.874   1.164 -0.5573 -0.1947 -0.3338
  679TMC3    C410096   4.447   1.703   1.083  0.7520 -0.3934  0.3149
  679TMC3    C510097   4.471   1.840   1.086  0.7417 -0.0985  0.0658
  679TMC3    C610098   4.373   1.923   1.135  0.3705 -0.2866  0.2493
  679TMC3     C10099   4.297   1.508   1.111 -0.0392 -0.0824  0.4077
  679TMC3     O10100   4.393   1.431   1.098  0.1130 -0.9363 -0.0557
  679TMC3     H10101   4.119   1.714   1.174 -0.7516  2.1435 -0.0870
  679TMC3    H110102   4.533   1.636   1.083  0.3686 -0.8844  0.6612
  679TMC3    H210103   4.399   2.027   1.150  1.6787 -0.7729  1.4305
  679TMC3    C710104   4.576   1.900   1.010  0.1475  0.0778  0.3420
  679TMC3    C810105   4.148   1.967   1.212  0.0917 -0.7058 -0.8431
  679TMC3    O110106   4.566   2.021   1.001 -0.4411  0.7868 -0.1019
  679TMC3    O210107   4.187   2.081   1.245  0.3390 -0.2820  0.2904
  680MPD2     C10108   4.524   0.557  13.879  0.4444  1.1611 -0.1074
  680MPD2    C110109   4.635   0.528  13.963  0.6636  0.0038  0.0038
  680MPD2    C210110   4.704   0.635  14.021 -0.2059 -0.5673 -0.4917
  680MPD2    C310111   4.671   0.769  13.996  0.4563  0.6119  0.4091
  680MPD2    C410112   4.565   0.799  13.909 -0.2621  0.1390 -0.0414
  680MPD2    C510113   4.498   0.694  13.848  0.3140 -0.6278  0.6768
  680MPD2     H10114   0.041   0.601  14.088  1.2553 -0.8327 -2.3145
  680MPD2    H110115   4.536   0.901  13.884 -2.4846 -0.0311  1.8540
  680MPD2    H210116   4.467   0.483  13.824  1.9287  0.0982 -0.2002
  680MPD2    H310117   4.417   0.711  13.777  1.2072 -0.0963 -0.2148
  680MPD2     N10118   0.002   0.876  14.058 -0.9041  0.8918 -0.2334
  680MPD2    H510119   4.725   0.972  14.030  1.2527  1.3965  0.1271
  680MPD2    N110120   4.678   0.396  13.985 -0.5326  0.2753  0.7400
  680MPD2    H710121   0.025   0.398  14.035  0.7507 -0.4431 -1.4679
  681TMC3    C110122   4.686   0.164  13.969 -0.0093 -0.4647  0.5277
  681TMC3    C210123   4.615   0.075  14.040  0.8135  0.0568  0.3852
  681TMC3    C310124   4.687   4.714  14.094 -0.0290  0.1327  0.4796
  681TMC3    C410125   0.079   0.169  13.950 -0.0455  0.0113 -0.4368
  681TMC3    C510126   0.146   0.061  14.011  0.3706  0.2687 -0.0585
  681TMC3    C610127   0.084   4.711  14.094 -0.7684 -0.0976 -0.4806
  681TMC3     C10128   4.615   0.281  13.942 -0.4851 -0.7437 -0.3275
  681TMC3     O10129   4.502   0.276  13.901 -0.4055 -0.0753 -0.5452
  681TMC3     H10130   4.510   0.091  14.061  0.6213  1.5336 -1.7251
  681TMC3    H110131   0.119   0.243  13.882 -0.1156  1.2452  0.8654
  681TMC3    H210132   0.130   4.619  14.128  0.3265  0.5544 -0.2070
  681TMC3    C710133   0.285   0.036  13.977 -0.5564  0.2337 -0.0997
  681TMC3    C810134   4.625   4.644  14.205 -0.7492 -0.5905  0.1971
  681TMC3    O110135   0.359   4.712  14.057 -0.4380  0.3879  0.1450
  681TMC3    O210136   4.505   4.627  14.199 -0.4511 -0.0093 -0.8781
  682MPD2     C10137   1.346   1.684  11.336 -0.5744  0.7662  0.2187
  682MPD2    C110138   1.372   1.551  11.369  0.0736 -0.2822  0.0577
  682MPD2    C210139   1.374   1.515  11.503 -0.1457  0.3919 -0.0782
  682MPD2    C310140   1.368   1.610  11.605  0.2520 -0.7963 -0.1722
  682MPD2    C410141   1.351   1.744  11.568 -1.1041 -0.5713  0.6040
  682MPD2    C510142   1.340   1.779  11.435  0.4177 -0.1113 -0.3517
  682MPD2     H10143   1.375   1.410  11.528  1.0973 -0.0112 -1.7993
  682MPD2    H110144   1.356   1.815  11.651 -1.1661  0.1648 -0.0222
  682MPD2    H210145   1.334   1.716  11.233  3.5997 -0.5332 -0.6662
  682MPD2    H310146   1.334   1.883  11.405 -0.2512  0.0235  0.2474
  682MPD2     N10147   1.403   1.581  11.739  0.3463 -0.1270  0.7469
  682MPD2    H510148   1.394   1.654  11.809  2.4074  0.6702  0.1791
  682MPD2    N110149   1.378   1.448  11.276  0.5039  0.0052 -0.0546
  682MPD2    H710150   1.395   1.357  11.317  1.0671 -0.4708 -1.3459
  683TMC3    C110151   1.603   1.555  12.096 -0.0714 -0.6545  0.4500
  683TMC3    C210152   1.567   1.455  12.186 -0.4228 -0.0469  0.2528
  683TMC3    C310153   1.493   1.355  12.133  0.1121  0.9418  0.6424
  683TMC3    C410154   1.548   1.561  11.971 -0.2391  0.0761 -0.1423
  683TMC3    C510155   1.468   1.460  11.928 -0.6249 -0.0071  0.0010
  683TMC3    C610156   1.443   1.355  12.007  0.3021  0.0379  0.1026
  683TMC3     C10157   1.638   1.688  12.151  0.1936  0.0983  0.2520
  683TMC3     O10158   1.630   1.787  12.080  0.4297 -0.0043  0.1962
  683TMC3     H10159   1.621   1.453  12.279  0.4890  1.9072 -0.2264
  683TMC3    H110160   1.574   1.649  11.912  0.2222 -0.5137 -0.8193
  683TMC3    H210161   1.379   1.274  11.973  1.3926 -0.2771 -1.1883
  683TMC3    C710162   1.440   1.459  11.793  0.2382  0.6409  0.2918
  683TMC3    C810163   1.469   1.231  12.207  0.1684  0.2020  0.0289
  683TMC3    O110164   1.458   1.352  11.740  0.2533 -0.3967 -0.7180
  683TMC3    O210165   1.364   1.173  12.195 -0.3725  0.2152  0.5957
  684MPD2     C10166   0.525   1.069  16.730 -0.0540 -1.3615 -0.5638
  684MPD2    C110167   0.489   1.089  16.593  0.1276 -0.0043 -0.4843
  684MPD2    C210168   0.411   1.204  16.562  0.5000  0.1924 -1.0379
  684MPD2    C310169   0.367   1.289  16.662  0.0115  0.7616  0.6746
  684MPD2    C410170   0.399   1.262  16.792 -0.7490  0.3541 -0.5725
  684MPD2    C510171   0.476   1.155  16.828 -0.6894 -0.1482 -0.3759
  684MPD2     H10172   0.396   1.240  16.461  0.7840  3.1548 -0.0343
  684MPD2    H110173   0.356   1.318  16.874 -2.1749 -0.5622 -0.6933
  684MPD2    H210174   0.588   0.987  16.763  0.3743 -1.0190 -0.5323
  684MPD2    H310175   0.508   1.135  16.930 -0.4095 -1.8867 -0.8051
  684MPD2     N10176   0.304   1.414  16.640 -0.8701 -0.1468 -0.2610
  684MPD2    H510177   0.308   1.475  16.722  1.7830  0.6410 -0.9509
  684MPD2    N110178   0.542   1.013  16.487 -0.4909  0.3141  0.0484
  684MPD2    H710179   0.508   1.047  16.397  0.8486  0.8999 -0.2338
  685TMC3    C110180   0.699   0.899  16.366  0.5538  0.3511 -1.1535
  685TMC3    C210181   0.627   0.911  16.252  0.2879 -0.3087 -0.3909
  685TMC3    C310182   0.698   0.924  16.130  0.9045  0.2168 -0.2815
  685TMC3    C410183   0.832   0.910  16.368 -0.3467 -0.3540  0.0432
  685TMC3    C510184   0.904   0.939  16.254  0.8922  0.4132 -0.6886
  685TMC3    C610185   0.837   0.940  16.132  0.0285 -0.4635 -0.8047
  685TMC3     C10186   0.633   0.911  16.494 -0.3747 -0.5290  0.0930
  685TMC3     O10187   0.688   0.861  16.591  0.2977  0.5769 -0.1228
  685TMC3     H10188   0.520   0.897  16.254  0.0305  2.0646  2.3118
  685TMC3    H110189   0.881   0.894  16.463  0.1328 -1.0779 -0.3371
  685TMC3    H210190   0.888   0.952  16.037  0.4108 -0.6392 -0.6198
  685TMC3    C710191   1.025   1.012  16.263 -0.4247  0.3039 -0.2627
  685TMC3    C810192   0.624   0.915  16.005  0.0930  0.0624 -0.4352
  685TMC3    O110193   1.100   1.025  16.168 -0.0092 -0.1970  0.6678
  685TMC3    O210194   0.687   0.878  15.908  0.3204 -0.2117 -0.3685
  686MPD2     C10195   1.692   1.482  16.299  0.5205  0.1131  0.2520
  686MPD2    C110196   1.723   1.348  16.276 -0.1107 -0.4526 -0.7285
  686MPD2    C210197   1.765   1.313  16.146 -0.2836 -0.2622 -0.0179
  686MPD2    C310198   1.763   1.401  16.035 -0.1676  0.6077 -0.6952
  686MPD2    C410199   1.712   1.524  16.063 -0.0449 -0.1080  0.1923
  686MPD2    C510200   1.693   1.568  16.190 -0.0210 -0.3674  0.2379
  686MPD2     H10201   1.798   1.213  16.124  0.6205  0.1154 -0.3770
  686MPD2    H110202   1.699   1.592  15.980 -1.8841 -0.7367 -0.0516
  686MPD2    H210203   1.677   1.513  16.402 -0.5125  0.1127  0.0975
  686MPD2    H310204   1.667   1.673  16.201  0.0131 -0.5243  1.8701
  686MPD2     N10205   1.814   1.369  15.904  0.0446  0.4886  0.3409
  686MPD2    H510206   1.793   1.435  15.830  1.4646  0.4011 -0.1283
  686MPD2    N110207   1.712   1.257  16.380  0.3808 -0.3946 -0.0143
  686MPD2    H710208   1.686   1.292  16.472 -0.5677 -0.3425 -0.3000
  687TMC3    C110209   1.862   1.165  15.775 -0.6623  0.1599 -0.2741
  687TMC3    C210210   1.728   1.183  15.755 -0.3266  0.5153  0.2756
  687TMC3    C310211   1.640   1.095  15.802  0.6139  0.1972 -0.2022
  687TMC3    C410212   1.906   1.042  15.817 -0.1733 -0.3301 -0.3867
  687TMC3    C510213   1.815   0.954  15.875  0.5053 -0.1814  0.1477
  687TMC3    C610214   1.683   0.973  15.861 -0.4352  0.3360 -0.0738
  687TMC3     C10215   1.900   1.265  15.876  0.2301 -0.1270  0.2116
  687TMC3     O10216   1.985   1.213  15.945  0.3698  0.3223 -0.0076
  687TMC3     H10217   1.693   1.271  15.703  1.5049  0.5408 -0.9042
  687TMC3    H110218   2.012   1.028  15.838 -0.1198 -0.1826 -0.5504
  687TMC3    H210219   1.607   0.914  15.910  0.2976 -0.3800  0.2031
  687TMC3    C710220   1.858   0.892  15.993 -0.4690  0.6961 -0.1576
  687TMC3    C810221   1.530   1.141  15.877 -0.5175 -0.2147 -0.7229
  687TMC3    O110222   1.787   0.801  16.034 -0.3795 -0.0821 -0.1759
  687TMC3    O210223   1.509   1.098  15.991  0.4912 -0.8821  0.6894
  688MPD2     C10224   0.949   4.720   0.108  0.2089 -0.2141  0.4123
  688MPD2    C110225   0.882   4.625   0.034  0.3239 -0.3433  0.2937
  688MPD2    C210226   0.936   4.582  17.680  0.3530  0.0718  0.7670
  688MPD2    C310227   1.063   4.619  17.644  0.5714  0.4134 -0.0942
  688MPD2    C410228   1.130   4.708  17.727 -0.6345  0.2245 -0.0258
  688MPD2    C510229   1.072   0.019   0.076 -0.3939  0.4766 -0.3429
  688MPD2     H10230   0.887   4.508  17.617 -0.4115  1.0266  0.2489
  688MPD2    H110231   1.226   0.008  17.695 -0.7682 -1.0474 -2.0859
  688MPD2    H210232   0.909   0.008   0.204  0.5826  1.9696 -0.0905
  688MPD2    H310233   1.120   0.096   0.136 -0.3831  0.9483 -0.9537
  688MPD2     N10234   1.127   4.566  17.530  0.1705 -0.2988  0.2383
  688MPD2    H510235   1.211   4.609  17.492 -0.5613 -0.7588 -1.8902
  688MPD2    N110236   0.754   4.577   0.069  0.5692 -0.1103  0.0983
  688MPD2    H710237   0.703   4.526  17.759  1.4788 -2.3007  0.9793
  689TMC3    C110238   0.569   4.507   0.186  0.4841  0.3146 -0.4999
  689TMC3    C210239   0.488   4.548   0.285  0.4294  0.3352 -0.5419
  689TMC3    C310240   0.414   4.452   0.355 -0.2949 -0.3728  0.2323
  689TMC3    C410241   0.593   4.372   0.159  0.7835 -0.1008  0.3750
  689TMC3    C510242   0.510   4.281   0.229 -0.3089 -0.2685  0.1283
  689TMC3    C610243   0.412   4.318   0.317 -0.3752  0.4215  0.2104
  689TMC3     C10244   0.686   4.594   0.187  0.1413  0.1227  0.1423
  689TMC3     O10245   0.709   4.673   0.276 -1.0554  0.4174  0.1564
  689TMC3     H10246   0.483   4.653   0.310  1.2503  0.5314 -1.2007
  689TMC3    H110247   0.657   4.335   0.080 -0.0223  1.8833 -1.2084
  689TMC3    H210248   0.355   4.245   0.373  0.0892 -0.6016 -0.6394
  689TMC3    C710249   0.521   4.146   0.190 -0.3846  0.4014 -0.2176
  689TMC3    C810250   0.310   4.501   0.449  0.3162 -0.5615  0.1083
  689TMC3    O110251   0.526   4.080   0.293  0.1986 -0.3237 -0.2032
  689TMC3    O210252   0.272   4.417   0.530 -0.9095 -0.2491 -0.3308
  690MPD2     C10253   2.695   1.890  15.643 -0.5688  0.4473  0.3905
  690MPD2    C110254   2.812   1.844  15.699  0.3806  0.5457 -1.8936
  690MPD2    C210255   2.926   1.875  15.631 -0.2934  0.4770  0.5094
  690MPD2    C310256   2.934   1.943  15.515 -0.7567 -1.2549  0.4801
  690MPD2    C410257   2.809   1.981  15.464 -1.0682 -0.1797  0.0561
  690MPD2    C510258   2.686   1.955  15.522  0.1094 -0.7622 -0.2208
  690MPD2     H10259   3.025   1.861  15.672 -1.5943 -0.5236  3.2694
  690MPD2    H110260   2.806   2.039  15.372  0.1194  1.0229  0.7744
  690MPD2    H210261   2.604   1.870  15.698 -0.1830 -0.5437  0.6660
  690MPD2    H310262   2.591   1.993  15.487  1.4950 -0.1646 -3.2856
  690MPD2     N10263   3.060   1.955  15.450 -1.2619 -0.1260  0.0861
  690MPD2    H510264   3.137   1.908  15.495 -2.1840 -1.9953 -0.2726
  690MPD2    N110265   2.806   1.768  15.814  0.1586 -0.3973  0.4957
  690MPD2    H710266   2.714   1.751  15.855 -1.5935 -0.0823 -3.2680
  691TMC3    C110267   2.871   1.628  15.981 -0.1821 -0.0078  0.3081
  691TMC3    C210268   2.771   1.678  16.058 -0.2956 -0.1580 -0.4555
  691TMC3    C310269   2.739   1.586  16.159 -0.1701  0.8328  0.3641
  691TMC3    C410270   2.947   1.521  16.015  0.8838 -0.0448  0.0145
  691TMC3    C510271   2.913   1.441  16.116 -0.1309 -0.3521  0.5172
  691TMC3    C610272   2.804   1.474  16.187 -0.3032 -0.1199  0.1449
  691TMC3     C10273   2.920   1.717  15.879  0.0887 -0.4137 -0.3800
  691TMC3     O10274   3.032   1.701  15.834  0.6245  0.0575 -0.0932
  691TMC3     H10275   2.730   1.778  16.049  0.0100  0.0985  1.0648
  691TMC3    H110276   3.023   1.505  15.938 -0.9489 -0.8664 -1.6290
  691TMC3    H210277   2.785   1.421  16.280 -0.2293  1.3945  1.0244
  691TMC3    C710278   2.949   1.303  16.109 -0.1621  0.2194  0.8618
  691TMC3    C810279   2.654   1.638  16.268 -0.5310  0.4182  0.1320
  691TMC3    O110280   3.067   1.276  16.091 -0.3646 -0.1727 -0.2606
  691TMC3    O210281   2.664   1.580  16.373 -0.5784 -0.3049 -0.1185
  692TMC3    C110282   4.574   2.766  15.956  0.6835  0.3024  0.2913
  692TMC3    C210283   4.688   2.809  16.022  0.3803  0.0814  0.1511
  692TMC3    C310284   0.026   2.712  16.074  0.7282  0.1638 -0.5893
  692TMC3    C410285   4.553   2.635  15.921 -0.1927  1.0672 -0.2974
  692TMC3    C510286   4.628   2.539  15.992 -0.0665 -0.4045  0.0637
  692TMC3    C610287   4.730   2.577  16.076  0.2126 -0.0728 -0.3048
  692TMC3     C10288   4.489   2.864  15.904 -0.9457 -0.2733 -0.2340
  692TMC3     O10289   4.373   2.830  15.873 -0.3890 -0.4524  0.2548
  692TMC3     H10290   4.698   2.909  16.062  1.2854  0.8967 -2.0793
  692TMC3    H110291   4.480   2.611  15.845  0.5067  0.3516 -0.7446
  692TMC3    H210292   0.068   2.514  16.114  0.3377  0.2634 -0.0066
  692TMC3    C710293   4.615   2.398  15.963  0.0071 -0.0455  0.8549
  692TMC3    C810294   0.111   2.748  16.183  0.0774  0.0904  0.1685
  692TMC3    O110295   4.572   2.377  15.851 -0.3047 -0.3330  0.1825
  692TMC3    O210296   0.123   2.666  16.271 -0.0476  0.0372 -0.1628
  693MPD2     C10297   4.026   0.771  10.656  0.1208  0.6242  1.0232
  693MPD2    C110298   3.940   0.793  10.767 -0.0393 -0.5598  0.3979
  693MPD2    C210299   3.992   0.782  10.894  0.1983 -0.0571  0.0031
  693MPD2    C310300   4.129   0.748  10.919  0.1089  0.4141 -0.3801
  693MPD2    C410301   4.216   0.739  10.813  0.0423  0.1265 -0.2769
  693MPD2    C510302   4.162   0.751  10.684 -0.4496  0.5607 -0.5963
  693MPD2     H10303   3.924   0.796  10.977 -0.8752 -1.1928 -0.6899
  693MPD2    H110304   4.322   0.718  10.816  0.3488  1.8797  1.4258
  693MPD2    H210305   4.001   0.811  10.558 -0.7656 -0.1935  0.9129
  693MPD2    H310306   4.232   0.766  10.603  0.5955 -1.4983 -0.0651
  693MPD2     N10307   4.189   0.746  11.045 -0.1756  0.5129 -0.2925
  693MPD2    H510308   4.290   0.748  11.048 -0.1659 -2.9028  1.6422
  693MPD2    N110309   3.803   0.830  10.765  0.1267 -0.0205 -0.0546
  693MPD2    H710310   3.756   0.830  10.855  0.8479 -2.2514  0.3218
  694TMC3    C110311   3.585   0.860  10.683 -0.1928 -0.0815 -0.0569
  694TMC3    C210312   3.491   0.801  10.606 -0.0135 -0.2419 -0.5875
  694TMC3    C310313   3.368   0.794  10.661  0.0803 -0.8438  0.1115
  694TMC3    C410314   3.552   0.938  10.796 -0.1596 -0.0010 -0.2680
  694TMC3    C510315   3.425   0.926  10.838 -0.0288 -0.4336  0.7100
  694TMC3    C610316   3.331   0.848  10.781  0.2669  0.7316 -0.5757
  694TMC3     C10317   3.723   0.831  10.652  0.4385 -0.0314  0.2395
  694TMC3     O10318   3.762   0.814  10.537 -0.2841  0.0143  0.6978
  694TMC3     H10319   3.536   0.719  10.550 -2.1801 -0.3920 -2.1434
  694TMC3    H110320   3.626   0.996  10.850  0.4957 -1.2913  0.2196
  694TMC3    H210321   3.237   0.841  10.835  0.1535  2.1880 -0.5850
  694TMC3    C710322   3.420   0.937  10.976 -0.1180 -0.2625 -0.0433
  694TMC3    C810323   3.294   0.681  10.625 -0.0070 -0.3488  0.3683
  694TMC3    O110324   3.441   1.050  11.018 -0.1606  0.0098  0.3303
  694TMC3    O210325   3.232   0.621  10.715 -0.4865 -0.1233  0.0174
  695MPD2     C10326   0.606   2.986  13.806  0.0112 -0.2919 -0.5009
  695MPD2    C110327   0.561   3.012  13.937 -0.4919  0.5504  0.8193
  695MPD2    C210328   0.427   3.004  13.968  0.6518  0.4604  0.0025
  695MPD2    C310329   0.339   2.968  13.869  0.1632 -0.1686 -0.5139
  695MPD2    C410330   0.379   2.955  13.731  0.2368 -0.0817  0.3041
  695MPD2    C510331   0.516   2.960  13.704 -0.3007 -0.8189 -0.1238
  695MPD2     H10332   0.403   3.043  14.066 -0.5037 -1.8982  0.6574
  695MPD2    H110333   0.309   2.929  13.653  0.6895 -0.3000 -0.0253
  695MPD2    H210334   0.711   2.989  13.780  0.2188  0.4465  0.4052
  695MPD2    H310335   0.551   2.936  13.604  1.5984  0.3500  0.2523
  695MPD2     N10336   0.203   2.963  13.903 -0.4415  0.1572 -0.1488
  695MPD2    H510337   0.178   2.958  14.001  0.1759  0.6626  0.0359
  695MPD2    N110338   0.650   3.030  14.049  0.3865 -1.5549 -0.4530
  695MPD2    H710339   0.622   3.043  14.146  1.4448 -2.1643 -0.0750
  696TMC3    C110340   4.714   2.925  13.887 -0.3517  0.2061 -0.6583
  696TMC3    C210341   4.718   2.862  14.010 -0.3890  0.3166 -0.3762
  696TMC3    C310342   4.592   2.850  14.062  0.5563 -0.4412 -0.5719
  696TMC3    C410343   4.600   2.958  13.822 -0.6378 -0.5467  0.4466
  696TMC3    C510344   4.483   2.943  13.874  0.3970 -0.1385 -0.2982
  696TMC3    C610345   4.478   2.895  14.001  0.4915 -0.2684  0.8292
  696TMC3     C10346   0.096   2.955  13.815  0.0468  0.4190 -0.0187
  696TMC3     O10347   0.095   2.935  13.691 -0.1425 -0.4716  0.4998
  696TMC3     H10348   0.065   2.823  14.060  0.4911  0.2381 -1.9989
  696TMC3    H110349   4.599   2.989  13.718  0.7886 -0.6885  0.3889
  696TMC3    H210350   4.378   2.881  14.039  0.8350 -3.1818  0.6377
  696TMC3    C710351   4.393   3.052  13.849 -0.8864 -0.9828  0.1373
  696TMC3    C810352   4.582   2.860  14.204  0.6731 -0.3752  0.0814
  696TMC3    O110353   4.360   3.073  13.732 -0.7130  0.0336  1.3535
  696TMC3    O210354   4.504   2.942  14.248  0.1113  0.5419 -0.5732
  697MPD2     C10355   4.437   4.284  15.950 -0.5943  0.8682  0.5894
  697MPD2    C110356   4.377   4.305  15.826 -0.0026  0.4810  0.4942
  697MPD2    C210357   4.403   4.416  15.745  0.0465  0.1121 -0.1354
  697MPD2    C310358   4.488   4.515  15.792  0.2187 -0.0837 -0.3926
  697MPD2    C410359   4.556   4.487  15.908 -0.5254  0.4011  0.5955
  697MPD2    C510360   4.531   4.377  15.987  0.3015  0.1282 -0.4324
  697MPD2     H10361   4.350   4.438  15.653 -0.7055 -2.1417 -0.2265
  697MPD2    H110362   4.623   4.558  15.955  0.5270  0.7370 -1.3881
  697MPD2    H210363   4.435   4.194  16.011 -0.6127  1.0865  0.9115
  697MPD2    H310364   4.588   4.360  16.078 -2.7196 -2.9442  0.8616
  697MPD2     N10365   4.514   4.633  15.713  0.7416  0.3371 -0.1698
  697MPD2    H510366   4.495   4.635  15.614  0.7975 -2.4124 -0.2324
  697MPD2    N110367   4.287   4.206  15.772  0.4391  0.4332 -1.0025
  697MPD2    H710368   4.252   4.221  15.678  0.7141 -2.0781 -1.4853
  698TMC3    C110369   4.608   0.109  15.652 -0.8353 -0.4321  0.0652
  698TMC3    C210370   4.712   0.193  15.682 -0.1591  0.0408  0.2875
  698TMC3    C310371   0.021   0.268  15.579 -0.2476 -0.2118  0.1698
  698TMC3    C410372   4.559   0.092  15.528 -0.2263  0.2931  0.7045
  698TMC3    C510373   4.607   0.178  15.427  0.8112  0.1869  0.4822
  698TMC3    C610374   4.713   0.261  15.456  0.2247 -0.6609  0.4482
  698TMC3     C10375   4.580   0.008  15.759  0.4022 -0.6487  0.7497
  698TMC3     O10376   4.619   0.035  15.873  0.2629  0.3930  0.1903
  698TMC3     H10377   0.020   0.185  15.778  0.7998  3.0880  0.0572
  698TMC3    H110378   4.476   0.023  15.515 -0.7313  1.2512 -1.2763
  698TMC3    H210379   0.013   0.325  15.378  2.1904  0.6477  2.5309
  698TMC3    C710380   4.557   0.181  15.288 -0.0768  0.1246  0.0630
  698TMC3    C810381   0.137   0.346  15.621 -0.3733 -0.7455  0.2461
  698TMC3    O110382   4.605   0.268  15.213  0.2555 -0.5305 -0.0944
  698TMC3    O210383   0.159   0.357  15.741  0.5257 -0.4470 -0.1455
  699TMC3    C110384   4.341   3.091  13.242 -0.5290  0.3737  0.3322
  699TMC3    C210385   4.411   2.983  13.294  0.4413 -0.5275  0.4769
  699TMC3    C310386   4.363   2.931  13.413  0.2931  0.0178 -0.2145
  699TMC3    C410387   4.242   3.149  13.309 -0.1708  0.3735  0.2261
  699TMC3    C510388   4.203   3.098  13.430 -0.3844 -0.3579  0.1406
  699TMC3    C610389   4.261   2.988  13.482  0.0176  0.7501  0.4234
  699TMC3     C10390   4.337   3.106  13.104  0.0740  0.6849 -0.3562
  699TMC3     O10391   4.230   3.135  13.053  0.4444 -0.0733  0.3989
  699TMC3     H10392   4.466   2.923  13.222 -0.1432 -1.1633  0.5562
  699TMC3    H110393   4.201   3.242  13.272 -0.4647  0.0131 -0.3498
  699TMC3    H210394   4.223   2.941  13.571  1.8960  3.7880  2.8237
  699TMC3    C710395   4.063   3.137  13.474 -0.3546 -0.1773  0.1067
  699TMC3    C810396   4.441   2.828  13.477 -0.2186  0.2687 -0.9299
  699TMC3    O110397   4.004   3.207  13.393 -0.0067  0.1281 -0.0753
  699TMC3    O210398   4.406   2.784  13.587  0.0605  0.6252  0.0168
  700TMC3    C110399   3.330   0.271  17.329 -1.0499  0.5967  0.2619
  700TMC3    C210400   3.413   0.164  17.323  0.3968  0.4466 -0.0883
  700TMC3    C310401   3.496   0.131  17.424 -0.8556 -0.2097 -0.7170
  700TMC3    C410402   3.330   0.349  17.434 -0.1296  0.0502  0.2291
  700TMC3    C510403   3.423   0.326  17.530  0.0067  0.7723  0.2169
  700TMC3    C610404   3.507   0.221  17.528 -0.5110 -0.7201  0.2048
  700TMC3     C10405   3.299   0.337  17.205 -0.4996 -0.4431  0.0626
  700TMC3     O10406   3.184   0.370  17.180  0.5303  0.3624  0.2910
  700TMC3     H10407   3.409   0.095  17.239  0.2496  1.1605 -0.6668
  700TMC3    H110408   3.252   0.424  17.440  0.4073  0.8410 -2.5070
  700TMC3    H210409   3.573   0.205  17.613  0.2952  1.3523 -0.0278
  700TMC3    C710410   3.462   0.437  17.607 -0.0437 -0.4415  0.0098
  700TMC3    C810411   3.584   0.017  17.402 -0.6880 -0.0399  0.1046
  700TMC3    O110412   3.579   0.448  17.630 -0.5936  0.1007  0.0861
  700TMC3    O210413   3.548   4.668  17.324  0.2376  0.0405 -0.3625
  701TMC3    C110414   3.517   4.225  15.471 -0.4771  0.1271  0.4113
  701TMC3    C210415   3.539   4.115  15.392 -0.1014 -0.1874 -0.5029
  701TMC3    C310416   3.625   4.024  15.441 -0.0867 -0.1586 -0.8869
  701TMC3    C410417   3.566   4.243  15.599 -0.2253 -0.2985 -0.9815
  701TMC3    C510418   3.659   4.150  15.642  0.4491  0.5673 -0.0447
  701TMC3    C610419   3.695   4.046  15.558 -1.0492 -0.1835  0.0435
  701TMC3     C10420   3.432   4.334  15.415  0.1903 -0.3109 -0.4312
  701TMC3     O10421   3.378   4.403  15.505  0.0604 -0.3366 -0.2967
  701TMC3     H10422   3.479   4.104  15.302  1.0881 -0.6852 -1.2416
  701TMC3    H110423   3.547   4.325  15.668 -1.6697 -1.2145 -0.2879
  701TMC3    H210424   3.757   3.964  15.592  0.4023  1.3922  1.1744
  701TMC3    C710425   3.779   4.194  15.717 -0.0098 -0.4019  0.0047
  701TMC3    C810426   3.668   3.907  15.367 -0.2429  0.6343 -0.4231
  701TMC3    O110427   3.824   4.126  15.808 -0.1626  0.0170  0.5204
  701TMC3    O210428   3.782   3.862  15.381 -0.8495 -0.3851 -0.0097
  702MPD2     C10429   2.930   1.012  10.639 -0.0400  0.3635 -0.2547
  702MPD2    C110430   2.828   1.083  10.703 -0.2866 -0.0048  0.8000
  702MPD2    C210431   2.799   1.212  10.664 -0.1353 -0.0268 -0.8870
  702MPD2    C310432   2.857   1.276  10.557  0.3971 -0.0895  0.2445
  702MPD2    C410433   2.951   1.197  10.492  0.0893  0.3689 -0.5998
  702MPD2    C510434   2.985   1.067  10.526  0.4656  0.0852  0.6014
  702MPD2     H10435   2.729   1.268  10.724 -0.2862  0.6915 -1.7291
  702MPD2    H110436   2.998   1.227  10.398 -1.8870  1.8515 -1.1046
  702MPD2    H210437   2.964   0.911  10.660  1.2030  0.9837  0.7251
  702MPD2    H310438   3.032   1.013  10.445  1.5244 -1.2874  2.1118
  702MPD2     N10439   2.836   1.409  10.522  0.3145 -0.5293 -0.1117
  702MPD2    H510440   2.903   1.454  10.459 -1.4667  1.4748 -0.5965
  702MPD2    N110441   2.755   1.038  10.816 -0.2677  0.8988  0.2567
  702MPD2    H710442   2.688   1.100  10.859  0.0057  1.1661  0.3032
  703TMC3    C110443   2.761   1.631  10.581 -0.5983 -0.3318  0.3370
  703TMC3    C210444   2.678   1.701  10.663 -0.5644 -0.4514 -0.3017
  703TMC3    C310445   2.703   1.836  10.685  0.2424  0.2621 -0.1246
  703TMC3    C410446   2.873   1.682  10.522  0.2429 -0.6110 -0.0856
  703TMC3    C510447   2.899   1.810  10.554 -0.6463  0.2589  0.2936
  703TMC3    C610448   2.822   1.888  10.637  0.0431  0.0255 -0.0093
  703TMC3     C10449   2.726   1.488  10.562  0.7143 -0.4426  0.0856
  703TMC3     O10450   2.614   1.452  10.598  0.3353  0.1950  0.3262
  703TMC3     H10451   2.588   1.647  10.691 -1.1099  0.2442 -0.7278
  703TMC3    H110452   2.944   1.622  10.467  1.0960  1.3391 -1.1387
  703TMC3    H210453   2.851   1.988  10.666 -1.0157  0.8016 -1.6601
  703TMC3    C710454   3.019   1.879  10.511  0.3381 -0.2006 -0.3043
  703TMC3    C810455   2.637   1.913  10.793 -0.6512 -0.4092 -0.6228
  703TMC3    O110456   3.064   1.962  10.583  0.7399  0.1997  0.2525
  703TMC3    O210457   2.685   2.021  10.816 -0.5291  0.0821 -0.2525
  704TMC3    C110458   0.458   4.057  12.702  0.1835 -0.2928 -0.3321
  704TMC3    C210459   0.563   4.055  12.605 -0.3724  0.5232  0.6031
  704TMC3    C310460   0.602   3.934  12.568 -0.4086  0.8666 -0.0481
  704TMC3    C410461   0.425   3.948  12.775  0.8825  0.4383  0.3228
  704TMC3    C510462   0.470   3.824  12.730  0.3762 -0.1904  0.3911
  704TMC3    C610463   0.559   3.821  12.629 -0.2705  0.1974 -0.4139
  704TMC3     C10464   0.373   4.173  12.716  0.6686  0.4063 -0.6223
  704TMC3     O10465   0.304   4.181  12.815 -0.2643  0.3477 -0.1395
  704TMC3     H10466   0.591   4.140  12.544  2.7305  0.0335  1.3202
  704TMC3    H110467   0.355   3.955  12.858  0.0789  1.5111 -0.4577
  704TMC3    H210468   0.614   3.733  12.598 -0.4689 -0.6569  1.6204
  704TMC3    C710469   0.472   3.705  12.820  0.1807 -0.0994  0.4297
  704TMC3    C810470   0.741   3.924  12.529 -0.4176 -0.1867  0.2597
  704TMC3    O110471   0.530   3.608  12.772 -1.1592 -0.3792  0.5699
  704TMC3    O210472   0.812   3.843  12.582  0.7348 -0.1709  0.0086
  705MPD2     C10473   0.286   2.364  16.640  0.5986  0.2696  0.2246
  705MPD2    C110474   0.255   2.476  16.564 -0.4916 -0.0488  0.5486
  705MPD2    C210475   0.192   2.585  16.630 -0.0216 -0.2157 -0.0716
  705MPD2    C310476   0.156   2.573  16.766  0.3731  1.0079 -0.4397
  705MPD2    C410477   0.190   2.458  16.847 -0.3365 -0.7567  0.1255
  705MPD2    C510478   0.260   2.363  16.775  0.3994  0.0406  0.4717
  705MPD2     H10479   0.155   2.663  16.565 -3.5083 -1.0173  0.9700
  705MPD2    H110480   0.155   2.433  16.946  0.2518 -0.5295  0.3879
  705MPD2    H210481   0.332   2.277  16.596 -1.5733 -0.6272 -0.2726
  705MPD2    H310482   0.280   2.268  16.823 -0.3179  0.7628  2.1856
  705MPD2     N10483   0.078   2.671  16.835 -0.1888  0.2684 -0.5104
  705MPD2    H510484   0.048   2.657  16.931 -1.2840  1.2908 -0.6952
  705MPD2    N110485   0.287   2.489  16.428  0.6759 -0.3735  0.0479
  705MPD2    H710486   0.250   2.575  16.389 -0.3611 -1.0935 -0.5492
  706TMC3    C110487   0.564   2.489  16.048  0.2651 -0.3077 -1.3580
  706TMC3    C210488   0.554   2.624  16.038 -0.1602 -0.2531 -0.5708
  706TMC3    C310489   0.483   2.691  16.133  0.8003 -0.5713  0.1690
  706TMC3    C410490   0.496   2.415  16.142  0.5639  0.2041 -0.4066
  706TMC3    C510491   0.416   2.488  16.237 -0.4116 -0.3705  0.0180
  706TMC3    C610492   0.422   2.626  16.238 -0.1679 -0.2152 -0.4366
  706TMC3     C10493   0.679   2.428  15.992  0.0967 -0.0612  0.1574
  706TMC3     O10494   0.743   2.355  16.064  0.3094 -0.3375 -0.0180
  706TMC3     H10495   0.613   2.681  15.968  1.2787  0.3660  1.1664
  706TMC3    H110496   0.491   2.307  16.137  0.8123  0.0644  2.1603
  706TMC3    H210497   0.362   2.681  16.310  1.1822  1.0762 -0.3098
  706TMC3    C710498   0.377   2.416  16.358 -0.3821 -0.3226 -0.1289
  706TMC3    C810499   0.509   2.834  16.149  0.4143 -0.4045  0.1902
  706TMC3    O110500   0.446   2.317  16.384  0.7440  0.6430 -0.2255
  706TMC3    O210501   0.523   2.902  16.048 -0.4337  0.5373 -0.3288
  707TMC3    C110502   1.984   1.814   0.321 -0.4357 -0.7989  0.2886
  707TMC3    C210503   1.860   1.822   0.378  0.3851 -0.5569 -0.0607
  707TMC3    C310504   1.778   1.711   0.379 -0.2394 -0.5270 -0.1100
  707TMC3    C410505   2.027   1.690   0.274 -0.1891  0.1514 -0.4008
  707TMC3    C510506   1.940   1.584   0.276  0.1135  0.1677 -0.0713
  707TMC3    C610507   1.811   1.594   0.310 -0.4549 -0.0589 -0.4026
  707TMC3     C10508   2.084   1.913   0.365 -0.2870  0.4687  0.2928
  707TMC3     O10509   2.202   1.881   0.373  0.2175 -0.2609 -0.0506
  707TMC3     H10510   1.833   1.904   0.443 -0.9873 -0.9665 -0.1250
  707TMC3    H110511   2.121   1.679   0.222  0.5759 -0.1859  1.0637
  707TMC3    H210512   1.742   1.511   0.326 -0.7377 -0.3216 -2.8603
  707TMC3    C710513   2.001   1.457   0.257 -0.0712 -0.3247 -0.4344
  707TMC3    C810514   1.676   1.717   0.481 -0.1819  0.2224  0.0614
  707TMC3    O110515   2.120   1.459   0.237  0.0846 -0.4240 -0.6280
  707TMC3    O210516   1.620   1.825   0.500  0.8105 -0.2744 -0.8455
  708MPD2     C10517   3.463   0.498  14.072 -0.3079  0.1104 -0.2513
  708MPD2    C110518   3.519   0.621  14.071  0.3128 -0.8582  0.0934
  708MPD2    C210519   3.503   0.704  14.178 -0.3311 -0.4273  1.0112
  708MPD2    C310520   3.435   0.675  14.291 -0.5483  0.6694  0.5365
  708MPD2    C410521   3.381   0.547  14.299 -0.7301  0.2672  0.6464
  708MPD2    C510522   3.394   0.466  14.187 -0.6092 -0.5301  0.3538
  708MPD2     H10523   3.548   0.802  14.171 -1.9979  0.2754  0.1556
  708MPD2    H110524   3.346   0.507  14.393  1.7540 -1.4195  0.8760
  708MPD2    H210525   3.454   0.434  13.985  0.5487  1.7250 -1.5250
  708MPD2    H310526   3.371   0.362  14.208 -0.7973 -0.6779 -0.5973
  708MPD2     N10527   3.404   0.768  14.403 -0.1525 -0.2524 -0.0523
  708MPD2    H510528   3.335   0.736  14.470 -1.5320  0.8433 -0.9431
  708MPD2    N110529   3.579   0.677  13.952 -0.5974  0.0334  0.7383
  708MPD2    H710530   3.555   0.626  13.868  1.5187  0.7929 -0.3129
  709TMC3    C110531   3.628   0.849  13.803  0.4861 -0.0165  0.4216
  709TMC3    C210532   3.653   0.764  13.701 -0.2801 -0.5891  0.2745
  709TMC3    C310533   3.592   0.798  13.589 -0.3596 -0.2184 -0.6549
  709TMC3    C410534   3.586   0.979  13.796 -0.6205 -0.1688 -0.0549
  709TMC3    C510535   3.531   1.012  13.675 -0.5344 -0.3418  0.9417
  709TMC3    C610536   3.526   0.917  13.578  0.3218 -0.5239 -0.7767
  709TMC3     C10537   3.632   0.806  13.938  0.2788  0.2132  0.8638
  709TMC3     O10538   3.681   0.891  14.008  0.5209 -0.1733 -0.2036
  709TMC3     H10539   3.697   0.666  13.711 -0.0685 -0.3955  1.2481
  709TMC3    H110540   3.570   1.043  13.882 -0.0413 -0.4903  0.2918
  709TMC3    H210541   3.472   0.941  13.487  1.0954  0.3781 -0.9990
  709TMC3    C710542   3.416   1.101  13.690 -0.3785  0.3025  0.0141
  709TMC3    C810543   3.649   0.734  13.464 -0.3046 -0.3107  0.5743
  709TMC3    O110544   3.375   1.156  13.588  0.5521  0.3028 -0.3961
  709TMC3    O210545   3.710   0.627  13.474  0.3496 -0.2902 -0.0454
  710TMC3    C110546   4.254   2.098   0.366 -0.2497  0.0121  0.3287
  710TMC3    C210547   4.309   2.068   0.248  0.3317 -0.1640  0.4699
  710TMC3    C310548   4.429   2.120   0.219 -0.5555 -0.0313 -0.7019
  710TMC3    C410549   4.324   2.175   0.458 -0.2115  0.1966 -0.1852
  710TMC3    C510550   4.448   2.214   0.432 -0.6908  0.0103  0.2252
  710TMC3    C610551   4.499   2.195   0.309  0.1548 -0.0680  0.4903
  710TMC3     C10552   4.130   2.037   0.408 -0.4060 -1.1985 -0.2386
  710TMC3     O10553   4.104   1.925   0.359  0.0582  0.0816 -0.3374
  710TMC3     H10554   4.256   2.013   0.171  0.1747  1.9000 -0.8792
  710TMC3    H110555   4.288   2.177   0.560 -1.9930  1.4651 -0.8397
  710TMC3    H210556   4.594   2.241   0.288  1.3241 -1.2852  3.0994
  710TMC3    C710557   4.542   2.172   0.542  0.1171  0.0813 -0.2448
  710TMC3    C810558   4.470   2.110   0.079  1.1200 -0.3217  0.3784
  710TMC3    O110559   4.496   2.196   0.652  0.2309 -0.2078  0.0441
  710TMC3    O210560   4.513   2.217   0.039 -0.3907  0.1007  0.0838
  711TMC3    C110561   4.309   3.495  15.350  0.0939  0.1503 -0.1596
  711TMC3    C210562   4.312   3.587  15.452 -0.0990 -0.0121  0.5124
  711TMC3    C310563   4.414   3.604  15.538 -0.1580 -0.7536  0.7184
  711TMC3    C410564   4.420   3.416  15.330  0.3947 -0.6547  0.3864
  711TMC3    C510565   4.517   3.424  15.430  0.5136 -0.1110  0.4630
  711TMC3    C610566   4.519   3.514  15.529 -0.3936  0.0344 -0.0251
  711TMC3     C10567   4.184   3.463  15.280 -0.5429  0.1098  0.7850
  711TMC3     O10568   4.198   3.388  15.184 -0.0819 -0.0526 -0.4045
  711TMC3     H10569   4.230   3.656  15.466  1.0181  1.0644  1.6221
  711TMC3    H110570   4.426   3.359  15.238 -0.3568  0.3859 -0.3134
  711TMC3    H210571   4.592   3.503  15.607 -1.1145  1.2145  0.8151
  711TMC3    C710572   4.551   3.293  15.473 -0.3001  0.0679 -0.0273
  711TMC3    C810573   4.400   3.690  15.653 -0.6388  0.8431 -0.4277
  711TMC3    O110574   4.651   3.270  15.541 -0.4339  0.2384  0.1769
  711TMC3    O210575   4.286   3.723  15.687  0.0509 -0.1894  0.6221
  712MPD2     C10576   1.457   4.354  13.679  0.7087  0.8139  0.6183
  712MPD2    C110577   1.325   4.364  13.702  0.2702 -0.2260  0.1411
  712MPD2    C210578   1.259   4.484  13.680 -0.4133 -0.2709 -0.0893
  712MPD2    C310579   1.327   4.597  13.641  0.0941  0.4131 -0.5992
  712MPD2    C410580   1.465   4.584  13.632 -0.0148  0.0850 -0.0774
  712MPD2    C510581   1.524   4.464  13.641 -0.2677  0.1243  0.3200
  712MPD2     H10582   1.154   4.490  13.705 -0.8465  1.5372 -2.3271
  712MPD2    H110583   1.532   4.668  13.616  0.4024 -0.4506 -1.2150
  712MPD2    H210584   1.503   4.258  13.697 -0.3785 -0.0636 -1.3653
  712MPD2    H310585   1.631   4.457  13.626 -0.4770 -0.6921 -0.8079
  712MPD2     N10586   1.261   4.724  13.622 -0.5564 -0.3381 -0.8333
  712MPD2    H510587   1.317   0.065  13.601  0.4554 -1.1272 -1.2387
  712MPD2    N110588   1.243   4.257  13.755  0.0052  0.0853 -0.4267
  712MPD2    H710589   1.145   4.282  13.758  0.5652  1.9864  1.6360
  713TMC3    C110590   1.092   0.131  13.573  0.1352  0.3172 -0.1334
  713TMC3    C210591   1.155   0.185  13.469 -0.0592 -0.0923  0.6927
  713TMC3    C310592   1.097   0.294  13.408 -0.7528 -0.8555 -0.1662
  713TMC3    C410593   0.969   0.169  13.625  0.7340 -0.3685  0.0834
  713TMC3    C510594   0.915   0.282  13.565  0.2336  0.2819  0.4742
  713TMC3    C610595   0.976   0.336  13.459  0.3035 -0.0288 -0.0031
  713TMC3     C10596   1.124   4.734  13.608  0.4699 -0.1661 -0.1534
  713TMC3     O10597   1.026   4.660  13.626  0.2372 -0.6562 -0.9164
  713TMC3     H10598   1.257   0.156  13.447  0.0256  1.0172 -0.3555
  713TMC3    H110599   0.921   0.124  13.711 -0.5691 -0.1460 -0.5132
  713TMC3    H210600   0.937   0.428  13.416  1.1514  0.0616 -0.5795
  713TMC3    C710601   0.806   0.355  13.630  0.6560  0.5473 -0.8893
  713TMC3    C810602   1.193   0.403  13.364  0.4255  0.2906  0.4579
  713TMC3    O110603   0.738   0.422  13.560 -0.4656 -1.0134  0.1023
  713TMC3    O210604   1.131   0.510  13.351  0.6564  0.6091  0.7387
  714MPD2     C10605   2.745   3.216   1.515  0.6201 -0.4646 -0.0382
  714MPD2    C110606   2.746   3.093   1.460  0.0714 -0.2484  0.7956
  714MPD2    C210607   2.622   3.045   1.415 -0.1431 -0.1349  0.5794
  714MPD2    C310608   2.510   3.119   1.416  0.6040 -0.2679  0.3384
  714MPD2    C410609   2.511   3.247   1.472 -0.4585 -0.6466 -0.0289
  714MPD2    C510610   2.633   3.287   1.521  0.1255  0.1758  0.6786
  714MPD2     H10611   2.616   2.948   1.366 -0.2719  0.1618  0.0062
  714MPD2    H110612   2.437   3.325   1.483 -1.0606 -0.9977 -1.5641
  714MPD2    H210613   2.839   3.244   1.563 -1.1319  3.3482  1.1196
  714MPD2    H310614   2.646   3.388   1.559  1.1250 -0.5476  2.2854
  714MPD2     N10615   2.390   3.059   1.368 -0.0710  0.1743  0.0250
  714MPD2    H510616   2.406   2.972   1.319 -0.7732  1.1191 -1.9008
  714MPD2    N110617   2.868   3.027   1.441  0.3112 -0.3574  0.3060
  714MPD2    H710618   2.947   3.076   1.483 -0.2463 -0.8495  1.9668
  715TMC3    C110619   3.025   2.885   1.353 -0.4605 -0.2369 -0.0504
  715TMC3    C210620   3.051   2.747   1.332 -0.4742  0.1451 -0.7125
  715TMC3    C310621   3.168   2.692   1.365  0.5292 -0.7356  0.4633
  715TMC3    C410622   3.115   2.966   1.405  0.0747 -0.3909 -0.3303
  715TMC3    C510623   3.246   2.914   1.414 -0.0631 -0.1345 -0.3687
  715TMC3    C610624   3.273   2.783   1.391 -0.5101 -0.6557 -0.2130
  715TMC3     C10625   2.885   2.923   1.361  0.5820 -0.8658  0.2052
  715TMC3     O10626   2.808   2.853   1.297 -0.1603 -0.3372  0.0626
  715TMC3     H10627   2.973   2.689   1.284  0.0242 -0.2169 -1.0774
  715TMC3    H110628   3.110   3.074   1.394 -0.6593 -0.5517 -1.5644
  715TMC3    H210629   3.374   2.752   1.414 -0.9151 -1.1136  0.9693
  715TMC3    C710630   3.349   3.011   1.428  0.4604  0.5359  0.0202
  715TMC3    C810631   3.195   2.561   1.309 -0.6518  0.8102 -0.4764
  715TMC3    O110632   3.454   2.997   1.363  0.1853  0.0802  0.6201
  715TMC3    O210633   3.097   2.510   1.251 -0.3090 -0.2573 -0.1438
  716MPD2     C10634   2.327   0.606   9.763  0.4257  0.1943  0.1806
  716MPD2    C110635   2.307   0.616   9.630  0.3915 -0.0232 -0.3903
  716MPD2    C210636   2.388   0.529   9.550 -0.0294  0.2690  0.0597
  716MPD2    C310637   2.473   0.435   9.604 -0.0280  0.3221 -0.1473
  716MPD2    C410638   2.484   0.430   9.740 -0.4248  0.3568  0.7713
  716MPD2    C510639   2.416   0.517   9.820 -0.3082  0.6045  0.5448
  716MPD2     H10640   2.375   0.527   9.443  1.6253  1.1423 -0.1628
  716MPD2    H110641   2.546   0.351   9.781 -0.9863 -0.7041 -0.4154
  716MPD2    H210642   2.270   0.671   9.829  0.0447  0.6782 -0.6217
  716MPD2    H310643   2.410   0.505   9.928 -2.4786 -0.1146  0.3505
  716MPD2     N10644   2.531   0.343   9.515 -0.4346  0.1596  0.1032
  716MPD2    H510645   2.521   0.367   9.418 -2.0801  3.2155  1.0459
  716MPD2    N110646   2.202   0.700   9.579  0.2797  0.3621  0.1945
  716MPD2    H710647   2.153   0.756   9.647 -0.3672  1.8174 -1.4613
  717TMC3    C110648   2.602   0.122   9.444 -0.1010  0.0169  0.2089
  717TMC3    C210649   2.526   0.147   9.327  0.0060  0.1414  0.2817
  717TMC3    C310650   2.454   0.044   9.276 -0.2150 -0.5685  0.5042
  717TMC3    C410651   2.611   4.733   9.495  0.1393  0.1570  0.0906
  717TMC3    C510652   2.554   4.629   9.430  0.6367 -0.9547 -0.2204
  717TMC3    C610653   2.474   4.659   9.317 -0.8907 -0.1734 -0.3106
  717TMC3     C10654   2.600   0.226   9.547 -0.4691  0.3022  0.7125
  717TMC3     O10655   2.650   0.193   9.653 -0.2932  0.7608  0.6834
  717TMC3     H10656   2.519   0.245   9.283 -1.2068  0.3714  0.9707
  717TMC3    H110657   2.672   4.721   9.584 -0.9919 -1.2048  0.6765
  717TMC3    H210658   2.422   4.578   9.269 -2.0604  0.4707 -0.1425
  717TMC3    C710659   2.629   4.505   9.436 -0.3595  0.4370  0.2257
  717TMC3    C810660   2.350   0.078   9.188 -0.0485 -0.3579  0.2970
  717TMC3    O110661   2.681   4.477   9.545  0.4664 -0.8561  0.1337
  717TMC3    O210662   2.312   0.193   9.209 -0.1681  0.1533 -0.4322
  718MPD2     C10663   2.474   4.067  12.779  0.3536 -0.2143 -0.1470
  718MPD2    C110664   2.363   4.132  12.735  0.2161  0.5494 -0.6227
  718MPD2    C210665   2.257   4.055  12.692  0.3450  0.0180 -0.4871
  718MPD2    C310666   2.260   3.921  12.686 -0.0604 -0.0343  0.1578
  718MPD2    C410667   2.370   3.853  12.728  0.0525  0.1427 -0.1561
  718MPD2    C510668   2.474   3.930  12.782  0.0494  0.7890 -0.4034
  718MPD2     H10669   2.161   4.099  12.665 -0.8151 -1.1822  1.7046
  718MPD2    H110670   2.362   3.745  12.737 -1.2629  0.1842 -0.8273
  718MPD2    H210671   2.565   4.121  12.804  1.2198 -0.5609 -2.5013
  718MPD2    H310672   2.560   3.879  12.825 -0.5051 -0.0164 -0.2625
  718MPD2     N10673   2.148   3.860  12.627  0.4648 -0.7465  0.3207
  718MPD2    H510674   2.068   3.920  12.612  0.3371 -0.7281  1.1017
  718MPD2    N110675   2.358   4.272  12.739  0.4302  0.0535 -0.2539
  718MPD2    H710676   2.436   4.318  12.785  0.1630  0.9853 -0.7267
  719TMC3    C110677   2.275   4.492  12.694 -0.0842  0.7286  0.0209
  719TMC3    C210678   2.165   4.552  12.638 -0.1073  0.0416  0.4009
  719TMC3    C310679   2.172   4.654  12.553 -0.7000 -0.0513  0.0397
  719TMC3    C410680   2.404   4.544  12.670 -1.3330  0.1916 -0.8689
  719TMC3    C510681   2.404   4.663  12.607 -0.4087  0.3509  0.3926
  719TMC3    C610682   2.293   4.715  12.541  0.3242  0.3264 -0.0201
  719TMC3     C10683   2.252   4.348  12.696 -0.5305 -0.0061 -0.0031
  719TMC3     O10684   2.150   4.318  12.637  0.4771 -0.1158 -0.1332
  719TMC3     H10685   2.065   4.515  12.660  0.9421 -0.6584  3.9545
  719TMC3    H110686   2.492   4.482  12.680 -2.4638 -1.1542  0.7760
  719TMC3    H210687   2.302   0.064  12.482  3.7989 -0.9254 -1.3564
  719TMC3    C710688   2.526   4.722  12.581 -0.1129  0.0610 -0.2874
  719TMC3    C810689   2.103   4.623  12.432  0.6118 -0.1371 -0.7155
  719TMC3    O110690   2.534   0.036  12.474  0.0972  0.4231  0.5487
  719TMC3    O210691   2.076   4.709  12.354 -0.0587  1.2537 -0.1631
  720MPD2     C10692   0.658   1.705  14.250  0.2656 -0.5361  0.5224
  720MPD2    C110693   0.757   1.735  14.161  0.6356 -0.0131 -0.1988
  720MPD2    C210694   0.884   1.704  14.199 -0.0464  0.2133  0.3640
  720MPD2    C310695   0.915   1.645  14.325  0.2020 -0.6628 -0.4690
  720MPD2    C410696   0.812   1.621  14.414 -0.1336  0.0511 -0.7244
  720MPD2    C510697   0.686   1.654  14.370  0.1027 -0.2710 -0.1764
  720MPD2     H10698   0.968   1.726  14.135  0.1965  1.5300  1.1415
  720MPD2    H110699   0.821   1.584  14.516  1.4814 -2.0855 -1.6415
  720MPD2    H210700   0.554   1.732  14.238 -0.7684 -4.8235 -0.2705
  720MPD2    H310701   0.604   1.642  14.439  2.8696 -3.4323  2.5154
  720MPD2     N10702   1.050   1.618  14.343  0.5799 -0.5549 -0.3037
  720MPD2    H510703   1.112   1.637  14.265  1.7048  1.9082  1.1828
  720MPD2    N110704   0.742   1.794  14.040 -0.1841  0.0652 -0.1592
  720MPD2    H710705   0.830   1.807  13.991  0.6363  0.2807  1.3744
  721TMC3    C110706   1.247   1.578  14.476  0.8836 -0.1331 -0.1724
  721TMC3    C210707   1.302   1.559  14.606 -0.7663 -0.9584  0.1832
  721TMC3    C310708   1.424   1.503  14.618 -0.1760  0.1576 -0.2002
  721TMC3    C410709   1.324   1.563  14.363  0.1953  0.2055 -0.4105
  721TMC3    C510710   1.443   1.509  14.386 -0.2509  0.2547  0.2746
  721TMC3    C610711   1.491   1.468  14.505  0.4684 -0.9091 -0.0535
  721TMC3     C10712   1.106   1.573  14.462 -0.4436 -0.6349 -0.6713
  721TMC3     O10713   1.047   1.532  14.565 -0.0272  0.2400  0.2424
  721TMC3     H10714   1.244   1.604  14.686 -1.4311 -1.2836 -0.1080
  721TMC3    H110715   1.280   1.570  14.264  1.0369  1.9168 -0.6683
  721TMC3    H210716   1.592   1.436  14.528  1.5892  3.8477  1.6887
  721TMC3    C710717   1.531   1.502  14.271 -0.5532  0.1744 -0.4889
  721TMC3    C810718   1.484   1.482  14.748  0.2026  0.3385  0.2828
  721TMC3    O110719   1.515   1.568  14.169  0.2230 -0.1833 -0.3376
  721TMC3    O210720   1.569   1.399  14.766  0.2428  0.4503  0.5721
  722MPD2     C10721   4.680   0.254  13.367 -0.5007 -0.3875 -0.1311
  722MPD2    C110722   4.631   0.385  13.367  0.2452 -0.0882 -0.6102
  722MPD2    C210723   4.527   0.419  13.285 -0.3470  0.5280  0.0328
  722MPD2    C310724   4.457   0.322  13.214  1.1066  0.1839 -0.0616
  722MPD2    C410725   4.497   0.189  13.216 -0.7530 -0.1792 -1.2436
  722MPD2    C510726   4.612   0.160  13.290 -0.5009 -0.0632 -0.3374
  722MPD2     H10727   4.509   0.526  13.280 -1.1623  0.4083  0.3974
  722MPD2    H110728   4.461   0.103  13.160  1.6896 -0.5055 -2.3170
  722MPD2    H210729   0.033   0.234  13.418  1.2826  1.2057 -2.7274
  722MPD2    H310730   4.658   0.063  13.281  0.8667  0.3205  2.1913
  722MPD2     N10731   4.354   0.374  13.135  0.1841  0.1802  0.8691
  722MPD2    H510732   4.345   0.475  13.140  1.5721  0.3961 -0.8736
  722MPD2    N110733   4.693   0.483  13.450 -0.0210 -0.1736  0.1363
  722MPD2    H710734   4.652   0.576  13.446  2.9832  1.1331  0.0098
  723TMC3    C110735   4.181   0.388  12.986  0.3037 -0.6649  0.4034
  723TMC3    C210736   4.145   0.369  12.855 -0.0481 -0.2458 -0.1399
  723TMC3    C310737   4.074   0.481  12.807  0.6936  0.2453 -0.4956
  723TMC3    C410738   4.127   0.484  13.067  0.0319  0.0902  0.0882
  723TMC3    C510739   4.058   0.590  13.018  0.4870  0.8716  0.3148
  723TMC3    C610740   4.033   0.591  12.884 -0.3360 -0.2091  0.3057
  723TMC3     C10741   4.276   0.303  13.051 -0.1248 -0.1165 -0.1543
  723TMC3     O10742   4.283   0.189  13.009  0.5955 -0.2691  0.2279
  723TMC3     H10743   4.194   0.293  12.796 -2.4468 -1.8520 -0.0890
  723TMC3    H110744   4.154   0.491  13.172  1.7477 -1.8191 -0.2222
  723TMC3    H210745   3.958   0.660  12.847  0.3546  0.6933  0.5671
  723TMC3    C710746   4.021   0.704  13.090 -0.2398 -0.9202 -0.4083
  723TMC3    C810747   4.002   0.471  12.683  0.3394 -0.0106 -0.3817
  723TMC3    O110748   4.013   0.682  13.209 -0.0142  0.0164  0.1546
  723TMC3    O210749   3.934   0.568  12.653 -0.5462  0.8138 -0.3498
  724TMC3    C110750   0.152   3.085   9.965 -1.2025 -0.4138  0.5020
  724TMC3    C210751   0.256   3.177   9.962  0.2553  0.3860 -0.0120
  724TMC3    C310752   0.385   3.138   9.935  0.7245 -0.2401 -0.5804
  724TMC3    C410753   0.187   2.954   9.977 -0.6485  0.2863 -0.2060
  724TMC3    C510754   0.315   2.915   9.954 -0.1508  0.4076 -0.2489
  724TMC3    C610755   0.420   3.008   9.942 -0.0940  0.7177  0.5013
  724TMC3     C10756   0.008   3.131   9.971  0.4765 -0.2433  0.2359
  724TMC3     O10757   4.673   3.050   9.923 -0.7091 -0.2673 -0.5887
  724TMC3     H10758   0.222   3.279   9.952  0.9955  0.5862 -0.4705
  724TMC3    H110759   0.111   2.881  10.003 -0.4814 -0.4468 -1.7579
  724TMC3    H210760   0.522   2.973   9.943 -0.1187  0.6433  0.5051
  724TMC3    C710761   0.356   2.795  10.020 -0.4447 -0.3762  0.2664
  724TMC3    C810762   0.492   3.237   9.941 -0.5405  0.6694 -0.1120
  724TMC3    O110763   0.470   2.791  10.067 -0.2796 -0.7852  0.1027
  724TMC3    O210764   0.600   3.197   9.892  0.1205  0.6197  0.0109
  725TMC3    C110765   1.531   2.691  12.936  0.7638 -0.1043 -0.2893
  725TMC3    C210766   1.506   2.603  12.830 -0.1704 -0.7299  0.8444
  725TMC3    C310767   1.379   2.542  12.837  0.7562 -0.3638  0.0302
  725TMC3    C410768   1.447   2.696  13.044 -0.2059 -1.0063  0.3136
  725TMC3    C510769   1.329   2.625  13.052 -0.3665  1.2230 -0.8245
  725TMC3    C610770   1.293   2.553  12.943 -0.3679 -0.0957  0.7567
  725TMC3     C10771   1.665   2.731  12.966 -0.5493  0.4231  0.0566
  725TMC3     O10772   1.679   2.835  13.028  0.2362  0.1494 -0.2815
  725TMC3     H10773   1.577   2.587  12.750  1.2045  2.0320  1.5004
  725TMC3    H110774   1.478   2.767  13.120 -2.2282  0.1862  0.0091
  725TMC3    H210775   1.190   2.521  12.932  0.8158 -2.7670 -2.5318
  725TMC3    C710776   1.348   2.539  13.170  0.0580  0.1935 -0.3888
  725TMC3    C810777   1.358   2.413  12.759  0.2812  0.5687  0.3128
  725TMC3    O110778   1.370   2.586  13.282 -0.7445  0.3679 -0.3050
  725TMC3    O210779   1.293   2.326  12.811 -0.2341  0.5819  0.9553
  726MPD2     C10780   3.659   3.102  10.556  0.1875 -0.0871 -0.2945
  726MPD2    C110781   3.524   3.140  10.555 -0.4013  0.6036  0.3790
  726MPD2    C210782   3.420   3.050  10.576 -0.8671  0.1356 -0.4752
  726MPD2    C310783   3.446   2.914  10.585  0.0270 -0.0272  0.2978
  726MPD2    C410784   3.577   2.874  10.586  0.3803  0.2636  0.1466
  726MPD2    C510785   3.679   2.966  10.573  0.4442  0.3640  0.1045
  726MPD2     H10786   3.322   3.091  10.595 -1.5105 -1.9586  0.7556
  726MPD2    H110787   3.594   2.768  10.601 -0.2887  0.5915  3.2461
  726MPD2    H210788   3.744   3.169  10.551 -0.8537  1.1170 -1.7150
  726MPD2    H310789   3.777   2.921  10.585  0.2686 -0.2221 -0.6670
  726MPD2     N10790   3.356   2.813  10.634  0.0237  0.0368  0.4825
  726MPD2    H510791   3.398   2.736  10.685 -0.0005 -0.1669  0.1923
  726MPD2    N110792   3.484   3.275  10.539 -0.2611 -0.2143 -0.1749
  726MPD2    H710793   3.383   3.286  10.541 -0.5613 -2.9564 -0.2034
  727TMC3    C110794   3.508   3.502  10.514  0.1230 -0.3066  0.0752
  727TMC3    C210795   3.591   3.602  10.547 -0.3119  0.3005  0.1630
  727TMC3    C310796   3.546   3.727  10.573 -0.8606  0.5629 -0.1161
  727TMC3    C410797   3.383   3.528  10.477 -0.1516 -0.2671 -0.3876
  727TMC3    C510798   3.338   3.660  10.483  0.1212  0.0131  0.3851
  727TMC3    C610799   3.418   3.753  10.541 -0.1760  0.2022  1.0509
  727TMC3     C10800   3.576   3.377  10.507 -0.5572  0.0265  1.2980
  727TMC3     O10801   3.687   3.376  10.452  0.0753  0.1176  0.2864
  727TMC3     H10802   3.693   3.565  10.557 -0.7457 -0.4432  1.8933
  727TMC3    H110803   3.317   3.447  10.450 -0.2235  0.1502 -1.4667
  727TMC3    H210804   3.376   3.851  10.560  0.9027  0.7701  0.5134
  727TMC3    C710805   3.200   3.676  10.524 -0.1361  0.4442 -0.0680
  727TMC3    C810806   3.643   3.825  10.601  0.1267 -0.5011 -0.9035
  727TMC3    O110807   3.148   3.571  10.559  0.3573  0.1845  0.2630
  727TMC3    O210808   3.742   3.789  10.659 -0.6388 -0.1847 -0.3220
  728TMC3    C110809   3.214   2.002  15.274  0.3070 -0.0280 -1.0487
  728TMC3    C210810   3.315   1.995  15.368 -0.0293 -0.4245  0.2733
  728TMC3    C310811   3.441   2.009  15.318  0.4910 -0.3287  0.0053
  728TMC3    C410812   3.231   2.014  15.141  0.0461  0.0319  0.4591
  728TMC3    C510813   3.357   2.033  15.099 -0.2020 -0.7288 -0.1356
  728TMC3    C610814   3.464   2.031  15.183 -0.2371 -0.0089  0.4489
  728TMC3     C10815   3.077   1.993  15.319 -0.4488 -0.4985  0.0726
  728TMC3     O10816   2.998   2.008  15.226 -0.1427  0.4281 -0.5960
  728TMC3     H10817   3.296   1.998  15.474 -2.4244 -0.6691 -0.1425
  728TMC3    H110818   3.157   2.064  15.080  0.6872 -1.8343 -1.8886
  728TMC3    H210819   3.568   2.029  15.153 -0.5482 -0.0371 -0.6131
  728TMC3    C710820   3.378   2.086  14.965  0.1043  0.8067  0.1899
  728TMC3    C810821   3.539   2.029  15.423  0.3350 -0.2803  0.1298
  728TMC3    O110822   3.306   2.029  14.880  0.4682 -0.0802  0.0696
  728TMC3    O210823   3.534   1.989  15.538 -0.1770 -0.6323 -0.1661
  729MPD2     C10824   0.807   3.301  16.704 -0.0565 -0.6170 -0.0258
  729MPD2    C110825   0.866   3.193  16.765  0.0327  0.6766  0.1012
  729MPD2    C210826   0.818   3.144  16.878  0.1815  0.3496 -0.3745
  729MPD2    C310827   0.707   3.196  16.945  1.2721  0.4192 -0.7874
  729MPD2    C410828   0.655   3.311  16.889 -0.6247 -0.1496 -0.1015
  729MPD2    C510829   0.700   3.361  16.767 -0.1658  0.7912  0.4114
  729MPD2     H10830   0.865   3.053  16.913  0.3289 -0.3207 -2.3109
  729MPD2    H110831   0.570   3.356  16.939 -0.7818  1.1194 -1.5199
  729MPD2    H210832   0.846   3.347  16.614  0.6041 -0.4824  0.3244
  729MPD2    H310833   0.637   3.440  16.727  0.5162  0.8117 -0.6244
  729MPD2     N10834   0.667   3.154  17.075  0.1353 -0.6897  0.1490
  729MPD2    H510835   0.605   3.220  17.121  1.1973  0.0049  0.5815
  729MPD2    N110836   0.980   3.132  16.700  0.3394 -0.5081 -0.3447
  729MPD2    H710837   0.994   3.172  16.607 -0.8069  1.4812  0.3497
  730TMC3    C110838   0.712   3.095  17.296 -0.8743 -0.2682  0.6589
  730TMC3    C210839   0.819   3.063  17.366  0.4063 -0.0864 -0.0429
  730TMC3    C310840   0.868   3.144  17.464 -0.1764  0.1249 -0.2603
  730TMC3    C410841   0.638   3.207  17.331 -0.2649 -0.2378 -0.3046
  730TMC3    C510842   0.693   3.297  17.417 -0.7407  0.1513 -0.1816
  730TMC3    C610843   0.810   3.265  17.484 -0.0604 -0.6137  0.0059
  730TMC3     C10844   0.720   3.061  17.156 -0.5228 -0.1680 -0.0321
  730TMC3     O10845   0.803   2.976  17.130  0.1241 -0.2833  0.1087
  730TMC3     H10846   0.868   2.966  17.361 -4.3789 -2.6061  1.3690
  730TMC3    H110847   0.548   3.231  17.275 -0.6527  1.5121  1.0705
  730TMC3    H210848   0.859   3.323  17.562 -1.2924  1.6742 -0.9506
  730TMC3    C710849   0.665   3.434  17.384  0.1501 -0.4173  0.3050
  730TMC3    C810850   1.015   3.138  17.471 -0.2606  0.2071  0.3828
  730TMC3    O110851   0.650   3.464  17.264 -0.3483  0.9341 -0.0407
  730TMC3    O210852   1.076   3.032  17.466 -0.5820  0.4606  0.3271
  731MPD2     C10853   0.632   0.757  12.443 -0.6750  0.7432 -0.3474
  731MPD2    C110854   0.703   0.870  12.474  0.5463  0.5870  0.2179
  731MPD2    C210855   0.732   0.904  12.605 -0.0087 -0.1698 -0.7281
  731MPD2    C310856   0.679   0.816  12.707  0.2204 -1.0384  0.2175
  731MPD2    C410857   0.612   0.700  12.674 -0.7690 -0.9803  0.2847
  731MPD2    C510858   0.595   0.667  12.541  0.2531  0.1655  0.0930
  731MPD2     H10859   0.770   1.000  12.635 -3.5722  1.2358 -0.7093
  731MPD2    H110860   0.561   0.632  12.741 -3.1102  0.1762 -0.3124
  731MPD2    H210861   0.613   0.747  12.336 -1.2690  1.5395 -0.3189
  731MPD2    H310862   0.549   0.573  12.513  1.1158 -0.4608  0.7725
  731MPD2     N10863   0.693   0.861  12.840  0.4583  0.0569 -0.1730
  731MPD2    H510864   0.713   0.960  12.848  0.5760 -0.0438  0.7495
  731MPD2    N110865   0.751   0.951  12.369  0.2645  0.5239 -0.0564
  731MPD2    H710866   0.709   0.921  12.281  1.1707  1.6290 -0.8572
  732TMC3    C110867   0.860   1.117  12.254  0.2324  0.6315 -0.3669
  732TMC3    C210868   0.752   1.133  12.175 -0.0254 -0.2012  0.4985
  732TMC3    C310869   0.749   1.228  12.082  0.7395 -0.4038  0.6968
  732TMC3    C410870   0.977   1.187  12.233 -0.8833  1.1530  0.3815
  732TMC3    C510871   0.970   1.280  12.135  0.5400 -0.0418 -0.9846
  732TMC3    C610872   0.857   1.302  12.058 -0.4969  1.3409 -0.3695
  732TMC3     C10873   0.842   1.047  12.376 -0.6121  0.3526 -0.6893
  732TMC3     O10874   0.921   1.083  12.460 -0.0752 -0.1197 -0.2578
  732TMC3     H10875   0.665   1.069  12.183  1.1880 -1.6018  2.4192
  732TMC3    H110876   1.065   1.164  12.292 -1.7882 -2.3669  0.3682
  732TMC3    H210877   0.861   1.378  11.981  0.3739 -0.0724 -1.7385
  732TMC3    C710878   1.081   1.377  12.123 -0.6990  0.3790  0.4067
  732TMC3    C810879   0.631   1.245  12.005 -0.0896 -0.8134 -0.4209
  732TMC3    O110880   1.075   1.445  12.019 -0.2727 -0.4155  0.0462
  732TMC3    O210881   0.649   1.262  11.884 -0.2904 -0.0341  0.0622
  733TMC3    C110882   1.875   3.613  12.352 -0.5671  0.0683  0.4103
  733TMC3    C210883   1.983   3.615  12.442  1.3638  0.0478  1.1992
  733TMC3    C310884   2.059   3.724  12.452 -0.0869  0.0573 -0.1572
  733TMC3    C410885   1.858   3.717  12.265 -0.0508 -0.8269  0.1947
  733TMC3    C510886   1.936   3.830  12.291  0.4111 -0.2996 -0.4052
  733TMC3    C610887   2.040   3.838  12.374 -0.0463  0.0724  0.1672
  733TMC3     C10888   1.746   3.569  12.404 -0.0356 -0.2671  0.4907
  733TMC3     O10889   1.650   3.623  12.358  0.8006 -0.0376  0.1616
  733TMC3     H10890   2.006   3.531  12.505  2.1772  0.5908  1.6189
  733TMC3    H110891   1.797   3.723  12.175  0.0567 -0.2368  0.1614
  733TMC3    H210892   2.121   3.910  12.373 -0.2324  0.2834  0.4161
  733TMC3    C710893   1.912   3.950  12.217 -0.0273  0.2036  0.5429
  733TMC3    C810894   2.145   3.734  12.574  0.0885 -0.4477  0.0716
  733TMC3    O110895   1.873   3.940  12.103 -0.0752 -0.7385 -0.4206
  733TMC3    O210896   2.214   3.635  12.596  0.3331  0.0330 -0.2305
  734MPD2     C10897   3.855   1.893  12.625 -0.6841 -0.3604  0.4814
  734MPD2    C110898   3.750   1.813  12.576 -0.4576  0.5080  0.0446
  734MPD2    C210899   3.716   1.822  12.446 -0.0774 -0.2395  0.3137
  734MPD2    C310900   3.783   1.914  12.360 -0.5117 -0.3899  0.1426
  734MPD2    C410901   3.885   1.992  12.409 -0.3090  0.0504 -0.0284
  734MPD2    C510902   3.916   1.984  12.540 -0.1902  0.5276  0.3119
  734MPD2     H10903   3.648   1.743  12.415  0.3184 -0.6726  0.5589
  734MPD2    H110904   3.950   2.048  12.343 -0.4761 -1.3158 -1.3607
  734MPD2    H210905   3.891   1.898  12.727  0.5844 -1.2369  0.0705
  734MPD2    H310906   4.003   2.037  12.578  0.3123 -0.4100  0.4892
  734MPD2     N10907   3.739   1.903  12.226 -0.2431  0.5658 -0.0127
  734MPD2    H510908   3.650   1.858  12.209 -0.0721 -0.5956  2.1311
  734MPD2    N110909   3.673   1.720  12.646  0.1832 -0.3094  0.9432
  734MPD2    H710910   3.592   1.682  12.598  0.2812 -1.2759  1.5334
  735TMC3    C110911   3.652   1.550  12.791  0.2252  0.4158 -0.4124
  735TMC3    C210912   3.541   1.527  12.721 -0.0609 -0.4536  0.1318
  735TMC3    C310913   3.534   1.412  12.647 -0.3192  0.4715 -0.1428
  735TMC3    C410914   3.754   1.463  12.790 -0.3789 -0.3011 -0.7079
  735TMC3    C510915   3.749   1.355  12.710  0.0166 -0.5673 -0.2130
  735TMC3    C610916   3.643   1.332  12.634 -0.2591 -0.3051  0.2963
  735TMC3     C10917   3.701   1.680  12.779 -0.2842 -0.0828 -0.7797
  735TMC3     O10918   3.789   1.725  12.853  0.5115  0.1935 -0.0410
  735TMC3     H10919   3.463   1.602  12.718 -1.4978 -1.9125  0.7937
  735TMC3    H110920   3.843   1.492  12.844 -1.0142  1.3197 -0.5557
  735TMC3    H210921   3.631   1.247  12.568  2.9323 -0.6136  0.1136
  735TMC3    C710922   3.881   1.297  12.684 -0.0428  0.2864 -0.2027
  735TMC3    C810923   3.430   1.407  12.544 -0.6529 -0.2533  0.7239
  735TMC3    O110924   3.984   1.358  12.712  0.1479 -0.5667 -0.9701
  735TMC3    O210925   3.315   1.433  12.574 -0.3127 -0.0304 -0.4822
  736MPD2     C10926   3.931   0.972  12.536  0.5423  0.2532 -0.5016
  736MPD2    C110927   3.963   1.101  12.556 -0.5094 -0.2008 -0.0858
  736MPD2    C210928   4.070   1.162  12.491  0.3371  0.5026  0.2481
  736MPD2    C310929   4.139   1.093  12.394 -0.7772 -0.5673 -0.4348
  736MPD2    C410930   4.115   0.955  12.389 -0.3540  0.2014  0.6006
  736MPD2    C510931   4.014   0.899  12.460  0.0232 -0.4894 -0.5132
  736MPD2     H10932   4.095   1.264  12.515 -0.2321  0.6520  0.2120
  736MPD2    H110933   4.176   0.894  12.324 -1.2771  2.3692 -2.3231
  736MPD2    H210934   3.850   0.930  12.594 -0.1033  2.2038  0.0161
  736MPD2    H310935   4.001   0.792  12.461 -1.0799 -0.3362  2.8958
  736MPD2     N10936   4.225   1.149  12.303 -0.6965 -0.7605 -0.4222
  736MPD2    H510937   4.258   1.086  12.230  1.3739 -0.8816  0.6160
  736MPD2    N110938   3.867   1.170  12.634  0.5348 -0.7335 -0.2866
  736MPD2    H710939   3.778   1.123  12.649 -0.3912  1.1236  0.0546
  737TMC3    C110940   4.329   1.307  12.174  0.9732 -0.6272  0.0157
  737TMC3    C210941   4.312   1.432  12.115  0.1769  0.0881  0.2986
  737TMC3    C310942   4.391   1.453  12.007  0.2248  0.4736  0.2637
  737TMC3    C410943   4.421   1.213  12.138 -0.3116 -0.5365  0.2674
  737TMC3    C510944   4.493   1.244  12.031 -0.6015  0.4953  0.5588
  737TMC3    C610945   4.481   1.362  11.959  0.1657 -0.2749  0.5125
  737TMC3     C10946   4.254   1.284  12.298 -0.4482 -0.6242  0.3263
  737TMC3     O10947   4.207   1.377  12.365 -0.5302 -0.1251 -0.1471
  737TMC3     H10948   4.240   1.507  12.145 -1.0061 -0.8812 -0.1243
  737TMC3    H110949   4.448   1.128  12.200 -0.8715 -0.7514  0.2177
  737TMC3    H210950   4.564   1.407  11.906 -0.5844  2.1197  1.3652
  737TMC3    C710951   4.599   1.152  11.993 -0.6245 -0.3175 -0.2099
  737TMC3    C810952   4.402   1.592  11.957  0.3601 -0.2555  0.1446
  737TMC3    O110953   4.630   1.068  12.079  0.1828  0.3639 -0.5032
  737TMC3    O210954   4.367   1.688  12.023 -0.6283 -0.1363 -0.0753
  738MPD2     C10955   0.413   0.456  15.643  0.5710 -0.3823 -0.0006
  738MPD2    C110956   0.330   0.482  15.535  0.6269  0.4692 -0.0208
  738MPD2    C210957   0.360   0.582  15.445 -0.7301  0.1951  0.8461
  738MPD2    C310958   0.472   0.658  15.464  0.2422  0.6701 -0.0825
  738MPD2    C410959   0.559   0.631  15.566  1.0753  0.1909  0.3418
  738MPD2    C510960   0.530   0.530  15.655 -0.5469 -0.3499  0.4287
  738MPD2     H10961   0.289   0.589  15.364 -1.4518 -0.8222  1.3893
  738MPD2    H110962   0.650   0.688  15.580  0.0882  0.8894  4.0200
  738MPD2    H210963   0.403   0.370  15.708  0.3336 -1.9872 -2.1488
  738MPD2    H310964   0.591   0.498  15.738  0.5687  0.1650 -0.1870
  738MPD2     N10965   0.492   0.783  15.401 -0.8747 -0.5301  0.0378
  738MPD2    H510966   0.562   0.847  15.435 -0.6482 -0.3581 -0.7699
  738MPD2    N110967   0.205   0.405  15.521 -0.6461 -0.7293 -0.6878
  738MPD2    H710968   0.150   0.420  15.438 -1.3730  0.0985 -0.0517
  739TMC3    C110969   0.469   0.948  15.250 -0.2042  0.5414  0.2235
  739TMC3    C210970   0.478   0.980  15.117 -0.0360  0.1845  0.2857
  739TMC3    C310971   0.545   1.096  15.087 -0.2867  0.0238  0.2395
  739TMC3    C410972   0.498   1.039  15.349 -0.4217 -0.3496 -0.1552
  739TMC3    C510973   0.563   1.150  15.309 -0.0392 -0.4590 -0.2692
  739TMC3    C610974   0.591   1.178  15.176  0.1680 -0.4357 -0.1236
  739TMC3     C10975   0.433   0.815  15.282 -0.2877 -0.2659  0.6487
  739TMC3     O10976   0.374   0.745  15.202  0.5748 -0.3333 -0.3487
  739TMC3     H10977   0.450   0.906  15.043 -0.1629 -0.1282  0.6448
  739TMC3    H110978   0.469   1.025  15.452 -1.8263 -1.0899 -0.6414
  739TMC3    H210979   0.645   1.265  15.139  1.0620  0.5121  3.4197
  739TMC3    C710980   0.610   1.239  15.412 -0.2769  0.1540  0.5840
  739TMC3    C810981   0.544   1.130  14.944  0.2103  0.1162  0.5881
  739TMC3    O110982   0.623   1.195  15.523 -0.2170  0.8265  0.2808
  739TMC3    O210983   0.449   1.080  14.886 -0.0953  0.2364 -0.1706
  740TMC3    C110984   0.619   2.171  14.610 -0.3531  0.1846  0.5473
  740TMC3    C210985   0.637   2.069  14.707  0.1904  0.3557 -0.7276
  740TMC3    C310986   0.729   1.972  14.677  0.3853 -0.2248  0.7449
  740TMC3    C410987   0.700   2.180  14.496  0.2805  0.2843  0.3429
  740TMC3    C510988   0.780   2.074  14.472 -1.0407  0.0645 -0.4146
  740TMC3    C610989   0.787   1.970  14.557 -0.5543 -0.1606 -0.0036
  740TMC3     C10990   0.507   2.272  14.626 -1.1960 -0.1709 -0.3033
  740TMC3     O10991   0.515   2.369  14.556 -0.4901 -0.1822  0.1845
  740TMC3     H10992   0.590   2.069  14.804  0.5442  1.0135 -0.5572
  740TMC3    H110993   0.693   2.270  14.437  0.1085  1.8109  2.6865
  740TMC3    H210994   0.840   1.884  14.518  0.2362 -0.6652  2.2370
  740TMC3    C710995   0.868   2.065  14.357 -0.6496  0.3665  0.3700
  740TMC3    C810996   0.749   1.866  14.775  0.0964 -0.0163  0.2694
  740TMC3    O110997   0.943   1.970  14.340  0.7154 -0.0813 -0.6561
  740TMC3    O210998   0.796   1.764  14.733 -0.6099 -0.5134  0.0264
  741TMC3    C110999   0.055   2.092  14.027 -0.2555 -0.5758 -0.4468
  741TMC3    C211000   0.027   1.999  14.119  0.2621 -0.0559  1.0425
  741TMC3    C311001   0.083   1.872  14.118  0.2893 -0.2028  1.0155
  741TMC3    C411002   0.156   2.074  13.931  0.0785  0.0676 -0.0813
  741TMC3    C511003   0.195   1.937  13.928  0.3495 -0.0289  0.5639
  741TMC3    C611004   0.165   1.841  14.014 -0.0162 -0.4466  0.5302
  741TMC3     C11005   4.725   2.216  14.017  0.5809  0.6278  0.2183
  741TMC3     O11006   0.022   2.296  13.934  0.3226 -0.4211  0.2221
  741TMC3     H11007   4.701   2.026  14.200 -2.8808 -0.2456 -1.4825
  741TMC3    H111008   0.197   2.139  13.854  2.2943 -0.6651  0.4711
  741TMC3    H211009   0.190   1.736  14.001  1.0458 -0.0500 -0.6100
  741TMC3    C711010   0.284   1.890  13.823 -0.3162  0.1160  0.1773
  741TMC3    C811011   0.005   1.760  14.186  0.5388  0.3546 -0.3258
  741TMC3    O111012   0.331   1.780  13.831  0.2277 -0.5460 -0.0026
  741TMC3    O211013   4.642   1.785  14.242  0.6862 -0.3922 -0.0657
  742TMC3    C111014   0.496   4.420  15.638 -0.1834  0.2524  0.0176
  742TMC3    C211015   0.419   4.401  15.525 -0.4049  0.6576  0.9637
  742TMC3    C311016   0.469   4.451  15.407 -0.0744  0.2189 -0.0404
  742TMC3    C411017   0.602   4.505  15.642 -0.2970  0.1844 -0.4968
  742TMC3    C511018   0.637   4.563  15.525  0.4165  0.0005  0.2506
  742TMC3    C611019   0.568   4.543  15.407  0.2132  1.0343  0.6099
  742TMC3     C11020   0.455   4.352  15.762 -0.6482 -0.2403  0.5122
  742TMC3     O11021   0.531   4.355  15.855 -0.1758  0.1588 -0.2652
  742TMC3     H11022   0.335   4.333  15.527 -1.0686  1.4703  0.6061
  742TMC3    H111023   0.661   4.507  15.733 -1.8404  1.7442  0.4639
  742TMC3    H211024   0.594   4.596  15.316 -0.6556 -0.2211 -0.3641
  742TMC3    C711025   0.775   4.604  15.515 -0.1724 -0.0425  0.1631
  742TMC3    C811026   0.395   4.436  15.288  0.0558  0.6801  0.2252
  742TMC3    O111027   0.819   4.610  15.402  0.2110  0.5783  0.1479
  742TMC3    O211028   0.279   4.417  15.297  0.0898 -0.0573 -0.3753
  743MPD2     C11029   1.616   1.260   1.472 -0.1447 -0.9795  0.4175
  743MPD2    C111030   1.687   1.173   1.396 -0.6025 -0.5474  0.1005
  743MPD2    C211031   1.825   1.172   1.396 -0.1524  0.0934 -0.3061
  743MPD2    C311032   1.893   1.269   1.465  0.3024 -0.5184  0.1587
  743MPD2    C411033   1.825   1.364   1.534  0.7895 -0.0461 -0.4877
  743MPD2    C511034   1.690   1.354   1.539 -0.7545 -0.0324 -0.8602
  743MPD2     H11035   1.886   1.104   1.337  0.5923  0.5836 -0.0922
  743MPD2    H111036   1.883   1.433   1.595 -0.9477  0.0268  1.0811
  743MPD2    H211037   1.508   1.262   1.476 -0.0547 -0.8994  3.0542
  743MPD2    H311038   1.628   1.424   1.595  1.0115  0.6985  0.1641
  743MPD2     N11039   2.034   1.260   1.454  0.2525  0.1396  0.4018
  743MPD2    H511040   2.080   1.187   1.400  0.1379 -0.0955  0.6263
  743MPD2    N111041   1.606   1.092   1.311 -0.1394  0.4516  0.1752
  743MPD2    H711042   1.506   1.107   1.299 -0.1071  0.5932  0.0782
  744TMC3    C111043   1.574   0.962   1.119  0.0767  0.8537 -0.3231
  744TMC3    C211044   1.547   1.060   1.033  0.1141  0.3916 -0.1640
  744TMC3    C311045   1.539   1.043   0.901 -0.0916 -0.0216 -0.3404
  744TMC3    C411046   1.597   0.835   1.075 -0.1354 -0.5905  0.7299
  744TMC3    C511047   1.613   0.817   0.944 -0.2147 -0.4955  0.9807
  744TMC3    C611048   1.585   0.920   0.854 -0.2110  0.1371  0.1009
  744TMC3     C11049   1.657   0.987   1.234  0.6121  0.0426 -0.5699
  744TMC3     O11050   1.769   0.933   1.244  0.2196 -1.3175  0.3812
  744TMC3     H11051   1.541   1.163   1.066  0.2353  0.6367 -0.9086
  744TMC3    H111052   1.620   0.762   1.151  1.2677  0.9445  1.7802
  744TMC3    H211053   1.599   0.901   0.749  1.0632  1.1490  0.0749
  744TMC3    C711054   1.710   0.717   0.910 -0.4505 -0.2118  0.4686
  744TMC3    C811055   1.541   1.151   0.801  0.6305  0.0743 -0.6816
  744TMC3    O111056   1.712   0.622   0.988  0.2109  0.0516 -0.0198
  744TMC3    O211057   1.587   1.133   0.687 -0.7171  0.1398  0.2685
  745TMC3    C111058   1.194   4.051  13.839  0.7787 -0.0870 -0.2248
  745TMC3    C211059   1.120   4.115  13.931 -0.1431  0.1524 -0.6687
  745TMC3    C311060   0.993   4.078  13.952 -0.7225  0.0771  0.6355
  745TMC3    C411061   1.146   3.959  13.756  0.2674  0.8023 -0.4884
  745TMC3    C511062   1.015   3.922  13.781  0.2310 -0.2712 -0.2234
  745TMC3    C611063   0.935   3.980  13.876 -0.1228 -0.0120 -0.2358
  745TMC3     C11064   1.292   4.128  13.771 -0.2515  0.5504 -0.3549
  745TMC3     O11065   1.392   4.066  13.741  0.0200 -0.3901  0.2137
  745TMC3     H11066   1.167   4.193  13.990 -0.3712 -0.0907 -0.1635
  745TMC3    H111067   1.214   3.898  13.699 -2.0228 -2.1647 -0.0658
  745TMC3    H211068   0.837   3.942  13.901  0.0826 -1.5907 -1.8303
  745TMC3    C711069   0.949   3.820  13.699  0.2381  0.5887 -0.0361
  745TMC3    C811070   0.909   4.163  14.025  0.8301  0.2631  0.1352
  745TMC3    O111071   0.852   3.764  13.752  0.1512  0.7239 -0.8464
  745TMC3    O211072   0.787   4.159  14.016  0.5142 -0.4569 -0.3759
  746TMC3    C111073   2.732   0.997  11.222  0.1756  0.4628  0.7269
  746TMC3    C211074   2.763   1.017  11.086  0.0339 -0.6212 -0.0479
  746TMC3    C311075   2.740   0.910  11.008 -0.0730  0.0129 -0.5343
  746TMC3    C411076   2.703   0.872  11.277  0.3042 -0.4928 -0.0407
  746TMC3    C511077   2.693   0.772  11.190 -0.2155  0.9446 -0.2818
  746TMC3    C611078   2.709   0.788  11.052 -0.2225  0.1370 -0.5317
  746TMC3     C11079   2.746   1.107  11.323  0.2464  0.5456  0.3622
  746TMC3     O11080   2.688   1.099  11.428 -0.3394  0.4948  0.4757
  746TMC3     H11081   2.778   1.118  11.049  0.4021  0.2128  2.3682
  746TMC3    H111082   2.718   0.849  11.382 -1.7928  0.0510  0.3783
  746TMC3    H211083   2.679   0.708  10.986  0.2727 -2.0865  1.9714
  746TMC3    C711084   2.592   0.671  11.213  0.3510  0.1358 -0.0693
  746TMC3    C811085   2.770   0.912  10.869 -0.6640  0.0073 -0.2106
  746TMC3    O111086   2.511   0.648  11.126  0.0439  0.5649 -0.1328
  746TMC3    O211087   2.817   0.814  10.810 -0.2334  0.2234 -0.5646
  747TMC3    C111088   0.376   1.329  11.121  0.2169 -0.1781 -0.2641
  747TMC3    C211089   0.356   1.224  11.198  0.0223 -0.2478  0.3257
  747TMC3    C311090   0.342   1.249  11.328  0.1603  1.3618 -0.3302
  747TMC3    C411091   0.405   1.449  11.170 -0.1048  0.2575 -0.0030
  747TMC3    C511092   0.382   1.474  11.301  0.3421 -0.0410  0.1152
  747TMC3    C611093   0.348   1.369  11.383  0.3776  0.5062  0.2755
  747TMC3     C11094   0.433   1.304  10.993  0.0056 -0.0498  0.2481
  747TMC3     O11095   0.523   1.371  10.952 -0.5432 -0.2624 -0.1102
  747TMC3     H11096   0.346   1.120  11.169 -0.7401 -0.1519  0.2368
  747TMC3    H111097   0.446   1.525  11.104  1.5979  0.2449  1.0387
  747TMC3    H211098   0.338   1.380  11.490 -2.6446  1.1670 -0.0826
  747TMC3    C711099   0.385   1.605  11.357  0.0915  0.0452  0.3762
  747TMC3    C811100   0.303   1.132  11.412 -0.4364 -0.6301  0.3993
  747TMC3    O111101   0.374   1.617  11.478 -0.2616 -0.4518 -0.3025
  747TMC3    O211102   0.354   1.024  11.393 -0.2785 -0.5358 -0.2996
  748MPD2     C11103   0.722   2.044   1.431 -0.3658 -0.6755 -0.0273
  748MPD2    C111104   0.785   1.931   1.376  0.5637  0.7715  0.3081
  748MPD2    C211105   0.924   1.917   1.395  0.7515 -0.2162  0.1897
  748MPD2    C311106   0.992   2.017   1.466  0.4136 -0.1704  0.3324
  748MPD2    C411107   0.923   2.119   1.526 -0.0220  0.2826  0.3867
  748MPD2    C511108   0.786   2.136   1.504  0.0870  1.0281 -0.2055
  748MPD2     H11109   0.987   1.836   1.359  0.6157  0.0968 -0.7502
  748MPD2    H111110   0.984   2.182   1.589 -0.6570 -1.4232  2.6916
  748MPD2    H211111   0.617   2.064   1.409 -0.9395 -1.7565  1.7222
  748MPD2    H311112   0.727   2.210   1.557 -2.2633 -0.5284 -0.6666
  748MPD2     N11113   1.136   2.004   1.483 -0.2724 -0.7748  0.0574
  748MPD2    H511114   1.171   1.942   1.410 -2.0140 -0.3618 -1.1317
  748MPD2    N111115   0.703   1.831   1.314 -0.6375  0.3163  0.7742
  748MPD2    H711116   0.603   1.842   1.299 -0.5048  0.2697 -0.1614
  749TMC3    C111117   1.358   2.043   1.517  0.1536  0.6692  0.2467
  749TMC3    C211118   1.378   1.922   1.462 -0.2041 -0.2696  0.8318
  749TMC3    C311119   1.481   1.907   1.382 -0.1834 -0.0341 -0.4272
  749TMC3    C411120   1.435   2.156   1.496  0.2278 -0.5738  0.0226
  749TMC3    C511121   1.537   2.133   1.413 -0.3627 -0.2552  0.2133
  749TMC3    C611122   1.560   2.011   1.353  0.0791  0.4726 -0.0430
  749TMC3     C11123   1.225   2.073   1.566 -0.0868 -0.6096 -0.1578
  749TMC3     O11124   1.203   2.170   1.634 -0.0721 -0.4729  0.1596
  749TMC3     H11125   1.314   1.836   1.483 -2.6717  0.6858 -2.7159
  749TMC3    H111126   1.428   2.252   1.547 -0.3635 -0.3831 -0.4135
  749TMC3    H211127   1.642   2.002   1.283  0.1090 -2.0377  0.3194
  749TMC3    C711128   1.612   2.252   1.375  0.0944  0.1033 -0.5252
  749TMC3    C811129   1.511   1.772   1.339 -0.6711 -0.1694 -0.4276
  749TMC3    O111130   1.561   2.358   1.391  0.1763  0.0497 -0.3775
  749TMC3    O211131   1.426   1.687   1.345 -0.2457 -0.1239  0.0060
  750MPD2     C11132   2.540   2.778  11.384 -0.3432 -0.1761 -0.1273
  750MPD2    C111133   2.409   2.796  11.368 -0.0655  0.8750 -0.0174
  750MPD2    C211134   2.352   2.717  11.271 -0.6383 -1.0292 -0.0127
  750MPD2    C311135   2.416   2.615  11.204 -0.3435  0.3913 -0.0941
  750MPD2    C411136   2.544   2.592  11.232 -0.5295  0.1642 -0.4705
  750MPD2    C511137   2.608   2.676  11.321 -0.9778 -0.2206  0.0688
  750MPD2     H11138   2.246   2.730  11.256 -0.6347 -1.4382 -0.3910
  750MPD2    H111139   2.596   2.513  11.179  1.9763  0.8912  0.9370
  750MPD2    H211140   2.592   2.830  11.463 -0.5028  0.0124 -0.1447
  750MPD2    H311141   2.714   2.669  11.339 -0.6559 -0.9039 -2.0824
  750MPD2     N11142   2.360   2.524  11.110  0.2853  0.1379 -0.2617
  750MPD2    H511143   2.421   2.444  11.096  0.6406  0.1525  1.1642
  750MPD2    N111144   2.334   2.897  11.438 -0.3143 -0.2127 -0.7131
  750MPD2    H711145   2.392   2.958  11.495  0.8833 -1.4999 -0.5382
  751TMC3    C111146   2.191   2.394  11.008 -1.1113 -0.9923 -0.6117
  751TMC3    C211147   2.076   2.325  11.047 -0.5529 -0.2887 -0.2522
  751TMC3    C311148   2.067   2.191  11.012  0.3056  0.0683  0.4431
  751TMC3    C411149   2.277   2.346  10.918 -0.3473 -0.3409 -0.1121
  751TMC3    C511150   2.258   2.220  10.869  0.1025  0.5449  0.0774
  751TMC3    C611151   2.158   2.137  10.918  0.0618 -0.1932 -0.1753
  751TMC3     C11152   2.225   2.511  11.087 -0.0124 -0.1120 -0.5319
  751TMC3     O11153   2.136   2.582  11.132  0.6519 -0.0426  0.4607
  751TMC3     H11154   1.998   2.368  11.109  0.8534 -1.8195  2.6058
  751TMC3    H111155   2.353   2.416  10.883  0.3238 -1.0956 -0.1640
  751TMC3    H211156   2.173   2.032  10.897 -1.5928 -0.4272 -0.1510
  751TMC3    C711157   2.359   2.177  10.769  0.4867 -0.4649  0.0815
  751TMC3    C811158   1.971   2.102  11.063  0.6264 -0.5033  0.1856
  751TMC3    O111159   2.458   2.249  10.751  0.4270 -0.3300 -0.0195
  751TMC3    O211160   1.962   2.001  10.999 -0.0106 -0.5508  0.2925
  752TMC3    C111161   1.474   2.760  17.589  0.7190 -0.1782  0.4035
  752TMC3    C211162   1.467   2.674  17.690 -0.0574 -0.3959  0.2361
  752TMC3    C311163   1.388   2.699   0.038 -0.3870 -0.2496 -0.0194
  752TMC3    C411164   1.413   2.884  17.603  0.5269 -0.5505  0.2031
  752TMC3    C511165   1.346   2.910  17.718  0.0501  0.7260 -0.6464
  752TMC3    C611166   1.326   2.821   0.056  0.0983  0.3440 -0.1907
  752TMC3     C11167   1.547   2.715  17.470 -0.1362  0.4283  0.7533
  752TMC3     O11168   1.622   2.621  17.483 -0.5753  0.3996 -0.1903
  752TMC3     H11169   1.519   2.578  17.682 -0.6713 -0.5450 -1.9348
  752TMC3    H111170   1.425   2.954  17.521 -1.0227 -1.2569 -0.6286
  752TMC3    H211171   1.256   2.839   0.136  0.1162 -0.7674  0.0879
  752TMC3    C711172   1.319   3.046  17.746 -0.0576 -0.3136 -0.0919
  752TMC3    C811173   1.381   2.594   0.138 -0.0003 -0.2782 -0.5642
  752TMC3    O111174   1.210   3.082   0.028  0.5337  0.5404 -0.0464
  752TMC3    O211175   1.382   2.479   0.104  0.1565 -0.8299 -0.6545
  753TMC3    C111176   4.127   4.046  13.743 -0.6758 -0.1756  0.2353
  753TMC3    C211177   4.111   4.129  13.848  0.5064  0.0464  0.2979
  753TMC3    C311178   4.033   4.088  13.957 -0.3708 -0.2834  0.3188
  753TMC3    C411179   4.066   3.926  13.734  0.1851  0.0681 -0.1525
  753TMC3    C511180   3.975   3.893  13.835  0.3233 -0.5469  0.9244
  753TMC3    C611181   3.971   3.965  13.954  0.0246  0.1544 -0.0805
  753TMC3     C11182   4.172   4.094  13.614  0.3709 -0.0110  0.1138
  753TMC3     O11183   4.192   4.214  13.605  0.2076  0.5890  0.2055
  753TMC3     H11184   4.171   4.219  13.856  4.6135 -2.5847 -0.6031
  753TMC3    H111185   4.083   3.861  13.649  2.6621 -0.1507  0.5299
  753TMC3    H211186   3.908   3.930  14.034  0.4242  0.3258  0.3129
  753TMC3    C711187   3.934   3.752  13.835 -0.4248  1.1129 -0.9190
  753TMC3    C811188   4.066   4.130  14.095 -0.2086  0.4554  0.4965
  753TMC3    O111189   3.973   3.688  13.736 -0.0282 -0.1838 -0.6089
  753TMC3    O211190   4.025   4.048  14.172 -0.1006  0.2835  0.2241
  754MPD2     C11191   2.321   3.227  14.059 -0.1904  0.4228  0.5864
  754MPD2    C111192   2.279   3.110  14.000 -1.1981 -0.2026 -0.3882
  754MPD2    C211193   2.291   3.101  13.861 -0.6509 -0.4775 -0.2574
  754MPD2    C311194   2.363   3.197  13.790 -0.7167 -0.1496  0.6079
  754MPD2    C411195   2.409   3.311  13.857 -0.2225  0.1082 -0.3060
  754MPD2    C511196   2.387   3.327  13.992  0.3801  0.3227 -0.4618
  754MPD2     H11197   2.236   3.024  13.810 -1.6655  2.4571 -3.6401
  754MPD2    H111198   2.463   3.385  13.799  2.1770 -0.8810  0.6594
  754MPD2    H211199   2.305   3.236  14.165  3.1103 -2.6192  1.3412
  754MPD2    H311200   2.418   3.410  14.053  0.2526 -0.1233  0.2071
  754MPD2     N11201   2.376   3.199  13.648  0.2021 -0.3075 -0.6929
  754MPD2    H511202   2.398   3.286  13.600 -1.6670  0.8284  0.5192
  754MPD2    N111203   2.212   3.015  14.077  0.1949  0.0203 -0.1541
  754MPD2    H711204   2.172   3.042  14.166  0.3786 -0.8057  0.1796
  755MPD2     C11205   1.655   3.484  13.591  0.1418 -0.1526  0.2909
  755MPD2    C111206   1.665   3.349  13.561 -0.3298  0.1026 -1.0148
  755MPD2    C211207   1.773   3.304  13.499 -0.0015 -0.1007 -0.9141
  755MPD2    C311208   1.873   3.392  13.455 -0.4017  0.6079  0.6714
  755MPD2    C411209   1.854   3.528  13.477  0.0493  0.2594  0.8475
  755MPD2    C511210   1.743   3.569  13.540 -0.2344  0.6326  0.3512
  755MPD2     H11211   1.784   3.198  13.479 -0.0507 -0.7590  2.5675
  755MPD2    H111212   1.926   3.601  13.445 -1.0274  1.4002  1.0309
  755MPD2    H211213   1.578   3.537  13.646  2.1825  1.3781  1.7160
  755MPD2    H311214   1.730   3.674  13.567  2.8621  1.3152 -0.7537
  755MPD2     N11215   1.978   3.328  13.388 -0.5699  0.4339 -0.1155
  755MPD2    H511216   1.968   3.227  13.379  1.5136  0.3910 -1.9133
  755MPD2    N111217   1.585   3.248  13.625  0.2674 -0.3475  0.2011
  755MPD2    H711218   1.625   3.155  13.633  0.3289 -0.0123  3.8611
  756MPD2     C11219   2.673   3.395   9.861 -1.0572 -0.1973  0.1397
  756MPD2    C111220   2.564   3.328   9.914  0.1595  0.9752  0.3533
  756MPD2    C211221   2.452   3.314   9.839  0.2334  1.1786 -0.5618
  756MPD2    C311222   2.440   3.364   9.709  0.7179  0.3255  0.0631
  756MPD2    C411223   2.550   3.416   9.645 -0.1623  0.1668 -1.0877
  756MPD2    C511224   2.667   3.429   9.725  0.0006  0.5152  0.7032
  756MPD2     H11225   2.358   3.276   9.878  1.4135 -1.2179 -0.0596
  756MPD2    H111226   2.559   3.447   9.542 -0.5670  0.1844 -1.1190
  756MPD2    H211227   2.765   3.407   9.919 -1.5467 -0.5950  0.9941
  756MPD2    H311228   2.753   3.476   9.680  0.0523 -0.2361  0.0129
  756MPD2     N11229   2.319   3.344   9.641 -0.7713  1.0475  0.1867
  756MPD2    H511230   2.243   3.293   9.686  0.1829  0.5633  1.2707
  756MPD2    N111231   2.552   3.280  10.045 -0.5773  0.6340  0.4481
  756MPD2    H711232   2.464   3.239  10.072  0.2422  0.7203  3.2297
  757MPD2     C11233   1.556   3.314  10.012 -0.1852  0.1875  0.7809
  757MPD2    C111234   1.655   3.217   9.986  0.0361  0.2818 -0.4716
  757MPD2    C211235   1.760   3.246   9.894  0.4249 -0.2403 -0.1046
  757MPD2    C311236   1.751   3.359   9.820 -0.5914  0.4197  0.2546
  757MPD2    C411237   1.647   3.450   9.838  0.2000 -0.2202 -0.1012
  757MPD2    C511238   1.551   3.435   9.940  0.6646 -0.2963 -0.0249
  757MPD2     H11239   1.841   3.177   9.876 -0.7936 -1.5737 -0.4415
  757MPD2    H111240   1.640   3.539   9.775  0.5224 -0.2975 -0.2457
  757MPD2    H211241   1.488   3.294  10.094 -0.3075 -1.2328  0.3289
  757MPD2    H311242   1.472   3.505   9.964  2.5050  1.9550 -0.5361
  757MPD2     N11243   1.840   3.370   9.710  0.9054  0.1025  0.2212
  757MPD2    H511244   1.915   3.307   9.687  2.1636  1.6350  0.1230
  757MPD2    N111245   1.655   3.101  10.067  0.1832  0.4670  0.1579
  757MPD2    H711246   1.583   3.089  10.138 -0.6499  1.2639 -0.5569
  758MPD2     C11247   2.722   2.632  15.970 -0.3589  0.7721  0.1756
  758MPD2    C111248   2.713   2.498  16.001 -0.1202  0.2042 -0.0316
  758MPD2    C211249   2.621   2.459  16.100 -0.8931 -0.7345  0.7087
  758MPD2    C311250   2.526   2.554  16.147  0.2805 -0.0386  0.0212
  758MPD2    C411251   2.538   2.684  16.106  0.3097 -0.2251  0.3287
  758MPD2    C511252   2.635   2.725  16.020  0.0356 -0.0362 -0.3197
  758MPD2     H11253   2.608   2.356  16.133  2.4921 -0.9751  1.2380
  758MPD2    H111254   2.467   2.757  16.142 -0.3996 -0.6024 -0.3028
  758MPD2    H211255   2.790   2.661  15.891 -0.2291  1.9817  0.7403
  758MPD2    H311256   2.648   2.826  15.982  1.7052 -0.2463 -0.3164
  758MPD2     N11257   2.444   2.533  16.261  0.1254 -0.2037  0.4223
  758MPD2    H511258   2.408   2.615  16.310 -2.2152 -1.1075  0.1901
  758MPD2    N111259   2.803   2.405  15.937  0.2841 -0.1112 -0.2241
  758MPD2    H711260   2.869   2.452  15.876  1.1478  0.7016  1.3693
  759MPD2     C11261   1.781   0.214  10.210  0.9600  0.3284  0.3229
  759MPD2    C111262   1.691   0.281  10.294  0.1151 -0.1395  0.4217
  759MPD2    C211263   1.682   0.414  10.273 -1.0890 -0.2711 -0.5716
  759MPD2    C311264   1.756   0.480  10.173  0.3375  0.2998 -0.4984
  759MPD2    C411265   1.837   0.412  10.083  0.3812  0.2751 -0.3457
  759MPD2    C511266   1.846   0.275  10.101  0.0366  0.1330 -0.2460
  759MPD2     H11267   1.602   0.470  10.319  0.3033  1.2476  0.0315
  759MPD2    H111268   1.880   0.451   9.991 -2.0370 -1.3462 -2.1519
  759MPD2    H211269   1.796   0.107  10.206 -1.5839 -0.0287 -0.1164
  759MPD2    H311270   1.896   0.216  10.025 -1.4962 -1.3686 -0.0869
  759MPD2     N11271   1.719   0.614  10.150  0.1679  0.0618 -0.9773
  759MPD2    H511272   1.634   0.650  10.191  1.3249  1.8405 -0.1126
  759MPD2    N111273   1.604   0.213  10.388  0.5033 -0.1173  0.7464
  759MPD2    H711274   1.542   0.266  10.448 -1.5978 -0.2318 -1.3411
  760MPD2     C11275   1.187   2.991  11.722  0.2653  0.2374  0.2968
  760MPD2    C111276   1.317   2.969  11.682 -0.0600 -0.5760 -0.7925
  760MPD2    C211277   1.382   2.848  11.685 -0.3120 -0.7418 -0.0985
  760MPD2    C311278   1.313   2.744  11.750 -0.2068 -0.3748  1.0050
  760MPD2    C411279   1.183   2.764  11.800  0.7441  0.6052  0.0864
  760MPD2    C511280   1.122   2.888  11.785  0.1188  0.1320 -0.9278
  760MPD2     H11281   1.481   2.832  11.643 -0.0994 -0.1859  0.1876
  760MPD2    H111282   1.136   2.683  11.855  1.8804 -0.3217 -0.2996
  760MPD2    H211283   1.131   3.083  11.712 -1.6315 -1.1839 -2.1441
  760MPD2    H311284   1.018   2.891  11.814  0.4808  0.2280  0.3721
  760MPD2     N11285   1.372   2.615  11.772 -0.7426  0.2759  0.0911
  760MPD2    H511286   1.310   2.551  11.820 -1.4557 -1.7676 -3.5301
  760MPD2    N111287   1.394   3.074  11.620 -0.1949 -0.5365 -0.0132
  760MPD2    H711288   1.494   3.060  11.611 -0.3474 -0.6217 -1.4899
  761MPD2     C11289   1.659   1.903  11.405  0.0270 -0.2525  0.0095
  761MPD2    C111290   1.718   1.844  11.294  0.4810 -0.6465 -0.8110
  761MPD2    C211291   1.793   1.924  11.213  0.0297  0.3296  0.1512
  761MPD2    C311292   1.830   2.051  11.257 -0.7056 -0.1119  0.0399
  761MPD2    C411293   1.777   2.097  11.367  0.4601 -0.9059 -0.0088
  761MPD2    C511294   1.676   2.030  11.432  0.4327  0.8178  0.3340
  761MPD2     H11295   1.830   1.878  11.122  2.6141  0.7120  1.0097
  761MPD2    H111296   1.801   2.197  11.403  0.7158 -1.1255  0.4292
  761MPD2    H211297   1.603   1.843  11.475 -1.2403  0.0402 -0.7557
  761MPD2    H311298   1.641   2.074  11.525  0.2009  3.2221 -0.9030
  761MPD2     N11299   1.912   2.138  11.182 -0.3406  0.3705  0.1217
  761MPD2    H511300   1.931   2.232  11.215  0.9456  0.6700 -1.4532
  761MPD2    N111301   1.691   1.710  11.268 -0.7510  0.5782  0.3618
  761MPD2    H711302   1.678   1.657  11.354  1.9725 -0.9351 -0.1397
  762MPD2     C11303   2.282   1.925  11.165  0.2557 -0.4616 -0.0327
  762MPD2    C111304   2.259   1.814  11.084  0.9901  0.1785  0.4771
  762MPD2    C211305   2.354   1.779  10.990  0.0304  0.8446  0.1679
  762MPD2    C311306   2.449   1.873  10.952 -0.2738 -0.1983 -0.7435
  762MPD2    C411307   2.474   1.983  11.026  0.0709 -0.7942 -0.8879
  762MPD2    C511308   2.393   2.007  11.132  0.6193 -0.0461 -0.5718
  762MPD2     H11309   2.346   1.683  10.941 -0.0008  1.1644 -0.4496
  762MPD2    H111310   2.552   2.054  11.001 -1.1436  0.7056 -0.4198
  762MPD2    H211311   2.226   1.945  11.255 -0.4843 -0.6113 -0.4670
  762MPD2    H311312   2.427   2.089  11.194 -1.2468 -0.2745  0.7534
  762MPD2     N11313   2.531   1.841  10.844  0.5676  0.6152  0.3014
  762MPD2    H511314   2.509   1.754  10.797  1.2097 -0.2351  1.5685
  762MPD2    N111315   2.155   1.727  11.127  0.2845  0.5171 -0.4751
  762MPD2    H711316   2.097   1.751  11.207 -0.0006 -0.4722 -0.3804
  763MPD2     C11317   4.484   2.756  16.335  0.3414  0.1302  0.6240
  763MPD2    C111318   4.386   2.823  16.259 -0.0636 -0.0942 -0.2806
  763MPD2    C211319   4.385   2.965  16.255  1.0513  0.2386 -0.7849
  763MPD2    C311320   4.483   3.045  16.313  0.9441 -0.2789  0.4747
  763MPD2    C411321   4.579   2.975  16.390  0.2778  0.4464 -0.1551
  763MPD2    C511322   4.581   2.836  16.394  0.2542 -0.0261 -0.3368
  763MPD2     H11323   4.321   3.015  16.184 -0.2325  0.1758  0.3316
  763MPD2    H111324   4.667   3.024  16.428 -0.1499  0.2141  1.1200
  763MPD2    H211325   4.497   2.649  16.349  0.0546 -0.3163 -2.4774
  763MPD2    H311326   4.669   2.794  16.443  0.3627  2.1541  1.3757
  763MPD2     N11327   4.495   3.187  16.295 -0.7064  0.3771  0.0367
  763MPD2    H511328   4.583   3.222  16.331 -1.1341  0.9989  0.4734
  763MPD2    N111329   4.301   2.743  16.181 -0.3508 -0.3550 -0.0306
  763MPD2    H711330   4.229   2.788  16.125 -0.3316  0.2048  0.3892
  764MPD2     C11331   2.269   4.429   0.458  0.2450  0.1005 -0.7287
  764MPD2    C111332   2.167   4.392   0.372  0.2147  0.5092 -0.0458
  764MPD2    C211333   2.081   4.291   0.411 -0.0214  0.0352 -0.1333
  764MPD2    C311334   2.099   4.226   0.534  0.6420 -0.1149  0.2216
  764MPD2    C411335   2.213   4.254   0.607  0.2313  0.7344 -0.1218
  764MPD2    C511336   2.298   4.358   0.568  0.0447  0.1200 -0.5899
  764MPD2     H11337   2.004   4.264   0.340 -0.5067  0.3271  0.2802
  764MPD2    H111338   2.249   4.188   0.685 -0.0481 -1.4469 -1.8716
  764MPD2    H211339   2.325   4.520   0.440  1.2561 -0.2284  0.7466
  764MPD2    H311340   2.387   4.387   0.622 -0.6538  0.5211  0.3431
  764MPD2     N11341   2.007   4.129   0.568 -0.3676 -0.0105 -0.0449
  764MPD2    H511342   1.934   4.116   0.499  0.9757  0.5559 -1.5458
  764MPD2    N111343   2.149   4.461   0.248  0.0344  1.0087  0.1851
  764MPD2    H711344   2.090   4.424   0.174 -0.7503  2.2449  0.1939
  765MPD2     C11345   2.290   1.966  16.445 -0.8789  0.4070  0.6243
  765MPD2    C111346   2.305   1.983  16.312 -0.3380  0.0370 -0.3438
  765MPD2    C211347   2.382   1.894  16.242 -0.2924  0.1605 -0.4326
  765MPD2    C311348   2.471   1.803  16.309 -0.3251  0.3481  0.1770
  765MPD2    C411349   2.459   1.792  16.445 -0.3815 -0.8977  0.1322
  765MPD2    C511350   2.364   1.870  16.508 -0.6266 -0.6246  0.4744
  765MPD2     H11351   2.384   1.900  16.134 -1.1008  1.3606 -0.3813
  765MPD2    H111352   2.513   1.719  16.505  1.2364  0.5523  0.4535
  765MPD2    H211353   2.227   2.024  16.510 -1.8839  0.3420 -0.2872
  765MPD2    H311354   2.355   1.861  16.615 -2.8576  0.5126  0.3934
  765MPD2     N11355   2.553   1.726  16.225 -0.7221 -0.0498 -0.4509
  765MPD2    H511356   2.550   1.753  16.127  0.1800 -0.2782 -0.5488
  765MPD2    N111357   2.239   2.091  16.244 -0.1181 -0.3860 -0.3227
  765MPD2    H711358   2.178   2.151  16.298  0.6704 -0.1760  0.3492
  766MPD2     C11359   1.666   2.173  15.720 -0.4462 -0.7849 -0.1605
  766MPD2    C111360   1.795   2.161  15.698  0.0090  0.1060  0.1079
  766MPD2    C211361   1.838   2.090  15.585  0.9902 -0.0689 -0.4310
  766MPD2    C311362   1.748   2.037  15.498 -0.6781 -0.0215 -0.0977
  766MPD2    C411363   1.611   2.055  15.521  0.2194  0.3784  0.3994
  766MPD2    C511364   1.570   2.123  15.635 -0.0753  0.1017 -0.0075
  766MPD2     H11365   1.944   2.084  15.561  0.2220 -0.1500 -3.8006
  766MPD2    H111366   1.541   2.039  15.440  1.7465  3.0676 -1.4510
  766MPD2    H211367   1.630   2.248  15.789  1.3309 -0.1807  0.1073
  766MPD2    H311368   1.469   2.161  15.645  0.2195  1.0704 -0.6715
  766MPD2     N11369   1.786   1.985  15.371 -0.0155 -0.1139  0.6994
  766MPD2    H511370   1.710   1.972  15.305 -0.2852  2.2174  0.5620
  766MPD2    N111371   1.895   2.203  15.794 -0.2947  0.2722  0.0552
  766MPD2    H711372   1.992   2.206  15.764 -0.1307 -0.4169  0.4927
  767MPD2     C11373   1.480   2.378  15.450 -0.8306  0.2313 -0.4884
  767MPD2    C111374   1.601   2.381  15.385 -0.4056  0.3940  0.1933
  767MPD2    C211375   1.605   2.319  15.262 -0.4848  0.8506 -1.0516
  767MPD2    C311376   1.496   2.265  15.200 -0.5531 -0.1929  0.7468
  767MPD2    C411377   1.379   2.256  15.270  0.1716  0.1848 -0.3598
  767MPD2    C511378   1.375   2.318  15.393 -0.4133  0.1874  0.2233
  767MPD2     H11379   1.687   2.330  15.191  2.3500  0.5995  2.1652
  767MPD2    H111380   1.298   2.194  15.233 -0.2312 -0.6970  2.0229
  767MPD2    H211381   1.471   2.421  15.549 -0.7545  1.6978 -1.1100
  767MPD2    H311382   1.278   2.320  15.442 -0.1900 -0.6149  0.6982
  767MPD2     N11383   1.509   2.228  15.068 -0.2524  0.6022  0.2332
  767MPD2    H511384   1.600   2.237  15.025  0.1304 -1.1709  0.6967
  767MPD2    N111385   1.718   2.438  15.445  0.2685 -0.3509  0.5229
  767MPD2    H711386   1.708   2.474  15.539  1.1594  0.1580  0.4205
  768MPD2     C11387   2.346   0.417  10.763  0.5145 -0.2371 -0.2212
  768MPD2    C111388   2.347   0.347  10.883  0.2542  0.3195 -0.0023
  768MPD2    C211389   2.461   0.340  10.961 -0.7926 -0.4655  0.1396
  768MPD2    C311390   2.576   0.398  10.913 -0.1941 -0.5099 -0.6209
  768MPD2    C411391   2.577   0.464  10.792  0.3226 -0.1083  0.7944
  768MPD2    C511392   2.465   0.470  10.713  0.0180  0.7762  0.1729
  768MPD2     H11393   2.453   0.292  11.059  0.7885  3.2096  2.0570
  768MPD2    H111394   2.670   0.508  10.757  1.3889 -1.9917  1.2442
  768MPD2    H211395   2.254   0.424  10.705 -0.4555  0.0889  1.3756
  768MPD2    H311396   2.473   0.543  10.633  0.7459 -0.6035 -1.0181
  768MPD2     N11397   2.690   0.402  10.993  0.8873  0.5000 -0.1370
  768MPD2    H511398   2.763   0.462  10.955  0.7776  0.4727 -0.3910
  768MPD2    N111399   2.230   0.295  10.946  0.1632 -0.6551 -0.1744
  768MPD2    H711400   2.244   0.242  11.031  1.4988 -2.2226 -1.3809
  769MPD2     C11401   3.597   3.551  14.989 -0.8041  0.0144  0.4024
  769MPD2    C111402   3.486   3.627  14.996  0.0022 -0.0778  0.3202
  769MPD2    C211403   3.477   3.721  15.107  0.0040 -1.0481  0.1129
  769MPD2    C311404   3.577   3.740  15.197  0.1635 -0.4757 -0.0278
  769MPD2    C411405   3.689   3.658  15.186  1.5712 -0.2337 -0.2666
  769MPD2    C511406   3.698   3.570  15.080 -0.1187 -0.6741  0.3552
  769MPD2     H11407   3.393   3.789  15.119  0.4748  0.0894 -2.8834
  769MPD2    H111408   3.769   3.657  15.260 -0.7144  3.3263  2.2590
  769MPD2    H211409   3.614   3.468  14.922  1.1932  1.2721 -0.6225
  769MPD2    H311410   3.789   3.515  15.058  0.1621  1.4498 -3.7287
  769MPD2     N11411   3.567   3.851  15.290  0.1251 -0.2468  0.5353
  769MPD2    H511412   3.474   3.891  15.299 -0.4511 -1.7835  1.4951
  769MPD2    N111413   3.379   3.608  14.904 -0.1930  0.2024  0.1105
  769MPD2    H711414   3.378   3.516  14.860  0.0833 -0.5872  1.7558
  770MPD2     C11415   2.677   3.133  15.128  0.8261  0.1565  0.0100
  770MPD2    C111416   2.804   3.102  15.071  0.1174  0.0731  0.6399
  770MPD2    C211417   2.861   3.208  15.000  0.2870  0.5565 -0.5718
  770MPD2    C311418   2.809   3.331  14.995  0.0583 -0.0702 -0.7317
  770MPD2    C411419   2.676   3.357  15.041  0.4244 -0.5467  0.6400
  770MPD2    C511420   2.615   3.255  15.113  0.5567  0.3438 -0.4678
  770MPD2     H11421   2.952   3.196  14.943  0.2065  0.4660 -0.6825
  770MPD2    H111422   2.619   3.449  15.036  0.8313 -0.4161 -1.8267
  770MPD2    H211423   2.622   3.070  15.197  1.6274 -0.1215  0.3864
  770MPD2    H311424   2.514   3.271  15.150 -0.0005  1.2335 -2.3817
  770MPD2     N11425   2.886   3.435  14.928 -0.0954 -0.0358  0.2122
  770MPD2    H511426   2.986   3.415  14.923 -0.3391 -1.3208  0.4663
  770MPD2    N111427   2.858   2.973  15.079 -0.0524 -0.3879 -0.0438
  770MPD2    H711428   2.806   2.902  15.130  0.1730 -1.8912 -1.8980
  771MPD2     C11429   4.440   1.580  13.978  0.5850 -0.1772  0.5641
  771MPD2    C111430   4.342   1.658  13.927  0.4738 -0.2825 -0.0833
  771MPD2    C211431   4.221   1.593  13.909 -0.1892  0.0000 -0.1442
  771MPD2    C311432   4.210   1.452  13.907  0.6714 -0.3573 -0.1230
  771MPD2    C411433   4.320   1.373  13.940  0.3499  0.7243  0.0341
  771MPD2    C511434   4.428   1.443  13.985 -0.2675  0.1715 -0.3035
  771MPD2     H11435   4.137   1.654  13.877 -1.0034 -0.7033  0.6567
  771MPD2    H111436   4.315   1.265  13.940  1.3657  0.6706 -0.0172
  771MPD2    H211437   4.533   1.629  14.008  1.6025 -1.9422  0.2904
  771MPD2    H311438   4.509   1.382  14.024 -1.2612 -0.9718 -0.0561
  771MPD2     N11439   4.083   1.397  13.882 -0.1839 -0.9672  0.6079
  771MPD2    H511440   4.006   1.462  13.886  0.0308 -0.6203 -1.0836
  771MPD2    N111441   4.351   1.790  13.903  0.1532 -0.2633  0.4673
  771MPD2    H711442   4.270   1.837  13.864  1.8048  1.9605 -0.3362
  772MPD2     C11443   3.868   2.279  13.756  0.5973  0.1371 -0.3995
  772MPD2    C111444   3.914   2.156  13.727  0.1793  0.0699  0.4205
  772MPD2    C211445   3.821   2.060  13.691  0.0039 -0.6155 -0.2980
  772MPD2    C311446   3.684   2.101  13.688 -0.5203 -0.2297  0.3261
  772MPD2    C411447   3.646   2.231  13.716 -0.2597 -1.0570 -0.1496
  772MPD2    C511448   3.742   2.322  13.743 -0.7598  0.4924 -0.6364
  772MPD2     H11449   3.852   1.959  13.667  0.2413 -0.2170 -1.6910
  772MPD2    H111450   3.544   2.266  13.708 -0.7918 -2.3321  1.1534
  772MPD2    H211451   3.944   2.356  13.770  0.6172  0.1470 -0.5639
  772MPD2    H311452   3.722   2.426  13.766  2.9661  1.3411 -1.3869
  772MPD2     N11453   3.581   2.008  13.655 -0.2605  0.2325  0.4115
  772MPD2    H511454   3.487   2.045  13.657  0.1395  1.3174 -0.5456
  772MPD2    N111455   4.051   2.128  13.729 -0.0797  0.7559  0.1713
  772MPD2    H711456   4.088   2.035  13.714 -0.8979  0.6311 -1.1340
  773MPD2     C11457   3.003   2.715   0.511  0.4094 -0.2955 -0.4335
  773MPD2    C111458   2.943   2.679   0.393  0.9390 -0.3731 -0.2542
  773MPD2    C211459   2.951   2.546   0.361  0.4347 -0.1707 -0.1803
  773MPD2    C311460   3.011   2.456   0.443  0.3318  0.1960 -0.2514
  773MPD2    C411461   3.061   2.494   0.570  0.0205 -0.1338 -0.9805
  773MPD2    C511462   3.065   2.627   0.597 -0.2447 -0.0981 -0.2013
  773MPD2     H11463   2.928   2.518   0.258 -3.3633  1.0909  0.3554
  773MPD2    H111464   3.093   2.418   0.641  1.7221  0.9952 -0.5271
  773MPD2    H211465   3.017   2.819   0.540  0.2669 -0.4390  0.1379
  773MPD2    H311466   3.106   2.662   0.690  0.3113  0.6122 -0.7168
  773MPD2     N11467   3.020   2.327   0.395  0.4166  0.0269 -0.3066
  773MPD2    H511468   2.977   2.306   0.306 -1.5187  3.8016 -0.2378
  773MPD2    N111469   2.873   2.770   0.312 -0.4078 -0.1022 -0.5898
  773MPD2    H711470   2.849   2.720   0.227 -0.3724 -1.2720  0.0867
  774MPD2     C11471   1.781   2.141  13.800 -0.3163  0.3351 -0.8045
  774MPD2    C111472   1.899   2.154  13.866 -0.7706 -0.5393  0.7790
  774MPD2    C211473   1.927   2.278  13.919  0.6949  0.0755 -0.7049
  774MPD2    C311474   1.838   2.386  13.908  0.1112  0.4126 -0.3429
  774MPD2    C411475   1.726   2.374  13.826  0.4178  0.2203  0.2576
  774MPD2    C511476   1.703   2.249  13.773 -0.3557  0.6848  0.4228
  774MPD2     H11477   2.007   2.295  13.990  0.9825  0.9812 -1.2500
  774MPD2    H111478   1.653   2.452  13.808 -1.0442 -1.0158  0.8237
  774MPD2    H211479   1.757   2.046  13.752  0.9164 -0.2490 -0.2440
  774MPD2    H311480   1.613   2.230  13.716 -0.2460 -0.3586  0.5995
  774MPD2     N11481   1.860   2.505  13.979 -0.2043  0.5697 -0.4980
  774MPD2    H511482   1.945   2.513  14.034 -0.5158  1.1631 -0.1022
  774MPD2    N111483   1.984   2.040  13.881 -0.6901 -0.5476  0.9807
  774MPD2    H711484   1.963   1.960  13.822  0.0904  1.6585 -2.2444
  775MPD2     C11485   3.420   3.578  15.778 -0.1782 -0.1917  0.2565
  775MPD2    C111486   3.489   3.626  15.884 -0.4535 -0.1550 -0.3702
  775MPD2    C211487   3.623   3.661  15.868 -0.5553 -0.0759 -0.0769
  775MPD2    C311488   3.680   3.664  15.743 -1.0748  0.6043 -0.4063
  775MPD2    C411489   3.606   3.622  15.629 -0.0706  0.2574  0.2283
  775MPD2    C511490   3.476   3.574  15.648 -0.8165  0.1334  0.2145
  775MPD2     H11491   3.685   3.667  15.957  0.1877  1.3799 -0.6946
  775MPD2    H111492   3.641   3.621  15.526  1.3857  1.0174  0.7085
  775MPD2    H211493   3.320   3.537  15.786  0.7575 -1.8860  3.0930
  775MPD2    H311494   3.429   3.544  15.556 -0.2904  0.9554 -0.3291
  775MPD2     N11495   3.806   3.715  15.705 -0.1772 -0.1613 -0.5978
  775MPD2    H511496   3.831   3.713  15.607  1.3166  0.3958 -0.2271
  775MPD2    N111497   3.417   3.637  16.009 -0.8092  0.2632 -0.4891
  775MPD2    H711498   3.328   3.591  16.017  0.6086 -2.4294 -0.3362
  776MPD2     C11499   2.552   3.381  11.977  0.4871  0.1458  0.2912
  776MPD2    C111500   2.461   3.384  11.874  0.4699 -0.3120 -0.2769
  776MPD2    C211501   2.424   3.505  11.825 -0.0450  0.2345 -0.1883
  776MPD2    C311502   2.493   3.616  11.865 -0.0137 -0.6903  0.7012
  776MPD2    C411503   2.589   3.608  11.965  0.2819 -0.1891  0.0610
  776MPD2    C511504   2.612   3.490  12.028 -0.0681  0.3565 -0.0570
  776MPD2     H11505   2.350   3.508  11.746 -0.6040  1.7578  0.3964
  776MPD2    H111506   2.644   3.696  11.995 -2.0760  1.2577  0.1563
  776MPD2    H211507   2.575   3.279  12.009  0.2113 -0.7450 -2.3713
  776MPD2    H311508   2.690   3.478  12.102 -0.8413 -2.4092  0.3064
  776MPD2     N11509   2.465   3.736  11.805 -0.6405 -0.6874  0.1116
  776MPD2    H511510   2.529   3.812  11.827 -1.7093 -0.6419  3.0158
  776MPD2    N111511   2.403   3.269  11.823  0.0789 -0.4385 -0.2715
  776MPD2    H711512   2.415   3.181  11.871  1.1491 -0.8573 -1.3253
  777MPD2     C11513   2.792   1.400   0.767 -0.2115  0.2193 -0.1345
  777MPD2    C111514   2.656   1.404   0.777 -0.2485  0.2400 -0.6081
  777MPD2    C211515   2.584   1.337   0.680 -0.6551  0.3784  0.0412
  777MPD2    C311516   2.638   1.279   0.569 -0.1217  0.3756  0.1342
  777MPD2    C411517   2.775   1.280   0.559 -0.0156  0.7356 -0.0891
  777MPD2    C511518   2.846   1.347   0.654 -0.3981 -0.1360 -0.3315
  777MPD2     H11519   2.477   1.325   0.694 -0.5772 -4.1087 -3.1207
  777MPD2    H111520   2.838   1.239   0.481 -1.6476 -1.9329 -0.0046
  777MPD2    H211521   2.858   1.446   0.839 -0.7826 -0.0319  0.5416
  777MPD2    H311522   2.954   1.346   0.642 -0.4175 -0.6383 -0.4843
  777MPD2     N11523   2.559   1.201   0.487  0.0661 -0.4548  0.2963
  777MPD2    H511524   2.458   1.206   0.492  0.1695  1.2931  0.6797
  777MPD2    N111525   2.610   1.467   0.893  0.0072 -0.3317  0.2774
  777MPD2    H711526   2.675   1.511   0.957 -1.4477  0.0024  1.5400
  778MPD2     C11527   4.340   2.266  14.676 -0.3513 -0.6898  0.4485
  778MPD2    C111528   4.356   2.128  14.645 -0.8500 -0.4945  0.2457
  778MPD2    C211529   4.476   2.097  14.588 -0.0339  0.4581  0.0061
  778MPD2    C311530   4.563   2.189  14.537  0.0265  0.5658 -0.5910
  778MPD2    C411531   4.529   2.322  14.549  0.1591  0.0199 -0.3864
  778MPD2    C511532   4.425   2.361  14.620  0.2789  0.1012  0.4832
  778MPD2     H11533   4.500   1.991  14.586 -2.0937  0.0020 -0.4671
  778MPD2    H111534   4.598   2.395  14.507  0.6871 -0.6580 -0.7020
  778MPD2    H211535   4.245   2.301  14.713 -0.5180 -2.3445  1.5874
  778MPD2    H311536   4.406   2.467  14.636  0.6503  0.5080 -1.8616
  778MPD2     N11537   4.687   2.144  14.483 -0.0356  0.8579  0.6733
  778MPD2    H511538   4.705   2.044  14.483 -2.4978  0.3793 -1.3117
  778MPD2    N111539   4.275   2.022  14.693 -0.2106  0.3792 -0.0785
  778MPD2    H711540   4.283   1.931  14.650 -1.7679  0.5435 -0.7278
  779MPD2     C11541   3.908   0.649  14.327  0.1437  0.3557  0.0608
  779MPD2    C111542   4.028   0.663  14.398 -0.0310  0.7472 -0.0736
  779MPD2    C211543   4.094   0.784  14.378 -0.3779 -0.3437  0.6352
  779MPD2    C311544   4.026   0.891  14.313 -0.3436 -0.1908  0.5911
  779MPD2    C411545   3.897   0.875  14.273  0.4589 -0.0929  0.6366
  779MPD2    C511546   3.843   0.752  14.274  0.3164  0.5243  0.3581
  779MPD2     H11547   4.198   0.799  14.405 -0.1260 -0.8568 -0.0663
  779MPD2    H111548   3.835   0.945  14.218  0.0282 -0.2466  0.9316
  779MPD2    H211549   3.865   0.551  14.313  0.4987 -0.2076  2.9028
  779MPD2    H311550   3.752   0.739  14.217  1.1707 -1.5804 -0.5212
  779MPD2     N11551   4.093   1.014  14.294 -0.0961  0.4498  0.0426
  779MPD2    H511552   4.187   1.018  14.331 -0.2994 -1.4888  0.7694
  779MPD2    N111553   4.099   0.554  14.458  0.3790 -0.2670 -0.5239
  779MPD2    H711554   4.199   0.569  14.470  0.2542  0.5564 -0.5339
  780MPD2     C11555   2.999   0.534   0.325 -0.3858  0.0074 -0.3254
  780MPD2    C111556   3.063   0.490   0.213  0.1507  0.1782  0.1837
  780MPD2    C211557   3.187   0.543   0.199 -0.9088 -0.2893  0.8879
  780MPD2    C311558   3.248   0.627   0.288  0.5254 -0.8272 -0.0383
  780MPD2    C411559   3.193   0.653   0.406  0.7142 -0.5503  0.3099
  780MPD2    C511560   3.062   0.607   0.420 -0.1570  0.6191  0.1005
  780MPD2     H11561   3.246   0.504   0.117  2.1658  0.9728  2.4934
  780MPD2    H111562   3.244   0.714   0.479  0.0253  1.9490 -1.2870
  780MPD2    H211563   2.895   0.504   0.331 -0.0712 -1.0518 -0.2129
  780MPD2    H311564   3.011   0.625   0.514 -1.6888 -2.2219 -0.1820
  780MPD2     N11565   3.391   0.643   0.256  0.8247  0.0184 -0.7330
  780MPD2    H511566   3.426   0.616   0.165  0.0580  0.8048 -1.2518
  780MPD2    N111567   2.994   0.406   0.127  0.6166 -0.4074  0.4809
  780MPD2    H711568   2.913   0.357   0.165  0.1717  1.4029  1.8377
  781MPD2     C11569   4.696   2.604  12.229 -0.5829  0.0346  0.7764
  781MPD2    C111570   0.072   2.547  12.281  0.6290 -0.3779 -0.3257
  781MPD2    C211571   0.173   2.507  12.191 -0.4923 -0.2731  0.0034
  781MPD2    C311572   0.158   2.527  12.055  0.3284  0.1290  0.5380
  781MPD2    C411573   0.044   2.585  12.005  0.4338  0.6230  0.1866
  781MPD2    C511574   4.685   2.611  12.092  0.3655  1.0199  0.3897
  781MPD2     H11575   0.261   2.459  12.233 -0.9980 -1.1255  0.0956
  781MPD2    H111576   0.027   2.612  11.902  0.1352  0.5762  0.2244
  781MPD2    H211577   4.611   2.616  12.296 -1.0234 -0.7817  0.3759
  781MPD2    H311578   4.592   2.653  12.053  0.6583  2.1755  0.9362
  781MPD2     N11579   0.258   2.494  11.959 -0.1181 -0.3761  0.7174
  781MPD2    H511580   0.242   2.521  11.862  3.9455 -0.5176  0.0231
  781MPD2    N111581   0.084   2.528  12.424 -0.0758 -0.0961 -0.3278
  781MPD2    H711582   4.737   2.526  12.475  0.4286 -1.3134  0.5020
  782MPD2     C11583   2.540   2.428  10.379  0.0861 -0.3350 -0.0186
  782MPD2    C111584   2.655   2.480  10.335 -0.3561  0.3177 -0.3360
  782MPD2    C211585   2.740   2.532  10.426 -0.7031  0.6304 -0.4335
  782MPD2    C311586   2.708   2.548  10.557 -0.6094 -0.4476 -0.1856
  782MPD2    C411587   2.585   2.511  10.603 -0.1049 -0.7674 -0.4134
  782MPD2    C511588   2.503   2.448  10.512 -0.6903 -0.0469  0.5944
  782MPD2     H11589   2.828   2.576  10.381  0.1427  1.0162  1.6106
  782MPD2    H111590   2.542   2.528  10.701 -1.5083 -0.5105 -1.0783
  782MPD2    H211591   2.469   2.382  10.310 -1.3973  1.6734  0.1281
  782MPD2    H311592   2.409   2.401  10.539 -1.4484  2.2611  2.0215
  782MPD2     N11593   2.813   2.600  10.639  0.1696  0.0167 -0.8164
  782MPD2    H511594   2.904   2.610  10.597  2.0290 -0.2127  3.1317
  782MPD2    N111595   2.699   2.450  10.201  0.2122  0.0226  0.5590
  782MPD2    H711596   2.638   2.379  10.162 -0.5271  0.6042  0.6478
  783MPD2     C11597   2.329   1.913  10.510 -0.7076  0.4579 -0.4152
  783MPD2    C111598   2.376   2.023  10.573  0.2470  0.0700 -1.0984
  783MPD2    C211599   2.496   2.083  10.521  0.2658  0.8741 -0.0848
  783MPD2    C311600   2.574   2.018  10.432  0.2759  0.0003 -0.2896
  783MPD2    C411601   2.527   1.902  10.376  0.2626 -0.3355  0.0628
  783MPD2    C511602   2.398   1.860  10.404  0.1021  0.3423  0.1364
  783MPD2     H11603   2.541   2.175  10.556  0.1171  0.9801 -0.1739
  783MPD2    H111604   2.587   1.852  10.300 -0.0870 -2.9368  1.4744
  783MPD2    H211605   2.239   1.857  10.530  0.6397 -1.9765 -1.1208
  783MPD2    H311606   2.375   1.765  10.358 -1.5591  0.6068  0.4340
  783MPD2     N11607   2.694   2.086  10.393 -0.5630  0.4733  0.1203
  783MPD2    H511608   2.720   2.162  10.454 -0.9273  0.6286  0.0857
  783MPD2    N111609   2.307   2.077  10.687  0.1132  0.1390  0.1393
  783MPD2    H711610   2.217   2.038  10.712  0.5429 -1.7460 -1.3157
  784MPD2     C11611   0.581   2.409   0.765  0.2393  0.4019  0.5784
  784MPD2    C111612   0.523   2.522   0.825 -0.1052 -0.3266  0.2672
  784MPD2    C211613   0.426   2.593   0.752 -0.3491  1.2156  0.0563
  784MPD2    C311614   0.400   2.567   0.618  0.0553 -0.1736 -0.5914
  784MPD2    C411615   0.459   2.455   0.562  1.2744 -0.2319 -0.0479
  784MPD2    C511616   0.541   2.376   0.632  0.1257 -1.0845 -0.0468
  784MPD2     H11617   0.384   2.677   0.806 -2.3357 -0.1118  0.5486
  784MPD2    H111618   0.437   2.429   0.459 -0.2223 -3.6383  1.1547
  784MPD2    H211619   0.657   2.345   0.808  2.8880  2.9877 -0.2395
  784MPD2    H311620   0.592   2.288   0.593 -1.5408 -1.5101 -1.2982
  784MPD2     N11621   0.312   2.662   0.553  0.6808  0.1999 -0.2386
  784MPD2    H511622   0.281   2.742   0.607 -1.4322 -1.3918  0.8807
  784MPD2    N111623   0.562   2.577   0.950  0.7782  0.4102 -0.3562
  784MPD2    H711624   0.526   2.670   0.971  1.0770  0.0775  1.5996
  785MPD2     C11625   1.165   1.270  11.696 -0.3405  0.5033  0.1870
  785MPD2    C111626   1.053   1.338  11.657 -0.6381 -0.2179 -0.0409
  785MPD2    C211627   1.014   1.325  11.522  0.6922 -0.5888 -0.0270
  785MPD2    C311628   1.079   1.238  11.436  0.0219  0.1762 -0.1244
  785MPD2    C411629   1.189   1.173  11.479 -0.2102 -0.3024 -0.9446
  785MPD2    C511630   1.233   1.188  11.607  0.1434 -0.0776  0.4730
  785MPD2     H11631   0.918   1.366  11.490  1.5148  1.1605 -0.2693
  785MPD2    H111632   1.245   1.110  11.411  0.8806  0.5929 -0.8658
  785MPD2    H211633   1.213   1.297  11.790  0.8085  1.5860 -0.7135
  785MPD2    H311634   1.331   1.152  11.639 -1.0660 -1.5335  2.5931
  785MPD2     N11635   1.025   1.219  11.306 -0.2016 -0.0499 -0.2736
  785MPD2    H511636   0.939   1.271  11.294 -1.0024 -1.8468 -2.1944
  785MPD2    N111637   1.003   1.439  11.744  0.4384 -0.0793  0.1944
  785MPD2    H711638   1.057   1.463  11.827  1.3889 -2.0275  0.1272
  786MPD2     C11639   0.332   4.486  14.773 -0.3799 -0.1249  0.4261
  786MPD2    C111640   0.240   4.447  14.871  0.0363 -0.3352 -0.3933
  786MPD2    C211641   0.277   4.444  15.006  0.1510  0.4341  0.1867
  786MPD2    C311642   0.407   4.478  15.038 -0.2921  0.1301  0.3347
  786MPD2    C411643   0.498   4.520  14.949  0.0092  0.0358 -0.7425
  786MPD2    C511644   0.454   4.523  14.819  0.3198 -0.1930  0.4233
  786MPD2     H11645   0.204   4.407  15.077  0.9053 -0.4885  0.4743
  786MPD2    H111646   0.595   4.560  14.978 -0.5340  1.5595 -1.0003
  786MPD2    H211647   0.307   4.488  14.668  2.8365 -1.7632 -0.3842
  786MPD2    H311648   0.517   4.578  14.750 -0.7559  1.9592  1.1289
  786MPD2     N11649   0.462   4.465  15.171 -0.4745 -0.4289  0.6014
  786MPD2    H511650   0.562   4.481  15.181 -0.6043  0.0878  1.0857
  786MPD2    N111651   0.109   4.403  14.843  0.4482  0.1759 -0.7756
  786MPD2    H711652   0.047   4.394  14.924  1.9524 -0.8822  0.2621
  787MPD2     C11653   4.573   4.042  15.302  0.0907  0.4583 -0.4569
  787MPD2    C111654   4.613   3.979  15.187  0.0226  0.7967 -0.5456
  787MPD2    C211655   4.687   3.867  15.214  0.4051 -0.6343 -0.5832
  787MPD2    C311656   4.726   3.830  15.340 -0.3552 -0.4652  0.7134
  787MPD2    C411657   4.689   3.899  15.453 -0.2520 -0.0974  0.3295
  787MPD2    C511658   4.594   3.995  15.430  0.1902 -0.2281  0.9593
  787MPD2     H11659   4.710   3.807  15.127  2.4558  1.7943 -1.7146
  787MPD2    H111660   4.708   3.871  15.556  2.3523 -1.7256 -0.5992
  787MPD2    H211661   4.503   4.125  15.296 -3.4686 -2.3286  2.0350
  787MPD2    H311662   4.552   4.056  15.510  1.8423 -1.7837  3.0376
  787MPD2     N11663   0.058   3.711  15.356 -0.5430 -1.7694 -0.3020
  787MPD2    H511664   0.110   3.687  15.272  0.9369 -2.0498  0.6951
  787MPD2    N111665   4.591   4.030  15.059  0.4072  0.4659  0.4014
  787MPD2    H711666   4.541   4.119  15.055 -0.1526  0.1795  1.0299
  788MPD2     C11667   1.038   2.949   1.155 -0.4510  0.2511 -0.2690
  788MPD2    C111668   1.011   2.847   1.070 -0.0508  0.3647  0.5121
  788MPD2    C211669   0.909   2.869   0.974 -1.0683 -0.5304 -0.1414
  788MPD2    C311670   0.857   2.989   0.951  0.2196  0.3618 -0.0505
  788MPD2    C411671   0.884   3.088   1.034 -0.2064  0.7228 -0.3135
  788MPD2    C511672   0.974   3.068   1.140 -0.1990 -0.2432  0.0989
  788MPD2     H11673   0.900   2.786   0.905  0.4205  1.1450 -2.3568
  788MPD2    H111674   0.831   3.180   1.012 -0.5264  0.7938  0.7456
  788MPD2    H211675   1.115   2.945   1.232  0.5354  3.5052 -1.0689
  788MPD2    H311676   0.984   3.146   1.215 -1.0349 -0.2584  0.2235
  788MPD2     N11677   0.768   3.024   0.844  0.2274 -0.3255  0.0462
  788MPD2    H511678   0.734   3.118   0.827 -1.2985 -0.6935  1.0057
  788MPD2    N111679   1.080   2.730   1.096 -0.1505 -0.7890 -0.2700
  788MPD2    H711680   1.153   2.731   1.166 -0.3934 -0.9077 -0.0195
  789MPD2     C11681   1.931   2.072  17.424  0.8540  0.3280 -0.1011
  789MPD2    C111682   1.854   2.027  17.314 -0.3936 -0.7667  0.0507
  789MPD2    C211683   1.743   2.110  17.276 -0.2093  0.2401  0.0391
  789MPD2    C311684   1.717   2.228  17.352  0.0324  0.1727  0.0086
  789MPD2    C411685   1.790   2.260  17.465  0.2534  0.9950 -0.5764
  789MPD2    C511686   1.898   2.182  17.497 -0.1762  0.3453 -0.3153
  789MPD2     H11687   1.688   2.083  17.186  2.2674  1.3297 -1.7838
  789MPD2    H111688   1.772   2.346  17.529 -1.5405  0.2731 -0.1166
  789MPD2    H211689   2.010   2.016  17.471  1.9366  0.7094 -1.4629
  789MPD2    H311690   1.950   2.200  17.590 -2.2226 -1.1123  1.1171
  789MPD2     N11691   1.606   2.321  17.318 -0.1293 -0.0871 -0.3514
  789MPD2    H511692   1.583   2.399  17.378  1.1206  0.7978 -1.0179
  789MPD2    N111693   1.879   1.905  17.254  0.3383 -0.4053 -0.0307
  789MPD2    H711694   1.811   1.870  17.187  1.6029  0.1185 -1.5850
  790MPD2     C11695   3.307   3.779  13.568 -0.1894 -0.8759 -0.4574
  790MPD2    C111696   3.170   3.810  13.569 -0.2338 -0.5629 -0.1686
  790MPD2    C211697   3.116   3.867  13.451 -0.1670 -0.7587 -0.5378
  790MPD2    C311698   3.194   3.893  13.339  0.2823 -0.5439 -0.1185
  790MPD2    C411699   3.328   3.855  13.347  0.5509  0.3456 -0.2278
  790MPD2    C511700   3.380   3.809  13.461  0.6180  0.9912 -0.1499
  790MPD2     H11701   3.015   3.904  13.435 -0.9045 -2.3702  0.3765
  790MPD2    H111702   3.392   3.900  13.271  0.2426  0.9607 -0.1251
  790MPD2    H211703   3.354   3.729  13.652  0.0491  0.3486  0.1412
  790MPD2    H311704   3.486   3.791  13.459  0.2437 -1.5393  3.0461
  790MPD2     N11705   3.130   3.956  13.231 -0.0194  0.2827  0.0818
  790MPD2    H511706   3.029   3.963  13.242  0.0617  0.4746  0.7165
  790MPD2    N111707   3.097   3.793  13.690 -0.0784 -0.1081  0.7170
  790MPD2    H711708   3.138   3.764  13.777 -1.0736  1.6547  1.7666
  791MPD2     C11709   2.495   4.162  13.152 -0.1857 -0.4177 -0.0305
  791MPD2    C111710   2.535   4.035  13.113 -0.7070  0.3107 -0.6550
  791MPD2    C211711   2.445   3.935  13.113  0.5167  0.0820  0.5634
  791MPD2    C311712   2.317   3.962  13.148  0.4681  0.0714 -0.0419
  791MPD2    C411713   2.274   4.088  13.183 -0.5593 -0.2414  0.0012
  791MPD2    C511714   2.361   4.188  13.184  0.5943 -0.3045  0.0979
  791MPD2     H11715   2.478   3.837  13.080 -1.1931  0.3649 -2.0343
  791MPD2    H111716   2.171   4.118  13.197 -0.8116  0.0106 -2.4137
  791MPD2    H211717   2.566   4.243  13.150 -1.4345  0.7030  0.4760
  791MPD2    H311718   2.328   4.287  13.216  0.5292 -0.0038 -0.8862
  791MPD2     N11719   2.224   3.862  13.124 -0.3778  0.3934  0.6503
  791MPD2    H511720   2.264   3.775  13.091 -0.7774  0.4913 -0.1009
  791MPD2    N111721   2.669   4.028  13.069  0.4411  0.0875 -0.3136
  791MPD2    H711722   2.711   4.120  13.057  0.7129 -0.0437 -0.3603
  792MPD2     C11723   2.983   3.927  11.684 -0.4166 -0.7413 -0.7949
  792MPD2    C111724   2.924   3.973  11.572  0.7599  0.0810 -0.2436
  792MPD2    C211725   2.805   3.906  11.530 -0.5774 -0.3029  0.3821
  792MPD2    C311726   2.779   3.774  11.578 -0.2416 -0.0041  0.4742
  792MPD2    C411727   2.847   3.730  11.691  0.0690  0.3862  0.3269
  792MPD2    C511728   2.950   3.807  11.744 -0.6760 -0.0813 -0.5026
  792MPD2     H11729   2.744   3.957  11.456 -2.4573 -0.8218  1.5621
  792MPD2    H111730   2.827   3.635  11.739 -0.2294  0.4403  0.3123
  792MPD2    H211731   3.065   3.989  11.720 -1.5333  0.0573  0.3671
  792MPD2    H311732   3.015   3.771  11.822 -0.6665 -0.8997 -0.8900
  792MPD2     N11733   2.682   3.695  11.523  0.2109 -0.1645  0.6972
  792MPD2    H511734   2.679   3.599  11.555 -1.7297  0.7945  3.3733
  792MPD2    N111735   2.968   4.099  11.523 -0.2532 -0.0854  0.5191
  792MPD2    H711736   3.047   4.148  11.564  0.4217 -0.8094  0.0666
  793MPD2     C11737   2.126   3.357  10.715  0.5907 -0.6563 -0.9069
  793MPD2    C111738   2.266   3.369  10.748 -0.6494  0.2748  0.4238
  793MPD2    C211739   2.308   3.418  10.868  0.5205 -0.4360  0.1515
  793MPD2    C311740   2.217   3.461  10.966 -0.0118  0.1899  0.0508
  793MPD2    C411741   2.078   3.461  10.932 -0.2571  0.0736 -0.0317
  793MPD2    C511742   2.039   3.414  10.807  0.1806  0.2736  0.0964
  793MPD2     H11743   2.415   3.415  10.881  0.7310  1.2855 -1.1548
  793MPD2    H111744   2.004   3.509  10.996  1.1050  2.5916 -0.3585
  793MPD2    H211745   2.082   3.307  10.630  0.7791  2.0152 -2.5798
  793MPD2    H311746   1.933   3.400  10.788  0.5325 -3.8506  1.1842
  793MPD2     N11747   2.281   3.505  11.088  0.1020  0.5808  0.0022
  793MPD2    H511748   2.380   3.489  11.098 -0.3162 -0.2233  2.9112
  793MPD2    N111749   2.366   3.322  10.665  0.1477 -0.1659 -0.2049
  793MPD2    H711750   2.456   3.347  10.704  0.8566 -2.1050 -0.6295
  794MPD2     C11751   2.687   3.615   0.109  0.9786  0.4857  0.6212
  794MPD2    C111752   2.737   3.538   0.011  0.7310 -0.7684 -0.5984
  794MPD2    C211753   2.750   3.586  17.647 -0.8710  0.3279 -0.2953
  794MPD2    C311754   2.711   3.719  17.615  0.2720 -0.3034 -0.3274
  794MPD2    C411755   2.669   3.798  17.716 -0.5655 -0.5667 -0.1217
  794MPD2    C511756   2.656   3.746   0.078  0.2562  0.5277 -0.6175
  794MPD2     H11757   2.785   3.514  17.575  0.3337  1.5656 -0.9591
  794MPD2    H111758   2.642   3.902  17.703 -0.1755 -0.2175  1.7857
  794MPD2    H211759   2.666   3.582   0.210 -1.0996  3.3819  1.1473
  794MPD2    H311760   2.614   3.810   0.154  0.1448  0.0798 -0.2991
  794MPD2     N11761   2.711   3.792  17.487 -1.1403  1.0586 -0.3293
  794MPD2    H511762   2.676   3.888  17.490  2.5153  2.3351  0.9754
  794MPD2    N111763   2.756   3.397   0.022 -0.2248 -0.2255 -0.2186
  794MPD2    H711764   2.793   3.353  17.700 -2.0209 -0.1964 -1.0336
  795MPD2     C11765   0.533   0.488  14.022 -0.1173 -0.1365 -0.0349
  795MPD2    C111766   0.511   0.492  13.888  0.3993  0.0653 -0.4448
  795MPD2    C211767   0.598   0.434  13.802 -0.3425  0.0844 -0.2763
  795MPD2    C311768   0.713   0.392  13.850  0.0321  0.1061 -0.3645
  795MPD2    C411769   0.753   0.416  13.980 -0.2897 -0.1938  0.2575
  795MPD2    C511770   0.656   0.454  14.070  0.4464  0.0774  0.1364
  795MPD2     H11771   0.574   0.421  13.697 -0.2716 -2.8892  0.0748
  795MPD2    H111772   0.844   0.376  14.021 -0.1921 -0.5237 -0.2765
  795MPD2    H211773   0.456   0.518  14.093 -0.3525 -0.4540 -0.1540
  795MPD2    H311774   0.675   0.442  14.176  1.9147  3.9831  0.3394
  795MPD2     N11775   0.813   0.341  13.766 -0.3087  0.1300 -0.0344
  795MPD2    H511776   0.904   0.318  13.806 -0.1010  0.3014 -0.3999
  795MPD2    N111777   0.390   0.533  13.833  0.3985 -0.5869  0.2718
  795MPD2    H711778   0.369   0.514  13.736 -0.7381  1.3154  0.1361
  796MPD2     C11779   4.696   1.900  16.035 -0.0894 -0.1928 -0.3167
  796MPD2    C111780   0.010   1.967  16.143 -0.1241  0.2859  0.0105
  796MPD2    C211781   0.001   2.104  16.146  0.2474  0.2360 -0.1624
  796MPD2    C311782   4.678   2.171  16.044  0.7522  0.2488  0.4836
  796MPD2    C411783   4.638   2.106  15.931 -0.2797  0.8780  0.4006
  796MPD2    C511784   4.644   1.968  15.931 -1.2921  0.2508 -0.3430
  796MPD2     H11785   0.024   2.156  16.239 -0.6481 -0.1663  0.2898
  796MPD2    H111786   4.594   2.155  15.845 -3.1435  2.0877  2.5474
  796MPD2    H211787   4.692   1.791  16.041 -1.1561 -0.1262  0.2354
  796MPD2    H311788   4.616   1.899  15.852 -0.4507 -1.0143  0.4509
  796MPD2     N11789   4.665   2.310  16.062  0.2575 -0.0293 -0.2754
  796MPD2    H511790   4.695   2.354  16.148 -0.9236  2.8050 -1.3013
  796MPD2    N111791   0.063   1.882  16.250 -0.3572 -0.0478  0.6605
  796MPD2    H711792   0.048   1.784  16.229  0.7765 -0.0261 -0.2211
  797MPD2     C11793   1.276   1.645  17.499  0.7076  0.6617 -0.1374
  797MPD2    C111794   1.195   1.662  17.609  0.3512  0.2854 -1.1737
  797MPD2    C211795   1.068   1.720  17.597  0.1289 -0.3412  0.0887
  797MPD2    C311796   1.021   1.745  17.470  0.1902 -0.3334 -0.0951
  797MPD2    C411797   1.098   1.702  17.360 -0.3075  0.0706 -0.3470
  797MPD2    C511798   1.218   1.647  17.376  0.1319  0.5292 -0.0594
  797MPD2     H11799   1.023   1.736  17.694  1.0729 -0.2882  0.5240
  797MPD2    H111800   1.069   1.715  17.256  1.0329 -0.4344 -0.7796
  797MPD2    H211801   1.378   1.610  17.492  0.3375 -0.2669 -0.8785
  797MPD2    H311802   1.278   1.622  17.289 -1.4882 -1.1435 -0.6822
  797MPD2     N11803   0.905   1.814  17.442  0.4483  0.4829 -0.1392
  797MPD2    H511804   0.874   1.829  17.347 -1.7100 -1.4284  0.2693
  797MPD2    N111805   1.255   1.635  17.732  0.0851  0.0273  0.2689
  797MPD2    H711806   1.202   1.667   0.051 -1.8855  0.2420 -1.1158
  798MPD2     C11807   0.998   2.284   0.100 -0.6148  0.0335  0.3684
  798MPD2    C111808   0.947   2.158   0.065 -0.3459  0.0870 -0.8781
  798MPD2    C211809   1.007   2.047   0.118  0.4877  0.0975  0.2444
  798MPD2    C311810   1.128   2.058   0.186 -0.9551  0.5926 -0.9363
  798MPD2    C411811   1.175   2.185   0.219  0.6941 -0.0058 -0.4513
  798MPD2    C511812   1.115   2.299   0.169  0.3654  0.1302  0.6638
  798MPD2     H11813   0.957   1.954   0.093  1.0982 -0.2818  0.4277
  798MPD2    H111814   1.264   2.199   0.280 -0.7040 -0.3596  1.6636
  798MPD2    H211815   0.942   2.372   0.069 -1.7042 -0.5289  0.7631
  798MPD2    H311816   1.162   2.396   0.178  1.0054  0.0677 -1.9504
  798MPD2     N11817   1.197   1.942   0.233  0.2463  0.2613 -0.2409
  798MPD2    H511818   1.143   1.857   0.239  1.1246 -0.1497  1.7431
  798MPD2    N111819   0.836   2.135  17.747  0.3530  0.5902 -0.3394
  798MPD2    H711820   0.815   2.037  17.730  0.5151  0.4793  0.1076
  799MPD2     C11821   0.072   3.402  15.147 -0.2168  0.1095 -0.2168
  799MPD2    C111822   4.695   3.337  15.115 -0.5132 -0.3060 -0.1737
  799MPD2    C211823   4.617   3.393  15.020  0.4813  0.4634  1.8618
  799MPD2    C311824   4.643   3.519  14.975 -0.1714  0.2353 -0.1483
  799MPD2    C411825   0.016   3.586  15.006 -0.3265  0.0068  0.2563
  799MPD2    C511826   0.107   3.519  15.085 -0.1958 -0.0148 -0.3735
  799MPD2     H11827   4.534   3.337  14.979  1.4633 -0.4215  1.0637
  799MPD2    H111828   0.035   3.679  14.953  0.9122  0.3722  1.3473
  799MPD2    H211829   0.150   3.362  15.211 -1.3122  2.0448  2.2906
  799MPD2    H311830   0.206   3.562  15.093 -0.6017  1.0308 -0.9312
  799MPD2     N11831   4.567   3.577  14.868 -0.0262 -0.8569  0.0230
  799MPD2    H511832   4.600   3.670  14.845 -0.2557 -0.6784  0.4087
  799MPD2    N111833   4.669   3.204  15.161 -0.0637 -1.0301  0.1385
  799MPD2    H711834   4.586   3.167  15.115 -0.0216  0.5687 -1.2581
  800MPD2     C11835   0.829   4.559  14.344  0.4575 -0.0787 -0.1072
  800MPD2    C111836   0.951   4.502  14.373  1.2284  0.1939 -0.0703
  800MPD2    C211837   1.001   4.384  14.300  0.1397  0.2020 -0.6605
  800MPD2    C311838   0.916   4.330  14.210  0.6035 -0.1294  0.2638
  800MPD2    C411839   0.788   4.386  14.192 -0.0015 -0.1057  0.3268
  800MPD2    C511840   0.751   4.501  14.250 -0.3562  0.2831 -0.0821
  800MPD2     H11841   1.098   4.341  14.318 -0.6944 -2.0531 -1.5503
  800MPD2    H111842   0.715   4.344  14.124  1.7301 -1.9156 -0.4448
  800MPD2    H211843   0.790   4.646  14.394  0.0131 -0.0876 -0.4344
  800MPD2    H311844   0.648   4.530  14.231 -0.7762  0.4724  2.4798
  800MPD2     N11845   0.972   4.228  14.127  0.2410 -0.0330 -0.0298
  800MPD2    H511846   1.067   4.199  14.148 -0.2207 -0.7838  1.0440
  800MPD2    N111847   1.022   4.560  14.481  0.1846  0.2271  0.1433
  800MPD2    H711848   0.983   4.649  14.512 -2.4369 -1.7035  2.3832
  801MPD2     C11849   0.934   0.379  14.928 -0.4632 -0.3409  0.0999
  801MPD2    C111850   0.895   0.249  14.894  0.0278  0.6200  0.3640
  801MPD2    C211851   0.768   0.204  14.919  0.2569 -0.6515  0.2599
  801MPD2    C311852   0.668   0.289  14.958 -0.5745 -0.1389  0.0371
  801MPD2    C411853   0.711   0.419  14.988 -0.0146 -0.1718 -0.4355
  801MPD2    C511854   0.842   0.460  14.985  0.4941 -0.4373  0.1048
  801MPD2     H11855   0.744   0.099  14.907 -0.7826 -0.6159  2.1805
  801MPD2    H111856   0.642   0.491  15.030  0.8393  0.3460  0.0686
  801MPD2    H211857   1.033   0.418  14.909 -1.1308  0.4637 -1.7285
  801MPD2    H311858   0.876   0.557  15.019  1.0612 -0.4230 -0.5098
  801MPD2     N11859   0.538   0.238  14.980 -0.3225 -0.1231  0.0808
  801MPD2    H511860   0.472   0.297  15.031 -0.0351  0.3848 -0.1421
  801MPD2    N111861   0.982   0.150  14.838  0.1792  0.1761 -0.1986
  801MPD2    H711862   0.940   0.060  14.817 -0.6607  0.7391 -0.9167
  802MPD2     C11863   0.132   1.318   0.518  0.0189 -0.2189  0.2400
  802MPD2    C111864   0.015   1.265   0.475  0.0318  0.2488  0.1309
  802MPD2    C211865   0.012   1.180   0.368 -0.0871 -0.5421  0.9560
  802MPD2    C311866   0.120   1.141   0.299  0.4243 -0.9965 -0.2753
  802MPD2    C411867   0.240   1.196   0.339 -0.4333 -0.3620  0.7613
  802MPD2    C511868   0.243   1.283   0.448 -0.1932  0.1162 -0.2745
  802MPD2     H11869   4.656   1.145   0.337 -0.1039  1.0211 -0.7889
  802MPD2    H111870   0.340   1.179   0.301 -0.2163  0.5479  0.9404
  802MPD2    H211871   0.148   1.364   0.615  1.5273  0.1432 -0.1845
  802MPD2    H311872   0.337   1.308   0.497 -0.7152 -2.6922  2.1594
  802MPD2     N11873   0.108   1.047   0.200  0.0480 -0.7915 -0.3901
  802MPD2    H511874   0.017   1.002   0.199  0.4880 -1.6863  0.9717
  802MPD2    N111875   4.629   1.286   0.538 -0.2726 -0.1488 -0.1952
  802MPD2    H711876   4.556   1.226   0.501 -0.5755  1.7671 -2.6588
  803MPD2     C11877   1.031   3.181  12.425  0.2912 -0.5185 -0.4433
  803MPD2    C111878   1.105   3.283  12.489  0.3131  0.0658  0.4660
  803MPD2    C211879   1.085   3.307  12.623  0.3803  0.1304  0.0099
  803MPD2    C311880   1.006   3.221  12.692  0.0625  0.2788 -0.8878
  803MPD2    C411881   0.940   3.122  12.630  1.4478 -0.4567 -0.6520
  803MPD2    C511882   0.951   3.098  12.494  0.6199 -0.7838  0.1585
  803MPD2     H11883   1.146   3.384  12.669 -0.0589  0.3340  0.2505
  803MPD2    H111884   0.882   3.064  12.700 -1.2345  0.6267 -1.9961
  803MPD2    H211885   1.039   3.157  12.320  0.9554 -0.2740 -0.4535
  803MPD2    H311886   0.893   3.013  12.460 -0.9109  1.0213 -1.6640
  803MPD2     N11887   0.989   3.232  12.831  0.0018 -0.4662  0.4621
  803MPD2    H511888   0.933   3.164  12.880  0.4843 -0.8413  0.4955
  803MPD2    N111889   1.200   3.366  12.421 -0.3374  0.0456 -0.6041
  803MPD2    H711890   1.233   3.446  12.474  0.1239 -0.0274 -0.7861
  804MPD2     C11891   0.799   0.123  17.245  0.2630  0.0728 -0.3202
  804MPD2    C111892   0.731   0.068  17.357  0.2100 -0.4175 -0.4947
  804MPD2    C211893   0.773   0.117  17.479  1.1835 -0.7352  0.1656
  804MPD2    C311894   0.875   0.208  17.489 -0.9849 -1.0107 -0.3490
  804MPD2    C411895   0.938   0.255  17.377  0.3051 -0.1712 -0.0954
  804MPD2    C511896   0.903   0.216  17.248 -0.2573 -0.1605  0.9430
  804MPD2     H11897   0.718   0.079  17.564 -0.3869 -0.9482 -0.9337
  804MPD2    H111898   1.022   0.324  17.385 -1.4050  1.9438 -0.2969
  804MPD2    H211899   0.777   0.096  17.142 -1.1775  1.1848 -0.2953
  804MPD2    H311900   0.956   0.238  17.156 -2.7612  1.0004 -0.2475
  804MPD2     N11901   0.923   0.271  17.611  0.0531 -0.4993  0.4173
  804MPD2    H511902   1.001   0.336  17.605  2.0733 -2.9496  0.5479
  804MPD2    N111903   0.618   4.722  17.358 -0.1951  0.1984 -0.2892
  804MPD2    H711904   0.581   4.708  17.452  1.9110 -2.7414  0.1219
  805MPD2     C11905   4.466   3.827  15.911 -0.5916 -0.5641 -0.2544
  805MPD2    C111906   4.551   3.757  15.835 -0.1284 -0.2664  0.4674
  805MPD2    C211907   4.685   3.760  15.871 -0.8047 -0.3733 -0.2760
  805MPD2    C311908   4.730   3.807  15.988  0.3332 -0.0565  0.3161
  805MPD2    C411909   4.639   3.851  16.081  0.3330  0.4829 -0.1720
  805MPD2    C511910   4.512   3.862  16.038 -0.2496  0.2271  0.1136
  805MPD2     H11911   0.014   3.710  15.806  0.4537 -0.0049  0.8011
  805MPD2    H111912   4.662   3.890  16.179 -1.9602  0.1018  0.5115
  805MPD2    H211913   4.363   3.840  15.878  0.8528  1.2507 -3.9314
  805MPD2    H311914   4.436   3.898  16.105  1.1952  0.1982  1.7589
  805MPD2     N11915   0.118   3.777  16.026  0.3600 -0.3041  0.0144
  805MPD2    H511916   0.172   3.722  15.960 -0.9078 -3.8139  1.9610
  805MPD2    N111917   4.524   3.712  15.707  0.5904 -0.1602 -0.5074
  805MPD2    H711918   4.608   3.697  15.652  1.5552 -0.8330  1.1504
  806MPD2     C11919   4.558   2.720   0.342  0.4524  0.1780  0.2526
  806MPD2    C111920   4.525   2.851   0.361  0.3126 -0.0200  0.9698
  806MPD2    C211921   4.566   2.945   0.267 -0.5221  0.4603  0.1596
  806MPD2    C311922   4.660   2.909   0.171 -0.2320 -0.7416 -0.0566
  806MPD2    C411923   4.689   2.778   0.148 -0.1776  0.2131 -0.1246
  806MPD2    C511924   4.647   2.682   0.235 -0.4175  0.4565 -1.0700
  806MPD2     H11925   4.538   3.050   0.276  0.9843  0.9314 -0.6662
  806MPD2    H111926   0.017   2.758   0.067 -2.2225 -1.3561 -1.4857
  806MPD2    H211927   4.540   2.638   0.410  0.2209 -1.2063 -1.4827
  806MPD2    H311928   4.688   2.582   0.224 -1.5367 -0.1412  0.2659
  806MPD2     N11929   4.726   3.015   0.096 -0.2480 -0.0964  0.8474
  806MPD2    H511930   4.690   3.106   0.120  0.0180  0.7025 -1.7924
  806MPD2    N111931   4.431   2.882   0.467 -0.2175 -0.6663 -0.6417
  806MPD2    H711932   4.394   2.808   0.526 -1.1554 -0.1536 -0.5727
  807MPD2     C11933   4.187   3.400   1.177 -0.0070 -0.3511  0.8046
  807MPD2    C111934   4.132   3.279   1.150 -0.0800  0.1682 -0.4299
  807MPD2    C211935   4.043   3.225   1.236  0.1959 -0.0897 -0.3786
  807MPD2    C311936   4.015   3.289   1.353 -0.5449 -0.8583 -0.3057
  807MPD2    C411937   4.063   3.419   1.380  1.1864 -0.2536 -0.3635
  807MPD2    C511938   4.147   3.475   1.286 -0.2637  0.5461 -0.6581
  807MPD2     H11939   3.987   3.133   1.223  1.6852 -1.1363  0.7169
  807MPD2    H111940   4.034   3.483   1.463  0.6031 -0.9888  0.0018
  807MPD2    H211941   4.250   3.445   1.101  0.9437 -2.0690  0.5763
  807MPD2    H311942   4.189   3.573   1.307 -0.3967  0.8170 -1.6508
  807MPD2     N11943   3.914   3.221   1.432 -0.2155  0.4709 -0.0219
  807MPD2    H511944   3.872   3.140   1.388 -0.3592  0.2139  0.5924
  807MPD2    N111945   4.162   3.209   1.030 -0.1092  0.3121 -0.0539
  807MPD2    H711946   4.109   3.123   1.019 -1.9915  1.4798 -0.2151
  808MPD2     C11947   0.507   4.483  10.086 -0.0309  0.2269 -0.5096
  808MPD2    C111948   0.476   4.482  10.223  0.3375 -0.5307 -0.8807
  808MPD2    C211949   0.465   4.596  10.296 -0.7668 -0.2933 -0.4087
  808MPD2    C311950   0.492   4.717  10.230 -0.8432 -0.1219 -0.2882
  808MPD2    C411951   0.523   4.714  10.089 -0.3422  0.8479  0.1550
  808MPD2    C511952   0.530   4.598  10.014  0.1401 -0.4635 -0.0089
  808MPD2     H11953   0.448   4.589  10.403 -0.0199  1.3378 -0.1797
  808MPD2    H111954   0.536   0.067  10.038  1.2588  0.2397 -0.5673
  808MPD2    H211955   0.513   4.390  10.031  1.5906 -1.0780  1.9190
  808MPD2    H311956   0.554   4.604   9.909 -4.2381 -0.6158 -1.0299
  808MPD2     N11957   0.491   0.097  10.297  0.0356 -0.1328 -0.4634
  808MPD2    H511958   0.516   0.182  10.247  1.4312 -1.2726 -1.6778
  808MPD2    N111959   0.462   4.366  10.295 -0.2120 -0.1670 -0.7220
  808MPD2    H711960   0.438   4.380  10.393  0.1332  0.7509 -0.7621
  809MPD2     C11961   1.162   0.776  10.299  0.0272  0.0264  0.4666
  809MPD2    C111962   1.122   0.664  10.227  0.6634  0.4366  0.2838
  809MPD2    C211963   0.989   0.611  10.245  0.0047 -1.1212  0.5194
  809MPD2    C311964   0.913   0.673  10.347  0.0926  0.1002 -0.0966
  809MPD2    C411965   0.960   0.786  10.416 -0.6964  0.1053  0.1384
  809MPD2    C511966   1.088   0.837  10.393  0.1963  0.1880  0.4425
  809MPD2     H11967   0.947   0.526  10.192 -5.2957  1.6381  0.3226
  809MPD2    H111968   0.892   0.841  10.480 -1.4407 -0.0976 -0.4742
  809MPD2    H211969   1.258   0.824  10.287 -1.1780  2.3077 -0.1177
  809MPD2    H311970   1.111   0.926  10.450 -0.3158  0.0940  0.7959
  809MPD2     N11971   0.787   0.620  10.387  0.3331 -0.0643 -0.1366
  809MPD2    H511972   0.738   0.670  10.460  3.8392  2.0541  0.7609
  809MPD2    N111973   1.216   0.586  10.156 -0.6903 -0.7297  0.0616
  809MPD2    H711974   1.185   0.498  10.116  0.7357 -0.4006 -1.7529
  810MPD2     C11975   4.627   3.506  10.339 -0.0027 -0.6203 -0.2026
  810MPD2    C111976   4.494   3.539  10.358 -0.7211 -0.0057  0.3750
  810MPD2    C211977   4.461   3.652  10.424  0.2649 -0.4025  0.2215
  810MPD2    C311978   4.554   3.745  10.474  0.0128  0.5964  0.3197
  810MPD2    C411979   4.686   3.718  10.449 -0.0643 -0.2482 -0.3875
  810MPD2    C511980   4.717   3.593  10.395  0.0028  0.4596  0.0889
  810MPD2     H11981   4.356   3.679  10.435  0.5388  1.4690 -1.6958
  810MPD2    H111982   0.023   3.788  10.475  0.0782  0.4004 -2.5805
  810MPD2    H211983   4.665   3.414  10.294 -1.4305  0.3604 -3.3990
  810MPD2    H311984   0.080   3.567  10.380  0.1192  0.4691  0.8620
  810MPD2     N11985   4.521   3.873  10.531 -0.1387 -0.2509 -0.0625
  810MPD2    H511986   4.602   3.934  10.532  0.0257 -0.4399 -1.8088
  810MPD2    N111987   4.384   3.462  10.314  0.4843 -0.4738 -0.5100
  810MPD2    H711988   4.294   3.503  10.335  0.1125 -1.7258  0.3656
  811MPD2     C11989   3.654   3.624  10.213 -0.2466  0.1480 -0.0583
  811MPD2    C111990   3.787   3.646  10.243 -0.5020  0.2355  0.5945
  811MPD2    C211991   3.840   3.770  10.255  0.7710  1.1281  0.3922
  811MPD2    C311992   3.753   3.879  10.261 -0.5331  0.4874 -0.7597
  811MPD2    C411993   3.620   3.855  10.235  0.1202  0.2414 -0.2544
  811MPD2    C511994   3.568   3.729  10.213  0.3203  0.8286  0.4295
  811MPD2     H11995   3.943   3.798  10.269  0.3924  1.9160  1.5516
  811MPD2    H111996   3.548   3.936  10.228 -0.3780 -0.0815  1.1281
  811MPD2    H211997   3.623   3.522  10.193 -1.7769  0.3995  1.0182
  811MPD2    H311998   3.464   3.713  10.184  0.7092 -2.2221  0.6461
  811MPD2     N11999   3.804   4.009  10.294  0.1274 -0.1897  0.2943
  811MPD2    H512000   3.902   4.003  10.321 -0.2547 -0.4449  1.6696
  811MPD2    N112001   3.869   3.530  10.235  0.3494  0.0963  0.4135
  811MPD2    H712002   3.813   3.445  10.240 -2.5887  1.8639 -2.4273
  812MPD2     C12003   3.228   3.705  12.502  0.2164 -1.0128  0.1001
  812MPD2    C112004   3.342   3.787  12.479  0.4896  0.2145 -0.8893
  812MPD2    C212005   3.416   3.834  12.592 -0.0333  0.2577 -0.1684
  812MPD2    C312006   3.405   3.769  12.714  0.6771  0.7311  0.4631
  812MPD2    C412007   3.305   3.677  12.725 -0.7354  0.1671 -0.8421
  812MPD2    C512008   3.216   3.652  12.623 -0.6279 -0.1144 -0.2933
  812MPD2     H12009   3.485   3.916  12.578  2.2952 -1.3084  2.0650
  812MPD2    H112010   3.275   3.627  12.816  1.7880  0.7780  0.3295
  812MPD2    H212011   3.171   3.657  12.424  0.9812 -0.5890 -0.7256
  812MPD2    H312012   3.124   3.596  12.631 -0.3182 -0.6358 -0.3116
  812MPD2     N12013   3.492   3.792  12.821  0.7893  0.0326  0.0244
  812MPD2    H512014   3.564   3.862  12.799 -0.2865  1.4275  0.9363
  812MPD2    N112015   3.352   3.839  12.348 -0.0036  0.6731 -0.6681
  812MPD2    H712016   3.285   3.814  12.276  0.3275 -0.3862 -0.5995
  813MPD2     C12017   3.298   0.672  13.331 -0.3230  0.6216  0.3197
  813MPD2    C112018   3.226   0.777  13.276  0.2184  0.1960  0.1821
  813MPD2    C212019   3.148   0.857  13.359 -0.0790  0.4171  0.0276
  813MPD2    C312020   3.131   0.830  13.490 -0.2063  0.1630 -0.6297
  813MPD2    C412021   3.213   0.726  13.542  0.1738  0.1505  0.8218
  813MPD2    C512022   3.284   0.646  13.466  0.0655 -0.6211  0.4315
  813MPD2     H12023   3.086   0.939  13.323 -0.0167  0.7367  0.6534
  813MPD2    H112024   3.228   0.701  13.646  1.8782  1.3721  0.8753
  813MPD2    H212025   3.353   0.598  13.274 -0.5687  2.1847 -1.9594
  813MPD2    H312026   3.327   0.561  13.518  2.0034 -0.8567 -1.5396
  813MPD2     N12027   3.051   0.913  13.573 -0.7048  0.7486  0.1911
  813MPD2    H512028   2.982   0.978  13.537 -0.9085  0.0049 -0.7614
  813MPD2    N112029   3.257   0.813  13.141  0.1953  0.6617 -0.4188
  813MPD2    H712030   3.332   0.767  13.089 -2.4021 -2.5950 -1.2657
  814MPD2     C12031   2.947   1.981  12.701 -0.0206 -0.0595  0.3440
  814MPD2    C112032   3.027   1.965  12.589  0.4753 -0.6268  0.5737
  814MPD2    C212033   3.138   2.046  12.578 -0.0927 -0.0600 -0.4615
  814MPD2    C312034   3.171   2.140  12.670  0.0930 -0.0364  0.0135
  814MPD2    C412035   3.101   2.153  12.782  0.2642  0.1786  0.4270
  814MPD2    C512036   2.990   2.077  12.792 -0.0811  0.2168 -0.8949
  814MPD2     H12037   3.194   2.027  12.487  0.7442 -1.1131  0.2752
  814MPD2    H112038   3.137   2.213  12.865 -1.0638  2.3917 -0.5846
  814MPD2    H212039   2.857   1.928  12.729  0.5552 -0.3055  1.7322
  814MPD2    H312040   2.936   2.070  12.885 -0.5690  1.7009 -1.0762
  814MPD2     N12041   3.287   2.217  12.660  0.1222  0.4263  0.5458
  814MPD2    H512042   3.290   2.278  12.741 -0.5821 -0.8776  1.5515
  814MPD2    N112043   2.998   1.881  12.473 -0.6870  0.3736 -0.0207
  814MPD2    H712044   3.065   1.873  12.396 -1.8797  0.4207 -1.0614
  815MPD2     C12045   3.863   0.705  12.051  0.6870  0.0826 -0.1363
  815MPD2    C112046   3.786   0.631  11.955 -0.2414 -0.0494  0.0107
  815MPD2    C212047   3.660   0.588  11.994  0.0868 -0.3590 -0.0058
  815MPD2    C312048   3.607   0.608  12.122  1.4992 -0.4282 -0.6768
  815MPD2    C412049   3.682   0.684  12.208 -0.0497  0.4209 -0.6036
  815MPD2    C512050   3.810   0.722  12.175  0.5733 -0.5030 -0.1012
  815MPD2     H12051   3.602   0.529  11.925  0.8013 -1.9469  0.7495
  815MPD2    H112052   3.650   0.703  12.310  1.6232 -0.6593  0.1184
  815MPD2    H212053   3.963   0.737  12.026  0.3257  1.9301  0.7716
  815MPD2    H312054   3.864   0.785  12.245 -0.7918  1.6625 -0.9993
  815MPD2     N12055   3.475   0.552  12.153 -0.4909 -0.0581 -0.1922
  815MPD2    H512056   3.431   0.491  12.084 -1.6043  2.2279 -1.5271
  815MPD2    N112057   3.836   0.615  11.822  0.0708 -0.0611 -0.3251
  815MPD2    H712058   3.932   0.640  11.798  0.8907 -0.4092  2.6510
  816MPD2     C12059   3.925   4.724  17.538 -0.2720  0.5862  0.8315
  816MPD2    C112060   3.814   4.690  17.460  0.3263 -0.0245  0.2182
  816MPD2    C212061   3.830   4.595  17.361 -0.3518 -0.0834 -0.2068
  816MPD2    C312062   3.953   4.542  17.333 -0.0801 -0.7458 -0.1426
  816MPD2    C412063   4.052   4.562  17.427  0.4518  0.1876 -0.2111
  816MPD2    C512064   4.043   4.657  17.523 -0.1291  0.7997  0.0517
  816MPD2     H12065   3.751   4.575  17.290  0.3754  0.9087 -1.3062
  816MPD2    H112066   4.144   4.506  17.416 -0.4700 -0.8311 -2.7046
  816MPD2    H212067   3.927   0.053  17.621  2.3425  2.7018 -1.0304
  816MPD2    H312068   4.127   4.693  17.580 -0.3242  2.1904 -0.5385
  816MPD2     N12069   3.963   4.451  17.219  0.1001  0.2141  0.3785
  816MPD2    H512070   3.882   4.446  17.158  0.0733 -1.2717  0.5177
  816MPD2    N112071   3.700   0.031  17.473  0.4214 -0.2670 -0.1315
  816MPD2    H712072   3.698   0.112  17.534 -0.2016 -0.1326 -0.3332
  817MPD2     C12073   2.593   0.878   9.719  0.1318  0.0630 -0.1385
  817MPD2    C112074   2.619   0.852   9.589 -0.1815 -0.0345  0.3766
  817MPD2    C212075   2.551   0.915   9.492  0.3250 -0.5131 -0.2040
  817MPD2    C312076   2.464   1.016   9.519  1.1002 -0.3314 -0.8379
  817MPD2    C412077   2.436   1.046   9.648 -0.1859 -0.4165 -0.1209
  817MPD2    C512078   2.499   0.977   9.745  0.4561 -0.5415  0.6009
  817MPD2     H12079   2.568   0.900   9.386  1.5015 -1.1981  0.0837
  817MPD2    H112080   2.367   1.119   9.687 -0.2658 -0.3723 -0.3467
  817MPD2    H212081   2.653   0.846   9.803 -0.2403 -2.4989 -0.8659
  817MPD2    H312082   2.471   1.007   9.845  0.3319  1.2056  0.0362
  817MPD2     N12083   2.401   1.078   9.410 -0.7862 -0.6249 -1.0481
  817MPD2    H512084   2.408   1.019   9.327  1.6633 -0.9263 -0.6263
  817MPD2    N112085   2.721   0.760   9.555  0.0303 -0.0422 -0.0470
  817MPD2    H712086   2.724   0.727   9.459  4.0591  2.4578 -0.7800
  818MPD2     C12087   1.850   1.263  10.576  1.0829  0.4073 -0.2036
  818MPD2    C112088   1.749   1.172  10.597  0.2202 -0.2086 -0.1247
  818MPD2    C212089   1.763   1.047  10.541 -0.3496  0.0528 -0.4754
  818MPD2    C312090   1.878   1.003  10.481 -0.7703 -0.4445  1.5365
  818MPD2    C412091   1.974   1.091  10.452 -0.1521  0.8386 -0.9679
  818MPD2    C512092   1.962   1.217  10.503 -0.9919 -1.1037 -0.0712
  818MPD2     H12093   1.681   0.978  10.560 -1.1150  1.0218 -0.2435
  818MPD2    H112094   2.064   1.066  10.398  0.6941  2.1704 -0.1554
  818MPD2    H212095   1.857   1.365  10.612 -1.5740 -0.2541  2.1874
  818MPD2    H312096   2.049   1.281  10.493 -0.8222 -1.4487 -0.8085
  818MPD2     N12097   1.897   0.869  10.445  0.5907  0.1983  0.4995
  818MPD2    H512098   1.989   0.853  10.406  0.8776  1.5948  0.5863
  818MPD2    N112099   1.638   1.202  10.680  0.1345  0.4273 -0.8136
  818MPD2    H712100   1.555   1.144  10.678  1.0119 -0.8710 -0.0941
  819MPD2     C12101   0.624   3.062  15.637  0.7059  0.1213 -0.8127
  819MPD2    C112102   0.628   2.934  15.671  0.2677 -0.7457 -0.0515
  819MPD2    C212103   0.721   2.897  15.769  0.2651  0.1031 -0.1751
  819MPD2    C312104   0.823   2.980  15.808  0.4986 -0.9331  0.1759
  819MPD2    C412105   0.833   3.103  15.749 -0.1050 -0.2751  0.3306
  819MPD2    C512106   0.731   3.145  15.666 -0.8928 -0.3796  0.7324
  819MPD2     H12107   0.705   2.805  15.825 -1.1487  0.9103  0.7548
  819MPD2    H112108   0.912   3.172  15.777  0.3102  0.0270 -1.5730
  819MPD2    H212109   0.552   3.103  15.566 -0.3527  2.0635  1.3708
  819MPD2    H312110   0.740   3.246  15.629  1.8518 -1.1410 -0.7562
  819MPD2     N12111   0.922   2.947  15.907  0.0204  0.1065 -0.4408
  819MPD2    H512112   0.994   3.013  15.933  0.6527 -1.0512  0.7650
  819MPD2    N112113   0.512   2.859  15.631 -0.0335 -0.6911  0.1746
  819MPD2    H712114   0.448   2.900  15.564 -0.0462  0.3050  0.7925
  820MPD2     C12115   4.338   3.004  15.396  0.3983 -0.0638 -1.1254
  820MPD2    C112116   4.442   3.075  15.445  0.0961  0.2787  0.0051
  820MPD2    C212117   4.538   3.004  15.519  0.7095  0.0395  0.5991
  820MPD2    C312118   4.537   2.868  15.518 -0.7285 -0.4012  0.1646
  820MPD2    C412119   4.436   2.795  15.463  0.0803 -0.0528  0.2145
  820MPD2    C512120   4.338   2.869  15.399  0.2008  0.1502  0.4130
  820MPD2     H12121   4.613   3.055  15.578  0.2241  1.7476 -0.2631
  820MPD2    H112122   4.417   2.689  15.459 -2.5506  0.3768  1.0404
  820MPD2    H212123   4.259   3.052  15.339  1.4113  1.7194 -1.0098
  820MPD2    H312124   4.267   2.815  15.338 -0.3279  2.0264 -0.6146
  820MPD2     N12125   4.639   2.789  15.570 -0.2074  0.2955 -0.3952
  820MPD2    H512126   4.640   2.688  15.557 -1.2980  0.3554 -0.9393
  820MPD2    N112127   4.442   3.213  15.435 -0.2960  0.0811 -0.1147
  820MPD2    H712128   4.367   3.260  15.386 -1.0623 -1.4550 -0.4119
  821MPD2     C12129   0.802   3.682  13.471 -0.8073 -0.3675 -0.0359
  821MPD2    C112130   0.931   3.736  13.460  1.0338  0.1517 -0.3292
  821MPD2    C212131   0.994   3.742  13.330 -0.4984  0.8353  0.3672
  821MPD2    C312132   0.934   3.687  13.221  0.3869 -0.0713  0.4005
  821MPD2    C412133   0.808   3.634  13.239 -0.1639  0.0813 -0.3268
  821MPD2    C512134   0.746   3.626  13.359 -0.0300  0.3407  0.3260
  821MPD2     H12135   1.082   3.805  13.330 -0.1047  0.2802  0.2729
  821MPD2    H112136   0.749   3.589  13.160 -0.2020  0.1411 -0.3320
  821MPD2    H212137   0.753   3.676  13.567  0.3958  1.5486  0.7010
  821MPD2    H312138   0.655   3.568  13.367 -0.9224  1.6901 -0.2073
  821MPD2     N12139   0.980   3.702  13.094  0.1207  0.1790  0.0478
  821MPD2    H512140   0.905   3.686  13.028 -1.2641  2.4949  1.0558
  821MPD2    N112141   0.993   3.813  13.566 -0.0981  0.2937 -0.6562
  821MPD2    H712142   1.072   3.872  13.546 -0.1287  0.2770 -0.8326
  822MPD2     C12143   1.587   4.334  15.945  0.4203  0.0362  0.4737
  822MPD2    C112144   1.506   4.293  16.047  0.1801  0.4717 -0.2784
  822MPD2    C212145   1.400   4.371  16.092 -0.1269  0.1058 -0.8171
  822MPD2    C312146   1.380   4.497  16.044  0.3487 -0.4540  0.0526
  822MPD2    C412147   1.469   4.540  15.950  0.1540 -0.1380 -0.3336
  822MPD2    C512148   1.568   4.459  15.895 -0.2102 -1.1670 -0.1233
  822MPD2     H12149   1.335   4.326  16.167  0.6736  0.5261  0.1361
  822MPD2    H112150   1.452   4.638  15.908  2.1653  1.0408  1.5995
  822MPD2    H212151   1.662   4.270  15.901 -0.8358 -1.0806 -0.0509
  822MPD2    H312152   1.637   4.494  15.820 -0.5430 -1.5952 -0.6249
  822MPD2     N12153   1.284   4.575  16.112 -0.1348 -0.5465  0.2010
  822MPD2    H512154   1.215   4.520  16.162  0.6785 -1.8676 -0.1151
  822MPD2    N112155   1.532   4.178  16.130  0.3060  0.5580 -0.1311
  822MPD2    H712156   1.467   4.171  16.208 -0.0810  0.5079 -0.4556
  823MPD2     C12157   0.713   4.692  16.704 -0.2027  0.0422 -0.0404
  823MPD2    C112158   0.813   4.641  16.633  0.2239  0.2145  1.1773
  823MPD2    C212159   0.888   4.541  16.691 -0.7129 -0.0080  0.2898
  823MPD2    C312160   0.858   4.491  16.816 -0.3074  0.6769  0.2343
  823MPD2    C412161   0.750   4.534  16.888  0.0260  0.4190 -0.1163
  823MPD2    C512162   0.685   4.639  16.828 -0.1912  1.1081 -0.4278
  823MPD2     H12163   0.967   4.498  16.630  0.2887 -2.7292  3.5569
  823MPD2    H112164   0.720   4.500  16.986  1.7528 -0.1995  0.1983
  823MPD2    H212165   0.659   0.030  16.654 -1.2208  0.9891  2.5473
  823MPD2    H312166   0.597   4.677  16.879 -0.9026 -2.0511  0.7052
  823MPD2     N12167   0.929   4.388  16.877  0.1205 -0.1927  0.3836
  823MPD2    H512168   0.898   4.369  16.972  1.2961 -1.9809  0.4021
  823MPD2    N112169   0.853   4.706  16.507  0.5800  0.2824  0.3435
  823MPD2    H712170   0.801   0.050  16.486 -0.8294 -0.9065 -1.0042
  824MPD2     C12171   2.107   3.521  16.321 -0.3933  0.0104  0.5574
  824MPD2    C112172   2.038   3.568  16.213  0.7094 -0.1303  0.1707
  824MPD2    C212173   2.095   3.554  16.089  0.4482  1.4456  0.0168
  824MPD2    C312174   2.210   3.486  16.067  0.8690 -0.1154  0.7331
  824MPD2    C412175   2.279   3.440  16.179 -0.1641  0.2663 -1.2464
  824MPD2    C512176   2.224   3.445  16.305 -1.0917 -0.0119 -0.0732
  824MPD2     H12177   2.052   3.606  16.004 -1.3662  0.3648  0.2954
  824MPD2    H112178   2.372   3.385  16.183 -1.6402 -2.2457 -2.1659
  824MPD2    H212179   2.076   3.535  16.424 -0.9254  1.7485  0.1419
  824MPD2    H312180   2.260   3.390  16.391  0.9051  0.2697 -0.7292
  824MPD2     N12181   2.252   3.454  15.936  0.1436 -0.7168 -0.0398
  824MPD2    H512182   2.197   3.492  15.859 -0.8005  0.1305  1.0497
  824MPD2    N112183   1.931   3.660  16.224 -0.2337 -1.0870  0.5393
  824MPD2    H712184   1.888   3.691  16.137  0.7612 -0.6711  0.1885
  825MPD2     C12185   2.786   3.559  15.286 -0.0675 -0.2181  0.1616
  825MPD2    C112186   2.663   3.601  15.338  0.5379 -0.5092 -0.5017
  825MPD2    C212187   2.633   3.740  15.329  0.5558  0.1799 -0.4500
  825MPD2    C312188   2.719   3.831  15.267 -0.6612  0.0383 -0.1887
  825MPD2    C412189   2.840   3.788  15.219  0.1904 -0.0056  0.2540
  825MPD2    C512190   2.869   3.651  15.222  0.0750 -0.0042  0.3873
  825MPD2     H12191   2.543   3.784  15.369  0.4671 -0.6605  0.2784
  825MPD2    H112192   2.915   3.853  15.176 -0.3710 -0.0633 -0.8217
  825MPD2    H212193   2.814   3.455  15.279  2.6768  0.6585 -2.0939
  825MPD2    H312194   2.968   3.617  15.193 -0.0724  1.7744 -2.1523
  825MPD2     N12195   2.696   3.968  15.269 -0.1976 -0.4294 -0.1823
  825MPD2    H512196   2.747   4.023  15.201  0.8451  2.0238  2.5746
  825MPD2    N112197   2.587   3.505  15.404 -0.1376 -0.2150 -0.7316
  825MPD2    H712198   2.631   3.413  15.401 -1.9118 -1.0898  0.1636
  826MPD2     C12199   1.763   4.183  13.902 -0.6994 -0.5090  0.4064
  826MPD2    C112200   1.884   4.191  13.835  0.8367  0.5455  0.8415
  826MPD2    C212201   1.936   4.318  13.810  0.0795  0.3958  0.2354
  826MPD2    C312202   1.884   4.434  13.861  0.1318 -0.9162  0.0207
  826MPD2    C412203   1.771   4.421  13.939  0.1300  0.1642  0.4673
  826MPD2    C512204   1.713   4.300  13.958  0.2783 -0.0402 -0.1913
  826MPD2     H12205   2.022   4.331  13.745  1.0008 -1.2706  1.1181
  826MPD2    H112206   1.725   4.509  13.981 -0.3593 -0.5437  1.4050
  826MPD2    H212207   1.711   4.094  13.936 -0.2961 -0.1199  2.0443
  826MPD2    H312208   1.622   4.287  14.015  0.0601  2.3528  0.0022
  826MPD2     N12209   1.940   4.562  13.836  0.1412  0.6011 -0.3927
  826MPD2    H512210   1.883   4.644  13.855 -1.6807 -0.9923  0.8593
  826MPD2    N112211   1.943   4.070  13.778 -0.7608  0.1879  0.0472
  826MPD2    H712212   1.893   3.983  13.790 -0.6623  0.1174 -0.0638
  827MPD2     C12213   2.908   4.525  10.213 -0.0222  0.1217 -0.0608
  827MPD2    C112214   2.785   4.545  10.260 -0.3265 -0.6817  0.3563
  827MPD2    C212215   2.683   4.470  10.208 -0.3564 -1.1563 -0.1600
  827MPD2    C312216   2.715   4.371  10.119  0.0194 -0.3808 -0.4226
  827MPD2    C412217   2.843   4.355  10.069  0.4237 -0.3663  1.0171
  827MPD2    C512218   2.943   4.438  10.113  0.1868 -0.1767  0.1731
  827MPD2     H12219   2.579   4.476  10.239 -0.2075  0.3427  0.0568
  827MPD2    H112220   2.870   4.275  10.000  0.9766  0.8023 -0.1225
  827MPD2    H212221   2.991   4.583  10.253 -1.6930  2.3038  0.2466
  827MPD2    H312222   3.045   4.430  10.076 -0.1252  0.1785 -0.7409
  827MPD2     N12223   2.617   4.280  10.086 -0.1351 -0.0357 -0.2961
  827MPD2    H512224   2.541   4.261  10.151  0.2616 -0.1659  0.1313
  827MPD2    N112225   2.764   4.646  10.355 -0.6063 -0.7487 -0.2309
  827MPD2    H712226   2.850   4.696  10.377 -0.3593 -1.4463  0.3903
  828MPD2     C12227   1.064   4.323  12.459  0.2778 -0.4905  0.1427
  828MPD2    C112228   1.011   4.443  12.420 -0.2172  0.3242 -0.0631
  828MPD2    C212229   1.100   4.542  12.392 -0.3192 -0.2915  0.1538
  828MPD2    C312230   1.240   4.529  12.401  0.3377  0.5053  0.2429
  828MPD2    C412231   1.287   4.404  12.409 -0.4813  0.1225 -0.0521
  828MPD2    C512232   1.193   4.300  12.435 -0.1993  0.0345  0.0421
  828MPD2     H12233   1.052   4.633  12.359 -0.1096 -0.0573  0.4980
  828MPD2    H112234   1.395   4.389  12.406 -0.4653  0.7253 -2.4347
  828MPD2    H212235   1.007   4.246  12.509 -0.7426  1.4986  2.0155
  828MPD2    H312236   1.234   4.202  12.460 -0.7871 -0.6170 -1.5880
  828MPD2     N12237   1.327   4.637  12.367 -0.2344  0.1951 -0.6352
  828MPD2    H512238   1.415   4.624  12.318 -0.4221  1.9838 -1.4492
  828MPD2    N112239   0.884   4.491  12.449 -0.6522 -0.0096 -0.1668
  828MPD2    H712240   0.866   4.590  12.434  0.1685  0.0815 -0.5973
  829MPD2     C12241   0.716   0.500  12.214  0.0072  0.0283  0.2884
  829MPD2    C112242   0.582   0.461  12.239 -0.2881  0.7435 -0.1187
  829MPD2    C212243   0.563   0.346  12.315 -0.3114  0.0231  0.3093
  829MPD2    C312244   0.673   0.263  12.344 -1.5473 -0.6424  0.5451
  829MPD2    C412245   0.795   0.293  12.300  0.3379 -0.4042 -0.4104
  829MPD2    C512246   0.816   0.419  12.252 -0.0982 -0.9381  0.3155
  829MPD2     H12247   0.468   0.311  12.355 -0.7714 -0.1702 -0.9536
  829MPD2    H112248   0.885   0.235  12.317  0.3311  0.1034  1.4504
  829MPD2    H212249   0.744   0.599  12.179 -0.9094 -0.8260 -2.8058
  829MPD2    H312250   0.922   0.441  12.242 -0.4537 -0.6926 -2.9022
  829MPD2     N12251   0.661   0.140  12.417  0.1184 -0.2015 -0.2422
  829MPD2    H512252   0.747   0.087  12.425 -0.1380 -0.6614 -0.5530
  829MPD2    N112253   0.474   0.550  12.197 -0.5459  0.1886 -0.4066
  829MPD2    H712254   0.504   0.639  12.158  0.5978  0.7428  1.7471
  830MPD2     C12255   1.664   2.727  16.024  0.1088 -0.2112  0.4276
  830MPD2    C112256   1.598   2.844  16.009 -0.1873  0.1661 -0.0881
  830MPD2    C212257   1.640   2.928  15.906  0.6919 -0.0939  0.2471
  830MPD2    C312258   1.749   2.896  15.830 -0.3643  1.0101 -0.0326
  830MPD2    C412259   1.819   2.776  15.854 -0.0925  0.3378  0.1915
  830MPD2    C512260   1.776   2.693  15.949 -0.0312  0.5957 -0.3321
  830MPD2     H12261   1.583   3.015  15.877 -2.3301 -1.1225  3.1181
  830MPD2    H112262   1.907   2.738  15.803 -0.3505  0.5370 -0.4027
  830MPD2    H212263   1.632   2.654  16.098 -2.2772 -2.7392 -3.0762
  830MPD2    H312264   1.823   2.597  15.969  1.4120  1.2774 -0.4550
  830MPD2     N12265   1.797   2.984  15.735 -0.7367 -0.0051  0.0936
  830MPD2    H512266   1.868   2.947  15.673 -1.3444  0.1890 -0.7170
  830MPD2    N112267   1.480   2.855  16.084 -0.2352 -0.2978 -0.5334
  830MPD2    H712268   1.468   2.775  16.146 -0.3965 -0.8123 -1.2376
  831MPD2     C12269   1.438   4.703  16.495  0.4410  0.7758 -0.6616
  831MPD2    C112270   1.485   4.594  16.423  0.4627 -0.3507  0.6485
  831MPD2    C212271   1.428   4.467  16.432 -0.3011 -0.3025 -0.0212
  831MPD2    C312272   1.304   4.453  16.499 -0.0485  0.0440 -0.0310
  831MPD2    C412273   1.259   4.563  16.573  0.6036 -0.4138 -0.1664
  831MPD2    C512274   1.317   4.687  16.569  0.4081  0.2637 -0.5484
  831MPD2     H12275   1.466   4.380  16.379 -2.0869 -1.1162  0.0299
  831MPD2    H112276   1.177   4.556  16.643  1.5269  0.4008  0.9859
  831MPD2    H212277   1.495   0.054  16.498  2.5308 -0.5503  0.2217
  831MPD2    H312278   1.272   0.031  16.618 -0.3740  0.3122 -1.3380
  831MPD2     N12279   1.226   4.329  16.496  0.4440 -0.8355 -0.2793
  831MPD2    H512280   1.140   4.332  16.550  1.8421  1.6741  1.8192
  831MPD2    N112281   1.609   4.621  16.361  0.6578 -0.5260  0.3609
  831MPD2    H712282   1.629   4.720  16.351  0.4794 -0.4232  1.0116
  832MPD2     C12283   4.516   0.774  17.316 -0.9845  0.2051  0.3326
  832MPD2    C112284   4.500   0.897  17.252  0.4245  0.2922 -0.5667
  832MPD2    C212285   4.389   0.915  17.170  0.3616  0.4564  0.3796
  832MPD2    C312286   4.300   0.810  17.155  1.3273 -0.2172 -0.1942
  832MPD2    C412287   4.309   0.691  17.219  0.4438 -0.0040 -0.5263
  832MPD2    C512288   4.422   0.673  17.293 -0.3093 -0.1441 -0.3520
  832MPD2     H12289   4.373   1.014  17.129  1.9535  0.5268 -0.0663
  832MPD2    H112290   4.230   0.618  17.209 -0.6439  0.9464  1.1980
  832MPD2    H212291   4.598   0.763  17.386 -0.2193 -2.1435 -0.9277
  832MPD2    H312292   4.443   0.585  17.352  0.2858 -0.3196 -0.8236
  832MPD2     N12293   4.194   0.828  17.065  0.5920 -0.6921 -0.4256
  832MPD2    H512294   4.129   0.751  17.056  0.5221 -0.5653 -0.9772
  832MPD2    N112295   4.614   0.989  17.251 -0.6609  0.4355  0.1118
  832MPD2    H712296   4.689   0.966  17.316 -0.4171 -1.3116 -0.7863
  833MPD2     C12297   1.760   3.042  12.818  0.1309 -0.0485  0.2339
  833MPD2    C112298   1.694   3.025  12.700 -0.7742  0.9897 -0.6385
  833MPD2    C212299   1.750   2.940  12.612 -0.7117 -0.0847 -0.1948
  833MPD2    C312300   1.865   2.866  12.639  0.3761 -0.3844 -0.7854
  833MPD2    C412301   1.936   2.881  12.749  0.7465 -0.0868 -0.2997
  833MPD2    C512302   1.880   2.973  12.834  0.0695  0.1416  0.3708
  833MPD2     H12303   1.693   2.920  12.522 -0.5174  1.4167 -0.6469
  833MPD2    H112304   2.024   2.821  12.771  1.0509  0.2481 -0.5979
  833MPD2    H212305   1.724   3.113  12.891 -1.2990  0.2058 -0.7205
  833MPD2    H312306   1.926   2.994  12.930 -0.8791  0.8255  0.6878
  833MPD2     N12307   1.903   2.754  12.555 -0.1343 -0.2713 -0.1296
  833MPD2    H512308   1.976   2.695  12.592 -0.0124  1.1158  1.8070
  833MPD2    N112309   1.570   3.092  12.677  0.1695 -0.8162 -0.0104
  833MPD2    H712310   1.512   3.119  12.756  0.6859  2.6106 -0.7825
  834MPD2     C12311   1.782   1.753  12.475  0.1644  0.1925  0.0025
  834MPD2    C112312   1.722   1.787  12.358 -0.3765  0.1755 -0.0276
  834MPD2    C212313   1.725   1.922  12.316 -0.0648 -0.1370  0.1515
  834MPD2    C312314   1.760   2.024  12.407  0.6433 -0.5516 -0.3103
  834MPD2    C412315   1.812   1.984  12.527 -0.0162 -0.5533 -0.2325
  834MPD2    C512316   1.826   1.847  12.563 -0.0568 -0.4763 -0.1037
  834MPD2     H12317   1.719   1.950  12.212  0.1584  0.1251  0.2093
  834MPD2    H112318   1.855   2.053  12.599 -0.5168 -0.9696  0.4586
  834MPD2    H212319   1.776   1.654  12.519  0.2055 -0.2483 -0.9955
  834MPD2    H312320   1.860   1.825  12.664  2.6968 -1.3631 -1.2317
  834MPD2     N12321   1.779   2.155  12.357  0.0248 -0.0108 -0.3377
  834MPD2    H512322   1.774   2.173  12.258 -2.7406 -1.1658 -0.4120
  834MPD2    N112323   1.690   1.672  12.276  0.1393  0.0397 -0.6585
  834MPD2    H712324   1.694   1.580  12.319 -0.5535 -0.1280 -0.9650
  835MPD2     C12325   1.670   0.236  11.528 -0.1406  0.8732  0.1469
  835MPD2    C112326   1.579   0.328  11.566 -0.2802 -0.1440  0.2725
  835MPD2    C212327   1.597   0.390  11.684  0.7467  0.6123  0.2798
  835MPD2    C312328   1.713   0.379  11.760 -0.2627  0.8591 -0.3913
  835MPD2    C412329   1.800   0.284  11.719 -0.0737 -0.4101 -0.7168
  835MPD2    C512330   1.774   0.207  11.613 -0.7903  0.3652  0.7806
  835MPD2     H12331   1.524   0.467  11.710 -1.8059 -1.4296 -0.8454
  835MPD2    H112332   1.897   0.268  11.764 -0.1653  0.8454 -0.0800
  835MPD2    H212333   1.664   0.180  11.435 -2.4702  0.2785  0.6641
  835MPD2    H312334   1.852   0.146  11.570 -0.3913  0.7725  0.9190
  835MPD2     N12335   1.738   0.448  11.881 -0.2961  0.1762 -0.2342
  835MPD2    H512336   1.817   0.428  11.940 -0.2266 -0.5913 -0.5912
  835MPD2    N112337   1.467   0.356  11.485 -0.6062 -0.3245 -0.2845
  835MPD2    H712338   1.402   0.417  11.533  0.7797 -0.4482  1.7363
  836MPD2     C12339   1.140   0.670  12.354 -0.2646  0.4973  0.1874
  836MPD2    C112340   1.263   0.605  12.389 -0.6850 -0.1885  0.2650
  836MPD2    C212341   1.260   0.495  12.475 -0.6975 -0.1973  0.3411
  836MPD2    C312342   1.135   0.453  12.528  0.0312 -0.2025 -1.0218
  836MPD2    C412343   1.023   0.520  12.501  0.1635  0.3361 -0.1759
  836MPD2    C512344   1.029   0.629  12.415 -0.1232 -0.1389 -0.5066
  836MPD2     H12345   1.347   0.434  12.496  0.9081  1.9539 -0.1238
  836MPD2    H112346   0.923   0.501  12.538 -0.0422 -2.1144 -2.0262
  836MPD2    H212347   1.136   0.752  12.284  1.1762  0.2745 -0.1641
  836MPD2    H312348   0.938   0.683  12.391 -0.6895 -0.4951  0.8340
  836MPD2     N12349   1.121   0.344  12.627  0.5255  0.4644  0.2267
  836MPD2    H512350   1.028   0.316  12.655  0.1725  0.6174 -0.7821
  836MPD2    N112351   1.387   0.645  12.319 -0.3532  0.4079 -0.2624
  836MPD2    H712352   1.375   0.719  12.250 -0.0466  0.2839 -0.4484
  837MPD2     C12353   4.450   4.471  10.315  0.3978 -0.2124 -0.7145
  837MPD2    C112354   4.346   4.516  10.389 -0.1118 -0.1575  0.1282
  837MPD2    C212355   4.346   4.634  10.455 -0.1721  0.0318 -0.5450
  837MPD2    C312356   4.460   4.715  10.443  0.1779 -0.3254 -0.1440
  837MPD2    C412357   4.576   4.665  10.384 -0.6060 -0.1331 -0.5154
  837MPD2    C512358   4.563   4.545  10.303  0.0753 -0.2232 -0.3304
  837MPD2     H12359   4.260   4.668  10.510  2.2950  1.5289  2.3809
  837MPD2    H112360   4.672   4.714  10.376 -2.2136  3.1679  0.3266
  837MPD2    H212361   4.445   4.378  10.261  0.8151 -1.1516  0.8592
  837MPD2    H312362   4.653   4.508  10.256  0.2446 -2.4184  1.7218
  837MPD2     N12363   4.449   0.100  10.508 -0.2763 -0.3508 -0.7697
  837MPD2    H512364   4.358   0.130  10.542  0.5773  0.7724  0.5191
  837MPD2    N112365   4.221   4.458  10.393 -0.3860  0.3847 -0.1012
  837MPD2    H712366   4.145   4.506  10.439 -1.0026  0.2999 -1.0227
  838MPD2     C12367   3.149   2.976  12.221 -0.1513 -0.1470 -0.0917
  838MPD2    C112368   3.116   2.842  12.232  0.7757 -0.1758  0.0426
  838MPD2    C212369   3.038   2.800  12.340  0.2272  0.1061 -0.5364
  838MPD2    C312370   2.991   2.894  12.432 -0.1080  0.2796  0.2781
  838MPD2    C412371   3.035   3.027  12.433 -0.2909 -0.2912  0.2707
  838MPD2    C512372   3.112   3.066  12.325  0.4727  0.2482  0.6238
  838MPD2     H12373   2.997   2.699  12.343 -0.7743  0.5629  1.2997
  838MPD2    H112374   3.013   3.109  12.499 -0.5316 -0.5310  0.4858
  838MPD2    H212375   3.207   3.017  12.140  1.3333  0.8132  1.4481
  838MPD2    H312376   3.162   3.162  12.322 -0.9689  1.0544  2.4201
  838MPD2     N12377   2.890   2.848  12.520  0.2260  0.2721  0.2058
  838MPD2    H512378   2.873   2.748  12.526  0.9882  0.1779  0.7537
  838MPD2    N112379   3.147   2.738  12.139 -0.1115  0.2164 -0.2071
  838MPD2    H712380   3.098   2.651  12.160  2.1227 -0.7869  0.7929
  839MPD2     C12381   2.737   2.050  12.244  0.2044  0.6430 -0.1283
  839MPD2    C112382   2.751   2.061  12.103  0.6769  0.7600  0.2238
  839MPD2    C212383   2.845   2.142  12.047 -0.8700 -0.4326 -0.0285
  839MPD2    C312384   2.949   2.201  12.125  0.4487 -0.1415 -0.4633
  839MPD2    C412385   2.938   2.188  12.260  0.2322 -0.1319 -0.4667
  839MPD2    C512386   2.835   2.119  12.319 -0.3123 -0.0115  0.1103
  839MPD2     H12387   2.855   2.156  11.940  0.8632  1.8706  0.4141
  839MPD2    H112388   3.013   2.237  12.322 -0.1290  1.3567 -1.2115
  839MPD2    H212389   2.660   1.994  12.295 -1.2267  2.1163 -0.6599
  839MPD2    H312390   2.848   2.110  12.426 -1.3058  2.7615  0.4765
  839MPD2     N12391   3.054   2.280  12.077 -0.1124 -0.6960  0.3779
  839MPD2    H512392   3.116   2.325  12.144 -0.8344  2.3605 -1.0186
  839MPD2    N112393   2.666   1.997  12.015  0.3119 -0.0025 -0.1189
  839MPD2    H712394   2.682   2.007  11.916  1.1778  0.8543  0.1144
  840MPD2     C12395   3.044   0.425  10.255 -0.5789  0.0549 -0.5793
  840MPD2    C112396   3.042   0.411  10.394 -0.1978  0.0004 -0.1160
  840MPD2    C212397   3.127   0.495  10.466  0.9887  0.5215 -0.4942
  840MPD2    C312398   3.210   0.585  10.405  0.5398  0.0730 -0.0089
  840MPD2    C412399   3.204   0.605  10.266 -0.5614  0.4677 -0.6720
  840MPD2    C512400   3.119   0.520  10.196 -0.3841  0.1022 -0.1468
  840MPD2     H12401   3.134   0.471  10.572 -2.8347  0.5853 -0.2175
  840MPD2    H112402   3.273   0.665  10.208 -1.1105  1.7819  0.0339
  840MPD2    H212403   2.990   0.356  10.191 -0.4798  0.0921 -0.7025
  840MPD2    H312404   3.104   0.529  10.089  0.1641 -0.0118 -0.2361
  840MPD2     N12405   3.293   0.672  10.486 -0.4758  0.4662  0.1283
  840MPD2    H512406   3.341   0.748  10.440 -0.9864  1.6134  1.4955
  840MPD2    N112407   2.949   0.320  10.452  0.4511  0.3247  0.0242
  840MPD2    H712408   2.901   0.261  10.385  0.7632  0.5075 -0.3685
  841MPD2     C12409   3.213   0.425  14.977  0.3531  0.3586  0.4786
  841MPD2    C112410   3.269   0.335  14.892  0.5488  0.3647  0.0009
  841MPD2    C212411   3.371   0.376  14.808  0.4169  0.4859  0.4012
  841MPD2    C312412   3.423   0.502  14.807  0.2601 -0.1190 -0.4797
  841MPD2    C412413   3.364   0.591  14.895  0.7705 -0.2722 -0.0124
  841MPD2    C512414   3.265   0.552  14.973 -0.6475 -0.0547 -0.3761
  841MPD2     H12415   3.419   0.308  14.738 -0.9700 -0.8971  0.7725
  841MPD2    H112416   3.394   0.695  14.906  1.0916 -0.3069 -0.5825
  841MPD2    H212417   3.130   0.401  15.043  0.5996  0.0065  0.6603
  841MPD2    H312418   3.222   0.628  15.037  1.2697  1.0772 -0.4151
  841MPD2     N12419   3.528   0.533  14.715 -0.5979 -0.6053 -0.6403
  841MPD2    H512420   3.554   0.459  14.651 -0.4436 -2.3781  1.4366
  841MPD2    N112421   3.221   0.204  14.883 -0.6205 -0.2014 -0.2967
  841MPD2    H712422   3.271   0.150  14.814  0.1024  1.3057 -0.9415
  842MPD2     C12423   3.568   1.094  16.735 -0.1604 -0.2420  0.1216
  842MPD2    C112424   3.455   1.016  16.743  0.2212 -0.5768 -0.0559
  842MPD2    C212425   3.429   0.928  16.847  0.1903 -0.1950  0.1883
  842MPD2    C312426   3.514   0.924  16.953 -0.0227  0.4414 -0.7274
  842MPD2    C412427   3.624   1.003  16.950 -0.6379  0.4770  0.2624
  842MPD2    C512428   3.650   1.086  16.844 -0.0372  0.3479 -0.8111
  842MPD2     H12429   3.330   0.886  16.857  0.1965 -0.5855 -1.3334
  842MPD2    H112430   3.692   1.007  17.034 -0.9924 -0.8983  0.6041
  842MPD2    H212431   3.583   1.170  16.660 -0.5301 -0.0431  0.2457
  842MPD2    H312432   3.733   1.155  16.854 -0.1349  0.2888  0.4499
  842MPD2     N12433   3.486   0.848  17.070  0.2446 -0.8466 -0.0469
  842MPD2    H512434   3.548   0.859  17.150  0.6283 -0.1401 -0.4432
  842MPD2    N112435   3.353   1.033  16.648 -0.4697 -0.3008 -0.3592
  842MPD2    H712436   3.368   1.105  16.578  0.8180  0.2645  0.5013
  843MPD2     C12437   0.357   1.353   0.792  0.2074  0.5759  0.1551
  843MPD2    C112438   0.476   1.320   0.734 -0.0631  0.1264 -0.3925
  843MPD2    C212439   0.545   1.415   0.661 -0.9480  0.1637 -0.0240
  843MPD2    C312440   0.496   1.548   0.653 -0.6884 -0.5646  0.1495
  843MPD2    C412441   0.372   1.577   0.713  0.0409 -0.5872 -0.2843
  843MPD2    C512442   0.306   1.480   0.787  0.2858 -0.4436 -0.5462
  843MPD2     H12443   0.639   1.387   0.616 -1.1637  1.2934 -1.1765
  843MPD2    H112444   0.335   1.677   0.695 -0.4000 -1.2191 -2.8340
  843MPD2    H212445   0.297   1.289   0.855  0.3485  0.3094  0.0156
  843MPD2    H312446   0.217   1.502   0.844  1.1933 -2.7402  1.7936
  843MPD2     N12447   0.573   1.641   0.583  0.3020 -0.0184 -0.2788
  843MPD2    H512448   0.536   1.736   0.582 -1.7990 -0.8220  1.0632
  843MPD2    N112449   0.520   1.188   0.761  0.3278  0.3067  0.6333
  843MPD2    H712450   0.462   1.129   0.820 -0.1068 -1.3682 -1.4598
  844MPD2     C12451   3.902   0.306  16.791  0.4628  0.2447 -0.7661
  844MPD2    C112452   3.940   0.353  16.671  0.6009  0.5007 -0.6166
  844MPD2    C212453   4.045   0.441  16.661  0.1297 -0.4541 -0.4527
  844MPD2    C312454   4.110   0.494  16.774 -0.9410  0.4110 -0.3413
  844MPD2    C412455   4.067   0.446  16.896  0.1863 -0.0805 -0.2281
  844MPD2    C512456   3.966   0.356  16.904  0.2307 -0.4499  0.3269
  844MPD2     H12457   4.078   0.473  16.563 -0.2816  3.4054  0.6708
  844MPD2    H112458   4.104   0.483  16.991  0.4174 -0.9249  0.0088
  844MPD2    H212459   3.813   0.245  16.796  0.4105  0.2674 -1.5170
  844MPD2    H312460   3.928   0.322  16.999  0.9725  0.2668  0.8748
  844MPD2     N12461   4.220   0.582  16.751  0.0614  0.0478 -0.2782
  844MPD2    H512462   4.235   0.626  16.661 -0.7072  3.8447  1.4298
  844MPD2    N112463   3.867   0.317  16.558 -0.1292  0.3431 -0.0660
  844MPD2    H712464   3.891   0.366  16.472  0.8990  0.3540  0.2259
  845MPD2     C12465   4.372   1.538  16.727 -0.2036  0.0339  0.0771
  845MPD2    C112466   4.430   1.500  16.843 -0.2447  0.3008 -0.1742
  845MPD2    C212467   4.479   1.368  16.863 -0.6232 -0.6383  0.4249
  845MPD2    C312468   4.442   1.269  16.769 -0.0812  0.7158 -0.2197
  845MPD2    C412469   4.376   1.309  16.653  0.4544 -0.5541  0.3256
  845MPD2    C512470   4.343   1.445  16.629 -0.3764 -0.6361  0.0298
  845MPD2     H12471   4.517   1.343  16.961  1.7314  2.2938  0.2316
  845MPD2    H112472   4.339   1.239  16.580  1.5639 -0.5234 -0.2787
  845MPD2    H212473   4.329   1.637  16.723  0.7731  0.4833  0.6800
  845MPD2    H312474   4.295   1.483  16.540  1.9558 -0.1812 -1.0253
  845MPD2     N12475   4.477   1.134  16.792  0.0587  0.2184 -0.4831
  845MPD2    H512476   4.520   1.125  16.884 -0.6173  0.0713 -0.1885
  845MPD2    N112477   4.446   1.599  16.945  0.6112  0.4697 -0.2010
  845MPD2    H712478   4.417   1.690  16.912 -0.7971 -0.4038 -1.3570
  846MPD2     C12479   0.940   2.160  13.855 -0.2985  0.8459 -0.2384
  846MPD2    C112480   0.858   2.257  13.904 -0.0095  0.7862  0.6494
  846MPD2    C212481   0.829   2.253  14.038 -0.6869  0.3101  0.2583
  846MPD2    C312482   0.879   2.152  14.121 -0.1481 -0.2539 -0.2802
  846MPD2    C412483   0.957   2.053  14.070  0.4319  0.1641  0.2643
  846MPD2    C512484   0.992   2.064  13.937  0.6497  0.1043 -0.0224
  846MPD2     H12485   0.774   2.330  14.092  0.6972 -0.6512  3.0823
  846MPD2    H112486   0.988   1.961  14.118  0.1101  0.2969  0.7285
  846MPD2    H212487   0.977   2.174  13.754 -1.0022  0.1906 -0.5846
  846MPD2    H312488   1.050   1.986  13.890  0.2213  0.1040 -0.5485
  846MPD2     N12489   0.837   2.159  14.258  0.1623  0.0469  0.0281
  846MPD2    H512490   0.767   2.228  14.283 -0.9531 -0.9448 -0.3369
  846MPD2    N112491   0.819   2.369  13.826 -0.1712 -0.1902  0.3581
  846MPD2    H712492   0.776   2.448  13.874 -0.0338 -0.1434  0.4035
  847MPD2     C12493   1.216   2.815  14.754 -0.3257 -0.3187  0.2677
  847MPD2    C112494   1.313   2.908  14.750 -0.5709  0.4997  0.0817
  847MPD2    C212495   1.443   2.869  14.774  0.6615 -1.1143  0.5781
  847MPD2    C312496   1.473   2.739  14.803  0.4019 -0.6529 -0.4177
  847MPD2    C412497   1.371   2.644  14.800  0.9338  0.0921  0.2837
  847MPD2    C512498   1.247   2.683  14.762 -0.5192 -0.2570 -0.1864
  847MPD2     H12499   1.520   2.945  14.778  0.5255 -0.9415 -0.0894
  847MPD2    H112500   1.395   2.539  14.815  0.2245 -0.6130 -3.4720
  847MPD2    H212501   1.115   2.829  14.720 -0.1150 -0.1425 -0.2822
  847MPD2    H312502   1.158   2.622  14.751  0.4536 -1.8541  0.9352
  847MPD2     N12503   1.604   2.708  14.853 -0.6868  0.2888 -0.0790
  847MPD2    H512504   1.667   2.785  14.832 -0.9049  0.7512  0.9595
  847MPD2    N112505   1.298   3.045  14.733 -0.1339  0.1503 -0.0007
  847MPD2    H712506   1.386   3.096  14.727  0.0632 -0.1547  0.2504
  848MPD2     C12507   3.993   1.017  16.285  0.0738  0.1436  0.0838
  848MPD2    C112508   4.021   1.087  16.400 -0.0048  0.1863  0.1707
  848MPD2    C212509   4.057   1.222  16.386 -0.0630  0.1014 -0.2071
  848MPD2    C312510   4.084   1.284  16.263 -0.2625 -0.1942  0.5450
  848MPD2    C412511   4.059   1.208  16.153 -0.3455 -0.5955 -0.2876
  848MPD2    C512512   4.010   1.077  16.159  0.1115  0.9357 -1.0327
  848MPD2     H12513   4.066   1.294  16.467  0.6580 -2.6702  2.1922
  848MPD2    H112514   4.071   1.250  16.054  3.0698  0.3313  0.5341
  848MPD2    H212515   3.967   0.911  16.290  0.3143  0.0062 -1.4246
  848MPD2    H312516   3.990   1.030  16.063  3.8754 -0.1002 -1.3500
  848MPD2     N12517   4.105   1.420  16.247  0.6580 -0.2297  0.0014
  848MPD2    H512518   4.113   1.459  16.154  0.4365 -2.0053 -0.7661
  848MPD2    N112519   4.014   1.028  16.530  0.2150  0.0256 -0.0593
  848MPD2    H712520   4.027   1.095  16.605  1.6036 -0.4204  0.0842
  849MPD2     C12521   3.217   1.288  13.799  0.4553  0.0135 -0.3734
  849MPD2    C112522   3.255   1.171  13.863 -0.0315 -0.0186  0.4103
  849MPD2    C212523   3.220   1.147  13.989 -0.2414 -0.4315 -0.6786
  849MPD2    C312524   3.134   1.231  14.060 -0.4298 -0.9693 -0.0432
  849MPD2    C412525   3.089   1.344  13.998  0.0872 -0.6076 -0.5912
  849MPD2    C512526   3.135   1.372  13.867 -0.4657  0.7821 -0.1265
  849MPD2     H12527   3.265   1.063  14.040  0.8196  0.4930 -0.1046
  849MPD2    H112528   3.014   1.406  14.046  1.3356 -0.6607  1.4115
  849MPD2    H212529   3.249   1.315  13.699 -1.4093 -0.6055 -1.1301
  849MPD2    H312530   3.100   1.461  13.817  0.6431  1.9665  1.2146
  849MPD2     N12531   3.103   1.208  14.196 -0.4472 -0.6192  0.2745
  849MPD2    H512532   3.070   1.291  14.245  1.7017 -1.3788  2.9973
  849MPD2    N112533   3.350   1.078  13.805 -0.4792  0.1691 -0.0593
  849MPD2    H712534   3.365   0.995  13.861 -0.8830  2.2271  3.1193
  850MPD2     C12535   1.376   3.925  14.857 -0.6618 -0.1657 -0.3900
  850MPD2    C112536   1.382   4.020  14.953 -0.3398 -0.9822 -0.5231
  850MPD2    C212537   1.505   4.077  14.976  0.9214  0.9058 -0.1085
  850MPD2    C312538   1.617   4.019  14.924  0.3220 -0.3315 -0.4877
  850MPD2    C412539   1.611   3.919  14.835  0.5675  0.3402 -0.1522
  850MPD2    C512540   1.489   3.885  14.787  0.3018  0.5017  0.7665
  850MPD2     H12541   1.498   4.164  15.041  0.2312  1.2864 -0.6837
  850MPD2    H112542   1.702   3.877  14.793  0.2607  0.1718 -0.6463
  850MPD2    H212543   1.280   3.888  14.823  0.3143 -2.6515 -0.4415
  850MPD2    H312544   1.485   3.819  14.701 -1.6839 -0.0724  1.3117
  850MPD2     N12545   1.744   4.051  14.970 -0.5319 -0.4787 -0.4025
  850MPD2    H512546   1.817   3.990  14.936  0.8149  0.8508  0.0945
  850MPD2    N112547   1.264   4.038  15.030  0.5854  0.7830  0.9236
  850MPD2    H712548   1.192   3.976  14.992  0.0252  1.6541  0.5706
  851MPD2     C12549   1.892   4.019  15.672 -0.8886 -0.6188 -0.9723
  851MPD2    C112550   1.816   3.970  15.568  0.5901  0.0660 -0.1964
  851MPD2    C212551   1.847   3.841  15.536 -0.0833 -0.0061  0.1542
  851MPD2    C312552   1.930   3.752  15.594 -0.2718 -0.0885 -0.3547
  851MPD2    C412553   2.012   3.807  15.692 -0.4701 -0.8623 -0.3729
  851MPD2    C512554   1.979   3.930  15.737  0.6710  0.0146 -0.1776
  851MPD2     H12555   1.773   3.800  15.467 -1.6394  1.0725  1.2037
  851MPD2    H112556   2.075   3.743  15.753 -0.5921 -1.6231 -1.0384
  851MPD2    H212557   1.870   4.112  15.723  1.0759 -1.7301  1.9054
  851MPD2    H312558   2.029   3.972  15.824 -0.2390  0.2814  0.2251
  851MPD2     N12559   1.916   3.611  15.561  0.4474 -0.3983 -0.3443
  851MPD2    H512560   1.859   3.577  15.483 -1.2458  1.8646 -0.0966
  851MPD2    N112561   1.707   4.043  15.515  0.5093 -0.2146  0.3486
  851MPD2    H712562   1.700   4.138  15.551  0.7080 -0.3433  0.7294
  852MPD2     C12563   1.129   1.664  10.675 -0.7700  0.0852  0.0883
  852MPD2    C112564   1.093   1.671  10.816 -0.4745 -0.6282  0.2044
  852MPD2    C212565   1.076   1.796  10.872  0.4546 -0.0694 -0.3866
  852MPD2    C312566   1.093   1.914  10.797 -0.0977  1.0793 -0.0395
  852MPD2    C412567   1.127   1.907  10.660  0.2494  0.2231 -0.9125
  852MPD2    C512568   1.131   1.781  10.596  0.4411 -0.2127  0.7533
  852MPD2     H12569   1.031   1.801  10.971 -0.5862  0.3763 -0.8810
  852MPD2    H112570   1.161   1.991  10.599  2.6370 -0.4119 -0.4842
  852MPD2    H212571   1.144   1.568  10.626 -2.2045  0.2252 -0.6089
  852MPD2    H312572   1.153   1.779  10.490 -1.4038  1.6744  0.3390
  852MPD2     N12573   1.073   2.034  10.859 -0.4931 -0.4849  0.2236
  852MPD2    H512574   1.047   2.022  10.957  1.4218 -1.0165  0.6620
  852MPD2    N112575   1.057   1.555  10.887 -0.1405 -0.2791 -0.2591
  852MPD2    H712576   1.029   1.570  10.983 -2.5049  1.2484 -1.1611
  853MPD2     C12577   2.989   1.265  12.646 -0.2949  0.1136 -1.1247
  853MPD2    C112578   2.867   1.293  12.591  0.4781  0.4329 -0.8210
  853MPD2    C212579   2.825   1.239  12.464  0.0325  0.1368 -0.5046
  853MPD2    C312580   2.920   1.193  12.376 -0.4317  0.3180 -0.5475
  853MPD2    C412581   3.048   1.192  12.421 -0.4429 -0.3241 -0.0981
  853MPD2    C512582   3.076   1.213  12.553  0.0637  0.1655  0.2725
  853MPD2     H12583   2.723   1.247  12.429  0.3680 -0.6525 -1.6667
  853MPD2    H112584   3.133   1.155  12.364 -2.5570 -4.6654 -0.4562
  853MPD2    H212585   3.020   1.293  12.746 -1.4187  0.6468 -0.9290
  853MPD2    H312586   3.174   1.194  12.595  0.1132 -0.4375 -0.1009
  853MPD2     N12587   2.893   1.165  12.238  0.2855 -0.7016  0.4491
  853MPD2    H512588   2.970   1.144  12.175 -0.5501 -2.2586 -0.0560
  853MPD2    N112589   2.786   1.374  12.675 -0.4761  0.5981  0.1027
  853MPD2    H712590   2.816   1.389  12.771 -0.9145 -0.0634  0.3420
  854MPD2     C12591   3.845   1.930  13.269  0.1130 -0.1625  0.2561
  854MPD2    C112592   3.955   1.927  13.182 -0.3046 -0.4899  0.0227
  854MPD2    C212593   4.038   1.814  13.201 -0.5815  0.7313 -0.3749
  854MPD2    C312594   4.012   1.724  13.300 -0.4582  0.0470  0.5727
  854MPD2    C412595   3.901   1.729  13.379  0.3703 -0.1967 -0.3295
  854MPD2    C512596   3.820   1.833  13.360  0.2195 -0.1922  0.4279
  854MPD2     H12597   4.117   1.785  13.133 -0.7250  1.1291 -0.7118
  854MPD2    H112598   3.860   1.655  13.446 -1.8421 -1.9240 -3.5908
  854MPD2    H212599   3.777   2.015  13.264  1.2075  0.6653 -0.6221
  854MPD2    H312600   3.729   1.853  13.415  0.7163  2.4010  0.2882
  854MPD2     N12601   4.097   1.611  13.320  0.3365 -0.6093 -0.7478
  854MPD2    H512602   4.183   1.613  13.266 -0.4249  1.5997 -1.8761
  854MPD2    N112603   3.963   2.025  13.082  0.2433 -0.0930 -1.1030
  854MPD2    H712604   3.898   2.103  13.082  2.6247  1.9528  4.0482
  855MPD2     C12605   0.153   1.503  13.793  0.2334 -0.0562  0.8064
  855MPD2    C112606   0.099   1.377  13.823 -0.5590  0.3170  0.4130
  855MPD2    C212607   4.716   1.351  13.765 -0.6873  0.4771 -0.1088
  855MPD2    C312608   4.650   1.434  13.678 -0.9230  0.4506 -0.3564
  855MPD2    C412609   4.707   1.553  13.652 -0.4224 -0.2344  0.0394
  855MPD2    C512610   0.081   1.592  13.710 -0.3249 -0.0483 -0.9657
  855MPD2     H12611   4.674   1.255  13.793 -0.1354  0.5263  0.9081
  855MPD2    H112612   4.660   1.619  13.580  0.5181 -0.9356 -1.2187
  855MPD2    H212613   0.251   1.532  13.829 -0.0091  1.9862 -0.2396
  855MPD2    H312614   0.121   1.687  13.676  1.4315 -0.5891 -0.3921
  855MPD2     N12615   4.517   1.409  13.625  0.4062  0.6527  0.4409
  855MPD2    H512616   4.482   1.470  13.551  0.5193 -1.0965 -1.0723
  855MPD2    N112617   0.164   1.275  13.892 -0.1835 -0.3495  0.1222
  855MPD2    H712618   0.114   1.187  13.889  0.2900 -0.5014 -3.9651
  856MPD2     C12619   2.276   1.756  14.269 -0.0576 -0.2127  0.0276
  856MPD2    C112620   2.295   1.896  14.259  0.4269 -0.1244 -0.2144
  856MPD2    C212621   2.180   1.974  14.263  0.1849  0.4677  0.6119
  856MPD2    C312622   2.051   1.917  14.275  1.1245  0.1777 -0.1439
  856MPD2    C412623   2.039   1.776  14.279  0.2207  0.1378  0.3906
  856MPD2    C512624   2.151   1.701  14.283 -0.0840 -1.0553 -0.5167
  856MPD2     H12625   2.205   2.079  14.270  2.6193  0.0386 -1.5186
  856MPD2    H112626   1.943   1.725  14.286  0.0321  0.6139  1.3206
  856MPD2    H212627   2.357   1.684  14.275  0.2075  0.2379  1.9560
  856MPD2    H312628   2.142   1.594  14.299 -2.0552 -0.7385  0.5400
  856MPD2     N12629   1.935   1.996  14.265  0.0204  0.4056 -0.4610
  856MPD2    H512630   1.849   1.943  14.273 -0.6081  1.2493 -1.7582
  856MPD2    N112631   2.419   1.964  14.251  0.2164  0.1635  0.1407
  856MPD2    H712632   2.415   2.064  14.267 -1.4406  0.0009  0.7991
  857MPD2     C12633   3.777   0.207  12.292 -0.3190  0.1610 -0.0663
  857MPD2    C112634   3.841   0.118  12.369  0.0856 -0.2440  0.4752
  857MPD2    C212635   3.923   0.160  12.471 -0.0035 -0.2427  0.2342
  857MPD2    C312636   3.925   0.299  12.514  0.0450 -0.4241 -0.6491
  857MPD2    C412637   3.855   0.385  12.434 -0.4522  0.3562 -0.6441
  857MPD2    C512638   3.789   0.337  12.324 -0.0155 -0.2801  0.1989
  857MPD2     H12639   3.975   0.090  12.535 -1.5137 -2.5723 -1.0966
  857MPD2    H112640   3.847   0.492  12.453  0.5418  0.4823 -0.9515
  857MPD2    H212641   3.728   0.176  12.200 -0.7944  0.0274  0.2324
  857MPD2    H312642   3.730   0.399  12.258  0.5871  0.4040  0.3029
  857MPD2     N12643   4.002   0.348  12.625 -0.2648  0.4170  0.2876
  857MPD2    H512644   4.060   0.279  12.672 -0.0245 -0.0638 -0.7100
  857MPD2    N112645   3.822   4.725  12.333 -0.5145  0.5809  0.0100
  857MPD2    H712646   3.741   4.718  12.272  0.0034 -2.0875 -0.3959
  858MPD2     C12647   4.252   3.800  16.639 -0.2004 -0.1903  0.2666
  858MPD2    C112648   4.377   3.746  16.642 -0.1729 -0.0653 -0.1385
  858MPD2    C212649   4.449   3.751  16.765 -0.1713 -0.1211 -0.3497
  858MPD2    C312650   4.399   3.823  16.874 -0.2258  0.5174  0.1326
  858MPD2    C412651   4.281   3.884  16.856  0.6070 -0.0830 -0.4405
  858MPD2    C512652   4.210   3.868  16.745  0.1329 -0.4850 -0.2310
  858MPD2     H12653   4.537   3.690  16.779 -0.0413  1.0654  3.8526
  858MPD2    H112654   4.242   3.939  16.941  1.2708 -0.2653 -0.0174
  858MPD2    H212655   4.188   3.799  16.552  1.6533  1.3906 -1.1089
  858MPD2    H312656   4.114   3.916  16.732  0.7831  0.4210 -1.7009
  858MPD2     N12657   4.466   3.840  16.991 -0.4633 -0.3406 -0.3702
  858MPD2    H512658   4.423   3.900  17.061 -0.0558 -0.0063 -0.4051
  858MPD2    N112659   4.419   3.674  16.529  0.2247 -0.0200  0.3222
  858MPD2    H712660   4.353   3.666  16.452  0.4101 -0.5483  0.2228
  859MPD2     C12661   2.973   0.543  15.774  0.5170  0.2158  0.3436
  859MPD2    C112662   3.059   0.579  15.670  0.3809 -0.0149  0.1508
  859MPD2    C212663   3.140   0.476  15.623  0.0126  0.2080 -0.2314
  859MPD2    C312664   3.145   0.346  15.679 -0.4052 -0.1598 -0.3508
  859MPD2    C412665   3.054   0.317  15.780  0.3681 -0.0807  0.9661
  859MPD2    C512666   2.972   0.415  15.826 -0.0343  1.0580 -0.1974
  859MPD2     H12667   3.221   0.511  15.559  1.2544 -2.4264 -0.1296
  859MPD2    H112668   3.048   0.217  15.822 -2.6248 -0.4048 -0.2308
  859MPD2    H212669   2.904   0.608  15.827  0.4738  0.9788 -0.6489
  859MPD2    H312670   2.907   0.391  15.909  2.3107  0.1096  1.3635
  859MPD2     N12671   3.239   0.248  15.645  0.1449 -0.1392  0.6491
  859MPD2    H512672   3.246   0.157  15.689 -0.5477 -0.2062  0.6314
  859MPD2    N112673   3.079   0.711  15.614  0.3971 -0.1346 -0.6763
  859MPD2    H712674   3.158   0.728  15.553 -0.7209  0.2731 -2.0095
  860MPD2     C12675   0.370   1.325  11.899  0.4361 -0.5582  0.2218
  860MPD2    C112676   0.394   1.309  12.030  0.5057 -0.0651 -0.7853
  860MPD2    C212677   0.300   1.345  12.121 -1.1527 -0.2403  0.3649
  860MPD2    C312678   0.188   1.418  12.085 -0.2169 -0.5600 -0.8544
  860MPD2    C412679   0.158   1.430  11.948  0.2645 -0.3661 -0.0129
  860MPD2    C512680   0.258   1.390  11.860  0.4750  0.0354  0.7177
  860MPD2     H12681   0.322   1.329  12.226  1.8219  0.9157 -0.0848
  860MPD2    H112682   0.065   1.470  11.909  1.2152  1.2799 -0.6145
  860MPD2    H212683   0.443   1.295  11.826  0.0429 -1.7451  0.3177
  860MPD2    H312684   0.237   1.400  11.755  1.4040 -0.2851  0.5008
  860MPD2     N12685   0.095   1.453  12.185 -0.2256  0.3658  0.7953
  860MPD2    H512686   0.122   1.432  12.280  1.5597  2.0935  0.6791
  860MPD2    N112687   0.518   1.265  12.079  0.1451  0.2687 -0.1600
  860MPD2    H712688   0.534   1.276  12.178  1.7704  1.3107 -0.5380
  861MPD2     C12689   4.231   3.880  11.381 -0.4705  0.0117 -0.1903
  861MPD2    C112690   4.212   4.016  11.390  0.4368 -0.0683  0.3759
  861MPD2    C212691   4.124   4.075  11.302  0.6022  0.5025 -0.5595
  861MPD2    C312692   4.047   3.995  11.218  0.0039  0.1093 -0.7456
  861MPD2    C412693   4.065   3.858  11.219  0.2672  0.3882  0.5520
  861MPD2    C512694   4.149   3.800  11.312 -0.1891  0.0164 -0.3423
  861MPD2     H12695   4.103   4.181  11.294  0.5110  0.5975  1.0713
  861MPD2    H112696   4.004   3.795  11.156  0.0812  0.5100  0.6095
  861MPD2    H212697   4.297   3.821  11.443 -1.5854  0.6942  1.6455
  861MPD2    H312698   4.161   3.692  11.305 -1.7328 -0.2008  0.5473
  861MPD2     N12699   3.949   4.048  11.139  0.1439  0.2257 -0.0991
  861MPD2    H512700   3.873   3.990  11.105  0.4016  1.9669 -3.6876
  861MPD2    N112701   4.292   4.103  11.466 -0.0202  0.5676 -0.6581
  861MPD2    H712702   4.269   4.201  11.453  0.5075  1.0100  1.9004
  862MPD2     C12703   3.303   3.934  10.970 -0.7541  0.7440 -0.1954
  862MPD2    C112704   3.440   3.915  10.952  0.0969  0.3082 -0.2934
  862MPD2    C212705   3.482   3.793  10.909  0.8259  0.2836  0.5731
  862MPD2    C312706   3.393   3.684  10.905 -0.2127  0.6338 -0.4386
  862MPD2    C412707   3.261   3.707  10.909 -0.5717 -0.3563  0.7050
  862MPD2    C512708   3.220   3.830  10.945 -0.2739  0.6682  0.0278
  862MPD2     H12709   3.587   3.777  10.887  0.2314 -2.0606 -0.5139
  862MPD2    H112710   3.184   3.631  10.901 -0.9367  0.1552 -0.7309
  862MPD2    H212711   3.261   4.029  11.000  1.3488  2.3292 -2.1887
  862MPD2    H312712   3.112   3.822  10.949 -0.3809  2.0909  0.2543
  862MPD2     N12713   3.436   3.551  10.886  0.4812 -0.4916 -0.4185
  862MPD2    H512714   3.371   3.473  10.877  1.0307 -1.1031  0.8933
  862MPD2    N112715   3.526   4.028  10.977  0.7570  0.1162 -0.2079
  862MPD2    H712716   3.626   4.017  10.960  0.7617 -0.2094  0.0204
  863MPD2     C12717   2.477   2.397  17.165  0.2293  0.3323 -0.2871
  863MPD2    C112718   2.556   2.401  17.056 -0.7889  0.0582 -0.9701
  863MPD2    C212719   2.689   2.371  17.060 -0.7627 -0.2734 -0.1680
  863MPD2    C312720   2.742   2.341  17.188  0.9175 -0.2673 -0.6664
  863MPD2    C412721   2.660   2.337  17.297 -0.7755 -0.7957  0.0861
  863MPD2    C512722   2.524   2.362  17.290 -0.2341  0.5230 -0.2303
  863MPD2     H12723   2.751   2.361  16.971  0.5327 -0.1137  0.7209
  863MPD2    H112724   2.700   2.300  17.391 -2.3235 -0.4905  0.8601
  863MPD2    H212725   2.370   2.408  17.157  0.3241  1.0721 -0.5143
  863MPD2    H312726   2.457   2.346  17.373 -1.0754 -0.9944 -1.1888
  863MPD2     N12727   2.884   2.324  17.216  0.4646 -0.1280  0.1452
  863MPD2    H512728   2.907   2.302  17.312 -1.8403 -1.8747  0.2971
  863MPD2    N112729   2.490   2.417  16.932 -0.0334 -0.0453 -0.5373
  863MPD2    H712730   2.389   2.433  16.928  0.1250  0.9557 -0.6603
  864MPD2     C12731   3.424   3.333  17.476  0.3428  0.2909 -0.4075
  864MPD2    C112732   3.450   3.288  17.349 -0.6767  0.2513 -0.4205
  864MPD2    C212733   3.483   3.385  17.256  0.1614 -0.2475 -0.0255
  864MPD2    C312734   3.516   3.520  17.290 -0.1089  0.3188  0.4200
  864MPD2    C412735   3.487   3.554  17.423 -0.3276  0.9560 -0.5832
  864MPD2    C512736   3.444   3.463  17.511  0.2165  0.1265  0.3268
  864MPD2     H12737   3.506   3.353  17.155  1.3120 -0.8074  0.4125
  864MPD2    H112738   3.514   3.646  17.473 -4.3406  2.1605 -0.7188
  864MPD2    H212739   3.392   3.264  17.553  1.0287  0.8452  0.3736
  864MPD2    H312740   3.424   3.498  17.611  0.5944  0.0327  0.4344
  864MPD2     N12741   3.560   3.625  17.205  0.8554  0.1146  0.1770
  864MPD2    H512742   3.569   3.721  17.238  0.5689 -0.0907  0.8575
  864MPD2    N112743   3.414   3.162  17.309 -0.1076  0.4868  0.1421
  864MPD2    H712744   3.363   3.108  17.378 -0.7278  0.1954 -0.5417
  865MPD2     C12745   3.370   4.170  16.546  0.1694  0.2233 -0.8656
  865MPD2    C112746   3.377   4.051  16.612 -0.1729 -0.2721 -0.0550
  865MPD2    C212747   3.382   4.050  16.748  0.6620  0.4388  0.1297
  865MPD2    C312748   3.406   4.170  16.814 -1.8101  0.3425 -0.3822
  865MPD2    C412749   3.408   4.292  16.747 -0.1294  0.2894  0.4186
  865MPD2    C512750   3.389   4.291  16.608  0.0671  0.0036 -0.7177
  865MPD2     H12751   3.359   3.960  16.804  1.8327  0.0158 -0.0595
  865MPD2    H112752   3.426   4.386  16.798 -0.1181  1.3862 -1.6052
  865MPD2    H212753   3.341   4.170  16.441 -3.5044  0.8431  0.1521
  865MPD2    H312754   3.384   4.384  16.553 -2.7167 -1.1937 -2.5146
  865MPD2     N12755   3.421   4.176  16.961  0.1120  0.4076  0.2538
  865MPD2    H512756   3.410   4.269  17.001 -0.9618  0.8238 -1.0367
  865MPD2    N112757   3.374   3.933  16.530  0.2928  0.3873  0.2397
  865MPD2    H712758   3.364   3.950  16.430 -1.5323 -2.0415  0.0251
  866MPD2     C12759   4.491   3.913  10.911  0.1499  0.5922 -0.6515
  866MPD2    C112760   4.572   4.020  10.934  0.7623  0.6764  0.1953
  866MPD2    C212761   4.521   4.146  10.966  0.2456 -0.1298  0.4124
  866MPD2    C312762   4.384   4.145  11.001  0.0350 -0.3964  0.3650
  866MPD2    C412763   4.305   4.037  10.986  0.1271 -0.3709  0.2210
  866MPD2    C512764   4.366   3.918  10.955 -0.1669 -0.4610  1.0202
  866MPD2     H12765   4.581   4.236  10.978 -0.7928  0.5279  0.7004
  866MPD2    H112766   4.199   4.039  11.007 -0.0290  0.5406 -0.6577
  866MPD2    H212767   4.524   3.816  10.878  1.8659  0.4316  1.5762
  866MPD2    H312768   4.314   3.823  10.960 -0.0829 -0.5879 -0.3127
  866MPD2     N12769   4.324   4.264  11.042 -0.3523  0.2222 -0.3417
  866MPD2    H512770   4.232   4.260  11.084  0.1617 -1.6437  0.6138
  866MPD2    N112771   4.704   3.994  10.906  0.1022  0.0717  0.3599
  866MPD2    H712772   4.740   3.905  10.874 -1.1028 -0.1243 -0.4585
  867MPD2     C12773   2.528   4.492  17.050  0.2375 -0.2264 -0.1998
  867MPD2    C112774   2.513   4.398  17.150 -0.6985 -0.4341  0.4374
  867MPD2    C212775   2.424   4.427  17.259 -0.1380 -0.7519  0.1566
  867MPD2    C312776   2.350   4.539  17.266 -0.4742 -0.2843  0.9303
  867MPD2    C412777   2.361   4.626  17.159  0.1769 -0.4231  0.9211
  867MPD2    C512778   2.444   4.600  17.060 -0.6067  0.0179  0.2091
  867MPD2     H12779   2.419   4.354  17.340 -0.2520  0.4848  1.2674
  867MPD2    H112780   2.290   4.707  17.145 -0.4004 -0.9057  1.0950
  867MPD2    H212781   2.596   4.476  16.967 -1.6786  1.5530 -2.1051
  867MPD2    H312782   2.448   4.668  16.975 -0.2668 -0.6238 -0.2932
  867MPD2     N12783   2.277   4.574  17.383  0.7381 -0.5274  0.6840
  867MPD2    H512784   2.233   4.666  17.388  1.4484 -0.0064 -2.7974
  867MPD2    N112785   2.589   4.275  17.135  0.6751 -0.2822 -0.9640
  867MPD2    H712786   2.662   4.275  17.064  2.4156  0.5380  0.8283
  868MPD2     C12787   3.855   3.024  13.763 -0.3008 -0.1543  0.6035
  868MPD2    C112788   3.892   3.104  13.654  0.4562 -0.0209  0.5570
  868MPD2    C212789   3.798   3.201  13.611 -0.0578 -0.5201 -0.1689
  868MPD2    C312790   3.677   3.214  13.669  0.8339 -0.0273  0.5998
  868MPD2    C412791   3.641   3.123  13.766 -0.3979  0.0648 -0.7790
  868MPD2    C512792   3.730   3.026  13.815  0.1668 -0.6515 -0.1004
  868MPD2     H12793   3.823   3.262  13.525  1.4357  3.9401  3.4690
  868MPD2    H112794   3.544   3.119  13.814 -1.6968 -2.8561 -3.6372
  868MPD2    H212795   3.926   2.958  13.813  0.0805 -0.3267 -0.1699
  868MPD2    H312796   3.691   2.953  13.885  2.4070 -1.3900  0.3827
  868MPD2     N12797   3.594   3.313  13.616  0.5366  0.5292 -0.1212
  868MPD2    H512798   3.636   3.370  13.544  1.0949 -0.1717 -0.3503
  868MPD2    N112799   4.020   3.085  13.595  0.5633 -0.0857  0.4040
  868MPD2    H712800   4.084   3.018  13.636 -0.1920 -1.6916 -1.0548
  869MPD2     C12801   4.021   0.114   0.591  0.6103  0.0179  0.4267
  869MPD2    C112802   3.948   0.222   0.617 -0.0950 -0.0319 -0.3191
  869MPD2    C212803   4.003   0.329   0.686 -0.1323 -0.3285  0.3138
  869MPD2    C312804   4.138   0.333   0.704  0.4375 -0.6308  0.0270
  869MPD2    C412805   4.207   0.221   0.673  0.3732  0.2364 -1.2466
  869MPD2    C512806   4.155   0.113   0.614  0.0491 -0.3355 -0.2096
  869MPD2     H12807   3.945   0.420   0.695  0.5007  0.2720 -1.5841
  869MPD2    H112808   4.314   0.214   0.691  0.4160  2.1966 -0.7409
  869MPD2    H212809   3.963   0.030   0.554 -0.9913  1.1325  0.4252
  869MPD2    H312810   4.218   0.027   0.592 -1.0262 -0.4522 -2.8529
  869MPD2     N12811   4.205   0.434   0.771 -0.6724 -0.6675 -0.3258
  869MPD2    H512812   4.300   0.406   0.794  0.2081  1.7579 -1.0816
  869MPD2    N112813   3.812   0.206   0.597 -0.1750 -0.1554  0.6844
  869MPD2    H712814   3.781   0.118   0.557  1.4055 -0.8086  0.9086
  870MPD2     C12815   4.026   4.338   1.691  0.3839 -0.1048 -0.7374
  870MPD2    C112816   3.954   4.228   1.644  0.4925 -0.3421 -0.3994
  870MPD2    C212817   3.917   4.221   1.511  0.0653  0.2301 -0.1793
  870MPD2    C312818   3.956   4.327   1.424  0.7485 -0.4612 -0.5037
  870MPD2    C412819   4.048   4.423   1.470 -0.1403 -0.0165 -0.4853
  870MPD2    C512820   4.086   4.424   1.599 -0.5200  0.8371  0.0768
  870MPD2     H12821   3.854   4.142   1.471 -0.6223 -0.6431  2.6548
  870MPD2    H112822   4.083   4.497   1.399 -0.5844  2.1507  1.5472
  870MPD2    H212823   4.041   4.341   1.798 -0.3212 -0.1807 -0.6329
  870MPD2    H312824   4.154   4.501   1.634  1.6810 -1.6998  1.3894
  870MPD2     N12825   3.914   4.316   1.292  0.0915  0.0621 -0.1564
  870MPD2    H512826   3.874   4.226   1.267 -0.1570  0.3576 -0.8432
  870MPD2    N112827   3.903   4.141   1.741  0.2516  0.2468 -0.0879
  870MPD2    H712828   3.955   4.160   1.827 -0.3928 -1.5702  0.6952
  871MPD2     C12829   1.362   3.816  16.544 -0.6062  0.7557 -0.0758
  871MPD2    C112830   1.285   3.768  16.645  0.2239 -0.4427 -0.2611
  871MPD2    C212831   1.264   3.637  16.666  0.3703  0.2434  0.2470
  871MPD2    C312832   1.339   3.543  16.594  0.1492  0.1387  0.1247
  871MPD2    C412833   1.421   3.591  16.492  0.5747 -0.0958  0.0876
  871MPD2    C512834   1.425   3.724  16.461 -0.0529  0.3771 -0.0018
  871MPD2     H12835   1.203   3.607  16.750  3.1159 -0.2916  2.0263
  871MPD2    H112836   1.462   3.523  16.418 -0.7327  1.2349 -1.8759
  871MPD2    H212837   1.373   3.920  16.519 -3.5070  1.5501  2.0067
  871MPD2    H312838   1.474   3.767  16.374 -0.5700 -1.2542 -1.1009
  871MPD2     N12839   1.327   3.403  16.623 -0.1136  0.1319  0.4509
  871MPD2    H512840   1.249   3.382  16.685 -1.1444  0.0334 -0.8803
  871MPD2    N112841   1.230   3.865  16.737 -0.1011 -0.1146 -0.5567
  871MPD2    H712842   1.254   3.963  16.726  0.1211  0.1095  1.8753
  872MPD2     C12843   2.000   1.348  14.137 -0.3070 -0.3832 -0.0976
  872MPD2    C112844   1.937   1.459  14.090 -0.5948 -0.3414  0.2190
  872MPD2    C212845   1.807   1.479  14.136  0.3345  0.4344  0.2760
  872MPD2    C312846   1.754   1.395  14.238  0.2443  0.4984 -0.3628
  872MPD2    C412847   1.823   1.282  14.282 -0.2955  0.1760  0.2298
  872MPD2    C512848   1.948   1.265  14.233 -0.0029 -0.1930 -0.0728
  872MPD2     H12849   1.754   1.565  14.098  0.2699 -0.1250 -0.8824
  872MPD2    H112850   1.782   1.217  14.358  0.9108 -1.8104 -0.8259
  872MPD2    H212851   2.095   1.308  14.104  0.5312  0.0819  1.7231
  872MPD2    H312852   2.009   1.181  14.265  1.1068  1.0788  1.1593
  872MPD2     N12853   1.628   1.415  14.298  0.7166 -0.4699  0.4716
  872MPD2    H512854   1.609   1.353  14.376  0.8130  0.1582  0.9848
  872MPD2    N112855   1.997   1.559  14.010 -0.0799 -0.0149 -0.2520
  872MPD2    H712856   1.941   1.642  13.995  1.5649  1.2659  0.7683
  873MPD2     C12857   3.545   1.396   0.963 -0.0804 -0.7030 -0.7440
  873MPD2    C112858   3.412   1.416   0.982 -0.1812  0.1518  0.2261
  873MPD2    C212859   3.323   1.329   0.926  0.1065 -0.8454 -0.2636
  873MPD2    C312860   3.363   1.218   0.854 -0.1383 -0.4310  0.8679
  873MPD2    C412861   3.497   1.188   0.854  0.2070 -1.1964 -1.0477
  873MPD2    C512862   3.584   1.277   0.906 -0.2136 -0.7591 -0.1884
  873MPD2     H12863   3.220   1.360   0.932 -0.0676 -1.5109  0.2045
  873MPD2    H112864   3.536   1.097   0.809  0.8011 -0.6238 -1.6905
  873MPD2    H212865   3.627   1.458   0.996 -0.8889 -0.9264  1.6733
  873MPD2    H312866   3.691   1.256   0.904  0.1809  1.0331  1.9192
  873MPD2     N12867   3.272   1.127   0.793  0.1927 -0.0360 -0.1017
  873MPD2    H512868   3.311   1.047   0.745  0.2520  0.0112 -0.1321
  873MPD2    N112869   3.383   1.546   1.049  0.6858  0.5116  0.6036
  873MPD2    H712870   3.457   1.610   1.077 -0.7452  2.2265  0.3811
  874MPD2     C12871   3.294   1.563  16.058 -0.1591 -0.9218 -0.9951
  874MPD2    C112872   3.358   1.495  16.164 -0.5536  0.3699 -0.7095
  874MPD2    C212873   3.486   1.542  16.200 -0.5396  0.6947  0.3054
  874MPD2    C312874   3.560   1.631  16.127 -0.1518  0.4968 -0.0120
  874MPD2    C412875   3.495   1.692  16.016  0.0443 -0.1219  0.0536
  874MPD2    C512876   3.363   1.667  15.993  0.0000  0.0881 -0.5212
  874MPD2     H12877   3.534   1.500  16.287 -1.2596 -0.7812 -0.0096
  874MPD2    H112878   3.543   1.774  15.963  1.5274 -0.4063  0.9504
  874MPD2    H212879   3.193   1.546  16.022 -1.0497  0.3470  0.8834
  874MPD2    H312880   3.307   1.727  15.923  1.5310  1.1467 -0.8231
  874MPD2     N12881   3.694   1.659  16.163  0.0134 -0.3833  1.1073
  874MPD2    H512882   3.722   1.620  16.253 -3.5962 -2.6585  1.2524
  874MPD2    N112883   3.293   1.387  16.228  0.6137  0.6851 -0.3188
  874MPD2    H712884   3.202   1.372  16.187  1.0318 -3.1723  0.2381
  875MPD2     C12885   4.281   4.684  14.919  0.1428  0.6630  0.1651
  875MPD2    C112886   4.353   0.062  14.911 -0.0340 -0.5547 -0.5952
  875MPD2    C212887   4.419   0.110  15.020 -0.4222 -0.2954 -0.4023
  875MPD2    C312888   4.404   0.039  15.137  0.4590 -0.7859 -0.1253
  875MPD2    C412889   4.317   4.671  15.151  0.7317 -0.2391  0.8013
  875MPD2    C512890   4.258   4.620  15.038  0.0834  0.2062 -0.3358
  875MPD2     H12891   4.492   0.190  15.018  0.2545 -0.8354  2.6523
  875MPD2    H112892   4.320   4.609  15.240  1.6900  1.7737  2.1757
  875MPD2    H212893   4.225   4.645  14.834  1.8604 -2.9555  0.6978
  875MPD2    H312894   4.185   4.541  15.046  0.5641 -0.4582 -2.4607
  875MPD2     N12895   4.469   0.072  15.259 -0.1244  0.3989  0.1278
  875MPD2    H512896   4.465   4.738  15.327  2.0426  0.3420  0.1846
  875MPD2    N112897   4.367   0.141  14.789  0.3365  0.0837 -0.2777
  875MPD2    H712898   4.409   0.233  14.796  0.3244  0.1529 -1.0723
  876MPD2     C12899   3.652   0.986  16.364  0.5007  0.0147 -0.5781
  876MPD2    C112900   3.581   0.963  16.249 -0.0192  0.7927 -0.3993
  876MPD2    C212901   3.517   0.842  16.219 -0.3814  0.7201 -0.1483
  876MPD2    C312902   3.523   0.745  16.320 -0.2277 -0.3287  0.0488
  876MPD2    C412903   3.586   0.765  16.438  0.0576 -0.1709  0.3075
  876MPD2    C512904   3.659   0.882  16.456  0.3461  0.0185  0.2593
  876MPD2     H12905   3.464   0.818  16.127  0.8125 -1.9561 -0.1514
  876MPD2    H112906   3.591   0.681  16.506  1.3533  0.1027  0.5421
  876MPD2    H212907   3.711   1.072  16.392  0.8424 -0.0248 -1.1719
  876MPD2    H312908   3.714   0.909  16.545  0.5371  0.2795  0.0616
  876MPD2     N12909   3.453   0.624  16.288 -0.2205 -1.1105  0.0728
  876MPD2    H512910   3.405   0.618  16.199 -1.8251 -0.1653  0.8869
  876MPD2    N112911   3.591   1.063  16.154 -0.6674 -0.0672 -0.3265
  876MPD2    H712912   3.644   1.144  16.183 -0.3006  0.0585 -1.3547
  877MPD2     C12913   3.107   1.511  15.592  0.4220  0.6544  0.0910
  877MPD2    C112914   3.240   1.504  15.561  0.1324  0.0365  0.6540
  877MPD2    C212915   3.277   1.547  15.432  0.4004 -0.3181 -0.3319
  877MPD2    C312916   3.191   1.599  15.345 -0.0690  0.2123 -0.0447
  877MPD2    C412917   3.059   1.614  15.381  0.2835 -0.5168  0.3398
  877MPD2    C512918   3.019   1.572  15.507  0.0271  0.0366 -0.5239
  877MPD2     H12919   3.376   1.519  15.396  1.9359  3.3679  0.9730
  877MPD2    H112920   2.985   1.653  15.311  0.8490 -1.6229 -0.8601
  877MPD2    H212921   3.062   1.475  15.683  0.0098 -0.0613 -0.3951
  877MPD2    H312922   2.921   1.598  15.543  1.3372  1.1464  2.2434
  877MPD2     N12923   3.225   1.648  15.220  0.1615 -0.6238  0.8274
  877MPD2    H512924   3.151   1.676  15.157 -0.3846  2.4842  2.8648
  877MPD2    N112925   3.338   1.459  15.651  0.1766 -0.1819  0.0242
  877MPD2    H712926   3.433   1.460  15.614  0.6858 -1.7044  1.3106
  878MPD2     C12927   3.682   0.661  12.955 -0.1632 -0.3019  0.4630
  878MPD2    C112928   3.671   0.794  12.973  0.0032 -0.1087 -0.2191
  878MPD2    C212929   3.654   0.837  13.106 -0.4577  0.0164 -0.2557
  878MPD2    C312930   3.649   0.755  13.212 -0.3622 -0.6999 -0.0833
  878MPD2    C412931   3.643   0.622  13.191 -0.7719  0.2450 -0.4036
  878MPD2    C512932   3.672   0.579  13.063  0.1954  0.6767  0.3113
  878MPD2     H12933   3.647   0.944  13.121  0.3287  0.1249 -0.6844
  878MPD2    H112934   3.612   0.549  13.264  1.4748 -1.8651 -1.5903
  878MPD2    H212935   3.706   0.616  12.859 -1.8455 -3.0358  1.3285
  878MPD2    H312936   3.677   0.474  13.040  2.5642  0.9356 -0.4251
  878MPD2     N12937   3.634   0.810  13.346  0.4710  0.3146 -0.0777
  878MPD2    H512938   3.615   0.909  13.356  0.7070  0.4868 -1.3771
  878MPD2    N112939   3.662   0.875  12.855  0.0495 -0.5297 -0.5245
  878MPD2    H712940   3.671   0.822  12.770  0.1617 -1.8480  0.3076
  879MPD2     C12941   3.848   2.120  17.173  0.2589 -0.3686  0.3632
  879MPD2    C112942   3.824   1.987  17.214 -0.0681 -0.9259 -0.7887
  879MPD2    C212943   3.753   1.904  17.126  0.1220 -0.4533  0.6262
  879MPD2    C312944   3.703   1.952  17.008  0.5731 -0.6355 -0.4618
  879MPD2    C412945   3.715   2.089  16.979  0.4183  0.3285 -0.3144
  879MPD2    C512946   3.795   2.166  17.058 -0.1638 -0.2595  0.2277
  879MPD2     H12947   3.723   1.801  17.145 -1.9470  0.3143  1.5771
  879MPD2    H112948   3.684   2.127  16.883  0.0447  0.6485 -0.0690
  879MPD2    H212949   3.907   2.184  17.237  0.5612 -2.5373  2.2274
  879MPD2    H312950   3.801   2.270  17.030 -0.3246 -0.5362 -0.8560
  879MPD2     N12951   3.634   1.870  16.913 -0.5645 -0.5059 -0.2745
  879MPD2    H512952   3.612   1.911  16.823  2.4181 -2.1287 -1.7517
  879MPD2    N112953   3.852   1.955  17.347  0.5410  0.1676  0.2381
  879MPD2    H712954   3.903   2.026  17.399 -1.2664  0.5374  1.5126
  880MPD2     C12955   0.441   3.585   0.314  0.5799  0.6955 -0.3825
  880MPD2    C112956   0.306   3.577   0.338  0.0630  0.5741 -0.3507
  880MPD2    C212957   0.239   3.460   0.332  0.8865 -0.3746 -0.7134
  880MPD2    C312958   0.308   3.338   0.309 -0.2182  0.3694  0.1717
  880MPD2    C412959   0.445   3.347   0.302 -0.3634  0.1302 -0.5519
  880MPD2    C512960   0.508   3.468   0.300 -0.3256 -0.3511  0.4150
  880MPD2     H12961   0.131   3.453   0.338  1.1320 -1.8415  2.1020
  880MPD2    H112962   0.514   3.263   0.298 -1.5298 -0.8558  0.2800
  880MPD2    H212963   0.491   3.681   0.303 -3.0685  2.7280  0.7914
  880MPD2    H312964   0.616   3.462   0.290 -0.5166 -0.4981 -1.5792
  880MPD2     N12965   0.239   3.218   0.317  0.3087 -0.7836 -0.2194
  880MPD2    H512966   0.142   3.224   0.346 -0.3242  2.1395 -2.9954
  880MPD2    N112967   0.237   3.698   0.365  1.1205 -0.5506 -0.0959
  880MPD2    H712968   0.286   3.787   0.359 -1.0566  0.4184 -3.4111
  881MPD2     C12969   0.132   4.626   0.057 -0.0252 -0.1005 -0.7437
  881MPD2    C112970   0.198   4.512   0.013 -0.0216 -0.3504  0.0382
  881MPD2    C212971   0.177   4.389   0.079 -0.7013 -0.2134 -0.6841
  881MPD2    C312972   0.098   4.392   0.191 -0.3016 -0.8454 -0.9823
  881MPD2    C412973   0.042   4.512   0.234  0.1747  0.1994 -0.0557
  881MPD2    C512974   0.046   4.627   0.159  0.7227 -0.5810  0.4892
  881MPD2     H12975   0.212   4.293   0.043  1.0340  0.4241 -0.6859
  881MPD2    H112976   4.717   4.523   0.319  1.8341  1.4497  1.0634
  881MPD2    H212977   0.124   4.714  17.757  0.1328  0.1765 -0.3666
  881MPD2    H312978   4.732   4.717   0.187  0.3494 -0.8779  0.7061
  881MPD2     N12979   0.063   4.276   0.264 -0.0845 -0.1944 -0.4528
  881MPD2    H512980   0.015   4.284   0.353 -0.9794 -1.1817 -0.8513
  881MPD2    N112981   0.246   4.515  17.643 -0.4910  0.3241 -0.3922
  881MPD2    H712982   0.257   4.601  17.590  1.9866  0.5490  0.4884
  882MPD2     C12983   3.127   1.664  14.368  0.2349  0.3818 -0.5010
  882MPD2    C112984   3.135   1.604  14.492 -0.0941  0.0620 -0.2270
  882MPD2    C212985   3.067   1.479  14.506  0.6092  0.0435 -0.4371
  882MPD2    C312986   2.981   1.436  14.404  0.6240 -0.0946  0.3216
  882MPD2    C412987   2.971   1.505  14.288 -0.3030 -0.4187 -0.1024
  882MPD2    C512988   3.057   1.606  14.269 -0.0391  0.8412  0.2976
  882MPD2     H12989   3.079   1.418  14.594  0.5976 -1.6171 -1.5833
  882MPD2    H112990   2.902   1.474  14.211 -1.2076 -0.0218  0.5433
  882MPD2    H212991   3.169   1.762  14.346  0.7999  0.3178  0.2764
  882MPD2    H312992   3.055   1.659  14.175  4.0556  0.1215 -0.1905
  882MPD2     N12993   2.878   1.344  14.424  0.1932  0.0846 -0.2326
  882MPD2    H512994   2.796   1.361  14.367 -0.5958 -3.3915 -0.1543
  882MPD2    N112995   3.192   1.681  14.596  0.4595 -0.3484  0.5061
  882MPD2    H712996   3.217   1.777  14.575 -0.5315 -0.4223 -1.0068
  883MPD2     C12997   0.471   1.536  16.233  0.0071  0.1190 -0.6285
  883MPD2    C112998   0.495   1.670  16.205 -0.0013  0.7168 -0.3847
  883MPD2    C212999   0.576   1.746  16.289 -0.9480 -0.6831 -0.9273
  883MPD2    C313000   0.636   1.680  16.396  0.3065 -0.1257 -0.4765
  883MPD2    C413001   0.627   1.545  16.415  0.8783  0.0085 -0.7062
  883MPD2    C513002   0.540   1.476  16.335  0.2733 -0.4099  1.4309
  883MPD2     H13003   0.590   1.852  16.271 -0.4756 -0.1853  2.3392
  883MPD2    H113004   0.685   1.485  16.485 -0.6456 -0.8610 -0.2009
  883MPD2    H213005   0.407   1.468  16.180 -0.3338  1.1860 -1.5746
  883MPD2    H313006   0.547   1.368  16.348  0.9629 -0.5300  0.0767
  883MPD2     N13007   0.720   1.746  16.483 -0.4112 -0.4930  0.5025
  883MPD2    H513008   0.755   1.838  16.460 -2.2605  0.4695  1.5723
  883MPD2    N113009   0.428   1.731  16.085 -0.1019  0.0815 -0.1710
  883MPD2    H713010   0.463   1.823  16.060 -1.1603 -0.4453 -3.4907
  884MPD2     C13011   2.792   2.344  15.357  0.4331  0.2257  0.0279
  884MPD2    C113012   2.729   2.438  15.280  0.2264 -0.4378 -0.1773
  884MPD2    C213013   2.598   2.471  15.306 -0.6412 -0.5687  0.1938
  884MPD2    C313014   2.525   2.408  15.408 -0.5955  0.1701 -0.0026
  884MPD2    C413015   2.592   2.321  15.490 -0.9657 -0.2003 -0.5754
  884MPD2    C513016   2.719   2.300  15.466  0.1504  0.2202  0.0917
  884MPD2     H13017   2.540   2.538  15.245 -1.4850 -0.6126  0.9425
  884MPD2    H113018   2.548   2.265  15.571  1.0738 -2.0177 -0.7198
  884MPD2    H213019   2.900   2.333  15.357  0.3570 -0.4998  1.8570
  884MPD2    H313020   2.778   2.237  15.532  0.8201 -0.1259 -0.8437
  884MPD2     N13021   2.394   2.450  15.429 -0.1666  0.0260  0.2266
  884MPD2    H513022   2.361   2.533  15.380 -3.8892 -0.3163  2.2206
  884MPD2    N113023   2.795   2.509  15.181  0.1862 -0.1485 -0.0433
  884MPD2    H713024   2.750   2.597  15.160  0.3180 -0.5355 -1.9804
  885MPD2     C13025   0.123   2.208   0.037  0.1666  0.8945  0.6757
  885MPD2    C113026   0.166   2.319   0.114 -0.2196  0.1071  0.2993
  885MPD2    C213027   0.163   2.448   0.061 -0.1621 -0.3590  0.9111
  885MPD2    C313028   0.129   2.465  17.682 -0.5559  0.1672 -0.0668
  885MPD2    C413029   0.088   2.352  17.614  0.5213  0.4211 -0.0557
  885MPD2    C513030   0.088   2.225  17.666 -0.0705 -0.2580 -0.7113
  885MPD2     H13031   0.199   2.531   0.121  1.2501 -0.1886 -0.1873
  885MPD2    H113032   0.063   2.359  17.509  1.9859  0.0055 -0.4339
  885MPD2    H213033   0.118   2.107   0.077  0.7819 -0.1019 -1.7459
  885MPD2    H313034   0.067   2.140  17.602  1.6778 -0.5842 -0.8611
  885MPD2     N13035   0.169   2.587  17.614 -0.0710 -0.3884  0.2909
  885MPD2    H513036   0.228   2.655  17.661 -0.7430  0.8505 -0.6447
  885MPD2    N113037   0.204   2.304   0.245 -0.4256 -0.3627  0.3324
  885MPD2    H713038   0.240   2.384   0.295  0.9392  0.0536 -1.3262
  886MPD2     C13039   1.905   0.808  15.607 -0.9156  0.7581  0.1459
  886MPD2    C113040   2.037   0.849  15.618 -0.8173  0.5821 -0.0131
  886MPD2    C213041   2.080   0.934  15.519 -1.0427 -0.2980 -0.4010
  886MPD2    C313042   2.001   0.983  15.419 -0.0507 -0.8367 -0.5005
  886MPD2    C413043   1.866   0.932  15.414  0.5232  0.5741 -0.4377
  886MPD2    C513044   1.821   0.847  15.517  0.0311  0.0418  0.2206
  886MPD2     H13045   2.185   0.962  15.520 -0.6779 -1.7086  0.7901
  886MPD2    H113046   1.789   0.964  15.346 -0.2366  0.2444  0.2714
  886MPD2    H213047   1.856   0.755  15.688  1.2071  0.6761  1.3720
  886MPD2    H313048   1.719   0.810  15.520 -0.3014  0.9144 -0.2208
  886MPD2     N13049   2.063   1.074  15.333 -0.2796  0.2028  0.2133
  886MPD2    H513050   2.157   1.105  15.357  0.0359 -0.3789 -0.2539
  886MPD2    N113051   2.126   0.814  15.725  0.0077  0.1525  0.3035
  886MPD2    H713052   2.219   0.855  15.725  0.0217  0.1102 -1.5699
  887MPD2     C13053   2.833   0.816  16.113 -0.5216 -0.3603  0.4851
  887MPD2    C113054   2.715   0.878  16.134 -0.0354  0.3678 -0.5033
  887MPD2    C213055   2.723   1.018  16.149 -0.1388  0.0487  0.3337
  887MPD2    C313056   2.841   1.088  16.124  0.2164 -0.0217 -0.2742
  887MPD2    C413057   2.958   1.015  16.127  0.2406 -0.3368  0.1522
  887MPD2    C513058   2.955   0.878  16.117 -0.0381  0.5509  0.7302
  887MPD2     H13059   2.632   1.074  16.164 -0.8940 -1.1984  0.4383
  887MPD2    H113060   3.055   1.059  16.107 -0.1156 -0.7066 -2.4460
  887MPD2    H213061   2.831   0.710  16.088 -0.5220  0.3410 -2.4381
  887MPD2    H313062   3.053   0.836  16.102 -0.2865  1.0888 -2.4204
  887MPD2     N13063   2.835   1.227  16.108  0.0507  0.0126 -0.0751
  887MPD2    H513064   2.746   1.276  16.106 -0.9988 -1.8958  0.7421
  887MPD2    N113065   2.591   0.815  16.133  0.1617 -0.1775  0.3035
  887MPD2    H713066   2.589   0.713  16.137 -0.1833 -0.1191  1.6718
  888MPD2     C13067   4.314   1.231  14.952  0.6660  0.0311  0.1149
  888MPD2    C113068   4.353   1.265  15.078  0.8574 -0.7102 -0.5354
  888MPD2    C213069   4.378   1.397  15.105  0.1310 -0.3236 -0.7490
  888MPD2    C313070   4.359   1.498  15.008 -0.3806  0.0094  0.4848
  888MPD2    C413071   4.327   1.461  14.876  0.1211  0.0793 -0.0190
  888MPD2    C513072   4.310   1.330  14.850  0.2862 -0.2264  0.2516
  888MPD2     H13073   4.398   1.425  15.208  0.8352  0.2586 -1.0474
  888MPD2    H113074   4.322   1.530  14.792 -1.5573  0.0387  0.0502
  888MPD2    H213075   4.303   1.128  14.921  1.1099 -0.0132  0.1028
  888MPD2    H313076   4.289   1.299  14.748 -0.8865 -0.0660  0.4548
  888MPD2     N13077   4.389   1.627  15.053  0.0634 -0.5351 -0.0271
  888MPD2    H513078   4.415   1.635  15.151  0.7229  0.0266 -0.2433
  888MPD2    N113079   4.369   1.178  15.186  0.3929 -0.0721  0.0574
  888MPD2    H713080   4.392   1.219  15.276  1.8616  3.3280 -1.8446
  889MPD2     C13081   4.005   1.049  12.982  0.7918 -0.1980  0.6855
  889MPD2    C113082   3.987   0.944  13.071  0.3627 -0.3843 -0.4356
  889MPD2    C213083   3.966   0.977  13.211  0.5701 -0.1998 -0.2949
  889MPD2    C313084   3.941   1.104  13.254  0.3335 -0.5137 -0.1521
  889MPD2    C413085   3.971   1.205  13.162  0.0173  0.3107 -0.0753
  889MPD2    C513086   4.008   1.176  13.036 -0.3072 -0.3957  0.2519
  889MPD2     H13087   3.948   0.902  13.287 -0.5744  1.4873  1.0942
  889MPD2    H113088   3.980   1.310  13.188 -0.9197 -0.1543  2.1597
  889MPD2    H213089   4.048   1.030  12.885  2.4829 -1.0687  1.6150
  889MPD2    H313090   4.048   1.259  12.980  1.3309 -1.6156 -0.3920
  889MPD2     N13091   3.906   1.128  13.388  0.7553  0.5137 -0.1853
  889MPD2    H513092   3.917   1.052  13.454 -0.7481  1.4000  1.0787
  889MPD2    N113093   4.027   0.824  13.020  0.0691 -0.5780 -0.4479
  889MPD2    H713094   4.050   0.825  12.921  2.3944  0.2216  0.0810
  890MPD2     C13095   3.573   2.406  14.612  0.4396  0.7612  0.0282
  890MPD2    C113096   3.587   2.466  14.735  0.6640 -0.3080  0.4274
  890MPD2    C213097   3.560   2.392  14.844  0.6238 -0.3991 -0.5912
  890MPD2    C313098   3.491   2.267  14.842 -0.1332  0.3253  0.1749
  890MPD2    C413099   3.470   2.211  14.722  0.4390 -0.6408 -2.0376
  890MPD2    C513100   3.521   2.276  14.611 -0.7009  0.5381 -0.1588
  890MPD2     H13101   3.575   2.437  14.942  1.7864  0.2142 -1.0595
  890MPD2    H113102   3.439   2.108  14.714 -3.2802  0.3966 -0.8857
  890MPD2    H213103   3.602   2.445  14.515  2.4234  0.0785  0.3458
  890MPD2    H313104   3.509   2.225  14.516 -1.0519 -0.5265  0.4578
  890MPD2     N13105   3.461   2.201  14.962  0.5991 -0.5873  0.1743
  890MPD2    H513106   3.497   2.240  15.048 -0.2303 -0.0424  0.2736
  890MPD2    N113107   3.626   2.602  14.749  0.0342  0.2377  0.0639
  890MPD2    H713108   3.623   2.654  14.662  2.3932  0.5289  0.1769
  891MPD2     C13109   1.910   1.099  17.216  0.2492  0.1725  0.1166
  891MPD2    C113110   1.804   1.030  17.271  0.4991  0.0366 -0.1789
  891MPD2    C213111   1.831   0.933  17.368 -0.1136 -0.4570  0.1145
  891MPD2    C313112   1.965   0.916  17.412  0.8213 -0.1103  0.3704
  891MPD2    C413113   2.064   0.981  17.346 -0.3067 -0.0562 -0.1790
  891MPD2    C513114   2.041   1.070  17.247  0.2495 -0.0903 -0.2077
  891MPD2     H13115   1.744   0.877  17.399 -0.3021  0.8359  1.9363
  891MPD2    H113116   2.168   0.974  17.377 -0.1687 -1.8444 -1.0672
  891MPD2    H213117   1.890   1.178  17.144 -0.3387 -1.2195 -1.2566
  891MPD2    H313118   2.122   1.137  17.222 -0.5366  1.0650  0.3637
  891MPD2     N13119   1.985   0.819  17.513 -0.2171 -0.6170  0.0170
  891MPD2    H513120   1.902   0.778  17.555 -0.1663 -0.6365  0.0979
  891MPD2    N113121   1.679   1.073  17.221 -0.8547 -0.4264 -0.3253
  891MPD2    H713122   1.675   1.130  17.137 -0.9541 -0.7725 -0.5570
  892MPD2     C13123   2.425   1.995  14.696  0.3805  0.6715  0.2193
  892MPD2    C113124   2.382   1.904  14.790  0.0029  0.3402  0.4160
  892MPD2    C213125   2.402   1.768  14.766  0.2123 -0.1687  0.1214
  892MPD2    C313126   2.473   1.729  14.650  0.3967 -0.1817 -0.0299
  892MPD2    C413127   2.528   1.827  14.565 -0.6537 -0.3057  0.2693
  892MPD2    C513128   2.493   1.961  14.585 -0.0218  0.0466  0.8105
  892MPD2     H13129   2.367   1.686  14.827  0.9274 -1.1318 -0.7634
  892MPD2    H113130   2.580   1.804  14.473  0.5130 -1.0153  1.0911
  892MPD2    H213131   2.399   2.100  14.707 -2.2786  0.1530 -1.0245
  892MPD2    H313132   2.542   2.042  14.533  0.1450 -0.3217  0.3969
  892MPD2     N13133   2.501   1.594  14.616  0.1914  0.0311 -0.1369
  892MPD2    H513134   2.559   1.582  14.534  2.1536 -0.5492  1.3330
  892MPD2    N113135   2.285   1.949  14.883  0.4189 -0.1586 -0.4139
  892MPD2    H713136   2.260   2.048  14.879 -0.1606 -0.3298 -0.9602
  893MPD2     C13137   3.320   4.155   1.713  0.1164 -0.5928 -0.1407
  893MPD2    C113138   3.409   4.228   1.789 -0.4787  0.3762  0.1625
  893MPD2    C213139   3.425   4.193   1.925  0.6004  0.2141  0.1420
  893MPD2    C313140   3.360   4.084   1.978 -0.4578  0.6736  0.2447
  893MPD2    C413141   3.268   4.019   1.901 -1.0848 -0.7567  0.5116
  893MPD2    C513142   3.249   4.059   1.773 -0.5925 -1.3300  0.3712
  893MPD2     H13143   3.487   4.258   1.986 -0.4052  0.7534  0.5975
  893MPD2    H113144   3.218   3.932   1.942 -1.9512  0.5087  2.1730
  893MPD2    H213145   3.289   4.180   1.612  2.7778 -2.9624 -1.5577
  893MPD2    H313146   3.170   4.010   1.717 -0.6552 -1.1573  0.3104
  893MPD2     N13147   3.367   4.043   2.112  0.7122 -0.6767 -0.8221
  893MPD2    H513148   3.299   3.973   2.140  1.1594 -0.1845  1.4596
  893MPD2    N113149   3.462   4.337   1.720  0.6120  0.5523 -0.1714
  893MPD2    H713150   3.434   4.341   1.623  0.5561  0.1612 -0.1718
  894MPD2     C13151   1.959   2.289   1.616 -0.4953  0.0217 -0.0645
  894MPD2    C113152   1.854   2.373   1.624 -0.2543 -0.3460  0.1146
  894MPD2    C213153   1.859   2.493   1.553  0.5114  0.0760  0.3696
  894MPD2    C313154   1.961   2.528   1.473 -0.1043  0.3964  0.1046
  894MPD2    C413155   2.058   2.435   1.456  0.2500 -0.0483  0.0377
  894MPD2    C513156   2.065   2.319   1.531 -0.6059  0.0174 -0.1306
  894MPD2     H13157   1.775   2.562   1.556 -0.2790 -0.8753  0.1042
  894MPD2    H113158   2.127   2.442   1.373  0.6224 -1.1817  0.2406
  894MPD2    H213159   1.967   2.198   1.674 -1.0977  0.0696  0.0875
  894MPD2    H313160   2.133   2.239   1.504 -0.5823  0.4739 -1.4034
  894MPD2     N13161   1.957   2.655   1.417 -0.3776  1.0187 -0.2351
  894MPD2    H513162   1.888   2.724   1.444 -0.0688  1.3343 -0.2455
  894MPD2    N113163   1.749   2.341   1.716 -0.2154  0.2764 -0.4001
  894MPD2    H713164   1.764   2.254   1.765  1.9753  0.4487 -0.7393
  895MPD2     C13165   1.417   1.159  14.156 -0.0665 -0.0802 -0.2919
  895MPD2    C113166   1.349   1.187  14.041 -0.1919  0.0481 -0.1450
  895MPD2    C213167   1.394   1.166  13.919 -0.2451  0.0552  0.1089
  895MPD2    C313168   1.529   1.136  13.902  0.2709 -0.5447 -0.0817
  895MPD2    C413169   1.602   1.091  14.011  0.3285 -0.1575  0.6515
  895MPD2    C513170   1.541   1.104  14.135  0.0716  0.0342 -0.3601
  895MPD2     H13171   1.335   1.200  13.835  1.0878  0.4179 -0.6925
  895MPD2    H113172   1.708   1.067  14.009  0.4053  0.3357 -1.2248
  895MPD2    H213173   1.375   1.187  14.252 -0.5089  1.5241 -0.9526
  895MPD2    H313174   1.595   1.096  14.229 -0.1092  2.5247 -0.0396
  895MPD2     N13175   1.578   1.145  13.770  0.1036 -0.2051  0.2273
  895MPD2    H513176   1.504   1.156  13.702  2.6950 -0.0416 -2.5924
  895MPD2    N113177   1.227   1.258  14.041 -0.0375 -0.3328  0.2130
  895MPD2    H713178   1.188   1.264  13.948 -1.3101  0.9884  0.8166
  896MPD2     C13179   2.585   3.688   1.204 -0.2954 -0.7079 -0.3993
  896MPD2    C113180   2.664   3.714   1.092  0.7320 -0.3166  0.4127
  896MPD2    C213181   2.602   3.757   0.977 -0.2875  0.3830  0.4089
  896MPD2    C313182   2.465   3.752   0.961  0.3725 -0.9464 -0.4833
  896MPD2    C413183   2.395   3.724   1.076  0.5206 -0.4056  0.5513
  896MPD2    C513184   2.450   3.707   1.200  0.4469  0.1537  0.2032
  896MPD2     H13185   2.658   3.785   0.889  0.0338  0.0346  0.5040
  896MPD2    H113186   2.288   3.740   1.074  0.5946  0.1986  1.7119
  896MPD2    H213187   2.628   3.664   1.300 -1.5253 -0.7216  0.1568
  896MPD2    H313188   2.388   3.703   1.289 -0.5512 -0.7224 -0.5248
  896MPD2     N13189   2.412   3.787   0.836  0.3367 -0.3909  0.0326
  896MPD2    H513190   2.476   3.826   0.768 -0.0945  1.9857  0.9612
  896MPD2    N113191   2.804   3.710   1.110  0.0506 -0.3574  0.2803
  896MPD2    H713192   2.835   3.682   1.203 -0.8316 -0.2575  0.6048
  897MPD2     C13193   0.090   0.274  11.007  0.3429 -0.4895 -0.8660
  897MPD2    C113194   0.058   0.400  10.971 -0.7714 -0.4196 -0.3187
  897MPD2    C213195   4.706   0.469  11.049  0.1438  0.0442  0.0075
  897MPD2    C313196   4.659   0.422  11.166 -0.1383  0.3560  0.3732
  897MPD2    C413197   4.692   0.292  11.207  0.3470  0.5448 -0.0730
  897MPD2    C513198   0.042   0.225  11.125 -0.1246 -0.2648  0.4874
  897MPD2     H13199   4.688   0.575  11.035  1.4637  0.2998  0.2087
  897MPD2    H113200   4.660   0.239  11.296  0.6268  0.8457  0.2048
  897MPD2    H213201   0.160   0.207  10.959  0.7483 -1.3235  0.8838
  897MPD2    H313202   0.081   0.131  11.163  0.4059  0.8154  2.6339
  897MPD2     N13203   4.560   0.503  11.223  0.1251  0.3538  0.1327
  897MPD2    H513204   4.546   0.595  11.183 -1.2070 -1.1617 -2.8422
  897MPD2    N113205   0.109   0.454  10.847  0.0556  0.0778 -0.6740
  897MPD2    H713206   0.103   0.554  10.829 -0.1556  0.1607 -0.1622
  898MPD2     C13207   2.192   1.333  17.574  0.7384  0.0785 -0.2449
  898MPD2    C113208   2.209   1.438  17.662  0.2164 -0.0570 -0.8905
  898MPD2    C213209   2.124   1.541  17.663 -0.3512 -0.0641 -0.2905
  898MPD2    C313210   2.007   1.532  17.590 -0.0684  0.4094 -0.8796
  898MPD2    C413211   1.985   1.430  17.504  0.1125  0.3888 -0.1278
  898MPD2    C513212   2.080   1.335  17.491  0.0677 -0.0632  0.3065
  898MPD2     H13213   2.137   1.625  17.730  3.4654 -1.7807  1.1224
  898MPD2    H113214   1.899   1.425  17.439  0.7076 -0.1466 -0.8653
  898MPD2    H213215   2.255   1.245  17.569  0.3326 -0.2321  0.0730
  898MPD2    H313216   2.068   1.251  17.424 -1.9513 -1.8051  2.8265
  898MPD2     N13217   1.913   1.634  17.605 -0.6921  0.4819  0.2630
  898MPD2    H513218   1.933   1.711  17.668 -2.4484  2.5169 -1.6776
  898MPD2    N113219   2.314   1.432  17.759  0.6511  0.1118  0.3374
  898MPD2    H713220   2.326   1.503   0.069 -0.9912  0.2579  0.4775
  899MPD2     C13221   2.788   1.929  17.339  0.1522  0.5566 -0.2229
  899MPD2    C113222   2.841   2.014  17.437 -0.0664  0.7337  0.1436
  899MPD2    C213223   2.761   2.067  17.538 -0.2725 -0.0082  0.1657
  899MPD2    C313224   2.630   2.034  17.530 -0.4052  0.0047  0.0048
  899MPD2    C413225   2.570   1.959  17.430  0.1840  0.1120  0.1345
  899MPD2    C513226   2.654   1.907  17.338 -0.6084 -0.2869  0.2468
  899MPD2     H13227   2.796   2.133  17.617  1.7325 -1.9561  0.8867
  899MPD2    H113228   2.462   1.947  17.426  0.0452  1.4355  0.0558
  899MPD2    H213229   2.857   1.885  17.267  1.3154  0.4787  0.9430
  899MPD2    H313230   2.616   1.851  17.253 -1.3605 -1.0822  1.1159
  899MPD2     N13231   2.529   2.075  17.626  0.1965 -0.6103 -0.5325
  899MPD2    H513232   2.435   2.050  17.598  0.0898  0.3604 -1.0334
  899MPD2    N113233   2.972   2.043  17.419  0.0127 -0.1162 -0.1431
  899MPD2    H713234   3.021   1.995  17.345 -1.7074  0.7190 -1.8024
  900MPD2     C13235   2.837   3.459  12.762 -0.0461 -0.8152 -0.3554
  900MPD2    C113236   2.722   3.386  12.748  0.4757  0.5102 -0.5270
  900MPD2    C213237   2.617   3.437  12.679 -0.0898  0.6823  1.0879
  900MPD2    C313238   2.643   3.545  12.602 -0.2405  0.1244 -0.1593
  900MPD2    C413239   2.761   3.612  12.607 -0.1126 -0.5858  0.0356
  900MPD2    C513240   2.860   3.572  12.692  0.8674  0.0825  0.8671
  900MPD2     H13241   2.530   3.373  12.671  0.2562  0.0738  2.2565
  900MPD2    H113242   2.773   3.708  12.559  0.4846 -0.8208 -0.2795
  900MPD2    H213243   2.916   3.440  12.833  1.1590 -0.6167 -1.6325
  900MPD2    H313244   2.941   3.639  12.719 -1.0150  2.9149 -0.6314
  900MPD2     N13245   2.541   3.577  12.516  0.1618  0.0619  0.2957
  900MPD2    H513246   2.450   3.532  12.515  0.4112 -0.4782  1.3997
  900MPD2    N113247   2.713   3.267  12.823 -0.3254  0.2811  0.1896
  900MPD2    H713248   2.800   3.243  12.869 -0.9540  1.7323  2.1366
  901MPD2     C13249   2.462   2.408  13.437 -0.1040 -0.1463 -0.0387
  901MPD2    C113250   2.570   2.379  13.357  0.6304 -0.1062  0.7976
  901MPD2    C213251   2.607   2.475  13.264  0.0117 -0.6213  0.6236
  901MPD2    C313252   2.540   2.596  13.249 -0.1518  0.3794  0.1266
  901MPD2    C413253   2.433   2.622  13.334  0.2389  0.2577 -0.4420
  901MPD2    C513254   2.392   2.521  13.414  0.3029 -0.3188 -0.5689
  901MPD2     H13255   2.699   2.458  13.209 -0.3521 -1.0611  0.1371
  901MPD2    H113256   2.396   2.723  13.344 -0.3063  0.1435 -1.2647
  901MPD2    H213257   2.427   2.341  13.514  2.1874 -2.7156 -1.2238
  901MPD2    H313258   2.310   2.535  13.484  1.4841  2.7138  0.2372
  901MPD2     N13259   2.590   2.686  13.149 -0.2332  0.4948 -0.2145
  901MPD2    H513260   2.669   2.655  13.092 -2.1911 -0.0665 -2.6484
  901MPD2    N113261   2.633   2.253  13.382 -0.1337 -0.0858  0.6417
  901MPD2    H713262   2.582   2.184  13.437 -0.4955 -0.3263  0.0017
  902MPD2     C13263   1.456   2.311  13.339  0.6148 -0.4420  0.3938
  902MPD2    C113264   1.423   2.300  13.206  0.0222  0.5947 -0.0043
  902MPD2    C213265   1.427   2.180  13.144 -0.1325 -0.6328 -0.1774
  902MPD2    C313266   1.452   2.064  13.211  0.9377 -0.1418 -0.6932
  902MPD2    C413267   1.483   2.073  13.345 -0.4232  0.0516 -0.4959
  902MPD2    C513268   1.481   2.194  13.405  0.0281  0.2771 -0.2116
  902MPD2     H13269   1.408   2.182  13.037  1.1431 -1.6209 -0.4184
  902MPD2    H113270   1.514   1.991  13.410  1.4258 -0.4228 -1.9743
  902MPD2    H213271   1.461   2.400  13.401  1.6027 -1.5844  1.9487
  902MPD2    H313272   1.493   2.196  13.513  0.5110  1.3537 -0.2966
  902MPD2     N13273   1.460   1.936  13.153 -0.6498 -0.4497  0.0943
  902MPD2    H513274   1.491   1.862  13.215  1.0984 -0.0809 -0.3220
  902MPD2    N113275   1.380   2.414  13.132 -0.1863  0.1963 -0.2215
  902MPD2    H713276   1.372   2.405  13.031 -0.0440  1.4860 -0.3461
  903MPD2     C13277   1.362   1.732  12.372 -0.2660  0.1159  0.5239
  903MPD2    C113278   1.343   1.627  12.458 -0.0341 -1.3724  0.5021
  903MPD2    C213279   1.277   1.513  12.414 -0.4161  0.0350 -0.2031
  903MPD2    C313280   1.225   1.502  12.286 -0.6200 -0.5158  0.5287
  903MPD2    C413281   1.263   1.603  12.197 -0.2654 -0.9063 -0.4328
  903MPD2    C513282   1.324   1.719  12.242 -0.2551 -0.4012  0.4075
  903MPD2     H13283   1.245   1.437  12.484 -0.2124 -0.2387 -0.4080
  903MPD2    H113284   1.242   1.601  12.091 -1.8556  1.2102 -0.1663
  903MPD2    H213285   1.393   1.831  12.406  0.6357  0.6017 -1.6883
  903MPD2    H313286   1.357   1.799  12.177  0.5428  0.9533  2.4748
  903MPD2     N13287   1.133   1.403  12.253 -0.0665 -0.3052  0.6967
  903MPD2    H513288   1.108   1.342  12.330 -4.8372 -0.9399 -1.3286
  903MPD2    N113289   1.393   1.641  12.588 -0.3720 -0.3453 -0.1066
  903MPD2    H713290   1.433   1.732  12.608  0.4545 -0.5267 -0.9118
  904MPD2     C13291   1.631   0.740  13.915 -0.0123  0.1950 -0.2028
  904MPD2    C113292   1.582   0.749  14.044  0.4764 -0.1216 -0.3903
  904MPD2    C213293   1.661   0.766  14.155  0.1117  0.2083  0.6460
  904MPD2    C313294   1.797   0.753  14.144  1.0343  0.0895 -0.1948
  904MPD2    C413295   1.850   0.738  14.017  0.8667 -0.4433 -0.0402
  904MPD2    C513296   1.768   0.740  13.905  0.8854  0.3188  0.1764
  904MPD2     H13297   1.612   0.759  14.252 -1.7948 -0.6106 -0.3618
  904MPD2    H113298   1.957   0.736  14.000  1.1183 -1.9179  1.6436
  904MPD2    H213299   1.583   0.726  13.819 -0.3304  2.5965 -0.3995
  904MPD2    H313300   1.808   0.737  13.804  0.9769 -1.5475  0.2607
  904MPD2     N13301   1.877   0.755  14.263  0.1763  0.1915 -0.5182
  904MPD2    H513302   1.827   0.766  14.351  0.0130  2.0916 -0.8444
  904MPD2    N113303   1.444   0.775  14.055 -0.0860 -0.6350 -0.0732
  904MPD2    H713304   1.415   0.810  14.146 -0.9884  0.6887 -0.8596
  905MPD2     C13305   0.956   0.891  13.460  0.2181  0.5907 -0.0828
  905MPD2    C113306   1.013   0.960  13.559  0.8144 -0.2185 -0.2318
  905MPD2    C213307   1.139   1.016  13.537  0.5753 -0.0540 -0.0283
  905MPD2    C313308   1.189   1.022  13.407  0.2678  0.3939 -0.1826
  905MPD2    C413309   1.120   0.964  13.303  0.5363  0.0757 -0.0286
  905MPD2    C513310   1.004   0.893  13.329 -0.8351  0.4400 -0.3105
  905MPD2     H13311   1.193   1.057  13.621  0.8664 -0.4056 -0.0431
  905MPD2    H113312   1.161   0.970  13.202 -2.7601 -1.2158 -1.4309
  905MPD2    H213313   0.861   0.840  13.475 -0.0554  0.9660 -0.5136
  905MPD2    H313314   0.957   0.846  13.244 -3.9815 -1.9453  2.7215
  905MPD2     N13315   1.319   1.069  13.372 -0.2416 -0.2192  0.3195
  905MPD2    H513316   1.348   1.063  13.275  1.0989  1.5715  0.5975
  905MPD2    N113317   0.956   0.941  13.690  0.1334 -0.6298  0.0101
  905MPD2    H713318   0.881   0.874  13.700 -0.4091  0.1784  1.2995
  906MPD2     C13319   3.442   0.899  11.267  0.4176  0.3598  0.1755
  906MPD2    C113320   3.421   0.800  11.175  0.3542  0.8030 -0.3027
  906MPD2    C213321   3.402   0.672  11.218  1.2788  0.1258 -0.3694
  906MPD2    C313322   3.415   0.639  11.355 -0.0212 -0.3339  0.4579
  906MPD2    C413323   3.444   0.744  11.448  0.3500  0.2720  0.0060
  906MPD2    C513324   3.455   0.870  11.405  0.4748 -0.3057 -0.3917
  906MPD2     H13325   3.385   0.593  11.145 -0.2753  0.1343 -0.0243
  906MPD2    H113326   3.464   0.723  11.552 -1.8563  0.8348  0.5519
  906MPD2    H213327   3.452   1.003  11.239  0.8520 -0.1515 -1.5785
  906MPD2    H313328   3.484   0.949  11.473 -0.7387 -1.0357  0.9806
  906MPD2     N13329   3.390   0.512  11.406 -0.3730 -0.1610  0.6397
  906MPD2    H513330   3.400   0.487  11.503 -0.7422  0.3196  0.8037
  906MPD2    N113331   3.405   0.821  11.038  0.0879  0.3609 -0.1689
  906MPD2    H713332   3.390   0.733  10.989 -0.1256  0.5190 -0.3863
  907MPD2     C13333   2.382   4.681  15.597 -0.2553  0.5254 -0.9156
  907MPD2    C113334   2.425   4.550  15.616  0.0147 -0.1301 -0.8499
  907MPD2    C213335   2.451   4.510  15.748 -0.9989  1.2271 -0.5020
  907MPD2    C313336   2.448   4.592  15.855 -0.0673  0.6376 -0.2495
  907MPD2    C413337   2.400   4.717  15.832 -0.2912  0.7852  0.1119
  907MPD2    C513338   2.360   0.021  15.710  0.2640  0.4366 -0.2150
  907MPD2     H13339   2.490   4.412  15.776  0.1262  1.2200 -2.1040
  907MPD2    H113340   2.393   0.054  15.906 -1.5679 -0.3495  1.1865
  907MPD2    H213341   2.356   4.721  15.500  0.2882  0.2569 -1.1722
  907MPD2    H313342   2.314   0.119  15.701 -1.8503 -0.6259 -1.1826
  907MPD2     N13343   2.487   4.548  15.981 -0.2048 -0.0141 -0.0828
  907MPD2    H513344   2.511   4.449  15.989 -0.3902 -0.2968 -2.8894
  907MPD2    N113345   2.450   4.463  15.509  0.3474  0.5957  0.1545
  907MPD2    H713346   2.483   4.374  15.544 -1.7087  0.4613  1.7437
  908MPD2     C13347   0.010   0.011   9.973  1.0362 -0.0107 -0.1805
  908MPD2    C113348   4.651   0.067  10.046  0.2432 -0.3316  0.3608
  908MPD2    C213349   4.688   0.165  10.140 -0.0141  0.0524  0.8893
  908MPD2    C313350   0.082   0.207  10.149  0.6037  0.2928 -0.8777
  908MPD2    C413351   0.178   0.165  10.063 -0.3980 -0.4462 -0.1053
  908MPD2    C513352   0.143   0.066   9.968  0.1980 -0.0465 -0.1252
  908MPD2     H13353   4.615   0.204  10.210 -0.7406 -0.5782  0.4853
  908MPD2    H113354   0.280   0.201  10.067 -1.3069  2.4454 -3.1250
  908MPD2    H213355   4.732   4.666   9.909 -3.0308  0.2481  0.6806
  908MPD2    H313356   0.228   0.023   9.917 -0.2787 -0.9065 -0.1954
  908MPD2     N13357   0.106   0.306  10.248 -0.1120 -0.6689  0.1459
  908MPD2    H513358   0.036   0.325  10.320 -1.8067  3.8958 -2.7145
  908MPD2    N113359   4.518   0.022  10.029  0.3947  0.7630 -0.1647
  908MPD2    H713360   4.497   4.684   9.969  0.9044  0.2061  0.3812
  909MPD2     C13361   4.663   3.273  11.704 -0.6767  0.5849  0.7083
  909MPD2    C113362   0.022   3.368  11.690 -0.8483 -0.2388 -0.1444
  909MPD2    C213363   0.060   3.439  11.807  0.2520  0.2343 -0.6833
  909MPD2    C313364   0.013   3.406  11.925 -0.2960  0.0570  0.5657
  909MPD2    C413365   4.656   3.304  11.935  0.3429  0.1152  0.0603
  909MPD2    C513366   4.614   3.245  11.823 -0.3964 -0.0881  0.7383
  909MPD2     H13367   0.122   3.528  11.816 -1.0014  0.9546  0.7545
  909MPD2    H113368   4.595   3.279  12.022  0.1607 -0.2247 -0.1655
  909MPD2    H213369   4.612   3.232  11.617  4.0679 -0.5061 -1.5462
  909MPD2    H313370   4.530   3.176  11.818  1.9226 -2.7781 -0.6563
  909MPD2     N13371   0.058   3.469  12.043  0.1913 -0.1439 -0.7860
  909MPD2    H513372   0.116   3.551  12.030  2.3142 -1.4444  0.5076
  909MPD2    N113373   0.067   3.408  11.558  0.3239  0.0169 -0.4658
  909MPD2    H713374   0.128   3.490  11.559  0.3259  0.0298 -1.4041
  910MPD2     C13375   1.932   0.556  16.672  0.2808  0.1918  0.4396
  910MPD2    C113376   1.951   0.446  16.588 -0.4600  0.3447 -0.0820
  910MPD2    C213377   1.895   0.451  16.456 -0.1772 -0.5013 -0.5127
  910MPD2    C313378   1.817   0.562  16.425 -0.3554  0.0142  0.2226
  910MPD2    C413379   1.804   0.669  16.516 -0.3474  0.2448  0.4575
  910MPD2    C513380   1.866   0.662  16.630 -0.5420 -0.4769  0.3461
  910MPD2     H13381   1.896   0.361  16.396  0.0069 -0.2972 -0.8169
  910MPD2    H113382   1.746   0.758  16.493 -0.6149 -0.0568 -0.0327
  910MPD2    H213383   1.981   0.573  16.767  2.5620 -1.3674 -0.4359
  910MPD2    H313384   1.855   0.756  16.684  1.2168  0.5185 -1.0233
  910MPD2     N13385   1.726   0.567  16.317  0.1540 -0.0544  0.2627
  910MPD2    H513386   1.670   0.651  16.309  0.8152  0.4935  1.4486
  910MPD2    N113387   1.995   0.319  16.633 -0.4579  0.1138  0.4576
  910MPD2    H713388   1.977   0.240  16.571  2.0534  1.6869 -2.2857
  911MPD2     C13389   4.731   0.382  16.672 -0.4045  0.1201  0.2238
  911MPD2    C113390   0.068   0.493  16.652 -0.2344 -0.3125 -0.4513
  911MPD2    C213391   0.009   0.601  16.584  0.3836 -0.4871 -0.1094
  911MPD2    C313392   4.629   0.588  16.519 -0.4782  0.7879  0.8522
  911MPD2    C413393   4.559   0.473  16.535  0.1646  0.1871 -0.8049
  911MPD2    C513394   4.609   0.377  16.608  0.2055 -0.3254 -0.0000
  911MPD2     H13395   0.068   0.690  16.567  0.8983 -0.2883  2.7559
  911MPD2    H113396   4.460   0.456  16.494 -0.0095  0.2318 -0.4043
  911MPD2    H213397   0.019   0.297  16.732 -0.9666 -0.6762 -0.6345
  911MPD2    H313398   4.549   0.288  16.617  1.7067 -1.4879 -1.6946
  911MPD2     N13399   4.571   0.685  16.439  0.3408 -0.6900  0.2772
  911MPD2    H513400   4.487   0.650  16.394  0.7094 -1.1390 -0.0582
  911MPD2    N113401   0.199   0.495  16.712  0.2334 -0.2840 -0.3926
  911MPD2    H713402   0.231   0.419  16.771 -2.2789 -1.2591 -0.2898
  912MPD2     C13403   4.136   0.612  15.831 -0.6507 -0.1968  0.4128
  912MPD2    C113404   4.146   0.634  15.963 -0.3117 -0.0327 -0.2503
  912MPD2    C213405   4.063   0.555  16.051  0.2656  0.4793  0.2981
  912MPD2    C313406   3.974   0.457  15.994  0.0505 -0.0645  0.7500
  912MPD2    C413407   3.978   0.430  15.859  0.1217  0.3432  0.3739
  912MPD2    C513408   4.057   0.510  15.785  0.1264 -0.3658  0.3133
  912MPD2     H13409   4.057   0.576  16.157  0.0159 -3.5916  1.1282
  912MPD2    H113410   3.914   0.362  15.804  2.3462 -0.2523 -1.4938
  912MPD2    H213411   4.208   0.654  15.760 -0.5821 -0.6314  0.2271
  912MPD2    H313412   4.054   0.499  15.677 -2.0510 -0.2474  0.3634
  912MPD2     N13413   3.888   0.390  16.089  0.1411 -0.2659 -0.4460
  912MPD2    H513414   3.910   0.416  16.185  1.3632 -0.1479 -0.7661
  912MPD2    N113415   4.242   0.731  16.002  0.1577  0.3744  0.1685
  912MPD2    H713416   4.301   0.772  15.931  1.0635  1.5509  1.5892
  913MPD2     C13417   4.517   1.580  10.846  0.7378  0.2016  0.0006
  913MPD2    C113418   4.542   1.679  10.941 -0.0550 -0.1860 -0.0896
  913MPD2    C213419   4.505   1.810  10.920  0.0006 -0.2156  0.3442
  913MPD2    C313420   4.452   1.844  10.797 -0.4087  0.6325 -0.0451
  913MPD2    C413421   4.421   1.742  10.707  0.4185 -0.8310 -0.1413
  913MPD2    C513422   4.458   1.614  10.734 -0.4176  0.1524  0.3499
  913MPD2     H13423   4.511   1.885  10.998  0.3964 -1.1644  1.2258
  913MPD2    H113424   4.359   1.759  10.620 -2.2669 -0.2111  1.9177
  913MPD2    H213425   4.549   1.480  10.872  1.7487  0.0599 -1.8012
  913MPD2    H313426   4.437   1.543  10.655  1.3686  0.1744 -0.1411
  913MPD2     N13427   4.422   1.976  10.755  0.1310  0.2112  0.0604
  913MPD2    H513428   4.386   1.989  10.661  1.9072  1.7139 -0.3968
  913MPD2    N113429   4.602   1.629  11.066 -0.6277 -0.2837  0.3912
  913MPD2    H713430   4.620   1.530  11.076  0.1018 -0.1576  0.3602
  914MPD2     C13431   2.591   2.154  12.595  0.2155  0.1624 -0.1849
  914MPD2    C113432   2.595   2.253  12.688 -0.3488 -0.0707 -0.4386
  914MPD2    C213433   2.620   2.214  12.818  0.2305  0.5530  0.5301
  914MPD2    C313434   2.620   2.075  12.852 -0.5847 -0.7825 -0.4119
  914MPD2    C413435   2.608   1.984  12.755  0.2040 -0.2944  0.6114
  914MPD2    C513436   2.593   2.025  12.627  0.1425  0.4853 -0.1011
  914MPD2     H13437   2.631   2.282  12.902  0.9752  1.1272 -0.0389
  914MPD2    H113438   2.609   1.877  12.767  4.5622 -0.1641  1.1827
  914MPD2    H213439   2.574   2.190  12.495 -2.6497 -3.1091 -0.8449
  914MPD2    H313440   2.593   1.942  12.557  0.5718  0.9091 -0.6128
  914MPD2     N13441   2.646   2.041  12.991 -0.3404 -0.5495 -0.9305
  914MPD2    H513442   2.647   2.117  13.059  1.8232  0.6275 -2.2538
  914MPD2    N113443   2.592   2.390  12.642  0.2596  0.4579 -0.4234
  914MPD2    H713444   2.567   2.398  12.544  2.3574  0.5464 -0.9427
  915MPD2     C13445   1.000   2.337  15.604  0.5874  0.7113  0.2210
  915MPD2    C113446   0.891   2.403  15.555  0.0287 -0.4724  0.2867
  915MPD2    C213447   0.801   2.456  15.644 -0.0833 -0.1889  0.4296
  915MPD2    C313448   0.811   2.432  15.780  0.6351 -0.3781 -0.2096
  915MPD2    C413449   0.910   2.341  15.831 -0.2981  0.0196 -0.9586
  915MPD2    C513450   1.003   2.300  15.737 -0.4104  0.4876  0.2674
  915MPD2     H13451   0.721   2.521  15.610  1.7195  1.2075 -1.1671
  915MPD2    H113452   0.909   2.302  15.932 -0.3031  1.5893 -0.3532
  915MPD2    H213453   1.079   2.307  15.536 -0.5274 -0.5122 -0.5286
  915MPD2    H313454   1.084   2.238  15.774  0.4507  1.2913 -0.2759
  915MPD2     N13455   0.705   2.470  15.864  0.4001  0.1946  0.2188
  915MPD2    H513456   0.649   2.538  15.814 -1.4903 -1.4085  0.1400
  915MPD2    N113457   0.876   2.421  15.419  0.9398 -0.2559 -0.6255
  915MPD2    H713458   0.819   2.499  15.386  1.3668  0.3151 -0.0118
  916MPD2     C13459   3.452   0.594  15.723 -0.0272  0.3425  0.2560
  916MPD2    C113460   3.491   0.470  15.762  0.1395 -1.0011  0.0379
  916MPD2    C213461   3.583   0.397  15.689 -0.2753  0.3418 -0.2555
  916MPD2    C313462   3.649   0.454  15.582  0.1576 -0.7846  0.2773
  916MPD2    C413463   3.614   0.578  15.538  0.6146  0.9858  0.1121
  916MPD2    C513464   3.510   0.639  15.600  0.1180  0.4084 -0.2298
  916MPD2     H13465   3.607   0.299  15.729 -0.3298  0.9768  1.3529
  916MPD2    H113466   3.663   0.630  15.456 -1.0365 -0.2298 -1.6576
  916MPD2    H213467   3.379   0.652  15.778 -1.4177 -2.2107  1.0908
  916MPD2    H313468   3.473   0.738  15.575  3.2744  1.3259 -1.3044
  916MPD2     N13469   3.755   0.378  15.528  0.1254 -0.2421 -0.4208
  916MPD2    H513470   3.785   0.296  15.581  0.6008 -0.1956 -0.6167
  916MPD2    N113471   3.437   0.428  15.884 -0.4179 -0.3062  0.5464
  916MPD2    H713472   3.380   0.498  15.931  1.5512  0.9691  1.0879
  917MPD2     C13473   4.097   2.192  11.945  0.0429 -0.4104 -0.3375
  917MPD2    C113474   4.031   2.311  11.931 -0.1258  0.3975  0.3978
  917MPD2    C213475   4.083   2.409  11.855  1.0371 -0.9560  0.1527
  917MPD2    C313476   4.201   2.394  11.785 -0.7137  0.4454 -0.2779
  917MPD2    C413477   4.271   2.272  11.807 -0.1685  0.0510 -0.1359
  917MPD2    C513478   4.216   2.169  11.882 -0.1552 -0.3313  0.1380
  917MPD2     H13479   4.019   2.492  11.827 -0.7002 -1.5544  2.3476
  917MPD2    H113480   4.367   2.251  11.762 -0.9672 -2.2718 -0.7620
  917MPD2    H213481   4.060   2.112  12.008 -0.1750 -1.7558 -2.1686
  917MPD2    H313482   4.271   2.078  11.908 -0.8771 -0.7100  0.3442
  917MPD2     N13483   4.258   2.493  11.698 -0.7989  0.7920  0.1314
  917MPD2    H513484   4.342   2.463  11.649 -0.9093 -0.9523  0.9914
  917MPD2    N113485   3.927   2.333  12.020 -0.7002  0.2352  0.0379
  917MPD2    H713486   3.894   2.255  12.076  0.1734  0.4915  0.9185
  918MPD2     C13487   3.604   3.194  12.297  0.4945 -0.6266 -0.0921
  918MPD2    C113488   3.722   3.134  12.330  0.4569  0.3200 -0.2485
  918MPD2    C213489   3.733   2.998  12.333 -0.8448  0.1417  0.3472
  918MPD2    C313490   3.623   2.919  12.309  0.6121 -0.2876 -0.0802
  918MPD2    C413491   3.502   2.980  12.286 -0.5756  0.3213  0.7551
  918MPD2    C513492   3.498   3.114  12.271 -0.1745  0.6958 -0.1746
  918MPD2     H13493   3.827   2.953  12.361  0.5346  2.8452  0.0297
  918MPD2    H113494   3.416   2.916  12.281  0.5174 -1.1644  0.9149
  918MPD2    H213495   3.585   3.301  12.297 -1.4014 -0.9463 -0.7554
  918MPD2    H313496   3.401   3.157  12.245 -0.7024  1.3343  2.8849
  918MPD2     N13497   3.642   2.778  12.303  0.5713  1.1676 -0.8731
  918MPD2    H513498   3.735   2.737  12.298  0.4176  0.9816 -2.2817
  918MPD2    N113499   3.831   3.205  12.363  0.0848  0.1227 -0.0844
  918MPD2    H713500   3.916   3.152  12.381 -1.1311 -1.0708  2.1995
  919MPD2     C13501   4.448   1.838  11.797 -0.3652  0.5649 -0.1168
  919MPD2    C113502   4.432   1.712  11.739  0.1720 -0.8105  0.6415
  919MPD2    C213503   4.405   1.710  11.605 -0.1711  0.1836 -0.4097
  919MPD2    C313504   4.389   1.824  11.528  0.0055  1.2216 -0.0310
  919MPD2    C413505   4.404   1.950  11.588  0.1646  0.0025  1.1409
  919MPD2    C513506   4.431   1.953  11.726  0.3199 -0.4579  0.2336
  919MPD2     H13507   4.384   1.611  11.566 -1.2900  0.6415 -0.9783
  919MPD2    H113508   4.405   2.041  11.529 -0.4078  1.6780  3.7068
  919MPD2    H213509   4.475   1.853  11.901  2.0085 -0.6180 -0.5466
  919MPD2    H313510   4.447   2.047  11.778  3.1967 -1.3211  0.9252
  919MPD2     N13511   4.336   1.816  11.393  0.1131 -0.1335  0.0213
  919MPD2    H513512   4.328   1.907  11.348 -1.8310 -0.1323  0.3778
  919MPD2    N113513   4.432   1.592  11.819 -0.1545  0.8221  0.1164
  919MPD2    H713514   4.447   1.502  11.772  0.0767 -0.0613  1.8885
  920MPD2     C13515   3.973   2.473  10.829 -0.1926  0.0205  0.2812
  920MPD2    C113516   3.919   2.363  10.766 -0.5821 -0.4898  0.0294
  920MPD2    C213517   3.950   2.239  10.810 -0.3880 -0.1429 -0.2711
  920MPD2    C313518   4.040   2.215  10.916 -0.1245  0.1654 -0.9612
  920MPD2    C413519   4.096   2.328  10.971 -0.0867  0.3230  0.4326
  920MPD2    C513520   4.052   2.455  10.938  0.1928 -0.1938  0.5503
  920MPD2     H13521   3.898   2.156  10.763  0.4090 -0.6766 -0.2105
  920MPD2    H113522   4.159   2.319  11.060 -1.1459  1.1357  1.2611
  920MPD2    H213523   3.950   2.576  10.804 -0.5271 -0.6792 -2.2275
  920MPD2    H313524   4.087   2.539  10.997  0.5684  1.3821 -1.9315
  920MPD2     N13525   4.069   2.081  10.950 -0.5229 -0.7086 -0.1711
  920MPD2    H513526   4.024   2.009  10.895 -0.1103 -1.2095  0.1568
  920MPD2    N113527   3.838   2.373  10.648  0.3408 -0.1855 -0.4563
  920MPD2    H713528   3.813   2.285  10.605  1.6257 -0.6687 -0.2201
  921MPD2     C13529   0.942   0.787  17.418  0.4244 -0.0853 -0.3751
  921MPD2    C113530   0.956   0.848  17.296 -0.3228 -0.0938 -0.2970
  921MPD2    C213531   0.875   0.809  17.190 -0.2265 -0.2685 -0.0964
  921MPD2    C313532   0.784   0.717  17.201 -0.1003  0.1687  0.3679
  921MPD2    C413533   0.783   0.644  17.323 -0.5437  0.6854 -0.2862
  921MPD2    C513534   0.857   0.685  17.428  0.5984 -0.7775  0.6899
  921MPD2     H13535   0.901   0.831  17.087  0.1406 -0.9372 -0.1461
  921MPD2    H113536   0.715   0.562  17.341  2.2768 -1.7579 -0.7060
  921MPD2    H213537   1.008   0.810  17.501  0.5002 -0.8469 -0.2242
  921MPD2    H313538   0.842   0.644  17.527 -2.2452 -2.6309 -0.5163
  921MPD2     N13539   0.696   0.665  17.100 -0.2018 -0.2154 -0.0126
  921MPD2    H513540   0.645   0.579  17.118 -0.4954 -0.1805 -0.6632
  921MPD2    N113541   1.074   0.927  17.280 -0.2095 -0.1922 -0.3556
  921MPD2    H713542   1.157   0.912  17.336 -0.6981  0.9106  0.6530
  922MPD2     C13543   1.454   3.394  17.371  0.5837 -0.2846 -0.7108
  922MPD2    C113544   1.357   3.490  17.394 -0.2048 -0.4892 -0.6435
  922MPD2    C213545   1.235   3.446  17.444 -0.7245  0.7338  0.3399
  922MPD2    C313546   1.202   3.307  17.430  0.1339  0.0695  0.5527
  922MPD2    C413547   1.304   3.218  17.385  0.5242  0.5947  0.7861
  922MPD2    C513548   1.430   3.258  17.355  1.4774 -0.6869 -0.0739
  922MPD2     H13549   1.159   3.511  17.485 -0.0083  2.0961 -0.4793
  922MPD2    H113550   1.282   3.112  17.383  1.1685  0.4762  0.0639
  922MPD2    H213551   1.555   3.431  17.359 -0.4108  2.3490 -1.1057
  922MPD2    H313552   1.507   3.186  17.327 -0.3335 -3.1269  1.1950
  922MPD2     N13553   1.067   3.267  17.456  0.0437  0.0162  1.1333
  922MPD2    H513554   0.998   3.341  17.461  1.7252  1.6892 -0.2029
  922MPD2    N113555   1.387   3.626  17.413  0.0820  0.1651  0.1681
  922MPD2    H713556   1.315   3.687  17.452 -0.6258 -1.8158  1.9699
  923MPD2     C13557   1.976   0.057   8.839  0.1050 -0.4388 -0.6893
  923MPD2    C113558   2.013   0.152   8.927 -0.3745  0.0369 -0.0791
  923MPD2    C213559   2.125   0.138   9.003  0.1517 -0.6938 -0.0271
  923MPD2    C313560   2.194   0.013   9.007 -0.0493 -0.2184 -0.3833
  923MPD2    C413561   2.155   4.664   8.913 -0.3393  0.7976 -0.4059
  923MPD2    C513562   2.049   4.684   8.830 -0.5122 -0.0807  0.6507
  923MPD2     H13563   2.153   0.217   9.072 -0.5481  1.9522 -2.8002
  923MPD2    H113564   2.204   4.567   8.911 -1.1086  0.4098 -0.2840
  923MPD2    H213565   1.882   0.056   8.785  0.4261  2.0436 -1.3131
  923MPD2    H313566   2.033   4.597   8.767  2.0174 -1.4634  1.9239
  923MPD2     N13567   2.296   4.726   9.105 -0.1672  0.6434 -0.5250
  923MPD2    H513568   2.348   4.639   9.097  0.1503  0.5607  2.4002
  923MPD2    N113569   1.923   0.265   8.941  0.0971  0.1324 -0.2810
  923MPD2    H713570   1.843   0.263   8.879 -0.7330 -1.0217  0.8267
  924MPD2     C13571   2.284   3.824  16.048 -0.0253  0.0333  0.0692
  924MPD2    C113572   2.383   3.840  16.137  0.3239 -0.1052 -0.9419
  924MPD2    C213573   2.386   3.952  16.218  0.2971  0.0775 -0.6707
  924MPD2    C313574   2.299   4.054  16.199 -0.4947  0.0822 -0.3755
  924MPD2    C413575   2.190   4.033  16.124 -0.1734  0.7645 -0.2547
  924MPD2    C513576   2.184   3.915  16.056  0.9712 -0.2550 -0.3548
  924MPD2     H13577   2.470   3.957  16.286  0.8044 -0.3314 -1.2608
  924MPD2    H113578   2.108   4.103  16.112 -1.0407 -0.2914 -0.5330
  924MPD2    H213579   2.270   3.742  15.978 -2.3298  0.5005 -0.0204
  924MPD2    H313580   2.098   3.889  15.996  0.2949  0.3678  0.3370
  924MPD2     N13581   2.314   4.184  16.256  0.6506  0.2835 -0.3764
  924MPD2    H513582   2.238   4.250  16.238  0.0675 -0.5360 -0.8846
  924MPD2    N113583   2.480   3.733  16.149  0.6626 -0.9348  0.9196
  924MPD2    H713584   2.495   3.673  16.069  1.3083 -0.2420  0.5235
  925MPD2     C13585   1.471   1.433  15.042  0.4977  0.2345 -0.4475
  925MPD2    C113586   1.416   1.549  14.985  0.4894  0.1896 -0.2781
  925MPD2    C213587   1.362   1.646  15.064 -0.3004 -0.1931 -0.5996
  925MPD2    C313588   1.376   1.639  15.197 -0.0230 -0.6986 -0.3198
  925MPD2    C413589   1.422   1.524  15.254  0.1555 -0.1696 -0.0337
  925MPD2    C513590   1.479   1.423  15.175  0.6211  0.5509 -0.6872
  925MPD2     H13591   1.325   1.739  15.022  0.2497  0.7754  1.0592
  925MPD2    H113592   1.426   1.523  15.362 -2.1925 -2.0420  0.0262
  925MPD2    H213593   1.504   1.349  14.983  0.0859 -0.3044  0.0873
  925MPD2    H313594   1.527   1.335  15.217  1.6606  2.3007  1.7761
  925MPD2     N13595   1.340   1.737  15.294 -0.7099 -0.0513 -0.5000
  925MPD2    H513596   1.354   1.711  15.392 -0.2406  1.1193 -0.2623
  925MPD2    N113597   1.431   1.566  14.844 -0.2172  0.0390 -0.0780
  925MPD2    H713598   1.383   1.648  14.806  3.7473  2.3007 -0.1544
  926MPD2     C13599   0.550   0.011  13.831  0.1236 -0.6833 -0.9156
  926MPD2    C113600   0.434   0.071  13.783  0.3858  0.2174  0.6777
  926MPD2    C213601   0.431   0.125  13.656 -0.0669 -0.6282 -0.0809
  926MPD2    C313602   0.537   0.106  13.577  0.0916 -0.4204  0.5492
  926MPD2    C413603   0.649   0.039  13.616 -1.0437 -0.1980 -0.3650
  926MPD2    C513604   0.658   4.740  13.747 -0.2751  0.1386 -0.0510
  926MPD2     H13605   0.341   0.175  13.621  0.3194 -1.9867 -2.9697
  926MPD2    H113606   0.738   0.028  13.556  0.2540  1.5299  1.2685
  926MPD2    H213607   0.556   4.712  13.931 -1.8242 -1.0189 -0.9296
  926MPD2    H313608   0.744   4.686  13.786  0.4975  1.2721 -0.1914
  926MPD2     N13609   0.543   0.163  13.442 -0.3885  0.5952  0.0575
  926MPD2    H513610   0.635   0.149  13.399 -0.8500 -1.4953 -0.2468
  926MPD2    N113611   0.314   0.085  13.857 -0.4187 -0.3635  0.6419
  926MPD2    H713612   0.229   0.105  13.803  0.7562 -2.2047 -1.8898
  927MPD2     C13613   4.549   1.828  17.634  0.3438  0.7511  0.4179
  927MPD2    C113614   4.524   1.957  17.666 -0.7588  0.3314 -0.8582
  927MPD2    C213615   4.556   2.050  17.563  0.3409 -0.3237 -0.2438
  927MPD2    C313616   4.606   2.010  17.440  0.6123  0.4450 -0.8147
  927MPD2    C413617   4.639   1.875  17.421 -0.5037 -0.5296 -0.9388
  927MPD2    C513618   4.611   1.790  17.520 -0.1719 -0.2620 -0.3723
  927MPD2     H13619   4.530   2.154  17.581  0.5778 -0.2230 -0.4966
  927MPD2    H113620   4.681   1.835  17.329 -1.5968 -1.5978 -0.9622
  927MPD2    H213621   4.524   1.750  17.705 -1.5363 -0.3370 -1.4285
  927MPD2    H313622   4.627   1.685  17.502  0.0105 -0.3626  0.3857
  927MPD2     N13623   4.628   2.103  17.332  0.8251  0.6468 -0.0934
  927MPD2    H513624   4.613   2.202  17.353  1.6943  0.4521  1.4310
  927MPD2    N113625   4.468   1.987   0.026  0.9753 -0.0446 -0.1448
  927MPD2    H713626   4.458   1.905   0.086  0.8051 -1.1427 -1.6511
  928MPD2     C13627   1.895   0.534   0.766  0.3508 -0.4209  0.8596
  928MPD2    C113628   1.892   0.671   0.757 -0.5522 -0.0043 -0.4058
  928MPD2    C213629   1.993   0.728   0.675  0.7322 -0.2794 -0.0982
  928MPD2    C313630   2.075   0.648   0.595  0.1642  0.0125  0.2984
  928MPD2    C413631   2.073   0.511   0.605  0.1773 -0.3573  0.2072
  928MPD2    C513632   1.983   0.455   0.694  0.1874  0.4729  0.4674
  928MPD2     H13633   1.994   0.836   0.673  2.6048 -0.3009 -0.2705
  928MPD2    H113634   2.133   0.444   0.545 -1.9217 -0.9001 -1.2714
  928MPD2    H213635   1.814   0.481   0.816 -1.0396  1.1149  0.2441
  928MPD2    H313636   1.964   0.348   0.700 -1.7106  0.8829  1.7013
  928MPD2     N13637   2.181   0.702   0.515 -0.8470 -0.2843  0.1297
  928MPD2    H513638   2.252   0.644   0.472 -0.2414 -1.1622  2.3269
  928MPD2    N113639   1.795   0.758   0.808  0.5396  0.4282  0.2076
  928MPD2    H713640   1.796   0.853   0.772 -0.8490 -0.1288 -1.3085
  929MPD2     C13641   2.666   0.433  10.183  0.0050 -0.2946 -1.0130
  929MPD2    C113642   2.560   0.351  10.143  0.1985 -0.5612  0.2882
  929MPD2    C213643   2.435   0.373  10.197  0.2514 -0.2995  0.5654
  929MPD2    C313644   2.410   0.488  10.269 -0.1945 -0.1908  0.2519
  929MPD2    C413645   2.511   0.573  10.302 -0.5403  0.0644  0.0184
  929MPD2    C513646   2.635   0.542  10.256  0.3962  0.5549 -0.5354
  929MPD2     H13647   2.354   0.307  10.167  0.7971 -0.3290 -0.8587
  929MPD2    H113648   2.505   0.654  10.373 -0.1383  0.0160  0.1091
  929MPD2    H213649   2.768   0.420  10.148  0.6185  2.5879 -0.2975
  929MPD2    H313650   2.720   0.606  10.277  1.2134 -1.0068  0.9228
  929MPD2     N13651   2.283   0.518  10.321  0.3426  0.4493  0.3525
  929MPD2    H513652   2.280   0.594  10.388  0.9210  0.4784  0.3437
  929MPD2    N113653   2.570   0.229  10.070  0.3575 -0.1876  0.1025
  929MPD2    H713654   2.483   0.177  10.070  0.2679 -0.0427  0.6084
  930MPD2     C13655   4.680   2.754  14.695  0.4165  0.3230 -0.0365
  930MPD2    C113656   4.646   2.871  14.637  0.0842 -0.5033 -0.5327
  930MPD2    C213657   4.628   2.874  14.501 -0.3276 -0.0409 -0.0580
  930MPD2    C313658   4.648   2.766  14.420  0.4416 -0.3279  0.6408
  930MPD2    C413659   4.696   2.655  14.479 -0.6760 -0.2007 -0.3628
  930MPD2    C513660   4.704   2.647  14.610  0.2124  0.0970  0.3002
  930MPD2     H13661   4.595   2.968  14.459  0.4417  0.4376  0.4190
  930MPD2    H113662   4.725   2.573  14.414  1.1954  1.6590 -1.8632
  930MPD2    H213663   4.699   2.744  14.802  1.9793  1.6668 -0.1992
  930MPD2    H313664   4.731   2.551  14.654  0.0161 -0.6322 -1.1743
  930MPD2     N13665   4.657   2.770  14.279  0.4592 -0.0676 -0.6417
  930MPD2    H513666   4.705   2.696  14.227  0.8775  0.6557 -1.2863
  930MPD2    N113667   4.640   2.997  14.691  0.0126 -0.2683 -0.0021
  930MPD2    H713668   4.627   3.074  14.626  3.7181  0.9714  0.7379
  931MPD2     C13669   0.029   1.892   0.547 -0.8968  0.6884  0.1017
  931MPD2    C113670   4.677   1.980   0.593  0.4651 -0.4543  0.4273
  931MPD2    C213671   4.645   1.967   0.729  0.6424 -0.2651  0.3357
  931MPD2    C313672   4.695   1.861   0.802 -0.6045  0.0509  0.0038
  931MPD2    C413673   0.055   1.783   0.750 -0.1134  0.1222 -0.1884
  931MPD2    C513674   0.083   1.800   0.625 -0.3654 -0.3744 -0.0507
  931MPD2     H13675   4.557   2.019   0.765  1.0916  1.3071 -0.8570
  931MPD2    H113676   0.092   1.698   0.807 -0.9349  0.2681  0.5623
  931MPD2    H213677   0.062   1.900   0.444  0.7686  0.6917  0.6310
  931MPD2    H313678   0.165   1.748   0.576 -0.8315 -0.7182 -0.4666
  931MPD2     N13679   4.648   1.818   0.926  0.5204  0.5094  0.9158
  931MPD2    H513680   4.679   1.725   0.951 -2.7618 -0.9322 -0.4581
  931MPD2    N113681   4.618   2.066   0.499  0.1423  0.0117 -0.3419
  931MPD2    H713682   4.631   2.051   0.399 -1.5917  0.0230 -0.5748
  932MPD2     C13683   1.453   1.040  12.431  0.2343  0.5777 -0.0500
  932MPD2    C113684   1.570   1.091  12.382 -0.5556 -0.1392  0.7808
  932MPD2    C213685   1.691   1.046  12.428  0.0276 -0.4282  0.4115
  932MPD2    C313686   1.692   0.937  12.520  0.5460 -0.5565 -0.5767
  932MPD2    C413687   1.573   0.882  12.562 -0.4275  0.0774 -0.0334
  932MPD2    C513688   1.456   0.933  12.517 -0.0571 -0.1631 -0.3467
  932MPD2     H13689   1.785   1.087  12.392  0.9646 -2.7075  0.2398
  932MPD2    H113690   1.580   0.800  12.633 -1.9375  0.8312  0.9800
  932MPD2    H213691   1.353   1.072  12.405 -0.2796 -0.7174  0.3271
  932MPD2    H313692   1.364   0.902  12.565 -0.5435  0.8819 -0.6044
  932MPD2     N13693   1.806   0.878  12.579  0.5506  0.2494  0.0537
  932MPD2    H513694   1.784   0.808  12.649  0.8096 -0.2700 -0.3862
  932MPD2    N113695   1.572   1.200  12.290  0.2488  0.0873  0.4297
  932MPD2    H713696   1.660   1.244  12.268 -0.3281  0.4103 -1.2112
  933MPD2     C13697   1.389   1.477   0.834 -0.0238 -0.3505  0.1285
  933MPD2    C113698   1.464   1.383   0.777  0.1792  0.1821  0.2761
  933MPD2    C213699   1.545   1.426   0.673  0.4055  0.1275 -1.1386
  933MPD2    C313700   1.541   1.557   0.619  0.4319 -0.1741  0.4613
  933MPD2    C413701   1.462   1.651   0.685 -0.1892  0.2123  0.4264
  933MPD2    C513702   1.396   1.607   0.795 -0.1195 -0.0089  0.7516
  933MPD2     H13703   1.604   1.353   0.618  1.9055  0.7009 -0.2869
  933MPD2    H113704   1.465   1.757   0.662 -2.6337  0.3786  0.9605
  933MPD2    H213705   1.334   1.456   0.925  0.3233  0.7786  0.5914
  933MPD2    H313706   1.346   1.686   0.849 -1.8991 -0.8412  0.3381
  933MPD2     N13707   1.643   1.592   0.527  0.1676 -0.5639  0.2015
  933MPD2    H513708   1.686   1.511   0.484 -3.1390 -1.1392 -2.0586
  933MPD2    N113709   1.468   1.259   0.844  0.4269  0.1206  0.1298
  933MPD2    H713710   1.404   1.257   0.923  0.8375  0.4582  0.4689
  934MPD2     C13711   3.501   3.442   1.640 -0.8942  0.4287 -0.2370
  934MPD2    C113712   3.534   3.394   1.511 -0.3528  0.3749 -0.1466
  934MPD2    C213713   3.477   3.272   1.487  0.3370 -0.7351 -0.3369
  934MPD2    C313714   3.387   3.205   1.568 -0.5082  1.0837  0.3092
  934MPD2    C413715   3.355   3.252   1.693 -0.1357 -0.0110 -0.4138
  934MPD2    C513716   3.418   3.369   1.729 -0.0454 -0.3638  0.1815
  934MPD2     H13717   3.510   3.229   1.393  0.8639 -1.0926  0.0103
  934MPD2    H113718   3.285   3.206   1.762  2.5200 -2.1429  0.8550
  934MPD2    H213719   3.540   3.540   1.668  2.5590 -1.0506  0.0967
  934MPD2    H313720   3.390   3.412   1.824 -0.2323 -1.0038  0.4143
  934MPD2     N13721   3.316   3.089   1.535  0.1196 -0.0413 -0.1066
  934MPD2    H513722   3.240   3.055   1.594  0.1314  1.2298  0.6549
  934MPD2    N113723   3.613   3.467   1.416  0.3300  0.1035 -0.1107
  934MPD2    H713724   3.605   3.414   1.330 -0.4407  0.1046 -0.0422
  935MPD2     C13725   3.499   2.204   1.098  0.1821 -0.1255 -0.0685
  935MPD2    C113726   3.363   2.231   1.077  0.4266  0.6589 -0.1645
  935MPD2    C213727   3.303   2.331   1.153  0.5985 -0.4263 -0.8222
  935MPD2    C313728   3.382   2.405   1.241 -0.1571  0.2030  0.0571
  935MPD2    C413729   3.521   2.384   1.253  0.5313  0.7983 -0.9234
  935MPD2    C513730   3.569   2.280   1.186  0.7952 -0.4328 -0.2155
  935MPD2     H13731   3.199   2.353   1.134  0.3519 -1.0790 -0.2357
  935MPD2    H113732   3.585   2.440   1.320  1.4223 -1.3146 -0.0244
  935MPD2    H213733   3.565   2.142   1.037 -0.6881 -1.6864  0.5634
  935MPD2    H313734   3.676   2.258   1.187  1.3063  2.1111  0.4810
  935MPD2     N13735   3.327   2.514   1.316 -0.7945  0.0528 -0.8959
  935MPD2    H513736   3.383   2.569   1.380 -1.0641  0.9747 -1.4615
  935MPD2    N113737   3.290   2.174   0.970  0.0760  0.1503  0.4925
  935MPD2    H713738   3.195   2.204   0.954  0.2013  0.4528  0.3169
  936MPD2     C13739   1.923   4.255  12.128  0.1500 -0.2223  0.3186
  936MPD2    C113740   1.966   4.196  12.247  0.2778  0.3680 -0.0030
  936MPD2    C213741   2.019   4.277  12.343 -0.1044 -0.3494  0.4839
  936MPD2    C313742   2.026   4.414  12.323 -1.0649 -0.0462 -0.7934
  936MPD2    C413743   1.993   4.466  12.195 -0.1984  0.0812  0.1449
  936MPD2    C513744   1.943   4.386  12.103 -0.5639 -0.2983  0.3497
  936MPD2     H13745   2.054   4.232  12.436  1.9323 -0.4359 -0.3254
  936MPD2    H113746   2.001   4.569  12.162  0.5721  0.6221  1.9884
  936MPD2    H213747   1.871   4.193  12.056  0.7879  0.1703 -0.4870
  936MPD2    H313748   1.911   4.439  12.014  0.5057 -0.1850  0.0393
  936MPD2     N13749   2.082   4.488  12.429  0.6131 -0.4820 -0.1121
  936MPD2    H513750   2.100   4.432  12.512 -1.3581 -1.6164 -0.4384
  936MPD2    N113751   1.951   4.063  12.285  0.5079  0.3346  0.5939
  936MPD2    H713752   1.966   4.050  12.385 -0.1344  1.1311  0.8017
  937MPD2     C13753   0.068   0.994  11.845  0.1125  0.3101  0.0372
  937MPD2    C113754   0.028   1.122  11.816 -1.0901 -0.5651  0.0964
  937MPD2    C213755   0.070   1.173  11.694  0.5333  0.0627 -0.1884
  937MPD2    C313756   0.157   1.110  11.617 -0.0424  0.7048 -0.2733
  937MPD2    C413757   0.213   0.994  11.663 -0.5104 -0.0040 -0.4476
  937MPD2    C513758   0.160   0.934  11.774 -0.3301 -0.4167  0.6775
  937MPD2     H13759   0.032   1.269  11.659 -1.1712 -0.1918  0.9798
  937MPD2    H113760   0.275   0.933  11.599 -1.0998 -1.6055  0.5206
  937MPD2    H213761   0.024   0.936  11.925  0.9488  0.6017  0.7111
  937MPD2    H313762   0.178   0.828  11.786  1.9290 -0.1391 -0.1795
  937MPD2     N13763   0.210   1.179  11.507  0.6126  0.2144  0.1565
  937MPD2    H513764   0.168   1.269  11.488 -0.6168 -1.0924 -3.3850
  937MPD2    N113765   4.660   1.190  11.878  0.3628  0.7152 -0.4468
  937MPD2    H713766   4.619   1.263  11.821  1.0621  0.3907 -1.3718
  938MPD2     C13767   1.984   2.478   1.084  0.1064  0.2431 -0.1470
  938MPD2    C113768   1.857   2.526   1.129  0.3232 -0.3302 -0.9034
  938MPD2    C213769   1.779   2.439   1.207 -0.5980 -0.3501  0.0244
  938MPD2    C313770   1.824   2.315   1.245  0.3691  0.8897  0.3204
  938MPD2    C413771   1.951   2.271   1.211  0.3107  0.0200 -0.3945
  938MPD2    C513772   2.030   2.357   1.142 -0.7915  0.8503  0.2627
  938MPD2     H13773   1.678   2.471   1.233 -0.7336 -0.2706 -0.5892
  938MPD2    H113774   1.998   2.185   1.258  1.7564  1.2521  0.3958
  938MPD2    H213775   2.043   2.533   1.012 -0.0765  0.5933 -0.0299
  938MPD2    H313776   2.128   2.323   1.111 -0.4248 -0.2074  2.5643
  938MPD2     N13777   1.738   2.225   1.314 -0.5697 -0.4236 -0.7948
  938MPD2    H513778   1.775   2.131   1.321  0.5948 -0.0395 -1.7620
  938MPD2    N113779   1.795   2.642   1.079  1.0165  0.5319  0.5758
  938MPD2    H713780   1.699   2.659   1.105  0.4943 -1.4642 -0.0905
  939MPD2     C13781   3.198   3.674   0.634 -0.4149 -0.5908  0.1107
  939MPD2    C113782   3.228   3.808   0.602  0.1356  0.2682 -0.0582
  939MPD2    C213783   3.353   3.844   0.553 -0.3199 -0.4379  0.3626
  939MPD2    C313784   3.453   3.747   0.543  0.2545  0.0682  0.1978
  939MPD2    C413785   3.430   3.615   0.584 -0.5299  0.0373  0.3942
  939MPD2    C513786   3.301   3.584   0.629 -0.2072  0.3608 -0.1494
  939MPD2     H13787   3.370   3.935   0.497 -1.5241 -0.2541  0.3081
  939MPD2    H113788   3.501   3.535   0.569 -0.7465 -0.2525  0.9313
  939MPD2    H213789   3.097   3.646   0.661 -0.4783 -0.4172  0.0501
  939MPD2    H313790   3.282   3.480   0.655  2.0459  0.0230  0.1276
  939MPD2     N13791   3.569   3.784   0.466 -0.5237 -0.2923  0.2446
  939MPD2    H513792   3.583   3.882   0.442 -3.1220 -0.6792 -2.8425
  939MPD2    N113793   3.124   3.903   0.597  0.6177  0.2453  0.7575
  939MPD2    H713794   3.032   3.860   0.602  0.3843  0.3126 -2.8115
  940MPD2     C13795   3.650   4.473  13.357  0.0257 -0.1082 -0.1576
  940MPD2    C113796   3.533   4.551  13.365 -0.4653  0.3553 -0.1822
  940MPD2    C213797   3.477   4.601  13.250 -0.0161 -0.9322 -0.1321
  940MPD2    C313798   3.540   4.577  13.123  0.3639 -0.4203 -0.6606
  940MPD2    C413799   3.657   4.505  13.123  0.5003  0.4910  0.5556
  940MPD2    C513800   3.713   4.452  13.235  0.0150  0.2407 -0.2378
  940MPD2     H13801   3.391   4.664  13.269  0.1424 -0.6613 -0.3211
  940MPD2    H113802   3.701   4.485  13.026  0.6040  0.8477  0.5293
  940MPD2    H213803   3.695   4.421  13.440 -3.0889 -0.1379  1.5064
  940MPD2    H313804   3.798   4.385  13.237  0.1788  0.4071 -1.2767
  940MPD2     N13805   3.500   4.616  12.993 -0.0333 -0.9527  0.2453
  940MPD2    H513806   3.557   4.590  12.914 -0.5823  1.1074 -0.8340
  940MPD2    N113807   3.471   4.574  13.493  0.5306  0.2499 -0.3061
  940MPD2    H713808   3.395   4.639  13.506 -1.4675 -1.8461 -1.4066
  941MPD2     C13809   1.480   3.841  10.081 -0.0590 -0.0471 -0.5476
  941MPD2    C113810   1.533   3.748  10.168 -0.4329 -0.0900  0.8197
  941MPD2    C213811   1.449   3.701  10.267  0.2047 -0.0374  0.0481
  941MPD2    C313812   1.317   3.744  10.281 -0.2378 -0.0819 -0.3737
  941MPD2    C413813   1.271   3.834  10.191  0.2081  0.3739  1.1554
  941MPD2    C513814   1.355   3.890  10.099 -0.3582  0.3143 -0.0367
  941MPD2     H13815   1.486   3.629  10.339 -2.2642 -1.9623 -0.5994
  941MPD2    H113816   1.166   3.858  10.189  0.1748 -0.0298 -1.7198
  941MPD2    H213817   1.541   3.891  10.008  0.8635 -0.1659  0.1486
  941MPD2    H313818   1.324   3.961  10.024 -2.9460 -1.2975 -0.5092
  941MPD2     N13819   1.230   3.703  10.384  0.3632  0.2510 -0.0345
  941MPD2    H513820   1.134   3.734  10.383  0.1939 -0.3572 -1.4412
  941MPD2    N113821   1.665   3.680  10.162  0.1001  0.1016 -0.1419
  941MPD2    H713822   1.678   3.609  10.234 -1.3450  0.5236  0.5222
  942MPD2     C13823   1.404   0.337   9.117  0.2347  0.6459 -0.1530
  942MPD2    C113824   1.454   0.379   9.240 -1.1724  0.0557 -0.8794
  942MPD2    C213825   1.577   0.319   9.280 -0.0517 -0.3293  0.4256
  942MPD2    C313826   1.640   0.225   9.199 -0.2321  0.4564 -0.2533
  942MPD2    C413827   1.581   0.186   9.077  0.2399 -0.0461  0.0865
  942MPD2    C513828   1.470   0.250   9.033 -0.2379 -0.3836 -0.0299
  942MPD2     H13829   1.622   0.352   9.373  2.9630 -1.8714 -0.4870
  942MPD2    H113830   1.622   0.121   9.001  0.2369  1.7608 -1.4893
  942MPD2    H213831   1.323   0.393   9.071  0.4194 -0.9835 -2.4483
  942MPD2    H313832   1.421   0.233   8.937 -0.7758 -1.0827  0.3672
  942MPD2     N13833   1.750   0.150   9.236  0.3844  0.5829 -0.2403
  942MPD2    H513834   1.780   0.077   9.172 -2.9033 -0.2114 -0.8397
  942MPD2    N113835   1.395   0.483   9.318  0.4448  0.1445  0.1673
  942MPD2    H713836   1.452   0.512   9.396  2.2490  0.6519 -1.3216
  943MPD2     C13837   0.912   2.907  10.881 -0.3155 -1.0273  0.8101
  943MPD2    C113838   0.801   2.834  10.880 -0.4702  0.3693  0.1998
  943MPD2    C213839   0.805   2.713  10.812  0.5763 -0.1744  0.6799
  943MPD2    C313840   0.917   2.671  10.744  0.3273 -0.1880 -0.2820
  943MPD2    C413841   1.030   2.741  10.753  0.0080  0.3449 -0.4747
  943MPD2    C513842   1.024   2.860  10.823  0.5407  0.5578  0.0977
  943MPD2     H13843   0.718   2.649  10.813 -0.6279  1.4379 -1.5492
  943MPD2    H113844   1.124   2.700  10.720 -0.2452  0.3661 -1.2273
  943MPD2    H213845   0.920   2.999  10.938 -0.1340 -0.7251  0.2908
  943MPD2    H313846   1.118   2.908  10.844  1.1876  0.0967 -1.7963
  943MPD2     N13847   0.923   2.552  10.668 -0.1417 -0.7973  0.4076
  943MPD2    H513848   1.012   2.531  10.624 -0.6691  0.0361 -1.0641
  943MPD2    N113849   0.685   2.878  10.949 -0.7782  0.9975  0.7513
  943MPD2    H713850   0.688   2.973  10.983  0.5068  0.3781  2.3221
  944MPD2     C13851   4.372   2.855  11.179 -0.1716 -0.7215  0.5910
  944MPD2    C113852   4.491   2.892  11.235 -0.1279  0.0234 -0.2089
  944MPD2    C213853   4.515   3.026  11.257 -0.2219  0.1735  0.1569
  944MPD2    C313854   4.426   3.123  11.218  0.4726 -0.2302  0.1463
  944MPD2    C413855   4.309   3.088  11.155  0.1481  0.1134 -0.6474
  944MPD2    C513856   4.283   2.952  11.134 -0.7968  0.0846  0.0209
  944MPD2     H13857   4.610   3.063  11.295 -1.5723  2.3355  1.4835
  944MPD2    H113858   4.238   3.163  11.123 -0.2345  0.3681  0.7740
  944MPD2    H213859   4.356   2.753  11.146  0.7281 -0.7085  0.0909
  944MPD2    H313860   4.197   2.925  11.075 -0.3792  2.2659 -1.5664
  944MPD2     N13861   4.448   3.250  11.267 -0.4259 -0.2517 -0.6632
  944MPD2    H513862   4.522   3.266  11.335  0.7730 -2.0309 -1.5454
  944MPD2    N113863   4.593   2.792  11.255 -1.0718  1.0288  0.2677
  944MPD2    H713864   4.567   2.695  11.239  1.4857  0.0470  2.0081
    1TMC1    C113865   4.073   4.143  15.080  0.1783 -0.9309 -0.3327
    1TMC1    C213866   3.939   4.156  15.121  0.1719  0.1624 -0.0743
    1TMC1    C313867   3.921   4.239  15.229  0.0988  0.5244  0.1860
    1TMC1    C413868   4.173   4.183  15.161  0.1809  0.1992  0.0859
    1TMC1    C513869   4.149   4.260  15.270  0.0966 -0.2661 -0.5540
    1TMC1    C613870   4.022   4.287  15.311  0.1114 -0.5434 -0.0809
    1TMC1     C13871   4.111   4.088  14.950  0.1659  0.3908 -0.2510
    1TMC1     O13872   4.231   4.093  14.926  0.1346  0.6910 -0.1022
    1TMC1     H13873   3.858   4.101  15.076  0.8029 -3.3449  3.0543
    1TMC1    H113874   4.277   4.157  15.144  0.2109 -0.3577  1.1119
    1TMC1    H213875   4.006   4.352  15.396  1.3778 -0.1480 -0.1321
    1TMC1    C713876   4.247   4.281  15.367 -0.4612 -0.5701 -0.1268
    1TMC1    C813877   3.792   4.282  15.270 -0.0257  0.0832 -0.0160
    1TMC1    O113878   4.214   4.321  15.477 -0.3628  0.3121  0.2144
    1TMC1    O213879   3.779   4.349  15.373  0.3415 -0.0592 -0.2484
    1TMC1    O313880   4.368   4.311  15.313  0.3677 -1.1120 -0.0788
    1TMC1    H313881   4.373   4.293  15.217  3.8597 -2.2453  0.3015
    1TMC1    O513882   3.714   4.298  15.161 -0.3521  0.5720 -0.0749
    1TMC1    H513883   3.755   4.262  15.080  1.8524 -0.7265  1.6230
    2MPD2     C13884   4.044   3.940  14.477 -0.4405 -0.9965 -0.0242
    2MPD2    C113885   3.936   4.021  14.510 -0.2012 -0.2114  0.1112
    2MPD2    C213886   3.930   4.054  14.644  0.2513 -0.5207 -0.1659
    2MPD2    C313887   4.030   4.032  14.733  0.5736 -0.2497 -0.4141
    2MPD2    C413888   4.145   3.952  14.692 -0.3869 -0.5386  0.0318
    2MPD2    C513889   4.147   3.909  14.564  0.3149  0.3418  0.3519
    2MPD2     H13890   3.849   4.120  14.675  1.9455  1.7513 -0.5804
    2MPD2    H113891   4.231   3.931  14.755 -1.2069  2.0008  1.9839
    2MPD2    H213892   4.055   3.900  14.377 -0.0197  0.4490 -0.5595
    2MPD2    H313893   4.236   3.859  14.527 -0.5073 -0.0420 -1.1315
    2MPD2     N13894   4.011   4.075  14.865 -0.1573  0.0252 -0.1440
    2MPD2    H513895   3.923   4.119  14.892  0.5227  1.5946 -0.4467
    2MPD2    N113896   3.852   4.071  14.408  0.0713  1.0487 -0.0168
    2MPD2    H713897   3.882   4.038  14.317 -1.3102  0.0313 -0.0988
    3TMC2    C113898   3.690   4.185  14.300  0.1679 -0.0646 -0.6804
    3TMC2    C213899   3.689   4.088  14.202 -0.5170  0.0202  0.3844
    3TMC2    C313900   3.666   4.131  14.077  0.1992  0.7145  0.3493
    3TMC2    C413901   3.685   4.318  14.270  0.1358 -0.0322 -0.1975
    3TMC2    C513902   3.682   4.352  14.139  0.4176 -0.0223  0.2883
    3TMC2    C613903   3.670   4.262  14.031  0.4435 -0.4068 -0.4230
    3TMC2     C13904   3.750   4.162  14.427 -1.1191  0.4169  0.4673
    3TMC2     O13905   3.724   4.233  14.520  0.4801  0.0351  0.2758
    3TMC2     H13906   3.675   3.984  14.228  1.9691 -0.1834  0.9088
    3TMC2    H113907   3.673   4.387  14.352 -1.2800 -1.9227  1.1763
    3TMC2    H213908   3.650   4.285  13.927  0.9537 -1.2943 -0.7141
    3TMC2    C713909   3.658   4.491  14.113  0.7414  0.3533 -0.2823
    3TMC2    C813910   3.624   4.030  13.984 -0.2283 -0.4633  0.0532
    3TMC2    O113911   3.620   4.568  14.205 -0.0889  0.0374 -0.5720
    3TMC2    O213912   3.658   3.915  13.984  0.2544  0.0146  0.1078
    3TMC2    O513913   3.514   4.071  13.917 -0.2939  0.0139  0.6110
    3TMC2    H513914   3.478   4.152  13.959  2.1387  2.4578 -2.0305
    4TMC2    C113915   3.847   0.090  13.166 -0.2760 -0.1661 -0.1822
    4TMC2    C213916   3.953   0.007  13.165  0.2485  0.4902 -0.0142
    4TMC2    C313917   4.017   4.717  13.282  0.9363  0.2558 -0.8453
    4TMC2    C413918   3.816   0.157  13.279  0.3692  0.1240 -0.9235
    4TMC2    C513919   3.880   0.128  13.394 -0.3325 -0.8154 -0.1928
    4TMC2    C613920   3.978   0.029  13.396  0.5277  0.5406  0.1273
    4TMC2     C13921   3.792   0.124  13.034  0.3465 -0.4834 -0.5260
    4TMC2     O13922   3.878   0.118  12.945 -0.0085  0.3524 -0.0089
    4TMC2     H13923   3.962   4.694  13.071  0.2433  1.5477 -0.6231
    4TMC2    H113924   3.747   0.240  13.271 -0.2951 -0.5612 -2.2089
    4TMC2    H213925   4.028   4.735  13.486  0.4294 -1.6528 -0.6735
    4TMC2    C713926   3.802   0.151  13.520  0.6603  0.1634  0.3683
    4TMC2    C813927   4.084   4.586  13.279 -0.4689  0.6074 -0.6406
    4TMC2    O113928   3.739   0.250  13.529 -0.4549  0.1349  0.1660
    4TMC2    O213929   4.064   4.502  13.195  0.5057 -0.2057 -0.1930
    4TMC2    O513930   4.190   4.593  13.365  0.4186 -0.5315 -0.6284
    4TMC2    H513931   4.209   4.680  13.407 -1.5420 -0.4326  0.0739
    5MPD2     C13932   3.468   0.355  12.723  0.0013  0.5624  0.1652
    5MPD2    C113933   3.413   0.365  12.845  0.6999  0.0256 -0.2603
    5MPD2    C213934   3.482   0.306  12.951  0.7050  0.0418  0.2845
    5MPD2    C313935   3.607   0.248  12.933  0.1536  0.0781  1.2719
    5MPD2    C413936   3.665   0.254  12.806 -0.5282 -0.6312 -0.1381
    5MPD2    C513937   3.595   0.303  12.696 -0.7939 -0.6065  0.9477
    5MPD2     H13938   3.444   0.298  13.053  3.2168  0.3714  1.2516
    5MPD2    H113939   3.764   0.211  12.793 -0.8291 -1.5073  0.4608
    5MPD2    H213940   3.411   0.382  12.634  0.3949  2.5012  0.5079
    5MPD2    H313941   3.645   0.300  12.600 -0.1923 -1.1093  1.2739
    5MPD2     N13942   3.675   0.188  13.041 -0.2649 -0.4023  0.0800
    5MPD2    H513943   3.621   0.180  13.126  0.3599 -0.7122  0.4505
    5MPD2    N113944   3.281   0.429  12.852  0.3885 -0.5318  0.9227
    5MPD2    H713945   3.220   0.433  12.772  0.6379 -3.1207  0.5847
    6MPD1     C13946   1.791   1.536  13.667 -0.3313  0.2523 -0.4678
    6MPD1    C113947   1.833   1.590  13.548 -0.2412  0.0828 -0.4660
    6MPD1    C213948   1.941   1.526  13.484 -0.3869 -0.0335  0.5785
    6MPD1    C313949   1.996   1.405  13.531 -0.1071 -0.0269  0.4840
    6MPD1    C413950   1.948   1.355  13.648  0.0064  0.1946  0.1907
    6MPD1    C513951   1.848   1.421  13.715 -0.1030 -0.1536  0.5450
    6MPD1     H13952   1.978   1.575  13.396 -0.0186  0.8022  1.2025
    6MPD1    H113953   1.988   1.261  13.686 -0.8702  1.0276  3.1976
    6MPD1    H213954   1.720   1.595  13.724  0.7476  0.2733  0.8504
    6MPD1    H313955   1.825   1.381  13.812 -1.7952  3.5166  1.6745
    6MPD1     N13956   2.105   1.344  13.472 -0.1438  0.2309 -0.1154
    6MPD1    H513957   2.138   1.258  13.514 -0.7926 -0.7436 -1.5856
    6MPD1    N113958   1.800   1.724  13.506  1.0446  0.7198  0.1243
    6MPD1    H613959   1.816   1.736  13.407 -0.5989 -2.2103 -0.4945
    6MPD1    H713960   1.712   1.749  13.551  0.3780 -2.5782  0.6420
    7MPD2     C13961   2.690   0.820  13.568 -0.1187  0.8069  0.1587
    7MPD2    C113962   2.661   0.839  13.438  0.1793  0.3672  0.6655
    7MPD2    C213963   2.700   0.758  13.340 -0.3719 -0.6753 -0.7738
    7MPD2    C313964   2.784   0.653  13.364  0.0130  0.1598 -0.0452
    7MPD2    C413965   2.813   0.628  13.502 -0.1749  0.1243  0.0220
    7MPD2    C513966   2.762   0.709  13.597 -0.0098  0.2388  0.7610
    7MPD2     H13967   2.677   0.781  13.236  1.3635  1.4240 -0.6873
    7MPD2    H113968   2.880   0.547  13.527  0.5950  0.6350 -0.3836
    7MPD2    H213969   2.644   0.884  13.642 -0.3130 -0.4734  1.1398
    7MPD2    H313970   2.790   0.685  13.699 -0.4086 -0.5760  0.6760
    7MPD2     N13971   2.823   0.566  13.267 -0.0184  0.5258 -0.2441
    7MPD2    H513972   2.893   0.501  13.301 -0.5148 -0.2975 -0.7824
    7MPD2    N113973   2.576   0.948  13.393 -0.2887  0.0732  0.1380
    7MPD2    H713974   2.560   0.944  13.293  1.2899 -1.3752 -0.0721
    8TMC3    C113975   2.874   0.489  13.046 -0.2836  0.2454  0.4465
    8TMC3    C213976   3.010   0.507  13.067  0.4513  0.5755  0.4605
    8TMC3    C313977   3.094   0.520  12.960 -0.0795 -1.0510  0.4262
    8TMC3    C413978   2.830   0.495  12.919 -0.9813 -0.4780 -0.0112
    8TMC3    C513979   2.912   0.536  12.817  0.2330  0.1672  0.0149
    8TMC3    C613980   3.046   0.544  12.831 -0.5530 -0.0693  0.6938
    8TMC3     C13981   2.783   0.556  13.135 -0.2232 -0.3969  0.0004
    8TMC3     O13982   2.692   0.621  13.080 -0.2529  0.1281 -0.2492
    8TMC3     H13983   3.052   0.500  13.167  0.6269  1.9365  0.4802
    8TMC3    H113984   2.729   0.459  12.901 -0.9004 -0.5520 -0.3154
    8TMC3    H213985   3.112   0.602  12.767 -0.4060 -0.3305  0.6051
    8TMC3    C713986   2.863   0.646  12.734  0.4312  0.8385 -0.7730
    8TMC3    C813987   3.229   0.461  12.978  0.9713 -0.1355 -0.7741
    8TMC3    O113988   2.932   0.683  12.638 -1.0041  0.1602 -0.2985
    8TMC3    O213989   3.271   0.427  13.089 -0.3475  0.3021 -0.1694
    9TMC3    C113990   2.282   1.300  13.318 -0.0652  0.1069 -0.4515
    9TMC3    C213991   2.319   1.291  13.181 -0.3203 -0.2308 -0.0630
    9TMC3    C313992   2.405   1.194  13.142 -0.3445  0.0670 -0.3698
    9TMC3    C413993   2.356   1.233  13.407  0.7149  0.2549  0.5843
    9TMC3    C513994   2.449   1.143  13.368  0.1880 -0.2571  0.0901
    9TMC3    C613995   2.470   1.122  13.236 -0.5356 -0.5908 -0.5907
    9TMC3     C13996   2.179   1.390  13.364 -0.2634  0.2896  0.2993
    9TMC3     O13997   2.157   1.486  13.292  0.6749  0.2493  0.1925
    9TMC3     H13998   2.281   1.359  13.106  2.0918  0.5538 -0.5370
    9TMC3    H113999   2.331   1.234  13.513 -1.6036 -2.3252  0.0858
    9TMC3    H214000   2.557   1.073  13.193 -1.6684 -0.5925 -2.9105
    9TMC3    C714001   2.511   1.053  13.458 -0.1292 -0.5692  0.4529
    9TMC3    C814002   2.434   1.166  13.005  0.1615 -0.4327  0.4180
    9TMC3    O114003   2.512   1.074  13.577  0.0470  0.7587 -0.1613
    9TMC3    O214004   2.389   1.255  12.931  0.5950  0.4602  0.1840
   10MPD2     C14005   2.704   0.894  12.654 -0.1460 -0.5657  0.9056
   10MPD2    C114006   2.693   0.828  12.771  0.1862  0.5943 -0.3100
   10MPD2    C214007   2.619   0.871  12.873  0.4570  0.1176  0.1016
   10MPD2    C314008   2.553   0.999  12.864 -0.3728  0.1262  0.3421
   10MPD2    C414009   2.560   1.068  12.748  0.1553 -0.1866  0.0499
   10MPD2    C514010   2.633   1.015  12.640  0.4029  0.0399 -0.2157
   10MPD2     H14011   2.617   0.821  12.969  0.8395 -0.4064 -0.1671
   10MPD2    H114012   2.504   1.160  12.738 -0.7952 -0.8861 -1.0251
   10MPD2    H214013   2.774   0.863  12.577 -0.0233 -0.7012  1.0709
   10MPD2    H314014   2.627   1.069  12.546  1.2701  2.1697  0.9626
   10MPD2     N14015   2.489   1.044  12.982  0.2757  0.1841  0.5192
   10MPD2    H514016   2.479   0.973  13.054 -1.4966  0.7080  0.7739
   10MPD2    N114017   2.757   0.708  12.799  0.3639  0.3289 -0.6302
   10MPD2    H714018   2.731   0.655  12.881  0.6521 -2.1917 -2.1645
   11MPD2     C14019   3.634   0.015  13.996 -0.0273 -0.0042 -0.4399
   11MPD2    C114020   3.705   4.652  13.937 -0.0681 -0.2471 -0.8188
   11MPD2    C214021   3.761   4.667  13.811  0.0565  0.2932  0.1214
   11MPD2    C314022   3.750   0.038  13.735 -0.1940  0.4850 -0.3617
   11MPD2    C414023   3.679   0.145  13.790 -0.1212 -0.1629 -0.2185
   11MPD2    C514024   3.629   0.130  13.920 -0.0384  0.2451 -0.9584
   11MPD2     H14025   3.824   4.586  13.776  1.1103  0.8739  0.7063
   11MPD2    H114026   3.670   0.241  13.743  1.2943 -0.2905 -0.7560
   11MPD2    H214027   3.603   0.024  14.100 -1.2390  0.1420 -0.8144
   11MPD2    H314028   3.568   0.210  13.961 -0.9327 -1.0761  0.2855
   11MPD2     N14029   3.812   0.043  13.609 -0.3013 -0.0107 -0.1693
   11MPD2    H514030   3.868   4.701  13.591  0.6081  0.1417  1.9473
   11MPD2    N114031   3.706   4.519  13.990  0.4078  0.3915  0.1892
   11MPD2    H714032   3.752   4.444  13.938  0.1385 -0.1790  0.7763
    1MPD1     C14033   0.289   1.858  17.272  0.6260 -0.1453 -0.2220
    1MPD1    C114034   0.311   1.788  17.386 -0.6655 -0.0687 -0.1758
    1MPD1    C214035   0.423   1.708  17.396  0.0929  0.0128 -0.0344
    1MPD1    C314036   0.508   1.699  17.292 -1.0700  0.9030 -0.8269
    1MPD1    C414037   0.488   1.776  17.178 -0.2355  0.7266  0.3208
    1MPD1    C514038   0.377   1.853  17.172 -0.3362 -0.2110  0.0153
    1MPD1     H14039   0.431   1.650  17.488 -1.0718  0.1893  0.1691
    1MPD1    H114040   0.559   1.771  17.096  1.6299  0.2832  1.9386
    1MPD1    H214041   0.203   1.922  17.252  1.4899  0.4799 -1.8818
    1MPD1    H314042   0.359   1.908  17.080 -1.0535 -1.0468 -0.3498
    1MPD1     N14043   0.623   1.620  17.298  0.3569  0.3028  0.5853
    1MPD1    H514044   0.682   1.640  17.217  0.4731 -0.6455  0.4348
    1MPD1    N114045   0.225   1.803  17.498  0.6288 -0.1434 -0.2547
    1MPD1    H614046   0.228   1.734  17.573  0.5819  1.4789  1.2569
    1MPD1    H714047   0.135   1.846  17.479  0.3527 -1.6353 -2.2206
    2MPD1     C14048   1.223   1.160   0.238  0.0618 -0.3509  0.6043
    2MPD1    C114049   1.095   1.203   0.256  0.5584 -0.8839 -0.1166
    2MPD1    C214050   1.034   1.242   0.138 -0.6220  0.1044  0.3727
    2MPD1    C314051   1.105   1.269   0.022  0.6668  0.1016 -0.8833
    2MPD1    C414052   1.235   1.229   0.008  0.2906 -0.2211 -0.5635
    2MPD1    C514053   1.291   1.167   0.120 -0.0656  0.1922  0.1312
    2MPD1     H14054   0.928   1.266   0.143 -0.0464  2.3198  1.9698
    2MPD1    H114055   1.296   1.242  17.681 -1.9747  2.1288 -1.8023
    2MPD1    H214056   1.284   1.130   0.324  3.7560  1.2676 -1.4360
    2MPD1    H314057   1.395   1.139   0.112  0.3524  2.0628 -0.8074
    2MPD1     N14058   1.028   1.313  17.667 -0.0575  0.4176 -0.3859
    2MPD1    H514059   0.932   1.343  17.679 -0.9700 -1.6304 -2.6489
    2MPD1    N114060   1.018   1.171   0.368 -0.2240 -0.0280 -0.5278
    2MPD1    H614061   0.944   1.238   0.385 -0.1159 -0.6766  2.5863
    2MPD1    H714062   1.079   1.175   0.450 -0.9801 -1.3534  0.1000
    3TMC3    C114063   0.984   1.357  17.436  0.5849 -0.4979 -0.9566
    3TMC3    C214064   1.028   1.342  17.305 -0.4498  0.7930  0.7610
    3TMC3    C314065   0.949   1.396  17.211 -0.3631  0.6038  0.4116
    3TMC3    C414066   0.885   1.441  17.468 -0.2643  0.1793 -0.7161
    3TMC3    C514067   0.811   1.487  17.360  0.0080  0.1948  0.2625
    3TMC3    C614068   0.831   1.457  17.230  1.1076 -0.3512 -0.7540
    3TMC3     C14069   1.077   1.314  17.540  0.0542  0.4478 -0.0935
    3TMC3     O14070   1.178   1.258  17.499  0.2661 -0.0161 -0.7530
    3TMC3     H14071   1.123   1.298  17.276 -0.1756  1.3385  0.8330
    3TMC3    H114072   0.848   1.456  17.569 -1.0789  3.8985 -1.5735
    3TMC3    H214073   0.777   1.495  17.144  1.9833  1.2549 -0.5927
    3TMC3    C714074   0.673   1.532  17.396 -0.5085 -0.6674 -0.4974
    3TMC3    C814075   1.002   1.405  17.073 -0.0338  0.7485 -0.0202
    3TMC3    O114076   0.633   1.505  17.503 -0.3155  0.5166  0.5554
    3TMC3    O214077   1.123   1.443  17.072 -0.0187  0.4088  0.0200
    4MPD1     C14078   0.954   1.358  16.577  0.0836  0.2838  0.0634
    4MPD1    C114079   0.850   1.290  16.630  0.3014  0.0599 -0.5128
    4MPD1    C214080   0.851   1.276  16.766 -0.1521 -1.0899 -0.4789
    4MPD1    C314081   0.936   1.354  16.841 -0.2104  0.7253 -0.0919
    4MPD1    C414082   1.037   1.428  16.785  0.2158  0.2572 -0.5678
    4MPD1    C514083   1.042   1.434  16.654  0.2192 -0.8954 -0.2692
    4MPD1     H14084   0.773   1.222  16.817 -0.8675  0.3559 -0.0506
    4MPD1    H114085   1.115   1.481  16.838 -0.1171 -0.6760  0.8587
    4MPD1    H214086   0.972   1.361  16.470 -0.8787  1.8887 -0.0536
    4MPD1    H314087   1.122   1.490  16.606  0.1735  0.8851  1.7480
    4MPD1     N14088   0.924   1.354  16.978  0.5534  0.1033  0.2411
    4MPD1    H514089   0.831   1.328  17.013  0.5162 -2.2210 -1.5452
    4MPD1    N114090   0.782   1.197  16.549  0.2153  0.7474  0.2916
    4MPD1    H614091   0.764   1.235  16.456 -1.3648  0.2602  0.3864
    4MPD1    H714092   0.688   1.188  16.588 -0.0653 -2.3219 -1.0306
    1TCq1    O114093   1.690   1.220  11.252 -0.0787 -0.3560 -0.0957
    1TCq1    C114094   1.622   1.150  11.349  0.1302  0.6384  0.1253
    1TCq1    O214095   1.510   1.167  11.394 -0.2018 -0.1768  0.5920
    1TCq1    C214096   1.720   1.057  11.409 -0.1224 -0.2016 -0.1699
    1TCq1    C314097   1.801   0.993  11.331  0.4387 -0.0777 -0.1028
    1TCq1    C414098   1.846   0.872  11.375  0.6126  0.3611 -0.1190
    1TCq1    C514099   1.849   0.844  11.508  0.3581 -0.0409 -0.6203
    1TCq1    C614100   1.762   0.907  11.592  0.1413  0.1822  0.1283
    1TCq1    C714101   1.703   1.022  11.545 -0.7132  0.3194  0.3525
    1TCq1    C814102   1.788   0.906  11.735 -0.9176  0.0481 -0.4271
    1TCq1    O414103   1.720   0.987  11.791 -0.3064  0.0876 -0.0715
    1TCq1    C914104   1.938   0.810  11.286  0.1517  0.4488  0.3646
    1TCq1    O514105   1.922   0.834  11.164  0.4064  0.3623 -0.0720
    1TCq1    O614106   2.029   0.742  11.341 -0.1389 -0.1677  0.0813
    1TCq1    H114107   1.788   1.211  11.247  0.0159 -0.1586  1.2565
    1TCq1    H214108   1.802   1.018  11.225  2.2844 -0.1300 -0.1077
    1TCq1    H314109   1.904   0.755  11.538 -0.8171 -0.5921 -0.0875
    1TCq1    H414110   1.628   1.075  11.602 -0.8980  0.2509  0.1725
    2MPD1     C14111   2.106   0.862  12.127 -0.2704 -0.6850 -0.3319
    2MPD1    C114112   2.152   0.778  12.031 -0.3529 -0.0282  0.6321
    2MPD1    C214113   2.078   0.777  11.915  0.4308 -0.3084 -0.3293
    2MPD1    C314114   1.950   0.836  11.904 -0.5349 -0.9147 -0.3426
    2MPD1    C414115   1.900   0.908  12.007  0.1238  0.0210 -0.3853
    2MPD1    C514116   1.981   0.923  12.114  0.2947  1.0826 -0.3395
    2MPD1     H14117   2.112   0.722  11.828  1.2837 -0.5729  0.1761
    2MPD1    H114118   1.810   0.968  12.000  0.1335 -0.0873 -1.3955
    2MPD1    H214119   2.176   0.879  12.208 -1.2348 -1.1192  0.5835
    2MPD1    H314120   1.963   1.007  12.180 -0.3532  0.1034  0.7295
    2MPD1     N14121   1.889   0.827  11.777  0.2793  0.6945 -0.3959
    2MPD1    H514122   1.925   0.768  11.703  0.6307 -1.4905  1.5336
    2MPD1    N114123   2.272   0.715  12.040 -0.0542  0.4052 -0.4812
    2MPD1    H614124   2.309   0.709  12.135 -0.3967  0.9064 -0.3156
    2MPD1    H714125   2.289   0.631  11.985  3.2907  2.1301 -2.0590
    1TMC1    C114126   4.422   4.089   1.103 -0.0791  0.5684 -0.7917
    1TMC1    C214127   4.411   4.204   1.026 -0.5660  0.3257 -0.4499
    1TMC1    C314128   4.487   4.221   0.913  0.1524  0.3396 -0.2186
    1TMC1    C414129   4.510   3.992   1.058  0.1945 -0.4140  0.8287
    1TMC1    C514130   4.584   4.018   0.948 -0.4776  0.3014  0.3528
    1TMC1    C614131   4.578   4.132   0.872 -0.6583  0.5750 -0.1731
    1TMC1     C14132   4.339   4.076   1.220 -0.6861  0.0221  0.3453
    1TMC1     O14133   4.268   4.172   1.248  0.8478  0.3686 -0.2272
    1TMC1     H14134   4.343   4.282   1.060 -0.3270  1.0246 -1.5739
    1TMC1    H114135   4.531   3.900   1.112 -1.2645 -1.2433 -0.0153
    1TMC1    H214136   4.647   4.151   0.790 -1.9091  1.6820 -0.9781
    1TMC1    C714137   4.711   3.944   0.950  0.0794  0.4253  0.1722
    1TMC1    C814138   4.475   4.358   0.864  0.3752  0.1937  0.4004
    1TMC1    O114139   4.726   3.845   0.884  0.2045 -0.3762  0.6046
    1TMC1    O214140   4.423   4.454   0.921  0.1566 -0.2045  0.0536
    1TMC1    O314141   0.059   4.044   0.950  0.5846 -0.1277  0.4149
    1TMC1    H314142   0.024   4.121   1.000  0.6397  0.1124  0.0902
    1TMC1    O514143   4.511   4.359   0.735 -0.0084 -0.3195  0.2053
    1TMC1    H514144   4.514   4.270   0.693  2.3409 -0.8303  1.4337
    2MPD1     C14145   4.053   3.800   1.545  0.8558  0.0755  0.1389
    2MPD1    C114146   4.175   3.737   1.521 -0.6512 -0.0500 -0.4844
    2MPD1    C214147   4.263   3.792   1.431  0.1597 -0.0015 -0.0418
    2MPD1    C314148   4.238   3.904   1.365  0.1413  0.1775 -0.4215
    2MPD1    C414149   4.110   3.957   1.381  0.7826  0.1081  0.4435
    2MPD1    C514150   4.022   3.891   1.450  0.1248 -0.0311  0.5835
    2MPD1     H14151   4.361   3.747   1.433 -0.1101 -0.5779  0.1794
    2MPD1    H114152   4.068   4.040   1.324  1.4642  0.9819  1.2105
    2MPD1    H214153   3.973   3.774   1.613  1.1990 -0.7434  0.2384
    2MPD1    H314154   3.922   3.932   1.456 -0.3168 -1.1517  0.9095
    2MPD1     N14155   4.335   3.951   1.272  0.5186  0.1135 -0.5222
    2MPD1    H514156   4.416   3.893   1.255  1.9516  2.1827 -0.7599
    2MPD1    N114157   4.223   3.646   1.620 -0.0401  0.3211 -0.1457
    2MPD1    H614158   4.155   3.591   1.671  2.1001 -1.7774  0.4657
    2MPD1    H714159   4.290   3.579   1.581 -1.2335 -0.8668 -0.1655
    1MPD1     C14160   2.999   0.789  12.232 -0.2340  0.1682 -0.0547
    1MPD1    C114161   3.046   0.819  12.110 -0.6641  0.4405 -0.4710
    1MPD1    C214162   3.174   0.874  12.096  0.5005  0.1834 -0.1053
    1MPD1    C314163   3.255   0.905  12.203  0.3501  0.1261 -0.1868
    1MPD1    C414164   3.196   0.891  12.327 -0.7371 -0.6620 -0.2998
    1MPD1    C514165   3.067   0.833  12.342  0.2274 -0.6178 -0.1115
    1MPD1     H14166   3.217   0.878  11.997 -0.4060  1.6316 -0.4422
    1MPD1    H114167   3.255   0.893  12.418 -0.6959 -1.4612 -0.3083
    1MPD1    H214168   2.910   0.728  12.233  1.0293 -1.6352  2.1061
    1MPD1    H314169   3.021   0.809  12.438  0.4567  0.1028  0.1728
    1MPD1     N14170   3.386   0.951  12.178  0.0517  0.9219 -0.0350
    1MPD1    H514171   3.416   0.954  12.081 -0.2013  0.8044 -0.1164
    1MPD1    N114172   2.979   0.767  11.996  0.7296  0.6427  0.8355
    1MPD1    H614173   2.973   0.837  11.923  1.2918 -1.6467 -1.3883
    1MPD1    H714174   2.883   0.746  12.021  0.2722  0.6523 -0.9294
    2MPD1     C14175   2.590   1.652  11.170  0.3858  0.0215  0.6704
    2MPD1    C114176   2.632   1.542  11.102  0.6749 -0.6228  0.5708
    2MPD1    C214177   2.748   1.549  11.026  0.1573  0.2698  0.8020
    2MPD1    C314178   2.837   1.655  11.043 -0.4273 -0.1661 -0.1809
    2MPD1    C414179   2.795   1.756  11.123  0.1929 -0.5630 -0.4938
    2MPD1    C514180   2.673   1.755  11.182  0.2195  0.3482 -0.0488
    2MPD1     H14181   2.779   1.460  10.973  0.4308  1.2844 -0.7165
    2MPD1    H114182   2.867   1.834  11.145 -1.6379  1.1796 -0.6068
    2MPD1    H214183   2.491   1.654  11.216  0.8101  0.9246  1.5731
    2MPD1    H314184   2.634   1.843  11.232 -2.0832  0.3068 -1.7765
    2MPD1     N14185   2.970   1.656  10.992  0.2266 -0.2589  0.3184
    2MPD1    H514186   3.027   1.739  11.004 -0.3795  0.2566 -0.3310
    2MPD1    N114187   2.546   1.434  11.096 -0.3154 -0.4700  0.4642
    2MPD1    H614188   2.480   1.426  11.173 -1.9180 -1.4338 -0.9999
    2MPD1    H714189   2.587   1.342  11.079 -0.8045 -0.5654 -0.2070
    3MPD1     C14190   3.484   1.787  10.064 -0.3640  0.2913 -0.3244
    3MPD1    C114191   3.514   1.878  10.163 -0.3705  0.8045  0.5029
    3MPD1    C214192   3.485   1.853  10.293 -1.1493  0.3468  0.2515
    3MPD1    C314193   3.398   1.749  10.321  0.6932 -0.9375 -0.7981
    3MPD1    C414194   3.358   1.661  10.223 -0.0455  0.6612 -0.0132
    3MPD1    C514195   3.397   1.688  10.093  0.0793 -0.6587  0.1968
    3MPD1     H14196   3.531   1.904  10.377 -0.4304  0.3018 -0.1116
    3MPD1    H114197   3.302   1.573  10.253  0.3323  0.5333  0.3156
    3MPD1    H214198   3.527   1.789   9.965  0.6338 -0.4710  0.0883
    3MPD1    H314199   3.371   1.612  10.021  0.3750  0.5707 -1.1997
    3MPD1     N14200   3.376   1.718  10.458 -0.0666  0.1951  0.0217
    3MPD1    H514201   3.421   1.775  10.529  0.4805  2.2677 -2.0198
    3MPD1    N114202   3.622   1.962  10.127  0.0943 -0.4377 -0.5998
    3MPD1    H614203   3.617   2.048  10.182  0.4514 -0.8965  0.1639
    3MPD1    H714204   3.605   1.991  10.031  2.4116 -0.2979 -0.9787
    4MPD2     C14205   3.949   1.587  12.233  0.4553  0.2292 -0.3280
    4MPD2    C114206   3.910   1.486  12.146  0.7668 -0.1879  0.2597
    4MPD2    C214207   3.936   1.508  12.013 -0.4682 -0.1234 -0.6827
    4MPD2    C314208   3.983   1.629  11.959 -0.3833 -0.1952 -0.6018
    4MPD2    C414209   4.012   1.731  12.052  0.1534  0.5456 -0.0445
    4MPD2    C514210   4.010   1.708  12.186 -0.6752  0.0145 -0.3021
    4MPD2     H14211   3.920   1.428  11.941  1.8100 -1.2048  0.0046
    4MPD2    H114212   4.057   1.826  12.027  2.2688 -0.6225 -0.7372
    4MPD2    H214213   3.937   1.568  12.339 -0.5484  0.5045 -0.3960
    4MPD2    H314214   4.060   1.777  12.253  0.3664  0.8656 -1.9631
    4MPD2     N14215   3.994   1.630  11.819  0.5299 -0.1076 -0.0331
    4MPD2    H514216   3.987   1.548  11.759 -0.8024  0.9509 -1.3359
    4MPD2    N114217   3.849   1.361  12.182  0.3095  0.3214 -0.2492
    4MPD2    H714218   3.832   1.293  12.110 -0.6478  3.2551 -2.7983
    5TMC3    C114219   3.763   1.194  12.284  0.4308 -0.4588 -0.8021
    5TMC3    C214220   3.630   1.168  12.296 -0.5556  0.1825 -0.1299
    5TMC3    C314221   3.584   1.071  12.218 -0.2617 -0.3190 -0.1469
    5TMC3    C414222   3.837   1.135  12.185  0.5993 -0.0958  0.3099
    5TMC3    C514223   3.779   1.048  12.097 -0.0650  0.7056 -0.2815
    5TMC3    C614224   3.647   1.018  12.106  0.5992 -0.4199 -0.3205
    5TMC3     C14225   3.804   1.326  12.299 -0.0431 -0.7741 -0.0287
    5TMC3     O14226   3.763   1.401  12.387 -0.7411  0.6114  0.1482
    5TMC3     H14227   3.568   1.217  12.370  0.6657  0.2236  0.8609
    5TMC3    H114228   3.944   1.137  12.197  0.6654 -0.8606 -0.1254
    5TMC3    H214229   3.606   0.933  12.052 -0.5158  0.8083 -1.3760
    5TMC3    C714230   3.837   1.045  11.966  0.6547  0.1766  0.6295
    5TMC3    C814231   3.470   1.009  12.276 -0.1707 -0.1556  0.3579
    5TMC3    O114232   3.950   1.101  11.960  0.2949  0.1905  0.5157
    5TMC3    O214233   3.441   1.033  12.390  0.1593 -0.3155 -0.0359
    6TMC3    C114234   3.136   1.618  10.837 -0.0486 -0.2753 -0.4914
    6TMC3    C214235   3.153   1.598  10.702 -0.0443 -0.1337 -0.1160
    6TMC3    C314236   3.277   1.618  10.649 -0.2433 -0.1867  0.5148
    6TMC3    C414237   3.231   1.644  10.929 -0.4383 -0.2665  0.1620
    6TMC3    C514238   3.354   1.669  10.865  0.1947  0.1407  0.2331
    6TMC3    C614239   3.376   1.672  10.729 -0.5078 -0.0954  0.5856
    6TMC3     C14240   3.018   1.566  10.892  1.0689 -0.2757 -0.0559
    6TMC3     O14241   2.947   1.491  10.824 -0.0623  0.9069 -0.1790
    6TMC3     H14242   3.068   1.579  10.638  0.9417 -2.3756 -0.7619
    6TMC3    H114243   3.210   1.650  11.035 -1.9311  0.8284 -0.1998
    6TMC3    H214244   3.477   1.693  10.695 -1.4772  0.8887 -1.6999
    6TMC3    C714245   3.458   1.713  10.958  0.4619  0.2729  0.4306
    6TMC3    C814246   3.280   1.628  10.505 -0.2644 -0.2250 -0.0714
    6TMC3    O114247   3.458   1.655  11.066  0.6444  0.2187  0.1720
    6TMC3    O214248   3.194   1.563  10.443  0.4815 -0.5957 -0.1518
    7MPD2     C14249   3.824   1.053  11.462 -0.5647 -0.1287  1.0038
    7MPD2    C114250   3.872   1.154  11.549  0.0182  0.4354  0.6312
    7MPD2    C214251   3.843   1.137  11.680 -0.7192 -0.2230  0.2017
    7MPD2    C314252   3.776   1.023  11.727  0.7015 -0.1654  0.6485
    7MPD2    C414253   3.715   0.943  11.638 -0.7582  0.8540 -0.0784
    7MPD2    C514254   3.744   0.959  11.508  0.1020  0.5324  0.3410
    7MPD2     H14255   3.884   1.203  11.755  2.3628 -1.0142 -0.7822
    7MPD2    H114256   3.667   0.847  11.656  0.0456  0.4318 -0.1841
    7MPD2    H214257   3.848   1.049  11.356 -1.5708  1.4482  0.7168
    7MPD2    H314258   3.722   0.880  11.438 -1.9541  2.5341 -1.2897
    7MPD2     N14259   3.750   0.998  11.862  0.8765  0.6287 -0.0325
    7MPD2    H514260   3.675   0.938  11.895  0.2240  0.8095 -1.1749
    7MPD2    N114261   3.943   1.265  11.493 -0.4321  0.3125  0.0616
    7MPD2    H714262   3.952   1.274  11.393 -1.3529  0.6819  0.0119
    8TMC3    C114263   4.067   1.476  11.499 -0.7320 -0.0749  0.5247
    8TMC3    C214264   3.987   1.518  11.404  0.1564  0.8478 -0.4188
    8TMC3    C314265   3.945   1.652  11.413 -0.4452  0.1750  0.0610
    8TMC3    C414266   4.122   1.565  11.598 -0.1032 -0.9905 -0.3480
    8TMC3    C514267   4.072   1.693  11.609  0.7231 -0.4533 -0.4610
    8TMC3    C614268   3.986   1.740  11.516 -0.3029 -0.5107  0.4831
    8TMC3     C14269   4.015   1.353  11.570 -0.5816  0.6527  0.4580
    8TMC3     O14270   4.027   1.356  11.694  0.0514 -0.8371  0.4413
    8TMC3     H14271   3.966   1.453  11.321  0.0582  1.1271 -0.6142
    8TMC3    H114272   4.171   1.529  11.688  2.8556  0.5178 -1.3534
    8TMC3    H214273   3.936   1.829  11.552  1.7897  1.5531 -1.7579
    8TMC3    C714274   4.043   1.734  11.741 -0.2369  0.3791 -0.1425
    8TMC3    C814275   3.861   1.692  11.302 -0.2858 -0.0660  0.4551
    8TMC3    O114276   4.040   1.857  11.762  0.7405 -0.5464 -0.0367
    8TMC3    O214277   3.815   1.604  11.236 -0.2402 -0.2274  0.3426
    9MPD2     C14278   3.814   2.023  11.132  0.5848  0.2613 -0.0818
    9MPD2    C114279   3.790   1.890  11.169 -0.1756  0.0274  1.1358
    9MPD2    C214280   3.699   1.821  11.084  0.4085 -0.4412  0.5273
    9MPD2    C314281   3.632   1.880  10.980  0.5458  0.7193 -0.0669
    9MPD2    C414282   3.670   2.009  10.947  0.0689  0.2458  0.5561
    9MPD2    C514283   3.752   2.088  11.030  0.9606  0.4134 -0.3867
    9MPD2     H14284   3.668   1.722  11.116  2.0560 -0.5919  1.6975
    9MPD2    H114285   3.601   2.063  10.884  0.2432  0.9739  0.9951
    9MPD2    H214286   3.879   2.085  11.193  1.4479  0.6009 -1.3285
    9MPD2    H314287   3.782   2.190  11.010  1.1795  0.5900  0.8841
    9MPD2     N14288   3.527   1.820  10.912 -0.1156 -0.4815 -0.1747
    9MPD2    H514289   3.494   1.854  10.822 -0.5832  0.9526  0.5390
    9MPD2    N114290   3.859   1.823  11.278 -0.1626  0.3127  0.8326
    9MPD2    H714291   3.915   1.878  11.343 -0.4658  1.1939  0.3527
    1MPD1     C14292   3.421   0.138  16.803  0.1093 -0.0617  0.5340
    1MPD1    C114293   3.483   0.026  16.848 -0.1599 -0.5731  0.3526
    1MPD1    C214294   3.413   4.688  16.945 -0.0987  0.7856  0.0269
    1MPD1    C314295   3.279   4.709  16.973  0.5179  0.3306 -0.7039
    1MPD1    C414296   3.217   0.077  16.918  0.6001  0.7212 -0.7650
    1MPD1    C514297   3.291   0.158  16.837  0.4721  0.3758 -0.1379
    1MPD1     H14298   3.467   4.604  16.986 -0.5591  0.0523 -0.8861
    1MPD1    H114299   3.115   0.108  16.938  1.1910  2.0169  0.2663
    1MPD1    H214300   3.472   0.214  16.744  0.8415 -1.2179 -0.3411
    1MPD1    H314301   3.247   0.247  16.793 -0.1650 -0.1949 -0.6320
    1MPD1     N14302   3.202   4.622  17.057  0.3488  0.6101 -0.0415
    1MPD1    H514303   3.110   4.657  17.080 -0.6265 -0.9409 -1.5884
    1MPD1    N114304   3.623   0.014  16.830  0.2139 -0.2297  0.5423
    1MPD1    H614305   3.651   0.070  16.750 -1.0200  1.0431  0.9961
    1MPD1    H714306   3.658   4.659  16.821  1.8177  0.4401 -0.3422
    2TMC2    C114307   3.040   4.220  17.241 -0.3606 -0.0660 -0.3846
    2TMC2    C214308   2.939   4.291  17.299 -0.5213  0.1008  0.2926
    2TMC2    C314309   2.923   4.424  17.271 -0.6847 -0.6194 -0.2217
    2TMC2    C414310   3.130   4.288  17.166  0.4494 -0.5371 -0.5076
    2TMC2    C514311   3.127   4.425  17.162  0.3090  0.6678  0.8857
    2TMC2    C614312   3.016   4.499  17.209  0.1250  0.7292 -0.1463
    2TMC2     C14313   3.057   4.077  17.265  0.5332 -0.0741  0.1623
    2TMC2     O14314   3.018   4.031  17.372  0.4860 -0.0021 -0.3667
    2TMC2     H14315   2.869   4.246  17.367 -1.0946 -1.8065 -1.5545
    2TMC2    H114316   3.217   4.237  17.125  0.0151  0.6315 -2.9350
    2TMC2    H214317   3.008   4.606  17.193 -1.0433  0.4293 -1.5054
    2TMC2    C714318   3.235   4.490  17.096  0.2561  0.4948 -0.4937
    2TMC2    C814319   2.828   4.496  17.344 -0.5431  0.1119 -0.5812
    2TMC2    O114320   3.338   4.423  17.082  0.2951 -0.8572 -0.0073
    2TMC2    O214321   2.792   4.459  17.456 -0.3928 -0.3965 -0.0545
    2TMC2    O514322   2.768   4.580  17.259  0.4468 -0.6842 -0.2501
    2TMC2    H514323   2.813   4.581  17.172 -0.9542 -0.0960 -0.9674
    3MPD1     C14324   3.215   3.609  17.104  0.4336  0.3255  0.0542
    3MPD1    C114325   3.217   3.695  16.992 -0.4469 -0.7387 -0.6605
    3MPD1    C214326   3.165   3.824  17.005 -0.4908 -0.6538  0.1961
    3MPD1    C314327   3.127   3.875  17.135  0.2180 -0.3984 -0.1544
    3MPD1    C414328   3.143   3.795  17.245  0.5338  0.4758  0.1532
    3MPD1    C514329   3.184   3.665  17.225 -0.2694  0.2482  0.3938
    3MPD1     H14330   3.153   3.894  16.922 -0.8090  0.5717  1.2830
    3MPD1    H114331   3.131   3.827  17.348  1.6991 -0.4250  0.5701
    3MPD1    H214332   3.237   3.503  17.104 -1.2287 -0.0178 -1.7011
    3MPD1    H314333   3.173   3.599  17.310  2.8622 -0.4603  0.2696
    3MPD1     N14334   3.094   4.017  17.143 -0.1513 -0.2104 -0.1638
    3MPD1    H514335   3.095   4.079  17.063  0.1324  0.6393  0.4916
    3MPD1    N114336   3.241   3.639  16.857 -0.2099 -0.7045 -0.2756
    3MPD1    H614337   3.313   3.569  16.870  1.4303  1.0196 -0.1332
    3MPD1    H714338   3.273   3.711  16.791  2.1493  1.2735  3.0523
    1TMC1    C114339   1.664   4.576  13.310  0.1027 -0.3328 -0.3208
    1TMC1    C214340   1.567   4.663  13.293 -0.3602 -0.4425  0.4656
    1TMC1    C314341   1.446   4.605  13.265  0.1007  0.8443 -0.1224
    1TMC1    C414342   1.642   4.435  13.300 -0.2588 -0.1325  0.5020
    1TMC1    C514343   1.512   4.390  13.279 -0.0589 -0.3084 -0.6622
    1TMC1    C614344   1.409   4.473  13.261 -0.6304 -0.2549  0.7794
    1TMC1     C14345   1.792   4.630  13.336  0.4099 -0.1804 -0.6698
    1TMC1     O14346   1.811   0.008  13.301  0.1311 -0.4098  0.1655
    1TMC1     H14347   1.581   0.026  13.320  1.0729 -0.3987 -0.4421
    1TMC1    H114348   1.722   4.365  13.316  0.5152  0.9922  1.5685
    1TMC1    H214349   1.314   4.433  13.229 -1.1768  0.6646  1.2601
    1TMC1    C714350   1.503   4.250  13.304 -0.8093  0.2142  0.7319
    1TMC1    C814351   1.328   4.691  13.267 -0.2605 -0.7926 -0.7446
    1TMC1    O114352   1.600   4.179  13.315  0.1874  1.2094  0.1920
    1TMC1    O214353   1.215   4.661  13.309  0.2425 -0.2738  0.5300
    1TMC1    O314354   1.385   4.225  13.361  0.3651  0.8609  0.3625
    1TMC1    H314355   1.310   4.288  13.354  1.4313  2.0274 -0.7887
    1TMC1    O514356   1.370   0.066  13.210 -0.4741  0.1429  0.0261
    1TMC1    H514357   1.444   0.041  13.150 -0.0967  3.1243 -0.7832
    2MPD2     C14358   2.084   4.665  13.340  0.4247  0.2210  0.4207
    2MPD2    C114359   2.022   4.545  13.382  0.0507 -0.1724  0.2728
    2MPD2    C214360   2.110   4.442  13.424  0.4386 -0.1442 -0.0390
    2MPD2    C314361   2.249   4.453  13.428 -0.1042 -0.5554 -0.1095
    2MPD2    C414362   2.297   4.566  13.363 -0.0120  0.1714 -0.7037
    2MPD2    C514363   2.216   4.664  13.327 -0.6676 -0.1580  0.0960
    2MPD2     H14364   2.058   4.357  13.466  1.0811 -0.7302 -0.4367
    2MPD2    H114365   2.405   4.581  13.361  0.2789 -1.8781 -0.0865
    2MPD2    H214366   2.032   0.019  13.328  0.5060  0.3492  1.0843
    2MPD2    H314367   2.256   0.022  13.308 -4.0738  1.1958 -0.1242
    2MPD2     N14368   2.325   4.347  13.483  0.5378  0.0723 -0.1007
    2MPD2    H514369   2.266   4.272  13.516 -0.0397  0.4977 -0.1704
    2MPD2    N114370   1.883   4.531  13.377  0.5213  0.3445 -0.2317
    2MPD2    H714371   1.840   4.447  13.415  1.1696  0.4411  0.7124
    3TCq1    O114372   2.671   3.858  13.372 -0.4489 -0.3243 -0.3613
    3TCq1    C114373   2.745   3.967  13.406 -0.7512  0.1474 -0.5903
    3TCq1    O214374   2.834   4.018  13.341  0.5788  0.1291  0.5636
    3TCq1    C214375   2.662   4.041  13.502  0.4740  0.0245  0.0260
    3TCq1    C314376   2.603   3.966  13.605 -0.6373 -1.0623  0.0404
    3TCq1    C414377   2.498   4.027  13.670 -0.6133  0.4459 -0.1012
    3TCq1    C514378   2.447   4.149  13.633  0.1988  0.0066  0.4120
    3TCq1    C614379   2.511   4.217  13.530 -0.2069  0.6662 -0.6093
    3TCq1    C714380   2.615   4.160  13.460 -0.2314  0.1840 -0.5157
    3TCq1    C814381   2.463   4.344  13.486  0.2152 -0.0815 -0.3287
    3TCq1    O414382   2.534   4.408  13.410 -0.5526  0.7665  0.0749
    3TCq1    C914383   2.469   3.973  13.797  0.3486  0.1175 -0.5391
    3TCq1    O514384   2.531   3.873  13.841  0.4257  0.1164 -0.3542
    3TCq1    O614385   2.397   4.047  13.867  0.1295  0.1365  0.3469
    3TCq1    H114386   2.584   3.862  13.416 -0.4892 -0.0553 -0.4659
    3TCq1    H214387   2.644   3.871  13.637  3.6818  0.8467  0.2521
    3TCq1    H314388   2.365   4.186  13.694 -0.4104  1.0482 -1.0340
    3TCq1    H414389   2.649   4.218  13.375  1.0578 -0.4538 -0.4286
    1MPD2     C14390   1.531   0.392  14.944  0.6601 -0.7578  0.0633
    1MPD2    C114391   1.518   0.266  14.999 -0.7625 -0.0492 -0.0354
    1MPD2    C214392   1.605   0.165  14.964  0.2763  0.7200 -0.2037
    1MPD2    C314393   1.697   0.196  14.864  0.4234 -0.1511 -0.7022
    1MPD2    C414394   1.717   0.317  14.808  0.1606  0.6517  0.3614
    1MPD2    C514395   1.630   0.420  14.847  0.0896 -0.3845  0.1664
    1MPD2     H14396   1.606   0.063  14.999 -0.1453 -0.1129 -2.5714
    1MPD2    H114397   1.801   0.342  14.744 -1.5290  0.2051 -2.0342
    1MPD2    H214398   1.465   0.469  14.982 -0.1293 -1.8175  0.8688
    1MPD2    H314399   1.642   0.513  14.793  0.5913 -0.5254  0.0265
    1MPD2     N14400   1.785   0.088  14.841  0.2489  0.1094  0.0506
    1MPD2    H514401   1.771   0.002  14.893 -0.9971 -0.9555 -2.0525
    1MPD2    N114402   1.430   0.244  15.105  0.4624 -0.1049  0.4406
    1MPD2    H714403   1.370   0.325  15.116  1.2562  0.4719  0.5320
    2TMC3    C114404   1.334   0.148  15.299 -0.0831 -0.7667  0.2322
    2TMC3    C214405   1.294   0.023  15.325  0.2845 -1.1059 -0.7434
    2TMC3    C314406   1.167   4.730  15.288 -0.1072  0.6584 -0.1513
    2TMC3    C414407   1.240   0.242  15.283  0.2151  0.2481  0.4556
    2TMC3    C514408   1.109   0.211  15.275  0.0516 -0.1813  0.4600
    2TMC3    C614409   1.066   0.080  15.269  0.1244  0.4107  0.1465
    2TMC3     C14410   1.441   0.147  15.203  0.4346 -0.2083  0.4049
    2TMC3     O14411   1.526   0.060  15.215  0.4412  0.5551  0.2172
    2TMC3     H14412   1.369   4.694  15.361  0.3501 -0.2810  0.7460
    2TMC3    H114413   1.273   0.343  15.306  2.4478 -0.9848  2.6031
    2TMC3    H214414   0.963   0.067  15.238  0.3848  3.4720 -2.0314
    2TMC3    C714415   1.009   0.315  15.299  0.7055  0.0123 -1.5297
    2TMC3    C814416   1.171   4.620  15.194 -0.6040 -0.3989 -0.1752
    2TMC3    O114417   0.898   0.273  15.279  0.0239  0.1388  0.5887
    2TMC3    O214418   1.064   4.582  15.157  0.2654 -0.5858  0.2398
    3TCq1    O114419   1.004   1.530  15.400  0.4026  0.0892  0.2313
    3TCq1    C114420   1.090   1.508  15.500 -0.7684 -0.1048  0.2398
    3TCq1    O214421   1.077   1.549  15.612 -0.0826 -0.0485  0.3999
    3TCq1    C214422   1.134   1.367  15.474  0.3384 -0.5666 -0.2426
    3TCq1    C314423   1.257   1.331  15.510 -0.2037 -0.0327 -0.0791
    3TCq1    C414424   1.301   1.205  15.480  0.1175  0.6052  0.2199
    3TCq1    C514425   1.212   1.115  15.424 -0.4910  0.6706 -0.0783
    3TCq1    C614426   1.078   1.145  15.408  0.0280  0.2823  0.1206
    3TCq1    C714427   1.042   1.274  15.427  0.5688 -0.3324  0.0673
    3TCq1    C814428   0.974   1.039  15.384  0.9656  0.8897  0.3846
    3TCq1    O414429   0.860   1.081  15.357  0.5820 -0.3170  0.0950
    3TCq1    C914430   1.440   1.174  15.503 -1.4647  0.1695 -0.0478
    3TCq1    O514431   1.506   1.264  15.554 -0.2897 -0.7896  0.0946
    3TCq1    O614432   1.478   1.068  15.437  0.1463 -0.1142  0.2685
    3TCq1    H114433   1.033   1.487  15.317 -0.5638  0.0372 -0.0810
    3TCq1    H214434   1.318   1.413  15.546 -1.3097  0.0010  1.6951
    3TCq1    H314435   1.252   1.021  15.386 -0.0036  0.5783  0.6743
    3TCq1    H414436   0.941   1.309  15.412  0.7714 -0.0177 -0.5335
    4MPD2     C14437   0.824   0.793  15.316 -0.3445 -0.2322 -0.0510
    4MPD2    C114438   0.954   0.790  15.362  0.4946 -0.0058 -0.5018
    4MPD2    C214439   1.024   0.677  15.368 -0.5531  0.0349 -0.1882
    4MPD2    C314440   0.976   0.557  15.320  0.3107 -0.2667 -0.1136
    4MPD2    C414441   0.849   0.558  15.279 -0.7503 -0.0064  0.2127
    4MPD2    C514442   0.774   0.675  15.280  0.4537  0.1247 -0.3928
    4MPD2     H14443   1.126   0.682  15.405 -1.0348  0.7236  1.0482
    4MPD2    H114444   0.797   0.471  15.240 -1.1783 -0.5507  1.9719
    4MPD2    H214445   0.765   0.884  15.310 -1.4096 -0.8628  0.9500
    4MPD2    H314446   0.667   0.671  15.267  0.8992 -0.6304 -3.7750
    4MPD2     N14447   1.053   0.444  15.322  0.4945  0.4877  0.6610
    4MPD2    H514448   1.143   0.452  15.367  0.2544 -0.5338  1.3389
    4MPD2    N114449   1.026   0.913  15.399  0.1139  0.7830 -0.2646
    4MPD2    H714450   1.116   0.905  15.446 -0.1383 -3.9980 -0.6513
    5TMC2    C114451   1.880   4.489  14.873 -0.1266 -0.2494  0.2094
    5TMC2    C214452   1.992   4.480  14.952  0.6276  0.4927  0.4560
    5TMC2    C314453   2.082   4.574  14.935 -0.0152 -0.5486 -0.4724
    5TMC2    C414454   1.871   4.595  14.782  0.4839  0.1120 -0.6190
    5TMC2    C514455   1.959   4.700  14.789 -0.1040 -0.3524  0.1934
    5TMC2    C614456   2.073   4.688  14.859  0.6728 -0.5294  0.3031
    5TMC2     C14457   1.762   4.486  14.955  0.4984  0.0847 -0.7082
    5TMC2     O14458   1.762   4.584  15.028 -0.2079 -0.7714  0.1576
    5TMC2     H14459   2.000   4.392  15.014 -1.3303 -0.0496 -0.0543
    5TMC2    H114460   1.777   4.610  14.732 -0.6688 -0.4520  1.3694
    5TMC2    H214461   2.138   0.032  14.877 -1.9238  0.7514  3.5685
    5TMC2    C714462   1.904   0.090  14.774 -0.0516  0.3665  0.2061
    5TMC2    C814463   2.197   4.561  15.027 -0.2864 -0.1581 -0.4520
    5TMC2    O114464   1.967   0.182  14.725 -0.4353 -0.9175  0.2311
    5TMC2    O214465   2.201   4.484  15.123 -0.0438  0.3008  0.0755
    5TMC2    O514466   2.301   4.606  14.957 -0.6675 -0.2207  0.0446
    5TMC2    H514467   2.288   4.621  14.861 -1.7701  2.2238  0.5884
    6MPD2     C14468   1.244   4.441  14.967  0.0742  0.0303 -0.3924
    6MPD2    C114469   1.333   4.513  15.048  0.2237 -0.0074  0.7702
    6MPD2    C214470   1.472   4.513  15.023 -0.5733  0.1948 -0.0410
    6MPD2    C314471   1.518   4.443  14.913  0.0467 -0.2510  0.2499
    6MPD2    C414472   1.428   4.367  14.843  0.3349 -0.6995  0.2952
    6MPD2    C514473   1.296   4.369  14.868  0.5005  0.3768  0.8894
    6MPD2     H14474   1.533   4.576  15.087  1.8656  0.3852 -2.5544
    6MPD2    H114475   1.462   4.319  14.752  0.7082  1.3958 -0.6542
    6MPD2    H214476   1.137   4.444  14.986 -0.0432 -0.3870 -0.9804
    6MPD2    H314477   1.227   4.309  14.810  1.8438 -0.9464  0.6443
    6MPD2     N14478   1.655   4.434  14.881  0.1823  0.2213  0.1526
    6MPD2    H514479   1.681   4.372  14.804 -0.9241 -1.3531  1.0384
    6MPD2    N114480   1.300   4.591  15.152 -0.4603  0.2010 -0.3164
    6MPD2    H714481   1.382   4.641  15.184 -1.4454  1.1403  0.7492
  945NH3     N114482   3.788   4.550  14.879  0.5582  0.6580  0.1807
  945NH3     H214483   3.708   4.556  14.817  0.4913  0.5291  0.2546
  945NH3     H314484   3.800   4.645  14.911  0.3285 -0.3681  3.3231
  945NH3     H414485   3.859   4.555  14.807 -3.0139  1.7830 -3.2639
  946SOD     NA14486   4.366   2.528  16.670  0.0965 -0.0747  0.2042
  947SOD     NA14487   4.269   4.068  12.430 -0.3723  0.3998  0.0386
  948SOD     NA14488   0.918   1.770   3.968  0.2313 -0.4929 -0.3532
  949SOD     NA14489   3.210   2.306   5.778  0.3841 -0.3096  0.0640
  950SOD     NA14490   1.787   0.821  11.000 -0.0437 -0.4425 -0.1679
  951SOD     NA14491   3.282   2.147   8.571 -0.0989  0.0441 -0.5486
  952SOD     NA14492   2.665   1.823   0.533 -0.3492 -0.0281  0.2946
  953SOD     NA14493   4.188   4.602  16.397 -0.0435 -0.5797  0.0875
  954SOL     OW14494   1.609   4.048  11.330  0.4820  0.0113  0.1960
  954SOL    HW114495   1.687   3.992  11.331  1.8215  1.9443  2.6272
  954SOL    HW214496   1.579   4.048  11.420  0.8663 -1.1082  0.3216
  955SOL     OW14497   2.722   2.841   4.096 -0.4898 -0.0135 -0.3387
  955SOL    HW114498   2.796   2.784   4.073  0.0934 -0.2861  2.2710
  955SOL    HW214499   2.697   2.813   4.184  1.5893 -0.1647  0.2059
  956SOL     OW14500   4.336   2.586   0.500 -0.1618 -0.1363 -0.6743
  956SOL    HW114501   4.402   2.532   0.544  0.6435  1.3116 -0.1356
  956SOL    HW214502   4.255   2.538   0.517 -0.2530 -0.0409 -0.8477
  957SOL     OW14503   1.126   4.243   9.637 -0.0885 -0.0566 -0.5130
  957SOL    HW114504   1.083   4.314   9.685  1.0655  0.6989 -0.5792
  957SOL    HW214505   1.160   4.184   9.704  2.8461  1.4219 -0.6768
  958SOL     OW14506   1.545   0.519  12.739  0.3107 -0.1894 -0.0909
  958SOL    HW114507   1.520   0.578  12.668 -0.9786  0.1947  0.6780
  958SOL    HW214508   1.510   0.434  12.714  0.8814 -0.1284 -1.0726
  959SOL     OW14509   2.135   4.691   1.780  0.0727  0.5429  0.2113
  959SOL    HW114510   2.044   4.717   1.770 -0.6914 -1.4339  2.1527
  959SOL    HW214511   2.131   4.612   1.727  1.1159  1.6160 -1.4774
  960SOL     OW14512   2.931   2.553  11.532  0.2314 -0.4714  0.0229
  960SOL    HW114513   2.904   2.462  11.524  0.3976 -0.4422 -0.9595
  960SOL    HW214514   3.023   2.545  11.504  0.0381 -1.7063 -0.2389
  961SOL     OW14515   2.573   0.274  13.104 -0.1941 -0.7058  0.4717
  961SOL    HW114516   2.484   0.285  13.072  0.6618  1.7337 -1.0868
  961SOL    HW214517   2.563   0.339  13.173 -0.7843 -0.2246 -0.0634
  962SOL     OW14518   2.036   3.651   4.715  0.2057  0.4541  0.5949
  962SOL    HW114519   1.959   3.601   4.687 -1.3385  2.9018  0.5113
  962SOL    HW214520   1.997   3.706   4.783  0.1573  1.1475 -0.0066
  963SOL     OW14521   4.431   1.076   1.875  0.0676  0.0854 -0.1766
  963SOL    HW114522   4.386   1.044   1.953  0.4618  0.3174  0.1424
  963SOL    HW214523   4.510   1.022   1.883 -1.0824 -1.6108 -0.2678
  964SOL     OW14524   4.611   1.019   5.771 -0.1190  0.1390  0.0431
  964SOL    HW114525   4.602   0.961   5.847  1.2539  0.7499  0.6710
  964SOL    HW214526   4.657   0.963   5.708  1.0180  2.1101 -0.9006
  965SOL     OW14527   1.928   0.562  13.562  0.4030  0.4600  0.5526
  965SOL    HW114528   1.894   0.626  13.499  1.1898 -0.2068 -0.5424
  965SOL    HW214529   1.994   0.619  13.602  0.4212  0.4979  0.4688
  966SOL     OW14530   1.000   0.369   5.350  0.3918  0.0941  0.3489
  966SOL    HW114531   0.996   0.309   5.276  2.8462  1.0168 -0.5066
  966SOL    HW214532   0.983   0.311   5.424  0.4681 -0.4475 -0.0577
  967SOL     OW14533   1.386   1.077  13.097  0.5618 -0.1931  0.4651
  967SOL    HW114534   1.351   1.162  13.071  0.8088  0.0459  0.9144
  967SOL    HW214535   1.351   1.027  13.024 -0.3222  0.2189  0.6044
  968SOL     OW14536   4.623   4.561   5.358  0.7427 -0.1600  0.1501
  968SOL    HW114537   4.550   4.507   5.390  1.0367 -0.4236  0.3735
  968SOL    HW214538   4.577   4.643   5.338  0.8463 -0.4234 -1.1758
  969SOL     OW14539   3.928   0.729   7.552 -0.1176 -0.1960 -0.2882
  969SOL    HW114540   3.962   0.760   7.636 -1.4087  1.1594 -0.2623
  969SOL    HW214541   3.956   0.639   7.566  1.2254  0.4198  1.0237
  970SOL     OW14542   0.796   1.724   9.600 -0.1967  0.0150 -0.8035
  970SOL    HW114543   0.867   1.659   9.606 -0.2199  0.0821  0.1800
  970SOL    HW214544   0.835   1.787   9.539  3.7943 -1.2166  0.4477
  971SOL     OW14545   1.995   3.511   3.015 -0.3229  0.3509 -0.0191
  971SOL    HW114546   2.008   3.417   3.007 -0.1631  0.4981 -1.4678
  971SOL    HW214547   2.076   3.546   2.978  0.2050  0.0194  0.8192
  972SOL     OW14548   1.606   3.422   6.317 -0.5474  0.0062  0.0475
  972SOL    HW114549   1.669   3.488   6.347  0.1140  0.1241 -1.6169
  972SOL    HW214550   1.558   3.480   6.258  0.2283 -0.6613 -1.2299
  973SOL     OW14551   1.475   0.718  13.011 -0.0059 -0.2954  0.8916
  973SOL    HW114552   1.460   0.638  12.959  0.0405 -0.5044  1.1989
  973SOL    HW214553   1.403   0.722  13.074  0.1375 -2.2677  1.2066
  974SOL     OW14554   4.001   3.423   6.411  0.3814  0.2972  0.0215
  974SOL    HW114555   4.071   3.454   6.353  1.9107 -2.1186  0.5892
  974SOL    HW214556   3.973   3.511   6.437  0.0634  0.5200 -1.0491
  975SOL     OW14557   0.552   3.441   4.727  0.2347 -0.4407 -0.0286
  975SOL    HW114558   0.648   3.441   4.718  0.2899 -2.1326  0.5333
  975SOL    HW214559   0.546   3.495   4.806  4.0518 -0.0607  0.0324
  976SOL     OW14560   1.943   4.530   7.303  0.0111  0.0267  0.1838
  976SOL    HW114561   2.022   4.574   7.271  1.0999 -1.8300  0.2970
  976SOL    HW214562   1.907   4.487   7.226 -1.6529  2.5783 -0.4428
  977SOL     OW14563   3.495   3.791   9.405  0.1301  0.0707  0.1881
  977SOL    HW114564   3.478   3.716   9.348  1.3823  0.2429 -0.4139
  977SOL    HW214565   3.414   3.841   9.413  0.0407  0.0792 -0.8022
  978SOL     OW14566   1.081   0.003   1.914  0.0268  0.2196 -0.3129
  978SOL    HW114567   1.042   4.665   1.952 -2.0300  0.4008 -2.0170
  978SOL    HW214568   1.106   4.709   1.828 -3.5116 -1.0076 -0.8471
  979SOL     OW14569   2.151   0.702   5.695 -0.7523  0.1731 -1.0074
  979SOL    HW114570   2.232   0.673   5.738  0.0175  2.6401 -0.7981
  979SOL    HW214571   2.125   0.619   5.656 -1.0013 -0.3498  0.2608
  980SOL     OW14572   1.024   2.919   5.715  0.1509  0.3510  0.1143
  980SOL    HW114573   1.050   2.976   5.643 -0.8184 -0.0076 -0.5200
  980SOL    HW214574   1.109   2.898   5.755 -0.9909 -1.4053  1.5621
  981SOL     OW14575   3.955   4.607   2.830  0.5395 -0.4842 -0.2604
  981SOL    HW114576   3.978   4.622   2.738 -0.2018 -0.7487 -0.4932
  981SOL    HW214577   3.984   4.687   2.874  3.6672 -2.1166  0.6684
  982SOL     OW14578   1.046   4.585   4.996  0.1027 -0.8847  0.2412
  982SOL    HW114579   0.995   4.505   4.982 -1.1053 -0.1970  0.7539
  982SOL    HW214580   1.132   4.542   4.995  0.6955  0.2536  1.1580
  983SOL     OW14581   1.764   1.572   8.121 -0.2939  0.1338  0.0569
  983SOL    HW114582   1.746   1.604   8.032  0.5340 -1.5154 -0.7042
  983SOL    HW214583   1.760   1.478   8.108 -1.5876  0.2992 -0.7714
  984SOL     OW14584   2.482   3.473   0.368  0.2697  0.2617 -0.3937
  984SOL    HW114585   2.403   3.424   0.391 -1.0186  1.6697 -1.7404
  984SOL    HW214586   2.552   3.410   0.354  0.1492  0.1522 -0.5137
  985SOL     OW14587   1.141   2.896   4.554  0.0674 -0.4266  0.4695
  985SOL    HW114588   1.114   2.819   4.604  1.3448 -1.8893 -1.1387
  985SOL    HW214589   1.066   2.955   4.542  0.3435  0.4527  3.0164
  986SOL     OW14590   2.234   2.599   7.667  0.7393  0.1895 -0.3287
  986SOL    HW114591   2.153   2.650   7.663 -0.2565 -1.3939 -0.3623
  986SOL    HW214592   2.282   2.652   7.603  2.4753 -0.9510  0.0038
  987SOL     OW14593   1.369   0.585  14.616  0.1359 -0.2669  0.1789
  987SOL    HW114594   1.284   0.600  14.576 -0.9239 -0.3877  2.3678
  987SOL    HW214595   1.346   0.546  14.700 -0.5196 -0.1653  0.0434
  988SOL     OW14596   1.106   0.956  12.601 -0.0398 -0.0407 -0.4637
  988SOL    HW114597   1.053   0.887  12.640 -0.9709  0.6747 -0.4655
  988SOL    HW214598   1.038   0.991  12.544  1.1078 -0.4799 -2.1202
  989SOL     OW14599   2.770   1.270  13.069 -0.0432 -0.1280 -0.3392
  989SOL    HW114600   2.830   1.317  13.011 -1.4378 -0.6446 -2.1984
  989SOL    HW214601   2.808   1.183  13.055  0.1184 -0.2965  1.2093
  990SOL     OW14602   2.828   4.688   2.355  0.3150 -0.3179 -0.0413
  990SOL    HW114603   2.740   4.653   2.371  0.5926 -2.0584 -2.3675
  990SOL    HW214604   2.824   4.717   2.264 -0.7262  2.1254  0.7701
  991SOL     OW14605   1.509   3.534   4.999  0.3620  0.0849  0.6815
  991SOL    HW114606   1.520   3.475   5.074  1.2978 -0.0770  0.4127
  991SOL    HW214607   1.515   3.622   5.036 -3.1021 -0.5089  2.7469
  992SOL     OW14608   0.817   4.101   7.235 -0.1837  0.0139 -0.5495
  992SOL    HW114609   0.740   4.135   7.189 -1.8478 -1.1319  1.3398
  992SOL    HW214610   0.878   4.174   7.235 -0.0827 -0.0709 -0.4919
  993SOL     OW14611   0.531   3.430   8.273 -0.1564  0.1482 -0.1849
  993SOL    HW114612   0.589   3.492   8.318  0.2749 -2.0301  2.2221
  993SOL    HW214613   0.464   3.496   8.255  0.9604  1.5104  0.6700
  994SOL     OW14614   2.872   3.512   1.360  0.2274 -0.4612  0.0104
  994SOL    HW114615   2.827   3.452   1.301 -0.3247  0.4991 -0.5438
  994SOL    HW214616   2.822   3.482   1.436 -2.2007 -2.7308 -2.4822
  995SOL     OW14617   1.352   3.664   0.760  0.4349 -0.1782  0.5245
  995SOL    HW114618   1.326   3.741   0.812 -0.7303 -1.0260  1.1839
  995SOL    HW214619   1.270   3.616   0.763  0.2211  0.0256 -2.2528
  996SOL     OW14620   1.415   4.496   4.428  0.7277  0.4678  0.3250
  996SOL    HW114621   1.380   4.508   4.340 -0.5309 -2.3051  0.4320
  996SOL    HW214622   1.486   4.433   4.413 -0.7258 -1.2991  0.9370
  997SOL     OW14623   3.431   1.187  11.773  0.1763 -0.3618 -0.2715
  997SOL    HW114624   3.346   1.226  11.792  1.0500  0.5275  1.7261
  997SOL    HW214625   3.460   1.240  11.698 -1.1343  0.4564 -0.1963
  998SOL     OW14626   1.840   1.377   0.536 -0.4213  0.1894  0.4650
  998SOL    HW114627   1.845   1.401   0.629  1.3799 -0.4578  0.5266
  998SOL    HW214628   1.919   1.325   0.522 -0.3774 -0.2828  2.5357
  999SOL     OW14629   3.062   0.103   0.229 -0.2487  0.2317 -0.2737
  999SOL    HW114630   3.096   0.020   0.261  0.6788  0.8904  0.4374
  999SOL    HW214631   3.101   0.165   0.291 -2.3226  1.3096 -0.0163
 1000SOL     OW14632   4.694   3.786  10.119  0.8504 -0.6385 -0.1903
 1000SOL    HW114633   4.672   3.746  10.203  0.5401 -1.1403 -0.5059
 1000SOL    HW214634   4.650   3.870  10.132  0.4641 -0.9399  0.5008
 1001SOL     OW14635   1.561   3.814  11.769 -0.2566  0.2642 -0.9815
 1001SOL    HW114636   1.580   3.724  11.796  0.7454  1.2846  1.7774
 1001SOL    HW214637   1.593   3.869  11.841 -1.8322 -0.1649  0.0627
 1002SOL     OW14638   1.013   0.925   1.546  0.1211 -0.3538  0.7386
 1002SOL    HW114639   0.966   0.927   1.463 -0.7667  2.6889  1.2993
 1002SOL    HW214640   0.946   0.894   1.606  0.2106 -1.8868  0.0401
 1003SOL     OW14641   3.634   2.969  16.306 -0.1045 -0.0405 -0.5229
 1003SOL    HW114642   3.682   2.911  16.247  1.7967  0.6886  0.3058
 1003SOL    HW214643   3.705   3.024  16.336  0.1921 -0.2006 -0.9328
 1004SOL     OW14644   4.403   3.353   5.585  0.5422  0.4268  0.6515
 1004SOL    HW114645   4.496   3.363   5.566  0.8356 -2.0173  0.7606
 1004SOL    HW214646   4.370   3.443   5.589  1.0544  0.5863  1.2409
 1005SOL     OW14647   2.368   0.492   7.651 -0.2019  0.1647 -0.1726
 1005SOL    HW114648   2.287   0.542   7.658 -0.9075 -0.9771 -0.1338
 1005SOL    HW214649   2.333   0.414   7.606  1.4961 -0.4320 -0.4605
 1006SOL     OW14650   0.321   2.783  12.377 -0.0050  0.1128  0.2691
 1006SOL    HW114651   0.358   2.713  12.430 -0.0621 -0.0406  0.1067
 1006SOL    HW214652   0.258   2.735  12.323 -1.8068  1.1593  1.4608
 1007SOL     OW14653   1.578   2.712   7.353  0.1389 -0.0443 -0.0665
 1007SOL    HW114654   1.585   2.654   7.277 -0.6104  0.1675 -0.2945
 1007SOL    HW214655   1.500   2.762   7.327 -0.2502  0.3020  1.8097
 1008SOL     OW14656   4.733   1.276  10.746  0.3813 -0.5938  0.1325
 1008SOL    HW114657   0.051   1.214  10.704  3.1353  0.4417  2.4795
 1008SOL    HW214658   4.707   1.327  10.669 -1.9633 -1.5953  0.2531
 1009SOL     OW14659   2.674   0.322   4.949 -0.1349 -0.5052 -0.2434
 1009SOL    HW114660   2.613   0.318   4.875 -0.5355 -2.2195  0.1700
 1009SOL    HW214661   2.705   0.411   4.932  1.9385 -1.0680  0.6286
 1010SOL     OW14662   3.445   3.154  16.265 -0.0292 -0.1859  0.3523
 1010SOL    HW114663   3.367   3.106  16.237  0.5745 -1.7368  1.3426
 1010SOL    HW214664   3.492   3.075  16.289 -0.5902 -0.9735 -1.1395
 1011SOL     OW14665   4.557   0.689  15.386 -0.1140  0.0545 -0.1617
 1011SOL    HW114666   4.493   0.620  15.405 -3.1819  2.3178 -2.2837
 1011SOL    HW214667   4.576   0.713  15.476  1.5502 -3.2518  0.3667
 1012SOL     OW14668   3.744   2.416   7.659  0.3495 -0.0565  0.3417
 1012SOL    HW114669   3.752   2.321   7.645  1.3080  0.2202 -1.0798
 1012SOL    HW214670   3.795   2.448   7.584 -1.5333  1.9051 -0.0916
 1013SOL     OW14671   0.146   0.401  16.207  0.0395 -0.0206 -0.2566
 1013SOL    HW114672   0.208   0.347  16.159 -1.2598 -1.1101 -0.7341
 1013SOL    HW214673   0.116   0.338  16.273 -2.0567  0.1144 -1.0737
 1014SOL     OW14674   1.136   4.470   0.845  0.1867  0.1845 -0.7316
 1014SOL    HW114675   1.104   4.386   0.876  2.7046 -0.9960 -1.3285
 1014SOL    HW214676   1.196   4.484   0.918  0.2544  0.0049 -0.7532
 1015SOL     OW14677   1.372   3.078   0.613 -0.6233  0.3655 -0.5017
 1015SOL    HW114678   1.357   3.125   0.530 -1.1459 -0.8279 -1.0879
 1015SOL    HW214679   1.287   3.077   0.657 -0.8336  1.5032 -0.8767
 1016SOL     OW14680   3.529   4.317   9.915  0.1808 -0.1319  0.5537
 1016SOL    HW114681   3.532   4.313   9.820 -1.2171  1.7938  0.4291
 1016SOL    HW214682   3.514   4.411   9.925 -2.4663 -0.6218  1.2581
 1017SOL     OW14683   3.587   3.277   3.143  0.0012 -0.3028 -0.0966
 1017SOL    HW114684   3.586   3.343   3.074  2.9041 -0.6845 -0.4970
 1017SOL    HW214685   3.497   3.285   3.173  0.0447  0.1964 -0.0998
 1018SOL     OW14686   1.703   2.521  16.620  0.3881  0.8038 -0.3311
 1018SOL    HW114687   1.734   2.602  16.661  2.6107  1.6587 -3.7641
 1018SOL    HW214688   1.611   2.542  16.605 -0.1919 -0.3052  1.6883
 1019SOL     OW14689   4.508   3.671   1.234  0.1041  0.0997 -0.1135
 1019SOL    HW114690   4.547   3.659   1.147  2.5586  4.0827  0.4646
 1019SOL    HW214691   4.513   3.586   1.277 -0.3410 -0.2478 -0.7389
 1020SOL     OW14692   3.462   0.052   1.892 -0.2042 -0.2991 -0.0152
 1020SOL    HW114693   3.501   0.002   1.964  2.7029  0.6984 -0.9082
 1020SOL    HW214694   3.508   0.135   1.902 -1.4979  0.5358 -1.0033
 1021SOL     OW14695   0.280   1.480   6.484  0.4912  0.0575 -0.1588
 1021SOL    HW114696   0.236   1.508   6.564 -0.9898 -1.5587 -0.4250
 1021SOL    HW214697   0.203   1.465   6.429  0.7676  0.4116 -0.6512
 1022SOL     OW14698   1.984   0.248   8.382  0.7366 -0.6032  0.4119
 1022SOL    HW114699   1.990   0.157   8.412  0.6436 -0.6268  0.3579
 1022SOL    HW214700   1.911   0.244   8.321  0.6870  0.7116  0.3745
 1023SOL     OW14701   1.065   0.873  10.883  0.2137 -0.7750  0.5035
 1023SOL    HW114702   1.002   0.921  10.829  2.1878  0.3069 -0.8392
 1023SOL    HW214703   1.009   0.845  10.955 -0.9004  2.5570  0.9400
 1024SOL     OW14704   3.140   3.614  16.030 -0.3085 -0.0262 -0.6616
 1024SOL    HW114705   3.050   3.607  16.062 -0.5442  1.1136 -1.1141
 1024SOL    HW214706   3.141   3.709  16.024  0.2517 -0.1469 -2.3146
 1025SOL     OW14707   1.768   2.026   8.532  0.4455  0.3860  0.2486
 1025SOL    HW114708   1.794   2.114   8.505  0.8813 -0.4658 -2.0602
 1025SOL    HW214709   1.673   2.025   8.534  0.5274 -0.8572  3.6541
 1026SOL     OW14710   3.079   0.912  12.768 -0.4787  0.3594 -0.2065
 1026SOL    HW114711   3.162   0.937  12.726 -1.2631  3.7209  0.2475
 1026SOL    HW214712   3.046   0.839  12.715  1.1078 -0.9261  0.5396
 1027SOL     OW14713   0.876   0.170   7.470  0.4976 -0.0986  0.0012
 1027SOL    HW114714   0.911   0.259   7.464 -1.1867  0.4783 -1.3500
 1027SOL    HW214715   0.809   0.170   7.402  0.5499 -2.1731 -0.0632
 1028SOL     OW14716   0.148   1.017  15.198 -0.3449 -0.1658  0.0304
 1028SOL    HW114717   0.105   0.978  15.274 -2.4978 -2.4934 -2.3788
 1028SOL    HW214718   0.195   1.091  15.236  1.0150 -0.7402 -0.5465
 1029SOL     OW14719   1.129   2.283  13.336 -0.2506 -0.2449 -0.0895
 1029SOL    HW114720   1.204   2.267  13.279 -0.1753  2.0621 -0.6224
 1029SOL    HW214721   1.085   2.357  13.295 -2.1195 -0.5202  1.3808
 1030SOL     OW14722   0.159   3.071   7.381 -0.4050 -0.4951 -0.2641
 1030SOL    HW114723   0.208   3.001   7.423  0.7866 -0.3520 -1.4095
 1030SOL    HW214724   0.083   3.037   7.333 -0.0345 -1.3163 -0.2718
 1031SOL     OW14725   0.499   0.576  11.178  0.1760  0.1253  0.0734
 1031SOL    HW114726   0.569   0.516  11.207 -1.5124 -2.4270 -1.1420
 1031SOL    HW214727   0.426   0.518  11.199 -1.4454  1.7938 -1.0874
 1032SOL     OW14728   4.080   3.233   8.831 -0.4364  0.2057  0.1866
 1032SOL    HW114729   4.046   3.177   8.901 -1.7679  1.1395  0.2800
 1032SOL    HW214730   4.046   3.181   8.759  1.6117 -2.4364  1.0936
 1033SOL     OW14731   2.478   0.671   0.999  0.6223  0.4598 -1.0721
 1033SOL    HW114732   2.454   0.762   0.983 -3.9800 -0.6237 -0.2936
 1033SOL    HW214733   2.395   0.629   0.975  0.4082 -0.5155  1.4233
 1034SOL     OW14734   3.118   2.522   3.585  0.0440  0.0547  0.3965
 1034SOL    HW114735   3.181   2.594   3.583  0.2395 -0.0803  1.7706
 1034SOL    HW214736   3.089   2.525   3.676 -0.2953 -1.7688  0.3328
 1035SOL     OW14737   4.033   2.212   4.744  0.5823  0.1910  0.4972
 1035SOL    HW114738   4.002   2.287   4.692  4.3393  0.9570 -0.6594
 1035SOL    HW214739   4.103   2.186   4.684  0.2078 -0.1122  0.1944
 1036SOL     OW14740   4.618   3.658   5.873  0.0573 -0.0186  0.3922
 1036SOL    HW114741   4.661   3.576   5.897 -0.9980 -0.9561 -0.9526
 1036SOL    HW214742   4.692   3.718   5.880 -0.1857  0.3986 -0.6674
 1037SOL     OW14743   0.929   4.389  15.888  0.1112  0.0191 -0.0259
 1037SOL    HW114744   0.843   4.428  15.871 -0.2019 -0.0566  1.3989
 1037SOL    HW214745   0.987   4.446  15.837  0.5821 -0.7480 -0.3342
 1038SOL     OW14746   0.270   3.819   3.951 -0.2149  0.2599 -0.2937
 1038SOL    HW114747   0.333   3.785   4.014 -2.2844  0.3441  1.8025
 1038SOL    HW214748   0.259   3.748   3.889 -2.8681  2.1283 -1.9337
 1039SOL     OW14749   3.979   0.359   9.199  0.0256  0.3935 -0.2952
 1039SOL    HW114750   4.013   0.428   9.142 -0.0764 -0.1650 -1.0251
 1039SOL    HW214751   3.923   0.412   9.256  2.5874 -1.4269  3.9263
 1040SOL     OW14752   3.814   2.751   0.528 -0.5348 -0.2456 -0.9461
 1040SOL    HW114753   3.743   2.738   0.591  1.1568 -2.0666  0.5798
 1040SOL    HW214754   3.768   2.714   0.452  0.7197 -0.0835 -1.7861
 1041SOL     OW14755   2.125   2.938   2.893 -0.1536 -0.0623  0.2760
 1041SOL    HW114756   2.057   2.987   2.846  1.9173  1.8608 -0.7098
 1041SOL    HW214757   2.162   2.878   2.829  1.2238 -1.9535  2.8721
 1042SOL     OW14758   0.165   4.299  10.674  0.1127 -0.1777 -0.2764
 1042SOL    HW114759   0.089   4.329  10.624  0.3603  0.3293 -0.3539
 1042SOL    HW214760   0.133   4.280  10.762  0.3215 -0.9400 -0.3635
 1043SOL     OW14761   3.030   2.023   3.235  0.8551 -0.2968 -0.0293
 1043SOL    HW114762   3.104   2.061   3.188 -0.3111 -0.5955 -2.1244
 1043SOL    HW214763   3.002   2.101   3.282 -0.8083 -0.6390 -0.4262
 1044SOL     OW14764   3.959   3.724   7.996  0.3170 -0.0101 -0.1763
 1044SOL    HW114765   3.951   3.718   7.901 -1.5966 -1.7495  0.0945
 1044SOL    HW214766   3.913   3.649   8.033  1.5458 -1.1847 -1.0023
 1045SOL     OW14767   2.206   0.192   0.393 -0.2427  0.0947  0.1621
 1045SOL    HW114768   2.214   0.099   0.372 -1.9713  0.1028 -0.4839
 1045SOL    HW214769   2.211   0.230   0.306  1.0002 -0.2758  0.0716
 1046SOL     OW14770   3.255   4.140  10.615 -0.2551 -0.0721  0.3238
 1046SOL    HW114771   3.267   4.213  10.675 -1.5017 -0.2322  0.7666
 1046SOL    HW214772   3.180   4.090  10.646 -0.5180  0.3327  0.3473
 1047SOL     OW14773   4.078   4.030   6.176  0.4764  0.1212 -0.0423
 1047SOL    HW114774   4.000   4.031   6.121  0.2241  0.6177  0.3270
 1047SOL    HW214775   4.064   4.079   6.257  0.8066  1.9939 -1.1185
 1048SOL     OW14776   0.654   1.874   2.984  0.1438  0.6332  0.1249
 1048SOL    HW114777   0.748   1.870   2.964 -0.1853 -1.5569 -0.9849
 1048SOL    HW214778   0.633   1.784   2.958 -1.2781  0.0110  3.5454
 1049SOL     OW14779   4.003   0.048   3.980  0.1039  0.6279 -0.1152
 1049SOL    HW114780   4.047   4.704   3.979  1.9163  1.5488  0.8428
 1049SOL    HW214781   3.975   0.054   3.889  2.4452 -2.1074 -1.0027
 1050SOL     OW14782   1.708   0.109   6.951  0.2756  0.0835  0.2490
 1050SOL    HW114783   1.674   0.056   7.024 -0.7399  1.4596  0.7737
 1050SOL    HW214784   1.802   0.088   6.954 -0.2335 -2.2760 -0.2878
 1051SOL     OW14785   3.901   1.967   9.824  0.6161  0.0885  0.0920
 1051SOL    HW114786   3.935   1.886   9.787  0.2614 -0.1254  0.2350
 1051SOL    HW214787   3.870   2.006   9.742  2.7231 -3.4828 -2.4078
 1052SOL     OW14788   4.257   4.450  13.665 -0.4030 -0.1546 -0.1771
 1052SOL    HW114789   4.304   4.461  13.583 -3.6095  0.8634 -1.9008
 1052SOL    HW214790   4.236   4.359  13.647  0.5000 -0.0170 -1.9199
 1053SOL     OW14791   0.885   1.004  10.734 -0.4256  0.1882 -0.6160
 1053SOL    HW114792   0.866   0.927  10.680 -1.8692  0.6122 -0.6887
 1053SOL    HW214793   0.836   1.075  10.692 -1.0134  0.9113  1.3111
 1054SOL     OW14794   1.744   4.462   4.589 -0.5259 -0.0733 -0.4643
 1054SOL    HW114795   1.732   4.415   4.506 -2.8994 -0.7305  0.2614
 1054SOL    HW214796   1.761   4.385   4.643  0.0237  2.8747  3.5011
 1055SOL     OW14797   4.444   2.296   5.665  0.1529  0.6450  0.4558
 1055SOL    HW114798   4.429   2.370   5.607  0.3003  0.0167 -0.3865
 1055SOL    HW214799   4.540   2.299   5.662  0.2148 -0.7610  1.1167
 1056SOL     OW14800   0.226   0.530   3.312  0.6491 -0.4491 -0.5874
 1056SOL    HW114801   0.172   0.539   3.234  0.0058  1.8208  0.1080
 1056SOL    HW214802   0.297   0.476   3.278 -0.2724 -1.3376 -1.0938
 1057SOL     OW14803   4.025   1.693  15.860 -0.7222  0.3476  0.3631
 1057SOL    HW114804   3.995   1.762  15.918 -1.6117 -0.8167  1.2910
 1057SOL    HW214805   3.953   1.673  15.801 -1.0433 -0.0409  0.8911
 1058SOL     OW14806   3.955   1.653   2.380  0.0356  0.6447  0.1132
 1058SOL    HW114807   3.989   1.738   2.350 -1.1221 -0.1717 -3.4497
 1058SOL    HW214808   3.955   1.604   2.298 -0.6856 -0.2411  0.6498
 1059SOL     OW14809   3.548   2.639   8.153 -0.1345 -0.3967  0.1081
 1059SOL    HW114810   3.458   2.670   8.142 -0.2770 -1.2962 -1.2240
 1059SOL    HW214811   3.541   2.545   8.168 -0.2520  0.0768  2.9082
 1060SOL     OW14812   3.582   2.728   1.265  0.1322  0.2665  0.6895
 1060SOL    HW114813   3.649   2.666   1.235  0.5418  0.7396  0.6306
 1060SOL    HW214814   3.631   2.775   1.333  1.2933  0.9051 -0.6048
 1061SOL     OW14815   3.918   3.360   4.557  0.1474 -0.0196  0.1477
 1061SOL    HW114816   3.921   3.270   4.591  1.3751  0.2246  0.7005
 1061SOL    HW214817   3.869   3.393   4.632  0.8266 -1.8465  1.4096
 1062SOL     OW14818   1.484   4.663  17.760  0.6686  0.5271 -0.5938
 1062SOL    HW114819   1.568   4.655   0.044 -0.9370 -1.6263  1.9668
 1062SOL    HW214820   1.430   4.665   0.078  2.0394 -2.9937  0.4645
 1063SOL     OW14821   1.019   0.963  12.962  0.1150 -0.2877  0.4232
 1063SOL    HW114822   1.013   1.030  13.029  2.0154 -0.6065  0.9032
 1063SOL    HW214823   1.007   1.019  12.886 -0.4608  1.2021  1.6098
 1064SOL     OW14824   3.246   0.910  11.719  0.6372  0.2196  0.6194
 1064SOL    HW114825   3.240   0.887  11.626  0.3606 -0.6182  0.8380
 1064SOL    HW214826   3.159   0.949  11.730  0.2654 -0.2945 -0.4674
 1065SOL     OW14827   0.216   3.914   7.016 -0.2616 -0.9464  0.1552
 1065SOL    HW114828   0.295   3.926   7.068  0.6727 -1.1456 -1.2252
 1065SOL    HW214829   0.235   3.821   7.006 -1.4366 -0.7808 -3.3449
 1066SOL     OW14830   3.970   0.753  10.221  0.0090  0.3879 -0.2053
 1066SOL    HW114831   4.031   0.697  10.268 -1.0522 -0.6282 -0.0617
 1066SOL    HW214832   3.957   0.830  10.277 -1.1216  0.2030 -0.2214
 1067SOL     OW14833   1.820   4.035   5.426 -0.5492 -0.4499  0.1567
 1067SOL    HW114834   1.841   4.088   5.504  0.0480  1.6457 -1.4214
 1067SOL    HW214835   1.727   4.012   5.428 -0.6905 -0.0841 -2.6215
 1068SOL     OW14836   0.844   0.818   6.648  0.4402  0.6267  0.9469
 1068SOL    HW114837   0.899   0.843   6.574  2.3182 -0.6512  1.8966
 1068SOL    HW214838   0.900   0.797   6.722 -0.6465 -1.7641  1.0999
 1069SOL     OW14839   1.501   1.403   3.123 -0.0620 -0.6752 -0.3380
 1069SOL    HW114840   1.570   1.337   3.116 -2.1130 -2.8748  0.1537
 1069SOL    HW214841   1.558   1.478   3.104 -0.6093  0.1102  1.1241
 1070SOL     OW14842   3.056   3.292   1.273 -0.2999 -0.3188  0.0627
 1070SOL    HW114843   3.077   3.306   1.366 -1.1269  0.2941  0.1625
 1070SOL    HW214844   2.961   3.298   1.281 -0.0222  0.1628  3.0684
 1071SOL     OW14845   3.006   0.432   8.716 -0.8669  0.6626 -0.1375
 1071SOL    HW114846   2.951   0.355   8.725  0.4620 -0.2016  0.5805
 1071SOL    HW214847   3.014   0.479   8.799 -0.4665  1.7628 -0.7974
 1072SOL     OW14848   4.503   2.393   2.835 -0.1102 -0.7299 -0.1486
 1072SOL    HW114849   4.596   2.411   2.818 -0.0526 -2.1098 -1.3453
 1072SOL    HW214850   4.511   2.351   2.921 -3.1760 -2.3592 -0.6668
 1073SOL     OW14851   0.486   1.594  12.116 -0.6844  0.7578 -0.2453
 1073SOL    HW114852   0.458   1.684  12.131 -0.3009  0.3932  2.6088
 1073SOL    HW214853   0.449   1.583  12.028  2.1031  1.9177 -1.5541
 1074SOL     OW14854   3.044   1.066   1.512  0.2525  0.1187 -0.1966
 1074SOL    HW114855   3.102   1.093   1.441  1.7805 -0.1947  0.9268
 1074SOL    HW214856   3.020   0.982   1.475 -0.0585 -0.1773  0.6725
 1075SOL     OW14857   4.604   4.715  13.539 -0.4760 -0.3024 -0.2505
 1075SOL    HW114858   4.561   4.648  13.486 -1.1416 -0.0246 -0.0626
 1075SOL    HW214859   4.529   0.030  13.562 -0.2066  0.1033 -0.3603
 1076SOL     OW14860   0.332   0.590  15.962 -0.1576  0.2262 -0.3971
 1076SOL    HW114861   0.329   0.670  15.908 -1.8936 -0.0439 -0.7282
 1076SOL    HW214862   0.242   0.587  15.996 -0.1852 -0.7184 -0.5594
 1077SOL     OW14863   2.623   0.490  12.606 -0.7404  0.1982  0.6924
 1077SOL    HW114864   2.556   0.538  12.657 -3.1490 -2.0067 -0.3978
 1077SOL    HW214865   2.598   0.403  12.637 -1.8163  0.1022 -0.4606
 1078SOL     OW14866   0.270   1.917  15.406  0.5632 -1.0057  0.1678
 1078SOL    HW114867   0.316   1.990  15.447 -0.9229 -0.7278  1.3387
 1078SOL    HW214868   0.325   1.905  15.328  0.9216 -0.1080  0.2845
 1079SOL     OW14869   0.720   2.346   6.103  0.3773  0.3842  0.3201
 1079SOL    HW114870   0.647   2.320   6.160 -0.2472 -3.6622 -2.3776
 1079SOL    HW214871   0.714   2.441   6.116  1.1564  0.2676  1.5844
 1080SOL     OW14872   3.789   2.017   9.580 -0.2664  0.3292  0.0419
 1080SOL    HW114873   3.785   2.097   9.528  0.0133  0.4840  0.2583
 1080SOL    HW214874   3.755   1.953   9.518 -1.2765 -1.4030  2.3885
 1081SOL     OW14875   2.891   2.992   7.219  0.0197  0.4605  0.3177
 1081SOL    HW114876   2.977   3.012   7.183 -0.3404 -1.6112 -1.6981
 1081SOL    HW214877   2.855   2.967   7.135 -0.6503 -0.4238  0.8653
 1082SOL     OW14878   0.304   1.957   6.839  0.1244  0.0739 -0.1240
 1082SOL    HW114879   0.330   1.897   6.909 -0.6283 -1.8338 -1.4725
 1082SOL    HW214880   0.374   2.023   6.837  1.2660 -1.1410 -0.0328
 1083SOL     OW14881   2.311   3.114   6.021 -0.0348 -0.2737 -0.1802
 1083SOL    HW114882   2.351   3.062   5.951  0.4514  1.5670 -1.2781
 1083SOL    HW214883   2.294   3.042   6.082 -0.0718  0.3485  0.5421
 1084SOL     OW14884   0.364   2.179   5.495 -0.1698  0.0519  0.2301
 1084SOL    HW114885   0.453   2.201   5.468 -0.8567  1.5893 -0.7675
 1084SOL    HW214886   0.338   2.255   5.547  0.7749  0.6461 -0.1785
 1085SOL     OW14887   1.838   1.299  12.202 -0.2871 -0.0244  0.0524
 1085SOL    HW114888   1.810   1.277  12.113  0.2154  0.6363 -0.2685
 1085SOL    HW214889   1.916   1.243  12.200  0.9786  1.6939  1.2951
 1086SOL     OW14890   0.242   3.793   0.805  0.4634 -0.4290  0.2414
 1086SOL    HW114891   0.173   3.847   0.843  0.9751 -0.1696  0.7987
 1086SOL    HW214892   0.186   3.718   0.785 -0.7921  0.1952  1.4142
 1087SOL     OW14893   4.320   1.024  13.998  0.0483 -0.6972  0.7344
 1087SOL    HW114894   4.258   1.074  13.945  0.8316 -0.6098 -0.1004
 1087SOL    HW214895   4.268   0.946  14.017 -0.2726 -0.6438  0.0712
 1088SOL     OW14896   3.556   2.045  11.303  0.3362  0.4099 -0.0713
 1088SOL    HW114897   3.609   2.122  11.284 -0.6572  1.6954  2.2168
 1088SOL    HW214898   3.565   2.029  11.397  4.1234  0.8294 -0.3689
 1089SOL     OW14899   1.025   0.478   5.615  0.2161 -0.1625 -0.2096
 1089SOL    HW114900   1.097   0.535   5.643  0.7139  0.4033 -2.6895
 1089SOL    HW214901   1.024   0.494   5.521 -0.6060  1.6186  0.1050
 1090SOL     OW14902   0.355   2.595   1.252  0.2924 -0.8701  0.3429
 1090SOL    HW114903   0.314   2.640   1.178 -0.8492 -1.7414  0.4397
 1090SOL    HW214904   0.311   2.626   1.332  0.1891 -0.7187  0.2278
 1091SOL     OW14905   0.775   2.733   3.971  0.0889 -0.1561  0.7871
 1091SOL    HW114906   0.847   2.782   4.012  1.2271 -0.2887 -1.0279
 1091SOL    HW214907   0.708   2.727   4.039  0.6639 -0.4952  1.3160
 1092SOL     OW14908   2.005   0.628   3.427 -0.3184 -0.0984 -0.0631
 1092SOL    HW114909   2.010   0.623   3.523 -0.5924 -1.9703 -0.1437
 1092SOL    HW214910   1.940   0.694   3.404  0.2159  1.4077  2.7539
 1093SOL     OW14911   1.992   0.004   2.376 -0.1530  0.1282  0.0663
 1093SOL    HW114912   1.932   4.686   2.332  1.0736 -0.2459 -1.1150
 1093SOL    HW214913   2.048   4.693   2.433  0.3316  0.1354 -0.4009
 1094SOL     OW14914   4.584   1.493   3.693 -0.1094 -1.3332 -0.1377
 1094SOL    HW114915   4.504   1.546   3.693  0.7645 -0.0182 -0.2324
 1094SOL    HW214916   4.567   1.418   3.750 -0.1662  0.1858  1.8414
 1095SOL     OW14917   2.987   2.877  16.168  0.0796 -0.2925  0.6959
 1095SOL    HW114918   2.969   2.800  16.114  0.9848 -0.5857  0.7990
 1095SOL    HW214919   2.897   2.889  16.197 -0.4885  1.3117 -1.7814
 1096SOL     OW14920   0.190   0.538   7.622  0.3332  0.8163  0.1520
 1096SOL    HW114921   0.178   0.611   7.561 -3.2774 -0.2690 -0.4205
 1096SOL    HW214922   0.246   0.482   7.567 -0.0549  0.8891 -0.3199
 1097SOL     OW14923   2.543   1.145   5.306  0.3945 -0.6075  0.5403
 1097SOL    HW114924   2.477   1.214   5.305  1.6555  0.6151  0.4488
 1097SOL    HW214925   2.619   1.199   5.329 -0.4529  0.8509 -0.1053
 1098SOL     OW14926   1.672   4.437   3.068 -0.5835 -0.0383 -0.0171
 1098SOL    HW114927   1.728   4.510   3.094 -0.6945 -0.7978  2.3090
 1098SOL    HW214928   1.628   4.403   3.146  1.2824 -0.4918  0.8417
 1099SOL     OW14929   4.300   2.705   4.227 -0.7225 -0.3852 -0.5976
 1099SOL    HW114930   4.288   2.757   4.148  0.3664 -0.5247 -0.8602
 1099SOL    HW214931   4.220   2.730   4.273 -0.8486 -2.1585  0.1729
 1100SOL     OW14932   3.252   1.363   7.906 -0.0339  0.2554 -0.3644
 1100SOL    HW114933   3.284   1.410   7.830 -2.5908  3.0314  0.3162
 1100SOL    HW214934   3.186   1.303   7.871 -0.1812 -0.1608  0.5954
 1101SOL     OW14935   2.547   3.114   4.614  0.4301 -0.0801 -0.0003
 1101SOL    HW114936   2.491   3.191   4.598  2.0136  0.8087 -1.2029
 1101SOL    HW214937   2.557   3.089   4.523 -2.9001 -0.7546 -0.1892
 1102SOL     OW14938   2.050   2.640   6.338  0.8158  0.4164  0.1712
 1102SOL    HW114939   2.112   2.603   6.276  1.8595  2.3138  0.0857
 1102SOL    HW214940   2.022   2.713   6.283 -0.0715 -0.8491 -1.0556
 1103SOL     OW14941   4.248   4.695   4.971 -0.0778  0.1788  0.1141
 1103SOL    HW114942   4.154   4.678   4.971  0.0943 -0.7927  2.3003
 1103SOL    HW214943   4.271   4.634   5.041 -0.6180 -0.4824 -0.2833
 1104SOL     OW14944   3.076   2.447   8.340  0.2602  0.0888 -0.8556
 1104SOL    HW114945   3.113   2.382   8.399 -2.5708 -0.5544  0.2469
 1104SOL    HW214946   3.095   2.404   8.257 -2.7614 -0.0981 -1.4602
 1105SOL     OW14947   0.570   4.366   7.902 -0.1361 -0.3995 -0.0712
 1105SOL    HW114948   0.553   4.350   7.809  0.2969 -0.1699 -0.1910
 1105SOL    HW214949   0.526   4.292   7.943 -0.6570 -0.6057 -1.0036
 1106SOL     OW14950   1.707   0.013   2.094 -0.2331 -0.4818 -0.6568
 1106SOL    HW114951   1.775   0.080   2.088  0.8294 -1.2509  2.9770
 1106SOL    HW214952   1.662   0.051   2.169 -0.4165  1.0451 -1.5266
 1107SOL     OW14953   3.551   1.796   9.716 -0.0195 -0.1328  0.7359
 1107SOL    HW114954   3.631   1.763   9.674  0.2569  0.8672  0.4926
 1107SOL    HW214955   3.501   1.714   9.725  3.3844 -2.1432  1.4009
 1108SOL     OW14956   2.009   2.969   4.534  0.4100 -0.1773 -0.0961
 1108SOL    HW114957   1.940   3.033   4.553  1.0081  0.7985 -1.2211
 1108SOL    HW214958   2.071   3.010   4.595 -0.5142 -1.5238  1.7459
 1109SOL     OW14959   2.517   3.957   7.498  0.0747 -0.6658 -0.1611
 1109SOL    HW114960   2.448   3.891   7.507 -2.6384  1.8122 -2.5837
 1109SOL    HW214961   2.462   4.027   7.463 -0.6943 -1.9429 -1.5024
 1110SOL     OW14962   3.426   1.033   7.138 -0.0983  0.3471 -0.8687
 1110SOL    HW114963   3.456   1.073   7.057  0.0006  0.5019 -0.7580
 1110SOL    HW214964   3.376   0.961   7.102 -0.4570 -0.4260  1.1828
 1111SOL     OW14965   2.111   4.217   5.604  0.1078 -0.5736  0.2119
 1111SOL    HW114966   2.118   4.121   5.609 -1.9609 -0.6310  2.3098
 1111SOL    HW214967   2.017   4.233   5.600  0.1930 -0.0973  0.1741
 1112SOL     OW14968   3.294   1.855   9.835 -0.1817 -0.1682  0.5438
 1112SOL    HW114969   3.370   1.803   9.808 -0.7684 -1.2559  1.0171
 1112SOL    HW214970   3.339   1.920   9.889 -0.8466  1.2332 -0.5911
 1113SOL     OW14971   4.425   0.133   7.018 -0.0104  0.4377 -0.4241
 1113SOL    HW114972   4.489   0.203   7.006  1.0266 -0.1868  1.3573
 1113SOL    HW214973   4.395   0.147   7.108  0.0266 -1.0440 -0.1762
 1114SOL     OW14974   2.638   4.124  16.171 -0.5283 -0.2934  0.1299
 1114SOL    HW114975   2.613   4.131  16.263 -1.9501  0.6412 -0.3292
 1114SOL    HW214976   2.631   4.030  16.159  0.4058 -0.2279 -0.9452
 1115SOL     OW14977   2.886   2.111   7.824  0.7109  0.0906  0.0971
 1115SOL    HW114978   2.804   2.149   7.792 -0.0247 -1.4314  0.2102
 1115SOL    HW214979   2.859   2.043   7.885  1.3782 -1.2494 -1.1181
 1116SOL     OW14980   1.451   4.637   3.055 -0.0161 -0.1826 -0.5416
 1116SOL    HW114981   1.479   4.632   2.963 -1.9065 -1.5872 -1.0431
 1116SOL    HW214982   1.511   4.575   3.095 -2.8351 -0.3555  3.3823
 1117SOL     OW14983   3.832   3.547   5.871 -0.1639  0.2222  0.7211
 1117SOL    HW114984   3.792   3.586   5.949  0.6499  1.0478  0.7241
 1117SOL    HW214985   3.882   3.475   5.908 -1.2621 -1.7191 -1.6173
 1118SOL     OW14986   2.676   0.988   6.663 -0.5716  0.2707 -0.1229
 1118SOL    HW114987   2.600   1.040   6.687  0.6137  2.4274 -1.1151
 1118SOL    HW214988   2.644   0.935   6.589  0.0739 -0.9771  0.4927
 1119SOL     OW14989   4.304   1.101   2.260 -0.3026 -0.2008  0.0960
 1119SOL    HW114990   4.291   1.031   2.196  0.3916  0.6124 -0.9355
 1119SOL    HW214991   4.254   1.165   2.208 -1.5467  0.5260  2.2014
 1120SOL     OW14992   1.739   2.569   8.811 -0.5018  0.1818  0.0704
 1120SOL    HW114993   1.805   2.565   8.881 -1.6089  0.6348  1.1404
 1120SOL    HW214994   1.796   2.532   8.744  0.3253 -0.6275  1.2271
 1121SOL     OW14995   0.376   3.130   2.020 -0.6174  0.1278  0.2783
 1121SOL    HW114996   0.301   3.076   2.044  0.0728 -0.7289  0.4926
 1121SOL    HW214997   0.340   3.213   2.051  0.7190  0.5254  0.7446
 1122SOL     OW14998   1.858   2.128   3.384  0.0868  0.3064 -0.1928
 1122SOL    HW114999   1.846   2.116   3.479  1.7233 -0.6698 -0.1051
 1122SOL    HW215000   1.865   2.223   3.384  0.3440  0.2881 -0.0037
 1123SOL     OW15001   3.659   3.894   4.897  0.9990  0.5476  0.4078
 1123SOL    HW115002   3.597   3.875   4.827 -0.9239  1.2070  1.9324
 1123SOL    HW215003   3.739   3.856   4.861  0.4732  0.7224 -0.9217
 1124SOL     OW15004   0.965   4.037  13.206 -0.2595  0.0419 -0.7652
 1124SOL    HW115005   0.893   4.028  13.144 -0.6293 -1.0399 -0.1814
 1124SOL    HW215006   1.020   3.961  13.189  0.2798  0.2462  0.0726
 1125SOL     OW15007   0.842   0.293  12.694 -0.1559 -0.3714 -0.0218
 1125SOL    HW115008   0.772   0.246  12.739  0.6972 -0.8481  0.8032
 1125SOL    HW215009   0.825   0.377  12.736  1.3221 -1.1564  2.1679
 1126SOL     OW15010   2.400   2.660   2.350 -0.4395  0.5175  0.5000
 1126SOL    HW115011   2.411   2.613   2.267 -0.1536  0.1432  0.7534
 1126SOL    HW215012   2.458   2.625   2.417 -1.7080 -2.9858 -0.2527
 1127SOL     OW15013   2.171   0.929   6.160 -0.2229  0.7988  0.2605
 1127SOL    HW115014   2.134   0.890   6.081 -1.9784 -0.1147  1.5262
 1127SOL    HW215015   2.213   0.856   6.206  1.1131  0.4373 -1.5654
 1128SOL     OW15016   2.759   3.557  13.532  0.5468  0.2945  0.3555
 1128SOL    HW115017   2.790   3.647  13.530 -0.9613  0.8059 -0.2300
 1128SOL    HW215018   2.836   3.504  13.553 -2.0188 -2.7460  2.0121
 1129SOL     OW15019   1.288   3.195   7.627 -0.4942 -0.4076 -0.1063
 1129SOL    HW115020   1.370   3.210   7.674 -1.4061  0.6243  1.1568
 1129SOL    HW215021   1.220   3.181   7.693 -1.1626  3.1556 -0.0429
 1130SOL     OW15022   2.629   1.571   8.145 -0.2641 -0.0403 -0.3199
 1130SOL    HW115023   2.613   1.621   8.065 -0.3128 -0.3327 -0.4957
 1130SOL    HW215024   2.700   1.515   8.113  0.1774  0.1163  0.3759
 1131SOL     OW15025   1.572   2.187   3.692  0.4064  0.0177 -0.1850
 1131SOL    HW115026   1.567   2.111   3.750 -2.1597  1.6254  1.7072
 1131SOL    HW215027   1.503   2.241   3.732  0.3397 -0.8966  0.9484
 1132SOL     OW15028   3.483   0.334  15.146 -0.5252  0.5331  0.2613
 1132SOL    HW115029   3.462   0.390  15.072 -0.9126 -0.3727 -0.3194
 1132SOL    HW215030   3.405   0.360  15.195 -2.1600 -1.6504 -1.1531
 1133SOL     OW15031   1.323   2.973   5.658 -0.1400 -0.5252 -0.1490
 1133SOL    HW115032   1.345   3.058   5.696  2.3360 -0.4035 -1.8495
 1133SOL    HW215033   1.366   2.911   5.717 -1.4325 -1.6316 -0.3720
 1134SOL     OW15034   2.639   2.098   6.609 -0.2850  0.3032  0.4860
 1134SOL    HW115035   2.667   2.170   6.665  0.7900 -0.3187  0.7297
 1134SOL    HW215036   2.578   2.056   6.669  1.2687 -0.4045  1.5369
 1135SOL     OW15037   0.116   0.768  10.821  0.1941 -0.4717 -0.4706
 1135SOL    HW115038   0.118   0.798  10.912  0.3716 -1.7519 -0.0566
 1135SOL    HW215039   0.024   0.786  10.802 -0.3675 -1.9845  0.7667
 1136SOL     OW15040   3.165   2.651   3.218  0.7666  0.2386  0.9514
 1136SOL    HW115041   3.109   2.707   3.165 -1.8560 -1.0090  2.3852
 1136SOL    HW215042   3.224   2.718   3.253  1.8016 -0.5879  0.7699
 1137SOL     OW15043   4.432   0.545   5.888  0.0668 -0.2704 -0.0172
 1137SOL    HW115044   4.369   0.474   5.872 -0.2737 -0.3367  1.5617
 1137SOL    HW215045   4.373   0.617   5.910 -1.4037 -1.3370 -0.4600
 1138SOL     OW15046   4.302   0.764   2.349 -0.2205 -0.4481  0.0190
 1138SOL    HW115047   4.350   0.764   2.432  0.8956  0.5876 -0.6187
 1138SOL    HW215048   4.252   0.846   2.356 -0.8102 -0.9037  1.1353
 1139SOL     OW15049   1.606   0.007   1.562  0.3615  0.4022  0.0053
 1139SOL    HW115050   1.510   0.000   1.554  0.3667  0.9165 -0.4999
 1139SOL    HW215051   1.653   4.680   1.515  3.7681  1.2191  2.2757
 1140SOL     OW15052   1.727   1.231   1.987  0.0775 -0.3642  0.3278
 1140SOL    HW115053   1.702   1.275   2.068 -0.4284 -0.7153  0.3663
 1140SOL    HW215054   1.790   1.290   1.947 -0.9509 -0.4232 -1.3928
 1141SOL     OW15055   2.344   3.243   3.853 -0.2995 -0.0228 -0.3200
 1141SOL    HW115056   2.370   3.309   3.789  1.6403  1.0371  1.5569
 1141SOL    HW215057   2.323   3.290   3.934  0.9385 -0.8591  0.4896
 1142SOL     OW15058   2.855   3.324   5.606 -0.4580 -0.0996 -0.3758
 1142SOL    HW115059   2.898   3.254   5.557 -0.4209 -1.0003  0.9340
 1142SOL    HW215060   2.896   3.402   5.569 -0.7460  0.8076  1.2161
 1143SOL     OW15061   0.209   4.064   4.313  0.2719 -0.1127  0.6582
 1143SOL    HW115062   0.281   4.002   4.303 -0.1151  0.0354 -2.8264
 1143SOL    HW215063   0.182   4.085   4.224  0.1332 -2.1489  0.2336
 1144SOL     OW15064   3.160   0.201   8.498 -0.1949  0.4503 -0.1878
 1144SOL    HW115065   3.146   0.133   8.563  0.6564 -0.1206 -0.5913
 1144SOL    HW215066   3.249   0.177   8.472  0.1674  0.3454  1.1583
 1145SOL     OW15067   1.148   2.536  12.511  0.4444 -0.3705 -0.1536
 1145SOL    HW115068   1.221   2.517  12.453 -0.4720 -1.4583 -0.9579
 1145SOL    HW215069   1.097   2.455  12.504 -0.7366  0.3321  0.1353
 1146SOL     OW15070   1.912   3.913   7.320 -0.0635 -0.5191  0.0438
 1146SOL    HW115071   1.997   3.908   7.276 -0.5748  0.8193 -1.0769
 1146SOL    HW215072   1.877   3.825   7.334 -0.0647 -0.2927  1.5126
 1147SOL     OW15073   3.653   3.298   6.553  0.2458  0.2447  0.1304
 1147SOL    HW115074   3.562   3.296   6.584  0.0310  0.6376 -0.4585
 1147SOL    HW215075   3.693   3.331   6.633  1.7326 -2.2596  0.3990
 1148SOL     OW15076   1.834   2.432   5.123 -0.2032 -0.1869  0.3143
 1148SOL    HW115077   1.845   2.430   5.218 -1.5509  0.3941  0.4753
 1148SOL    HW215078   1.851   2.340   5.104  2.6786  0.0018  1.8465
 1149SOL     OW15079   0.816   1.897   8.365 -0.5345 -0.4667 -0.6155
 1149SOL    HW115080   0.797   1.958   8.437  1.0487 -1.3400  0.5507
 1149SOL    HW215081   0.761   1.826   8.398  0.5776 -2.1005 -2.3171
 1150SOL     OW15082   0.362   1.648   9.861 -0.7355 -0.2543 -0.0706
 1150SOL    HW115083   0.455   1.629   9.853 -0.7734 -0.6101  0.3293
 1150SOL    HW215084   0.320   1.563   9.876 -0.5795  0.1044  2.4910
 1151SOL     OW15085   1.155   4.441  12.088 -0.5069  0.1199 -0.5440
 1151SOL    HW115086   1.149   4.393  12.171 -3.0230 -1.1027 -1.4270
 1151SOL    HW215087   1.229   4.394  12.049 -0.5228 -0.9455  0.7047
 1152SOL     OW15088   4.626   0.277   2.798 -0.5365 -0.1418 -0.6043
 1152SOL    HW115089   4.706   0.298   2.749 -0.1888 -0.4871 -0.1857
 1152SOL    HW215090   4.673   0.254   2.878 -1.8636  2.2152  0.8506
 1153SOL     OW15091   2.240   0.442  14.762 -0.2640  0.3941 -0.0455
 1153SOL    HW115092   2.261   0.380  14.832  0.1776  1.3091  0.6250
 1153SOL    HW215093   2.327   0.450  14.723  0.4675  1.7987  1.9034
 1154SOL     OW15094   4.669   2.206  11.177  0.3521 -0.5947 -0.0854
 1154SOL    HW115095   4.680   2.203  11.082 -1.8861  0.6836 -0.3906
 1154SOL    HW215096   0.009   2.255  11.191 -0.1034  0.3492 -0.7581
 1155SOL     OW15097   0.095   0.124   8.163 -0.1411 -0.1653  0.5635
 1155SOL    HW115098   0.073   0.065   8.235 -2.8643 -0.2178 -0.3037
 1155SOL    HW215099   0.155   0.183   8.208  0.5759 -0.9020  0.5766
 1156SOL     OW15100   4.740   2.591  10.270  0.0402 -0.0927 -0.4576
 1156SOL    HW115101   4.714   2.659  10.332 -2.0569  0.2203 -1.6679
 1156SOL    HW215102   0.006   2.645  10.191  3.0866  1.7016  1.0593
 1157SOL     OW15103   3.580   3.960   8.120 -0.4999 -0.0506 -0.3238
 1157SOL    HW115104   3.663   3.926   8.152 -0.1521  0.7351 -0.3847
 1157SOL    HW215105   3.545   3.882   8.077  0.7323 -0.3129 -0.8566
 1158SOL     OW15106   1.638   0.407   7.761  0.0964  0.6515  0.5751
 1158SOL    HW115107   1.728   0.380   7.742  0.3267 -0.0238  2.6220
 1158SOL    HW215108   1.600   0.410   7.673  1.0537  1.4473  0.1913
 1159SOL     OW15109   1.464   1.249   7.360 -0.0715 -0.1739  0.3665
 1159SOL    HW115110   1.483   1.173   7.415 -1.8812 -0.8243  0.0607
 1159SOL    HW215111   1.369   1.246   7.358 -0.0912 -0.8390  2.0245
 1160SOL     OW15112   0.033   1.205  16.790  0.0686  0.0489 -0.2777
 1160SOL    HW115113   0.101   1.138  16.780 -0.6453 -0.3846 -2.2563
 1160SOL    HW215114   4.735   1.192  16.704  0.6125 -1.3208 -0.3249
 1161SOL     OW15115   2.609   1.168   5.648 -0.3268  0.3724  0.4072
 1161SOL    HW115116   2.632   1.259   5.630  0.4761 -0.8487 -4.7609
 1161SOL    HW215117   2.636   1.161   5.739 -0.8174  0.4687  0.5597
 1162SOL     OW15118   4.206   4.524   8.953  0.5824  0.1537  0.0009
 1162SOL    HW115119   4.199   4.591   9.021 -0.0423  1.0895 -0.9924
 1162SOL    HW215120   4.161   4.454   9.000 -0.8977  1.4698  0.5342
 1163SOL     OW15121   1.499   0.685  10.379 -0.6526  0.3920  1.1137
 1163SOL    HW115122   1.584   0.697  10.421 -0.8377  0.0662  1.5868
 1163SOL    HW215123   1.468   0.775  10.370 -1.1718  0.0586 -0.4610
 1164SOL     OW15124   3.732   2.174   3.010  0.1162 -0.6031 -0.5632
 1164SOL    HW115125   3.696   2.252   2.965  0.4399  0.0233  0.2695
 1164SOL    HW215126   3.763   2.118   2.939  4.2096  0.2507  0.5534
 1165SOL     OW15127   3.223   2.525   9.682 -0.0571 -0.0963 -0.1750
 1165SOL    HW115128   3.176   2.462   9.627  0.7306 -1.3604  0.5886
 1165SOL    HW215129   3.180   2.504   9.764 -0.7223 -0.1830 -0.5482
 1166SOL     OW15130   1.730   0.054  13.836  0.2671  0.4820  0.2942
 1166SOL    HW115131   1.638   0.077  13.842  0.3097  0.7985 -0.3136
 1166SOL    HW215132   1.756   0.065  13.745 -0.1687 -1.0780 -0.0239
 1167SOL     OW15133   2.598   0.246   6.496  0.3219  0.1138  0.0549
 1167SOL    HW115134   2.518   0.287   6.465  0.0403  0.1262  0.8089
 1167SOL    HW215135   2.641   0.315   6.547  2.4371 -0.6223 -0.7021
 1168SOL     OW15136   1.456   4.548  10.911  0.2056  0.3243  0.5283
 1168SOL    HW115137   1.376   4.498  10.927  0.1512  0.4254  0.5792
 1168SOL    HW215138   1.514   4.475  10.890 -0.6127 -0.1403 -0.1348
 1169SOL     OW15139   1.864   3.539   2.214  0.4176  0.3256 -0.5858
 1169SOL    HW115140   1.923   3.595   2.164  0.4926 -0.6920 -1.6416
 1169SOL    HW215141   1.872   3.587   2.297 -1.1443  0.5190 -0.5425
 1170SOL     OW15142   3.493   2.442   4.204 -0.2323  1.0374  0.0848
 1170SOL    HW115143   3.441   2.388   4.144  0.1826  1.0050 -0.2449
 1170SOL    HW215144   3.507   2.520   4.150  1.0261  1.7874  1.5018
 1171SOL     OW15145   1.638   0.973   1.664  0.2898 -0.2026  0.3235
 1171SOL    HW115146   1.703   1.026   1.710 -1.5969  2.2822  0.0668
 1171SOL    HW215147   1.635   0.894   1.718 -0.0728 -0.4482 -0.0538
 1172SOL     OW15148   4.466   4.135   8.418 -0.2164 -0.5163 -0.0778
 1172SOL    HW115149   4.483   4.196   8.490 -0.5996 -0.2304 -0.2268
 1172SOL    HW215150   4.554   4.097   8.415 -0.8803 -1.9977 -0.4061
 1173SOL     OW15151   3.747   1.016   1.728 -0.4106 -0.4268 -0.5489
 1173SOL    HW115152   3.673   1.044   1.780 -0.4228 -1.3205 -0.0920
 1173SOL    HW215153   3.742   1.085   1.662  3.6016 -0.0259 -0.4837
 1174SOL     OW15154   3.550   1.732  15.676 -0.6022  0.0506 -0.7246
 1174SOL    HW115155   3.580   1.823  15.681  0.9725 -0.4653 -0.7804
 1174SOL    HW215156   3.505   1.735  15.592 -0.9290 -0.5193 -0.5723
 1175SOL     OW15157   3.101   3.988   3.720 -0.5269 -0.3736  0.1082
 1175SOL    HW115158   3.056   4.035   3.790 -1.9906  0.4309 -1.3927
 1175SOL    HW215159   3.057   3.904   3.731  0.1747 -0.5422  1.6952
 1176SOL     OW15160   3.914   2.703   6.349  0.0268  0.2860 -0.0461
 1176SOL    HW115161   3.831   2.678   6.306 -0.9659  1.0643  1.4302
 1176SOL    HW215162   3.948   2.758   6.278  1.5057  0.8870  1.1347
 1177SOL     OW15163   2.674   3.718   3.906  0.0917  0.4023  0.1939
 1177SOL    HW115164   2.592   3.750   3.867  1.0596  2.8218  0.1545
 1177SOL    HW215165   2.631   3.652   3.960 -0.2526  0.7445  0.3418
 1178SOL     OW15166   0.897   4.502   1.327  0.2956  0.2738  0.1418
 1178SOL    HW115167   0.913   4.554   1.249 -0.6802 -1.0252 -0.9364
 1178SOL    HW215168   0.808   4.475   1.306  1.1473 -1.7423 -0.9254
 1179SOL     OW15169   3.487   1.241   5.908  0.2724 -0.2001 -0.1564
 1179SOL    HW115170   3.502   1.191   5.827 -0.4312 -2.8553  1.3565
 1179SOL    HW215171   3.561   1.302   5.905  0.7336 -0.7793 -0.5454
 1180SOL     OW15172   2.381   1.734   5.791 -0.1921  0.1308 -0.1774
 1180SOL    HW115173   2.345   1.786   5.863  1.4939  2.5629 -1.1045
 1180SOL    HW215174   2.409   1.656   5.839  1.3685  0.3615 -0.7063
 1181SOL     OW15175   3.500   1.557   5.326  0.1578  0.1221 -0.0408
 1181SOL    HW115176   3.595   1.548   5.333 -0.0502 -0.1164  2.4936
 1181SOL    HW215177   3.495   1.574   5.232  0.4686  1.4588  0.1865
 1182SOL     OW15178   1.473   2.759   5.734 -0.4701 -0.2082 -0.1215
 1182SOL    HW115179   1.562   2.788   5.715 -0.7082  0.6420  0.0700
 1182SOL    HW215180   1.457   2.682   5.679 -1.4160  0.5093 -0.8602
 1183SOL     OW15181   1.910   0.528   9.531 -0.1530 -0.0318 -0.6136
 1183SOL    HW115182   1.840   0.543   9.468 -0.2442  4.5899  0.6178
 1183SOL    HW215183   1.968   0.480   9.473  0.1069 -1.2963  0.6863
 1184SOL     OW15184   2.152   0.581   2.952  0.1362 -0.8402 -0.1793
 1184SOL    HW115185   2.096   0.538   2.888 -2.4616  2.1633  0.0900
 1184SOL    HW215186   2.104   0.568   3.033 -0.1486  0.8519 -0.0773
 1185SOL     OW15187   1.014   0.535   1.979  0.2609 -0.2658  0.6082
 1185SOL    HW115188   1.076   0.464   1.999  0.6563 -0.0454  0.1810
 1185SOL    HW215189   0.935   0.505   2.024 -0.6682 -0.1713 -0.9755
 1186SOL     OW15190   3.702   1.300  16.293  0.3175  0.6237  0.0210
 1186SOL    HW115191   3.724   1.389  16.320  0.8305  0.0576  1.4424
 1186SOL    HW215192   3.614   1.290  16.330  0.2709  0.7408 -0.0569
 1187SOL     OW15193   3.463   0.265   5.197 -0.1887 -0.0923 -0.3585
 1187SOL    HW115194   3.484   0.357   5.213  2.5480 -1.1060  1.9373
 1187SOL    HW215195   3.550   0.226   5.206 -1.1145 -1.8709  0.8244
 1188SOL     OW15196   1.591   4.194   9.511  0.0733  0.5484 -0.7228
 1188SOL    HW115197   1.554   4.276   9.477 -1.4141  0.0285 -0.3211
 1188SOL    HW215198   1.680   4.201   9.475  0.2827 -0.7892 -0.4525
 1189SOL     OW15199   4.111   4.038   4.164 -0.2051 -0.3730  0.1845
 1189SOL    HW115200   4.154   3.970   4.216 -1.1676 -0.1605  1.2549
 1189SOL    HW215201   4.023   4.024   4.201 -0.2702 -1.2952 -0.3197
 1190SOL     OW15202   3.224   2.898   2.392 -0.2743 -0.2308  0.0229
 1190SOL    HW115203   3.156   2.929   2.332  2.5806 -0.7666 -3.4682
 1190SOL    HW215204   3.252   2.816   2.351 -0.4600  0.4230 -1.3953
 1191SOL     OW15205   2.699   0.732   1.425 -0.3219 -0.2649  0.3879
 1191SOL    HW115206   2.676   0.791   1.353  1.2293 -0.6103 -0.3839
 1191SOL    HW215207   2.655   0.657   1.384 -0.7830  0.0689  0.2659
 1192SOL     OW15208   2.440   2.863   4.487  0.0168 -0.3005 -0.3807
 1192SOL    HW115209   2.353   2.826   4.474  0.3653 -0.5140 -2.1437
 1192SOL    HW215210   2.470   2.832   4.572  1.8670 -0.0042 -0.9147
 1193SOL     OW15211   0.864   0.373   1.342  0.2473  0.6523 -0.2631
 1193SOL    HW115212   0.876   0.406   1.431 -0.8499  1.3057 -0.3638
 1193SOL    HW215213   0.769   0.373   1.333  0.2447  2.3245 -0.1104
 1194SOL     OW15214   1.515   4.725   1.906  0.2969  0.1736 -0.4094
 1194SOL    HW115215   1.571   0.014   1.978 -1.7936 -2.3457  2.2573
 1194SOL    HW215216   1.497   4.633   1.923 -2.0912  0.7955  0.4043
 1195SOL     OW15217   0.719   2.150   4.038  0.3438  0.3965 -0.2534
 1195SOL    HW115218   0.694   2.237   4.070  1.9964  0.8798 -0.2975
 1195SOL    HW215219   0.812   2.164   4.025  0.5740  1.3963  2.4332
 1196SOL     OW15220   1.556   4.329   7.273  0.5108  0.0168  0.3114
 1196SOL    HW115221   1.529   4.349   7.183 -1.1235  0.9511  1.0112
 1196SOL    HW215222   1.591   4.412   7.305  1.6656 -0.6709  0.8185
 1197SOL     OW15223   4.705   1.107   6.310  0.1585 -0.2908 -0.5305
 1197SOL    HW115224   0.014   1.189   6.306 -0.9816  0.3465 -1.4547
 1197SOL    HW215225   0.033   1.048   6.280  1.8654  0.7344  1.3087
 1198SOL     OW15226   2.397   0.116   8.331  0.7683  0.0579  0.6209
 1198SOL    HW115227   2.492   0.108   8.323  0.9854  2.8158  0.5077
 1198SOL    HW215228   2.380   0.209   8.317  1.5880  0.0883 -0.1912
 1199SOL     OW15229   3.778   0.145   8.871 -0.3447  0.5315 -0.2047
 1199SOL    HW115230   3.720   0.221   8.862 -2.6870 -1.2532 -0.1302
 1199SOL    HW215231   3.803   0.133   8.780  1.5899  1.0066  0.2704
 1200SOL     OW15232   3.680   0.813   5.159  0.0558  0.0989  0.6041
 1200SOL    HW115233   3.771   0.783   5.151 -0.7553 -1.8593 -1.4438
 1200SOL    HW215234   3.690   0.908   5.151  1.3899 -0.2570 -2.0702
 1201SOL     OW15235   0.464   4.407   7.654 -0.5621 -0.4035  0.3261
 1201SOL    HW115236   0.377   4.437   7.629 -1.8155 -2.9325  1.7741
 1201SOL    HW215237   0.498   4.354   7.582  1.8217  1.0627  0.3770
 1202SOL     OW15238   0.081   3.527   2.644  0.0567 -0.0827  0.4792
 1202SOL    HW115239   0.065   3.621   2.633 -2.9469 -0.7007 -0.6213
 1202SOL    HW215240   0.041   3.506   2.729 -0.3334  1.6010  0.7089
 1203SOL     OW15241   2.140   4.560   2.504 -0.3436 -0.1618 -0.0882
 1203SOL    HW115242   2.096   4.475   2.506  1.2096 -0.9602 -0.0526
 1203SOL    HW215243   2.125   4.589   2.594  0.3903 -0.4945  0.1453
 1204SOL     OW15244   1.153   3.381   5.497  0.4767  0.2694  0.6305
 1204SOL    HW115245   1.085   3.440   5.466 -0.5069 -0.8546  0.6170
 1204SOL    HW215246   1.215   3.434   5.548 -0.7322  1.6688  0.6447
 1205SOL     OW15247   2.965   1.835  16.608  0.6037 -0.2268  0.1187
 1205SOL    HW115248   2.974   1.779  16.685  0.9732  1.1555  1.0825
 1205SOL    HW215249   2.935   1.765  16.550 -2.6617  0.5645  0.8371
 1206SOL     OW15250   1.369   0.731  14.359  0.1430  0.2092 -0.1847
 1206SOL    HW115251   1.406   0.733  14.447  0.0044 -2.2375 -0.0943
 1206SOL    HW215252   1.328   0.645  14.357 -1.0841  0.8033 -0.4991
 1207SOL     OW15253   3.715   4.603   3.617  0.1675 -0.5891 -0.5277
 1207SOL    HW115254   3.734   4.547   3.692 -0.9387 -0.5992 -0.2522
 1207SOL    HW215255   3.796   4.588   3.567  0.2491  1.4595 -1.0073
 1208SOL     OW15256   0.207   1.819   7.227 -0.0140  0.0713  0.1519
 1208SOL    HW115257   0.283   1.827   7.169 -0.8499  0.0192 -0.9506
 1208SOL    HW215258   0.238   1.738   7.267  1.1939  1.2616  1.6143
 1209SOL     OW15259   3.199   3.297   9.677  0.3396  0.0867  0.6575
 1209SOL    HW115260   3.294   3.308   9.684  0.4719 -0.0483 -1.1636
 1209SOL    HW215261   3.180   3.310   9.770 -0.0601 -1.3469  0.7620
 1210SOL     OW15262   1.030   2.706   5.292  0.0087 -0.0324  0.2408
 1210SOL    HW115263   1.022   2.734   5.201  2.0234 -0.7483 -0.1474
 1210SOL    HW215264   1.113   2.752   5.307  0.0613 -0.2782  0.7061
 1211SOL     OW15265   3.561   1.497   3.018 -0.2488  0.5243 -0.2999
 1211SOL    HW115266   3.504   1.547   2.959  0.6098 -0.4138 -1.9275
 1211SOL    HW215267   3.497   1.433   3.051  0.7672  0.4568  1.5255
 1212SOL     OW15268   2.304   2.234   1.306 -0.0133 -0.1172  0.2810
 1212SOL    HW115269   2.371   2.166   1.310 -0.1559 -0.3876 -1.6172
 1212SOL    HW215270   2.358   2.306   1.273 -0.3434 -0.0327 -0.0814
 1213SOL     OW15271   1.948   1.228   7.879 -0.2327  0.1785  0.2385
 1213SOL    HW115272   1.889   1.199   7.949 -1.3219 -0.3104 -0.8775
 1213SOL    HW215273   1.952   1.321   7.902 -0.7028 -0.2414  2.0528
 1214SOL     OW15274   2.834   0.868   2.033 -0.0864  0.2561 -0.0324
 1214SOL    HW115275   2.755   0.814   2.027 -0.7265  0.9664  2.0402
 1214SOL    HW215276   2.850   0.863   2.128  1.6840  2.4425 -0.2281
 1215SOL     OW15277   0.108   3.623   5.494  0.1229 -0.0430  0.3668
 1215SOL    HW115278   0.089   3.711   5.527  0.5153  0.2751 -0.2607
 1215SOL    HW215279   0.197   3.640   5.463  0.2501 -2.6138 -0.6640
 1216SOL     OW15280   0.749   4.395   1.068  0.3336  0.3255 -0.2561
 1216SOL    HW115281   0.728   4.486   1.047  0.4148  1.2692  3.8487
 1216SOL    HW215282   0.738   4.351   0.984  2.3661  1.4397 -1.1326
 1217SOL     OW15283   4.061   3.596   5.125  0.5415  0.3166  0.1025
 1217SOL    HW115284   4.061   3.609   5.220 -3.3234  0.3535  0.0974
 1217SOL    HW215285   4.046   3.502   5.118 -1.3613  0.6040  0.2951
 1218SOL     OW15286   1.008   4.564  14.000  0.7271  0.4817 -0.3970
 1218SOL    HW115287   0.996   4.506  13.925  0.5028 -0.1126  0.0925
 1218SOL    HW215288   0.941   4.529  14.059 -0.6352  3.1880 -0.2994
 1219SOL     OW15289   3.717   4.376   6.900 -0.7554  0.1786  0.4105
 1219SOL    HW115290   3.801   4.340   6.871  0.0826  1.3450  1.3523
 1219SOL    HW215291   3.758   4.450   6.947 -0.0681  0.5445 -0.7747
 1220SOL     OW15292   4.435   0.687  17.629  0.0101  0.2163 -0.2813
 1220SOL    HW115293   4.346   0.723  17.629  0.0421  0.2888 -2.1725
 1220SOL    HW215294   4.483   0.770  17.628  0.3901 -0.0114 -0.9635
 1221SOL     OW15295   2.854   2.112  16.506  0.3548  0.1251 -0.0466
 1221SOL    HW115296   2.768   2.108  16.465  1.3755 -1.1203 -2.0207
 1221SOL    HW215297   2.871   2.019  16.516 -2.3696 -0.3305  0.3105
 1222SOL     OW15298   2.510   0.716   2.635  0.3824  0.0059 -0.1655
 1222SOL    HW115299   2.483   0.694   2.545 -1.7324  0.5848  0.3211
 1222SOL    HW215300   2.444   0.786   2.632  1.1758  0.7759  0.3874
 1223SOL     OW15301   4.656   0.108   6.642 -0.4851  0.5072  0.1579
 1223SOL    HW115302   4.613   0.148   6.566  0.4726 -0.1020 -0.6991
 1223SOL    HW215303   4.732   0.063   6.604 -0.8047  0.1908 -0.1037
 1224SOL     OW15304   3.085   0.649   1.255  0.6590  0.3717  0.2628
 1224SOL    HW115305   3.116   0.684   1.171 -1.0668 -1.6052 -1.1914
 1224SOL    HW215306   3.159   0.592   1.278  0.4825 -0.9074 -2.2999
 1225SOL     OW15307   0.402   2.842   1.852 -0.1236 -0.3224  0.1740
 1225SOL    HW115308   0.310   2.869   1.846 -0.5806 -1.4294  2.1711
 1225SOL    HW215309   0.402   2.812   1.943 -0.7491 -0.3037  0.1825
 1226SOL     OW15310   4.443   0.597   3.350 -0.3175  0.0525  0.0305
 1226SOL    HW115311   4.372   0.534   3.333 -0.0604 -0.3514  0.4347
 1226SOL    HW215312   4.510   0.556   3.296 -1.5361 -0.1183 -1.3375
 1227SOL     OW15313   4.473   4.303   6.373 -0.0546 -0.0242  0.3051
 1227SOL    HW115314   4.490   4.211   6.392  1.2097  0.4481  1.4696
 1227SOL    HW215315   4.504   4.343   6.454  1.1637  0.9711 -0.6550
 1228SOL     OW15316   2.820   2.769   2.290  0.3826 -0.3212 -0.1910
 1228SOL    HW115317   2.753   2.775   2.222  0.2121  1.5529  0.1342
 1228SOL    HW215318   2.876   2.708   2.241  2.2670 -1.0097  2.8657
 1229SOL     OW15319   0.076   2.274   8.592 -0.3823  0.0079  0.0469
 1229SOL    HW115320   0.094   2.328   8.669  0.4721 -0.1058 -0.0696
 1229SOL    HW215321   0.136   2.305   8.523  0.0464 -1.8890 -0.4223
 1230SOL     OW15322   0.128   1.681   9.614  0.1911  0.0759 -0.2269
 1230SOL    HW115323   0.101   1.770   9.590 -0.4377 -0.5089 -1.6569
 1230SOL    HW215324   0.059   1.648   9.672  0.0873 -0.4567 -0.6586
 1231SOL     OW15325   0.954   0.652   9.412  0.1685  0.0499 -0.2675
 1231SOL    HW115326   0.977   0.581   9.472  0.5012  1.2605  1.0399
 1231SOL    HW215327   0.878   0.695   9.452 -0.8034 -1.5610 -0.3831
 1232SOL     OW15328   0.485   3.892   3.017 -0.1167  0.1741 -0.6380
 1232SOL    HW115329   0.433   3.823   3.058  0.8857 -0.2031 -0.0070
 1232SOL    HW215330   0.549   3.845   2.964 -1.9051  0.1561 -2.7571
 1233SOL     OW15331   2.900   2.340  12.553  0.0145 -0.3311  0.1723
 1233SOL    HW115332   2.826   2.303  12.601 -0.8881 -0.6808 -1.5100
 1233SOL    HW215333   2.968   2.318  12.618 -1.5863  0.1242  2.0067
 1234SOL     OW15334   1.807   4.520   0.504  0.0712  0.2949 -0.1991
 1234SOL    HW115335   1.766   4.466   0.436 -1.4689  1.2342 -0.0359
 1234SOL    HW215336   1.743   4.510   0.575 -2.0723 -3.4478 -2.5959
 1235SOL     OW15337   0.921   1.653   8.935  0.5387  0.3552  0.1940
 1235SOL    HW115338   0.901   1.732   8.885  1.1381  0.6162  0.3645
 1235SOL    HW215339   0.996   1.686   8.985  0.2272  0.2747  0.7217
 1236SOL     OW15340   4.268   4.042   8.598 -0.6913 -0.3779  0.6805
 1236SOL    HW115341   4.316   4.047   8.516 -1.2375 -1.6162  0.2852
 1236SOL    HW215342   4.182   4.051   8.557  0.1849  2.4723 -0.5190
 1237SOL     OW15343   1.505   2.018   8.600 -0.5730 -0.8053  0.3828
 1237SOL    HW115344   1.487   1.929   8.569 -2.4617 -0.5042  0.5814
 1237SOL    HW215345   1.426   2.065   8.575  1.1863  1.1918 -1.3993
 1238SOL     OW15346   2.778   1.151   8.912  0.4224 -0.0749  0.3792
 1238SOL    HW115347   2.780   1.201   8.831  0.9052 -0.0094  0.4322
 1238SOL    HW215348   2.760   1.221   8.975  0.4694  2.9099 -2.9459
 1239SOL     OW15349   3.487   3.628   7.629 -0.7150  0.3522  0.0698
 1239SOL    HW115350   3.409   3.617   7.684 -1.1636 -0.4106 -0.7085
 1239SOL    HW215351   3.460   3.567   7.560  0.8274  0.0607 -0.2631
 1240SOL     OW15352   2.438   3.691   9.475 -0.3239 -0.2298 -0.2407
 1240SOL    HW115353   2.364   3.700   9.416 -0.2332  0.9758 -0.1865
 1240SOL    HW215354   2.442   3.596   9.482  2.3116 -0.0261  1.2010
 1241SOL     OW15355   4.189   3.721   3.911 -0.6352  0.0729 -0.4439
 1241SOL    HW115356   4.222   3.664   3.842  0.5180  1.2834 -0.8943
 1241SOL    HW215357   4.231   3.677   3.984 -1.5827  1.6342  1.0486
 1242SOL     OW15358   2.481   2.092   2.312 -0.0654 -0.2350  0.0414
 1242SOL    HW115359   2.461   2.137   2.230  1.5430  0.6506  0.1158
 1242SOL    HW215360   2.481   2.164   2.375  0.1277 -2.0951  2.1385
 1243SOL     OW15361   0.670   0.815  11.796  0.3263  0.1460 -0.0844
 1243SOL    HW115362   0.761   0.830  11.770  0.1808 -1.5328 -1.5344
 1243SOL    HW215363   0.634   0.901  11.774 -1.1430 -0.8870 -1.7196
 1244SOL     OW15364   4.025   2.062   8.215 -0.1850  0.5366 -0.2071
 1244SOL    HW115365   4.034   1.974   8.252 -2.0386  0.5477  0.2506
 1244SOL    HW215366   3.982   2.049   8.131  3.1571 -1.4099 -1.6090
 1245SOL     OW15367   2.469   2.287   5.933 -0.7298  0.0722 -0.2757
 1245SOL    HW115368   2.500   2.254   6.017  0.4430  0.5971 -0.4976
 1245SOL    HW215369   2.483   2.221   5.864 -1.8054 -1.2590  0.7973
 1246SOL     OW15370   2.341   2.197   2.104 -0.4200  0.6108 -0.0848
 1246SOL    HW115371   2.390   2.141   2.044  2.3318  0.1758  2.5690
 1246SOL    HW215372   2.320   2.263   2.038 -3.9414  0.1158  0.5541
 1247SOL     OW15373   3.053   0.934  10.175 -0.5850 -0.4290  0.3778
 1247SOL    HW115374   3.018   0.895  10.255 -1.3832 -2.3598 -0.9258
 1247SOL    HW215375   3.023   0.880  10.102  2.1376 -1.4268  0.0182
 1248SOL     OW15376   0.174   0.395  17.006 -0.3411  0.3114  0.2137
 1248SOL    HW115377   0.089   0.433  17.025 -0.6530  0.1054 -0.7760
 1248SOL    HW215378   0.214   0.425  17.088 -0.2335 -2.1513  1.0542
 1249SOL     OW15379   0.624   3.979   8.260  0.2631 -0.7533  0.3585
 1249SOL    HW115380   0.688   4.047   8.240 -0.1595 -0.4548  0.0087
 1249SOL    HW215381   0.648   3.915   8.192 -3.4458 -1.3259 -0.4120
 1250SOL     OW15382   2.075   3.505  11.560 -0.6017 -0.4004 -0.7809
 1250SOL    HW115383   2.083   3.594  11.594  0.9041 -0.5070 -0.8261
 1250SOL    HW215384   2.156   3.462  11.590 -0.3609 -0.3088 -1.2991
 1251SOL     OW15385   1.628   1.932   8.113 -0.0394 -0.2658  0.1359
 1251SOL    HW115386   1.690   2.003   8.094 -1.4385  0.9296  0.0654
 1251SOL    HW215387   1.625   1.896   8.024 -1.3917 -3.0027  1.2810
 1252SOL     OW15388   2.468   0.027   7.620 -0.0295  0.1600  0.5908
 1252SOL    HW115389   2.465   4.673   7.606 -1.3281  0.4519 -1.1363
 1252SOL    HW215390   2.529   0.035   7.693  0.2345 -2.8792  0.7248
 1253SOL     OW15391   4.331   1.617   4.437 -0.6623  0.1499 -0.1081
 1253SOL    HW115392   4.264   1.558   4.471 -1.1574  1.6217  1.4534
 1253SOL    HW215393   4.386   1.549   4.398 -0.7589  0.4417 -0.7381
 1254SOL     OW15394   2.168   2.313   7.242  0.1007  1.0458  0.4043
 1254SOL    HW115395   2.204   2.230   7.274  0.6236  1.0820 -0.0979
 1254SOL    HW215396   2.240   2.375   7.250 -0.6610  1.8297  1.2050
 1255SOL     OW15397   1.480   1.966   2.583  0.1279 -0.2549  0.2305
 1255SOL    HW115398   1.574   1.983   2.585 -0.2675  1.9532 -0.0146
 1255SOL    HW215399   1.463   1.918   2.664 -1.0291  1.1439  0.8042
 1256SOL     OW15400   2.400   4.254   8.626  0.2691 -0.7287 -0.0069
 1256SOL    HW115401   2.392   4.293   8.539  1.1737 -0.7322 -0.0961
 1256SOL    HW215402   2.307   4.255   8.647  0.2480 -0.5485 -0.1066
 1257SOL     OW15403   1.992   3.273  17.235  0.0245 -0.1257  0.2918
 1257SOL    HW115404   2.083   3.298  17.220 -0.1754 -1.2498 -2.7018
 1257SOL    HW215405   1.960   3.274  17.145  1.5333 -2.0540 -0.2766
 1258SOL     OW15406   2.387   2.378   9.111  0.3596 -0.3868  0.4106
 1258SOL    HW115407   2.321   2.415   9.170  0.2987  0.9653 -0.4875
 1258SOL    HW215408   2.468   2.396   9.159  1.9900  0.0936 -2.5241
 1259SOL     OW15409   0.470   0.091   7.808  0.6395 -0.3071 -0.4529
 1259SOL    HW115410   0.446   0.118   7.897 -1.4574 -2.2747 -0.4257
 1259SOL    HW215411   0.386   0.057   7.776  0.3371  0.0332 -0.0189
 1260SOL     OW15412   1.802   1.977   6.551  0.1802  0.0865  0.2656
 1260SOL    HW115413   1.809   1.882   6.545  1.2827  0.1497  0.6175
 1260SOL    HW215414   1.878   1.993   6.607 -1.5414 -1.5894  3.0515
 1261SOL     OW15415   1.796   3.788   6.181 -0.2391  0.1758 -0.0938
 1261SOL    HW115416   1.888   3.814   6.182  0.3639 -2.0321  3.9265
 1261SOL    HW215417   1.793   3.707   6.232  0.2512 -1.2433 -2.3613
 1262SOL     OW15418   1.784   1.514   5.544  0.2702 -0.0141  0.0286
 1262SOL    HW115419   1.879   1.513   5.539  0.1747  2.0693 -1.8762
 1262SOL    HW215420   1.771   1.598   5.587 -1.0859  0.0894 -0.5760
 1263SOL     OW15421   4.462   1.639   5.050 -0.5341 -0.1652 -0.0258
 1263SOL    HW115422   4.555   1.618   5.046 -0.0004  2.3211 -0.6049
 1263SOL    HW215423   4.460   1.730   5.019 -0.8624 -0.4110 -0.7263
 1264SOL     OW15424   3.307   0.213   4.954  0.0334  0.2036  0.3681
 1264SOL    HW115425   3.346   0.235   5.039 -1.0041  0.2616  0.8233
 1264SOL    HW215426   3.280   0.125   4.980  1.0668  1.2680  5.1264
 1265SOL     OW15427   1.425   2.987   6.291  0.2548  0.3204 -0.2833
 1265SOL    HW115428   1.497   2.941   6.333  1.1434  0.9985 -1.0566
 1265SOL    HW215429   1.359   2.942   6.343  1.0727 -0.9013 -0.3120
 1266SOL     OW15430   1.984   4.402   9.596  0.5750 -0.1323 -0.8200
 1266SOL    HW115431   1.990   4.487   9.640  0.6005  0.0717 -1.2101
 1266SOL    HW215432   2.074   4.379   9.618  0.2120 -0.5364  0.2458
 1267SOL     OW15433   2.721   3.204  11.614 -0.3239  0.1185  0.1904
 1267SOL    HW115434   2.636   3.164  11.633 -0.6713  1.4142  1.3327
 1267SOL    HW215435   2.707   3.202  11.520 -0.2000 -1.4298  0.1972
 1268SOL     OW15436   1.459   3.085  12.954  0.8991 -0.3136  0.7332
 1268SOL    HW115437   1.527   3.019  12.963  2.7222  1.7994  2.5951
 1268SOL    HW215438   1.483   3.149  13.021  1.1142  0.2122  0.1550
 1269SOL     OW15439   0.243   4.456  13.915  0.7316  0.9554 -0.6134
 1269SOL    HW115440   0.159   4.409  13.921 -0.1622  2.9153  2.3746
 1269SOL    HW215441   0.288   4.408  13.845  0.6038 -0.5833  0.3478
 1270SOL     OW15442   4.639   2.028   7.465 -0.9640  0.0872  0.1590
 1270SOL    HW115443   4.655   2.100   7.526 -0.2657 -0.9729  1.2338
 1270SOL    HW215444   4.544   2.033   7.456 -0.9506 -0.0507 -0.0703
 1271SOL     OW15445   1.584   1.124   7.861  0.5012  0.3158  0.0400
 1271SOL    HW115446   1.538   1.096   7.781 -3.0152  0.0312  2.1603
 1271SOL    HW215447   1.510   1.126   7.921 -0.0948  2.4152 -0.7417
 1272SOL     OW15448   1.464   0.691   2.394 -0.8129 -0.5273  0.0191
 1272SOL    HW115449   1.546   0.733   2.367 -1.0073 -0.3221 -0.2582
 1272SOL    HW215450   1.412   0.681   2.314 -1.5206 -2.2763  0.6949
 1273SOL     OW15451   0.261   1.627   4.014 -0.3803  0.0107  0.2175
 1273SOL    HW115452   0.296   1.631   3.925 -2.4531  2.1312 -0.5004
 1273SOL    HW215453   0.265   1.717   4.045  0.6008  0.1853 -0.4200
 1274SOL     OW15454   0.016   4.064   3.783  0.0443 -0.0301  0.5975
 1274SOL    HW115455   4.665   4.072   3.807 -0.3190 -1.7336 -0.2539
 1274SOL    HW215456   0.002   4.010   3.706 -2.5165  0.8401  0.4792
 1275SOL     OW15457   2.361   0.090  11.106  0.2980 -0.1320 -0.6043
 1275SOL    HW115458   2.338   0.005  11.144  2.0744 -0.2067  0.2845
 1275SOL    HW215459   2.445   0.067  11.065  1.4244  1.0624  1.0802
 1276SOL     OW15460   1.517   2.988   3.451 -0.2539 -0.3084  0.0589
 1276SOL    HW115461   1.542   2.908   3.404 -0.1908  0.4673 -1.2225
 1276SOL    HW215462   1.508   3.053   3.381 -0.3013 -0.9509 -0.5291
 1277SOL     OW15463   3.766   1.003  10.081 -0.3216  0.1197  0.0132
 1277SOL    HW115464   3.778   1.023  10.174 -0.1836 -1.2890  0.3102
 1277SOL    HW215465   3.785   0.910  10.093  0.4524  0.3417  0.4750
 1278SOL     OW15466   4.178   4.388   8.720  0.1327 -0.5544 -0.2418
 1278SOL    HW115467   4.111   4.320   8.718  0.4712 -0.8957 -0.0020
 1278SOL    HW215468   4.163   4.441   8.798 -0.0563  1.3685 -1.5830
 1279SOL     OW15469   3.263   1.290   5.633 -0.0994  0.7207  0.3849
 1279SOL    HW115470   3.321   1.216   5.650  0.3141  0.8147 -0.6129
 1279SOL    HW215471   3.184   1.270   5.683  0.6564 -1.9861  0.4578
 1280SOL     OW15472   1.206   2.386   4.132 -0.6216 -0.6220 -0.2998
 1280SOL    HW115473   1.281   2.334   4.162 -1.3934 -0.2984  2.1536
 1280SOL    HW215474   1.207   2.458   4.195 -0.3113  1.0619 -2.2176
 1281SOL     OW15475   0.534   0.455   5.275 -0.3326  0.7069  0.7891
 1281SOL    HW115476   0.505   0.392   5.341 -2.4248 -0.0839 -0.8775
 1281SOL    HW215477   0.510   0.533   5.324 -2.1299  0.7864 -0.1976
 1282SOL     OW15478   2.339   3.745   6.104  0.6144  1.1873 -0.3075
 1282SOL    HW115479   2.425   3.702   6.108 -0.6722 -1.2652  0.8860
 1282SOL    HW215480   2.341   3.795   6.022  0.7791 -1.4088 -1.8644
 1283SOL     OW15481   2.083   3.271   3.017 -0.4856 -0.0258 -0.3746
 1283SOL    HW115482   2.118   3.204   3.076 -0.4061  1.1496  0.9255
 1283SOL    HW215483   2.163   3.308   2.981 -0.2106 -0.4822 -0.2283
 1284SOL     OW15484   4.133   0.567   7.139 -0.0824  0.4024  0.5681
 1284SOL    HW115485   4.038   0.558   7.150 -0.2462  0.8796 -0.4106
 1284SOL    HW215486   4.145   0.561   7.044  0.3030  0.1482  0.6326
 1285SOL     OW15487   1.201   2.670   4.896  0.1997  0.1178  0.3896
 1285SOL    HW115488   1.284   2.623   4.893 -0.6441 -1.1737 -2.9302
 1285SOL    HW215489   1.244   2.756   4.898 -1.3250  0.8538  2.5533
 1286SOL     OW15490   2.228   0.981   4.302  0.3319 -0.4463  0.0606
 1286SOL    HW115491   2.274   0.977   4.386 -1.0173  2.0139  0.9166
 1286SOL    HW215492   2.144   1.022   4.320  0.7015 -0.2096  1.2445
 1287SOL     OW15493   0.901   1.181  15.078  0.1985 -0.2583 -0.3313
 1287SOL    HW115494   0.884   1.158  15.170 -2.7684 -0.8180 -1.0039
 1287SOL    HW215495   0.990   1.148  15.076  0.1691 -0.4396  1.0750
 1288SOL     OW15496   3.224   1.752   2.388  0.1587 -0.1138 -0.0732
 1288SOL    HW115497   3.205   1.808   2.313  1.3860  0.1170 -0.1994
 1288SOL    HW215498   3.204   1.662   2.360 -1.4697  0.0530  0.5084
 1289SOL     OW15499   4.643   3.511   8.291  0.4484 -0.5555 -0.3006
 1289SOL    HW115500   4.679   3.425   8.270  3.6967  0.2753  1.9573
 1289SOL    HW215501   4.724   3.560   8.306  1.0795 -1.2313 -1.5454
 1290SOL     OW15502   2.702   2.538   8.409 -0.0983  0.5009  0.1496
 1290SOL    HW115503   2.661   2.574   8.488  0.5855 -0.0737  0.7731
 1290SOL    HW215504   2.633   2.484   8.370 -0.6171  0.9580  0.4381
 1291SOL     OW15505   1.525   2.874   4.360  0.4203 -0.2124  0.0695
 1291SOL    HW115506   1.614   2.843   4.345  0.6707 -0.1771  1.4385
 1291SOL    HW215507   1.536   2.930   4.437 -0.0352  0.6268 -0.4784
 1292SOL     OW15508   3.276   2.951  16.159  0.4966 -0.2049 -0.0036
 1292SOL    HW115509   3.281   2.933  16.065 -2.7945 -0.5190 -0.1246
 1292SOL    HW215510   3.181   2.945  16.166  0.2217  2.2917 -1.7359
 1293SOL     OW15511   0.703   4.084   9.545  0.4968  0.0366 -0.0972
 1293SOL    HW115512   0.698   4.051   9.634 -3.0531 -0.4270 -0.4763
 1293SOL    HW215513   0.622   4.134   9.538  0.7223  0.3846 -0.2012
 1294SOL     OW15514   1.438   2.548  16.609  0.0906  0.0698  0.7605
 1294SOL    HW115515   1.403   2.619  16.555 -1.0593 -0.7759  0.3785
 1294SOL    HW215516   1.400   2.570  16.694  1.8777 -0.6015  1.7279
 1295SOL     OW15517   4.029   2.186   6.950 -0.8120 -0.0395  0.1973
 1295SOL    HW115518   4.094   2.249   6.920 -0.1985 -0.4117  0.7421
 1295SOL    HW215519   4.067   2.176   7.038 -0.4672 -1.8301 -0.1617
 1296SOL     OW15520   1.304   2.137   3.278  0.0548  0.3821  0.0340
 1296SOL    HW115521   1.290   2.057   3.329  1.9491 -0.1581 -0.2807
 1296SOL    HW215522   1.367   2.196   3.321 -0.6486  0.2591  1.2285
 1297SOL     OW15523   1.428   4.439   3.517 -0.6543 -0.5116 -0.1565
 1297SOL    HW115524   1.437   4.406   3.606 -0.3051  0.3146  0.1213
 1297SOL    HW215525   1.392   4.526   3.537  1.2805 -0.2687  2.2320
 1298SOL     OW15526   2.361   2.961   4.239 -0.7326  0.4204  0.1951
 1298SOL    HW115527   2.383   2.928   4.326  1.5874  1.1847 -0.0944
 1298SOL    HW215528   2.444   2.996   4.207 -1.6243  2.3052 -0.0682
 1299SOL     OW15529   4.161   3.824  12.126  0.1446 -0.4658 -0.9767
 1299SOL    HW115530   4.177   3.733  12.100  0.6630 -0.8226  0.5921
 1299SOL    HW215531   4.162   3.865  12.040 -0.5575 -1.0875 -1.2832
 1300SOL     OW15532   1.528   3.266   8.728  0.2028 -0.1637 -0.2451
 1300SOL    HW115533   1.508   3.344   8.780  1.9375  0.1265 -0.0229
 1300SOL    HW215534   1.522   3.200   8.797 -0.4417  0.2745  0.1165
 1301SOL     OW15535   2.319   4.456   3.047  0.0655 -1.1942  0.4496
 1301SOL    HW115536   2.301   4.409   2.965 -0.0743 -1.2324  0.5033
 1301SOL    HW215537   2.256   4.528   3.041 -0.1018 -1.2570  1.5760
 1302SOL     OW15538   2.585   3.792  15.656  0.1351 -0.4521 -0.2591
 1302SOL    HW115539   2.549   3.738  15.586 -1.2190  1.2940 -0.9164
 1302SOL    HW215540   2.586   3.878  15.613 -1.4592 -1.0468 -1.4832
 1303SOL     OW15541   0.779   2.066   2.441  0.6999  0.1434  0.5385
 1303SOL    HW115542   0.758   2.142   2.388  0.8283 -0.6212 -0.5985
 1303SOL    HW215543   0.750   2.087   2.530 -1.9763  1.8790 -0.7577
 1304SOL     OW15544   3.989   0.719   4.797 -0.1651 -0.5886 -0.3355
 1304SOL    HW115545   3.983   0.632   4.759 -0.8403 -0.2587 -0.9940
 1304SOL    HW215546   4.085   0.720   4.798 -0.1967  0.9341  0.8243
 1305SOL     OW15547   4.134   4.720   0.951 -0.1410 -0.1068  0.0482
 1305SOL    HW115548   4.216   4.698   0.907  0.4709  1.2658  0.4931
 1305SOL    HW215549   4.078   0.004   0.877  2.4230  2.4826 -1.0048
 1306SOL     OW15550   1.100   1.595   7.844 -0.3682  0.3478 -0.1278
 1306SOL    HW115551   1.168   1.529   7.833 -0.4646  0.3881 -1.0209
 1306SOL    HW215552   1.121   1.618   7.935 -0.9445  0.5325 -0.0412
 1307SOL     OW15553   1.924   2.499  16.428 -0.1326 -0.3411 -0.3957
 1307SOL    HW115554   1.977   2.543  16.495  1.4059 -1.1436 -1.0948
 1307SOL    HW215555   1.834   2.506  16.460  0.6677 -1.1155  2.0169
 1308SOL     OW15556   2.462   4.605   8.764  0.0241  0.3340 -0.3145
 1308SOL    HW115557   2.500   4.610   8.677  0.8005 -1.2488 -0.0714
 1308SOL    HW215558   2.377   4.640   8.738 -0.0785  0.0097 -0.4124
 1309SOL     OW15559   0.062   1.241   1.093  0.0268 -0.0336 -0.0357
 1309SOL    HW115560   0.053   1.288   1.176  1.3343  3.3511 -1.8378
 1309SOL    HW215561   4.713   1.211   1.083  0.0544  0.0588 -0.5735
 1310SOL     OW15562   2.315   0.225   9.877  0.2070  0.3420 -0.4359
 1310SOL    HW115563   2.286   0.317   9.876  0.1990  0.3395 -0.4289
 1310SOL    HW215564   2.338   0.221   9.784 -0.2508 -0.8348 -0.4909
 1311SOL     OW15565   1.688   1.947   9.299 -0.2071 -0.3008  0.5722
 1311SOL    HW115566   1.725   1.994   9.224 -0.5938 -2.6636 -1.0864
 1311SOL    HW215567   1.763   1.944   9.358  1.9352  1.1216 -2.1079
 1312SOL     OW15568   2.831   3.917   7.048 -0.1853 -0.2315 -0.0485
 1312SOL    HW115569   2.904   3.914   7.109 -0.5131  0.6634  0.3858
 1312SOL    HW215570   2.850   3.999   7.004  0.2673 -0.4824 -0.3135
 1313SOL     OW15571   3.397   2.699   9.534 -0.4756  0.1141  0.3362
 1313SOL    HW115572   3.338   2.634   9.573 -1.1720  0.9894  0.7582
 1313SOL    HW215573   3.373   2.684   9.442 -1.2590  1.7347  0.2732
 1314SOL     OW15574   0.718   4.234   6.843 -0.4561  0.3468  0.3750
 1314SOL    HW115575   0.798   4.186   6.864  0.5869  1.7038 -0.4879
 1314SOL    HW215576   0.723   4.313   6.897 -1.1999  0.7961 -0.2184
 1315SOL     OW15577   1.842   2.555  11.788 -0.1886 -0.3777  0.1898
 1315SOL    HW115578   1.773   2.595  11.736 -0.1344 -1.7563 -0.9523
 1315SOL    HW215579   1.909   2.623  11.781 -0.4901 -0.1594 -0.5710
 1316SOL     OW15580   2.992   4.396   8.246  0.1814  0.2932 -0.4086
 1316SOL    HW115581   2.907   4.360   8.273  0.1001  1.9051  1.5057
 1316SOL    HW215582   3.023   4.435   8.328 -1.8407 -0.5544  0.7815
 1317SOL     OW15583   3.306   0.909   5.055  0.2283  0.0579 -0.5216
 1317SOL    HW115584   3.389   0.945   5.023  0.6909  0.3761  0.9963
 1317SOL    HW215585   3.336   0.820   5.075 -0.1609 -0.2108 -1.1642
 1318SOL     OW15586   4.544   0.930   0.247  0.2029  0.0670  0.3725
 1318SOL    HW115587   4.586   0.846   0.266  1.8746  1.0262  1.0036
 1318SOL    HW215588   4.458   0.898   0.221  1.3730 -1.6010 -1.4392
 1319SOL     OW15589   3.301   4.498   4.873  0.0135  0.2585 -0.2192
 1319SOL    HW115590   3.370   4.433   4.883 -1.0247 -1.0667 -1.5943
 1319SOL    HW215591   3.230   4.436   4.857 -0.5747  1.5246 -2.5355
 1320SOL     OW15592   3.983   0.918   5.670 -0.3432  0.0652 -0.2760
 1320SOL    HW115593   4.048   0.988   5.667 -1.1418  0.7050 -2.4738
 1320SOL    HW215594   4.005   0.862   5.596 -0.9462 -1.6538  0.8462
 1321SOL     OW15595   2.910   1.188   9.548  0.5827 -0.2773 -0.0939
 1321SOL    HW115596   2.815   1.183   9.552  0.5441  0.9845  0.5392
 1321SOL    HW215597   2.920   1.185   9.452  0.7953  3.9384 -0.1665
 1322SOL     OW15598   2.659   3.801   8.025 -0.3691  0.0462 -0.3485
 1322SOL    HW115599   2.603   3.847   7.962  1.6924  1.4020 -1.1770
 1322SOL    HW215600   2.646   3.707   8.014 -1.2068  0.0172  0.8347
 1323SOL     OW15601   4.549   2.704   7.522 -0.6072 -1.3527 -0.0786
 1323SOL    HW115602   4.518   2.726   7.609  3.8252 -2.2304  1.7010
 1323SOL    HW215603   4.557   2.609   7.530  0.5458 -1.0365  2.5111
 1324SOL     OW15604   3.440   0.545   1.864 -0.1456  0.5030  0.3390
 1324SOL    HW115605   3.463   0.504   1.781 -0.6293  1.0243 -0.0442
 1324SOL    HW215606   3.353   0.578   1.845 -0.7969 -0.2596  1.9918
 1325SOL     OW15607   2.575   1.053  15.535 -0.3716  0.3569  0.2081
 1325SOL    HW115608   2.616   1.077  15.617 -2.0733  0.3049  1.0773
 1325SOL    HW215609   2.644   1.084  15.476 -2.0854  2.1110 -0.9013
 1326SOL     OW15610   3.758   2.332   2.033  0.1525 -0.4289 -0.8636
 1326SOL    HW115611   3.678   2.378   2.008  0.0076  0.5443  1.3841
 1326SOL    HW215612   3.731   2.245   2.061 -2.0234  0.4421 -0.2246
 1327SOL     OW15613   2.459   1.811   5.037 -0.0808  0.0055 -0.1106
 1327SOL    HW115614   2.367   1.801   5.060  0.0654  0.3365  0.6308
 1327SOL    HW215615   2.470   1.786   4.946 -0.7221  1.0408 -0.4689
 1328SOL     OW15616   4.241   4.622   2.999  0.2303  0.1994  0.4435
 1328SOL    HW115617   4.246   4.715   2.978 -1.1246  0.5934  1.8572
 1328SOL    HW215618   4.158   4.623   3.045 -0.6544  1.2372 -1.1648
 1329SOL     OW15619   2.314   4.351   5.715  0.1422 -0.3933 -0.3220
 1329SOL    HW115620   2.292   4.364   5.807  0.8437 -1.4155 -0.0050
 1329SOL    HW215621   2.238   4.303   5.682 -1.1340  1.5605 -0.1829
 1330SOL     OW15622   0.642   4.732  14.594  0.4832 -0.5429 -0.4650
 1330SOL    HW115623   0.680   4.646  14.613  2.2195  0.8823  2.6688
 1330SOL    HW215624   0.613   0.018  14.682 -1.1794  0.4128 -1.2854
 1331SOL     OW15625   4.381   4.631   8.301 -0.3620 -0.2853 -0.6962
 1331SOL    HW115626   4.348   4.586   8.378  1.4481 -0.1560  0.1464
 1331SOL    HW215627   4.474   4.613   8.315 -0.8270 -2.4645 -0.4015
 1332SOL     OW15628   1.444   3.490   3.920 -0.4560 -0.2586 -0.4407
 1332SOL    HW115629   1.415   3.570   3.875 -0.3712  0.5223  0.8671
 1332SOL    HW215630   1.433   3.429   3.847 -1.8842  1.5773 -1.7708
 1333SOL     OW15631   1.318   0.411   8.024 -0.2084 -0.1688 -0.0196
 1333SOL    HW115632   1.412   0.428   8.021  0.0758 -1.0842  2.8789
 1333SOL    HW215633   1.298   0.502   8.003  1.4174  0.4972  1.2408
 1334SOL     OW15634   2.258   1.384   9.738  0.1993  0.2559  0.1589
 1334SOL    HW115635   2.267   1.336   9.656 -0.2246 -2.4170  1.7049
 1334SOL    HW215636   2.177   1.433   9.722  0.8750  1.1350 -0.6218
 1335SOL     OW15637   2.885   2.709   2.560 -0.2837 -0.1260 -0.4119
 1335SOL    HW115638   2.977   2.714   2.584 -0.2439  0.0745 -0.6058
 1335SOL    HW215639   2.893   2.753   2.476  1.5013 -1.6966 -1.0628
 1336SOL     OW15640   3.550   2.667   3.054 -0.0728  0.2347 -0.1636
 1336SOL    HW115641   3.586   2.602   3.113  0.5916  0.0976 -0.7302
 1336SOL    HW215642   3.570   2.619   2.974  2.9729 -1.5683  1.6945
 1337SOL     OW15643   0.016   4.358  17.259  0.3106  0.0761 -0.2353
 1337SOL    HW115644   4.678   4.375  17.207 -1.1750  0.6303  2.1700
 1337SOL    HW215645   0.033   4.275  17.216 -0.9711 -0.6805  0.6957
 1338SOL     OW15646   4.270   1.821   7.765  0.2760 -0.1877  0.3171
 1338SOL    HW115647   4.360   1.832   7.795  0.0342 -2.3737  1.8331
 1338SOL    HW215648   4.232   1.784   7.844  0.5641  0.3090  0.6869
 1339SOL     OW15649   0.414   2.256   1.022 -0.2655 -0.0813 -0.1879
 1339SOL    HW115650   0.454   2.341   1.041 -0.3067  0.0794 -0.8153
 1339SOL    HW215651   0.365   2.238   1.102  0.0339  1.1974  0.2842
 1340SOL     OW15652   3.297   0.652   7.242  0.3883  0.8586 -0.0560
 1340SOL    HW115653   3.289   0.624   7.151 -1.0070  0.8173  0.0821
 1340SOL    HW215654   3.387   0.685   7.250 -0.0961  2.4158 -1.2515
 1341SOL     OW15655   3.795   3.706   7.372 -0.4822  0.6874  0.4078
 1341SOL    HW115656   3.772   3.613   7.377  0.8012  0.2338 -1.7713
 1341SOL    HW215657   3.726   3.753   7.419 -0.4318  0.2417  0.9291
 1342SOL     OW15658   2.539   3.405   8.535  0.4948 -0.2442  0.5079
 1342SOL    HW115659   2.629   3.373   8.521 -0.1060 -1.6665 -0.1824
 1342SOL    HW215660   2.554   3.498   8.552 -0.8762  0.0733 -0.0376
 1343SOL     OW15661   2.432   0.683   6.290  0.5277  0.0012  0.2984
 1343SOL    HW115662   2.489   0.728   6.228  1.0297 -0.2378  0.5792
 1343SOL    HW215663   2.355   0.652   6.243 -0.2901  0.6030  1.2425
 1344SOL     OW15664   3.471   1.985   2.770 -0.4798  0.2447 -0.3067
 1344SOL    HW115665   3.376   1.970   2.775 -0.1302 -0.7350  3.1117
 1344SOL    HW215666   3.505   1.920   2.708  1.6165  1.7731 -0.7714
 1345SOL     OW15667   0.478   1.719   2.027  0.5506  0.2565  0.3388
 1345SOL    HW115668   0.515   1.787   2.084 -1.6120 -0.6806  2.8690
 1345SOL    HW215669   0.384   1.733   2.039  0.4782  1.1997 -1.3696
 1346SOL     OW15670   4.647   4.455   7.364  0.3497  0.3486  0.1957
 1346SOL    HW115671   4.595   4.468   7.285  0.6914  1.9084  0.2135
 1346SOL    HW215672   4.583   4.488   7.426 -0.9207 -3.2851  0.7769
 1347SOL     OW15673   4.679   1.863   7.190 -0.3140  0.0215 -0.0470
 1347SOL    HW115674   0.028   1.870   7.220 -1.2434 -0.6484  2.8624
 1347SOL    HW215675   4.638   1.880   7.274  0.3010  0.5144  0.1551
 1348SOL     OW15676   3.592   3.628  13.680  0.2045  0.0902 -0.1762
 1348SOL    HW115677   3.679   3.597  13.706  0.3441  1.7919  1.3586
 1348SOL    HW215678   3.601   3.635  13.585 -1.1460  3.1623 -0.0691
 1349SOL     OW15679   4.388   1.863   4.620  0.4266  0.2777 -0.0764
 1349SOL    HW115680   4.481   1.850   4.639  0.1948 -2.1679 -0.6252
 1349SOL    HW215681   4.384   1.792   4.556 -0.4920  0.7974 -0.5928
 1350SOL     OW15682   4.396   1.454   6.972 -0.3124 -0.6819 -0.0884
 1350SOL    HW115683   4.369   1.486   6.885 -0.6089 -1.0371 -0.1261
 1350SOL    HW215684   4.448   1.528   7.003 -2.0833  0.2839  0.5410
 1351SOL     OW15685   3.334   2.759   6.763  0.1993  0.2381 -0.1437
 1351SOL    HW115686   3.415   2.709   6.755  0.7411  1.4604 -2.5422
 1351SOL    HW215687   3.269   2.691   6.779  1.7178 -1.2866 -0.4461
 1352SOL     OW15688   0.772   1.837   8.667  0.6641 -0.1048  0.0372
 1352SOL    HW115689   0.716   1.820   8.742  1.9024 -1.5997  0.6198
 1352SOL    HW215690   0.807   1.926   8.677 -0.2190  0.0864  1.4739
 1353SOL     OW15691   3.440   1.851   4.722  0.2038  0.4407 -0.2722
 1353SOL    HW115692   3.498   1.879   4.652  0.9057 -1.0759 -0.3003
 1353SOL    HW215693   3.477   1.769   4.755 -0.1096  0.1530 -0.6365
 1354SOL     OW15694   4.653   4.720   6.988 -0.0263  0.1998 -0.8062
 1354SOL    HW115695   4.558   4.713   6.993  0.1249 -0.4122  1.3715
 1354SOL    HW215696   4.685   4.731   7.078 -1.6772  0.9200 -0.3126
 1355SOL     OW15697   2.905   0.792   6.638 -0.2542  0.8656 -0.5741
 1355SOL    HW115698   2.919   0.793   6.733 -0.3653  1.2397 -0.5639
 1355SOL    HW215699   2.825   0.844   6.637 -1.6582 -1.3129 -1.0217
 1356SOL     OW15700   0.043   0.253   3.668  0.1259  0.1592 -0.4814
 1356SOL    HW115701   0.059   0.186   3.601 -0.9625 -1.0759  0.5057
 1356SOL    HW215702   0.028   0.333   3.618  0.7977  0.2538 -0.5359
 1357SOL     OW15703   2.315   2.960  17.167 -0.0149  0.2487  0.4215
 1357SOL    HW115704   2.388   3.018  17.146 -0.1668 -0.2571 -1.4950
 1357SOL    HW215705   2.238   3.005  17.132  0.2573  0.0443 -0.4385
 1358SOL     OW15706   0.475   1.494  15.147  0.1760  0.0667 -0.7808
 1358SOL    HW115707   0.430   1.554  15.087 -0.5775 -0.0476 -0.3211
 1358SOL    HW215708   0.565   1.525  15.134 -0.3478  1.5175 -0.9652
 1359SOL     OW15709   2.062   1.719   4.707  0.2079  0.3912 -0.1995
 1359SOL    HW115710   2.020   1.758   4.784 -0.1487 -0.8606  0.2438
 1359SOL    HW215711   2.150   1.723   4.743  0.1292 -3.0525  0.3678
 1360SOL     OW15712   2.383   4.096   0.025  0.4560 -0.1903 -0.3384
 1360SOL    HW115713   2.472   4.130   0.012 -0.0848 -0.3854 -4.5045
 1360SOL    HW215714   2.385   4.084   0.120  0.2979 -2.9423 -0.6643
 1361SOL     OW15715   0.162   0.618  15.086 -0.0472  0.3229  0.2622
 1361SOL    HW115716   0.113   0.657  15.014  1.0317  0.3442 -0.4590
 1361SOL    HW215717   0.228   0.681  15.113 -1.3021  1.7937 -0.1539
 1362SOL     OW15718   4.548   2.531  12.523  0.7770 -0.2898 -0.1905
 1362SOL    HW115719   4.483   2.601  12.525  1.5115  0.4339 -1.0215
 1362SOL    HW215720   4.495   2.465  12.567 -0.4692 -0.0187 -1.3007
 1363SOL     OW15721   0.749   1.888   7.888 -0.4696 -0.1201 -0.1587
 1363SOL    HW115722   0.709   1.901   7.975  0.8613 -2.0014  0.7133
 1363SOL    HW215723   0.773   1.796   7.896 -2.3917 -0.6821 -0.8716
 1364SOL     OW15724   4.420   4.575   7.247  0.0600  0.1847  0.1308
 1364SOL    HW115725   4.439   4.629   7.323  0.6636 -2.4955  1.8806
 1364SOL    HW215726   4.332   4.548   7.273 -0.5848  0.0198 -2.2188
 1365SOL     OW15727   0.840   0.142   3.554 -0.0333  0.0464  0.2183
 1365SOL    HW115728   0.931   0.160   3.530 -0.3788  0.4973 -0.7458
 1365SOL    HW215729   0.797   0.210   3.503  0.7083 -1.1744 -2.0041
 1366SOL     OW15730   3.685   2.365   6.407 -0.4700 -0.1006 -0.1079
 1366SOL    HW115731   3.769   2.341   6.368 -0.2444  2.4815 -1.2092
 1366SOL    HW215732   3.699   2.460   6.417 -4.3229  0.4270  0.1390
 1367SOL     OW15733   4.604   4.372   6.628 -0.4526  0.6649 -0.7850
 1367SOL    HW115734   4.575   4.298   6.682 -4.2127  1.5000 -1.6718
 1367SOL    HW215735   4.650   4.416   6.700 -0.9640  1.2380 -0.8063
 1368SOL     OW15736   4.568   2.319   3.095  0.0870 -0.2938 -0.5211
 1368SOL    HW115737   4.488   2.328   3.147  0.7354  0.7353  0.2867
 1368SOL    HW215738   4.579   2.227   3.118  0.0441  0.0698  0.9301
 1369SOL     OW15739   1.660   3.775   9.085 -0.2699  0.0994 -0.1132
 1369SOL    HW115740   1.576   3.731   9.098 -0.7104  1.0281  0.2637
 1369SOL    HW215741   1.707   3.704   9.043 -3.8519 -2.4761  0.1999
 1370SOL     OW15742   3.122   3.214   4.825  0.4020 -0.2165  0.5142
 1370SOL    HW115743   3.103   3.306   4.843  0.9092 -0.6690  3.3198
 1370SOL    HW215744   3.050   3.167   4.865  0.7217 -1.3045 -0.1829
 1371SOL     OW15745   1.774   4.299  14.384 -0.0217  0.2888 -0.3176
 1371SOL    HW115746   1.750   4.212  14.353  0.4928 -0.3686  1.1183
 1371SOL    HW215747   1.839   4.321  14.317 -0.5474 -0.3015 -1.0080
 1372SOL     OW15748   2.208   2.579   9.429  0.4893 -0.3888 -0.0213
 1372SOL    HW115749   2.259   2.630   9.492 -0.9358 -2.0685  2.4747
 1372SOL    HW215750   2.123   2.579   9.473  0.8837 -1.0557  0.7403
 1373SOL     OW15751   0.236   4.262   5.481 -0.3496  0.3305  0.3807
 1373SOL    HW115752   0.146   4.265   5.515  0.0746 -0.7441  1.6166
 1373SOL    HW215753   0.235   4.343   5.430  1.5989  0.2982  0.2751
 1374SOL     OW15754   2.161   0.981   4.701 -0.1042  0.7394 -0.2514
 1374SOL    HW115755   2.122   0.945   4.780  0.1981 -0.0633 -0.4565
 1374SOL    HW215756   2.247   0.938   4.707 -0.4385 -0.0592 -1.1254
 1375SOL     OW15757   4.197   0.805   6.615 -0.1104 -0.2491  0.6546
 1375SOL    HW115758   4.170   0.893   6.643 -1.7454 -0.2992 -0.7745
 1375SOL    HW215759   4.288   0.813   6.644  1.2238 -1.2747 -3.2994
 1376SOL     OW15760   1.996   1.389   6.008 -0.4519  0.2630 -1.1793
 1376SOL    HW115761   2.078   1.391   6.058 -0.7739 -1.5679 -0.5460
 1376SOL    HW215762   2.018   1.457   5.945  0.1281  0.5074 -0.7058
 1377SOL     OW15763   1.965   2.266  13.560 -0.3429 -0.0253 -0.3765
 1377SOL    HW115764   1.918   2.244  13.641  1.7473 -3.0927 -0.0183
 1377SOL    HW215765   2.017   2.343  13.586 -1.1891  0.6439 -0.6894
 1378SOL     OW15766   4.409   3.552   7.873  0.7679 -0.0331 -0.2426
 1378SOL    HW115767   4.480   3.602   7.914  0.9406 -1.7806  1.6208
 1378SOL    HW215768   4.336   3.601   7.910 -1.4794 -2.4569 -1.4651
 1379SOL     OW15769   1.568   4.704   3.400  0.0137 -0.4996 -0.2950
 1379SOL    HW115770   1.558   0.053   3.433 -1.2208 -0.1400 -1.6645
 1379SOL    HW215771   1.485   4.696   3.354 -0.5876 -0.4290  0.7844
 1380SOL     OW15772   1.454   1.261   8.518 -0.0480  0.4116 -0.0935
 1380SOL    HW115773   1.379   1.214   8.556  0.5405 -0.9490 -0.6207
 1380SOL    HW215774   1.504   1.290   8.594 -0.2397  0.1647  0.1280
 1381SOL     OW15775   4.386   3.082   1.762  0.1524 -0.7047 -0.3375
 1381SOL    HW115776   4.439   3.156   1.793 -0.7256 -1.2508  2.4573
 1381SOL    HW215777   4.325   3.134   1.709 -0.4964 -0.2370  0.8637
 1382SOL     OW15778   3.763   3.953  13.513 -0.4555 -0.2387  0.2269
 1382SOL    HW115779   3.684   4.003  13.535 -2.3592 -2.9915 -0.2884
 1382SOL    HW215780   3.805   3.995  13.438  2.7059 -1.5269  1.2717
 1383SOL     OW15781   2.475   2.080  17.039  0.4362  0.1356 -0.1934
 1383SOL    HW115782   2.490   2.171  17.014  1.4699 -0.6847 -2.6227
 1383SOL    HW215783   2.388   2.073  17.079  0.6339  1.7212  0.4812
 1384SOL     OW15784   2.421   3.772  10.951  0.0328  0.6753  0.0826
 1384SOL    HW115785   2.445   3.855  10.994  2.0068  1.0304 -1.7327
 1384SOL    HW215786   2.327   3.780  10.932  0.1212  1.5762 -0.0064
 1385SOL     OW15787   2.130   0.590  11.145 -0.1070  0.1894 -0.0696
 1385SOL    HW115788   2.091   0.650  11.209 -1.3337 -1.5658  0.8503
 1385SOL    HW215789   2.167   0.657  11.088  3.2492 -1.0702  0.6147
 1386SOL     OW15790   4.097   0.080   8.489 -0.6183 -0.0067  0.1781
 1386SOL    HW115791   4.187   0.112   8.484 -0.6412 -0.0301 -0.3850
 1386SOL    HW215792   4.115   4.727   8.488 -2.0067 -0.2636 -1.0944
 1387SOL     OW15793   2.388   4.287   2.468  0.1541  0.2356  0.0611
 1387SOL    HW115794   2.315   4.295   2.407 -0.6755 -2.5039  0.7105
 1387SOL    HW215795   2.352   4.225   2.531 -2.0225 -0.8841 -2.3206
 1388SOL     OW15796   4.640   1.056   8.143 -0.0275  0.0770  0.0352
 1388SOL    HW115797   4.677   1.129   8.094  2.5218 -0.2354  1.4762
 1388SOL    HW215798   4.638   0.986   8.078 -3.6134  1.6986 -1.6015
 1389SOL     OW15799   4.524   2.428   3.985 -0.0297  0.0949  0.2398
 1389SOL    HW115800   4.478   2.358   4.032  0.9775 -0.6685  0.0893
 1389SOL    HW215801   4.602   2.449   4.036 -0.7348  0.7421  1.0388
 1390SOL     OW15802   1.975   4.665   1.489 -0.1075 -0.0718  0.6529
 1390SOL    HW115803   1.928   0.007   1.494 -0.2547 -0.2378  1.9260
 1390SOL    HW215804   1.939   4.635   1.405  0.1736  1.9435 -0.1886
 1391SOL     OW15805   1.777   0.920   6.899 -0.5923  0.1123  0.6336
 1391SOL    HW115806   1.857   0.920   6.848 -1.6524 -1.9026 -1.0254
 1391SOL    HW215807   1.761   0.825   6.896  1.2660 -0.1878  0.5282
 1392SOL     OW15808   3.000   4.492  12.237  0.3414 -0.3788  0.5207
 1392SOL    HW115809   3.024   4.510  12.328  0.2451 -2.2654  0.9110
 1392SOL    HW215810   3.057   4.418  12.219  1.0491  0.8640 -2.2039
 1393SOL     OW15811   4.278   4.732   5.492 -0.0855  0.4138  0.4555
 1393SOL    HW115812   4.251   0.029   5.408  0.0879  1.9656  1.0983
 1393SOL    HW215813   4.307   0.066   5.545 -0.5434  0.7241  0.2734
 1394SOL     OW15814   0.976   1.836   9.436 -0.2996 -0.3191  0.0740
 1394SOL    HW115815   0.941   1.924   9.422  2.5756  0.8005 -0.0997
 1394SOL    HW215816   0.999   1.819   9.344 -0.3806  0.0683 -0.0178
 1395SOL     OW15817   2.920   3.214  12.154  0.5240 -0.2709 -0.7702
 1395SOL    HW115818   2.883   3.241  12.238  1.2493  2.4475 -1.3281
 1395SOL    HW215819   2.956   3.297  12.124  1.5270  0.0453  1.3210
 1396SOL     OW15820   1.158   3.842   1.050 -0.1390 -0.0246 -0.0233
 1396SOL    HW115821   1.135   3.890   1.130  1.0416 -0.8172  0.7794
 1396SOL    HW215822   1.074   3.797   1.036 -0.4313  0.2101  0.9599
 1397SOL     OW15823   2.829   3.315  11.107 -0.0440  0.5567  0.5344
 1397SOL    HW115824   2.863   3.225  11.102  0.0190  0.6959 -1.4282
 1397SOL    HW215825   2.825   3.343  11.198 -0.6889  0.6703  0.4699
 1398SOL     OW15826   2.602   2.653   8.683  0.0680 -0.2164 -0.4359
 1398SOL    HW115827   2.626   2.583   8.745 -1.5209  0.7753  1.3019
 1398SOL    HW215828   2.670   2.719   8.687  2.1676 -2.3623 -0.8120
 1399SOL     OW15829   2.258   2.540   8.176 -0.1479 -0.2122 -0.2805
 1399SOL    HW115830   2.274   2.540   8.082  2.9304  0.3598  0.2360
 1399SOL    HW215831   2.221   2.628   8.184  0.6994  0.0411  0.8492
 1400SOL     OW15832   1.597   4.081   8.687 -0.0911  0.4261  0.1854
 1400SOL    HW115833   1.524   4.020   8.677  0.0237 -0.1821  3.1154
 1400SOL    HW215834   1.562   4.133   8.760  2.3833 -1.2133  2.5529
 1401SOL     OW15835   2.009   4.623   9.765  0.4318  0.1767  0.3397
 1401SOL    HW115836   1.978   4.704   9.724  0.0663  0.2360  0.7311
 1401SOL    HW215837   1.938   4.585   9.817  2.1083 -0.1735  2.3901
 1402SOL     OW15838   0.275   3.118   7.133  0.3222  0.1898 -0.1471
 1402SOL    HW115839   0.248   3.117   7.225 -0.1739 -0.6937 -0.3001
 1402SOL    HW215840   0.293   3.026   7.113  0.7259 -0.1233  1.6974
 1403SOL     OW15841   1.744   3.236   6.152  0.2502 -0.2139  0.3148
 1403SOL    HW115842   1.693   3.274   6.224  1.0072  0.7838  0.3141
 1403SOL    HW215843   1.814   3.196   6.204  0.8176  1.3725  0.7646
 1404SOL     OW15844   4.250   3.172  12.133  0.6477 -0.5912 -0.0015
 1404SOL    HW115845   4.252   3.214  12.046  0.7257 -2.4367 -0.8871
 1404SOL    HW215846   4.171   3.119  12.123  0.8297 -0.7038 -0.8404
 1405SOL     OW15847   2.958   0.045   1.682  0.5443 -0.1517  0.1034
 1405SOL    HW115848   2.928   0.051   1.591 -0.4241 -0.9113  0.3712
 1405SOL    HW215849   2.876   0.038   1.730  0.9948  1.5143  1.0949
 1406SOL     OW15850   3.881   2.542   7.441  0.2129  0.1529 -0.3086
 1406SOL    HW115851   3.914   2.534   7.351  0.0858  1.4669 -0.4780
 1406SOL    HW215852   3.953   2.497   7.486 -0.4706 -1.6166 -1.0155
 1407SOL     OW15853   3.600   4.261   5.780  0.4311 -0.6364 -0.3926
 1407SOL    HW115854   3.596   4.347   5.823 -2.3216 -1.0243  0.1667
 1407SOL    HW215855   3.599   4.188   5.842 -0.2426  1.8566  2.5419
 1408SOL     OW15856   1.772   3.987  14.299 -0.4009 -0.1994  0.2421
 1408SOL    HW115857   1.853   3.979  14.250 -0.4075 -1.0915  0.3684
 1408SOL    HW215858   1.815   3.977  14.384 -1.0910 -0.0092  0.6118
 1409SOL     OW15859   1.989   4.463  11.711  0.1923  0.3522 -0.3277
 1409SOL    HW115860   1.959   4.543  11.753  4.2102  3.7865 -4.0118
 1409SOL    HW215861   2.055   4.421  11.765  1.8830  3.6080  0.0781
 1410SOL     OW15862   1.582   2.784   3.948  0.0462 -0.1808  0.4327
 1410SOL    HW115863   1.668   2.776   3.990 -0.2112 -4.3395  0.2070
 1410SOL    HW215864   1.578   2.870   3.907  2.1364 -0.5774 -0.5827
 1411SOL     OW15865   1.815   3.507  16.904  0.3730  0.0952  0.6318
 1411SOL    HW115866   1.907   3.481  16.902 -0.0477 -1.2152 -2.2212
 1411SOL    HW215867   1.800   3.503  16.810  1.8612  0.6544  0.3729
 1412SOL     OW15868   2.490   2.113   8.319 -0.1519  0.2312 -0.1212
 1412SOL    HW115869   2.500   2.113   8.414  0.7346  1.3697 -0.2184
 1412SOL    HW215870   2.397   2.089   8.318 -0.0785 -0.0728  0.8561
 1413SOL     OW15871   3.226   3.021   4.174 -0.6043 -0.0779  0.4195
 1413SOL    HW115872   3.297   3.032   4.237  1.3778 -0.3253 -1.7767
 1413SOL    HW215873   3.204   3.114   4.167 -1.8817 -0.6630 -3.5439
 1414SOL     OW15874   2.797   1.391  15.745  0.0087 -0.6433  0.0454
 1414SOL    HW115875   2.871   1.331  15.749  1.5383  1.1677 -0.6632
 1414SOL    HW215876   2.749   1.361  15.821  0.8858  1.2307  1.3573
 1415SOL     OW15877   0.522   4.093   2.556  0.1093  0.1645 -0.4690
 1415SOL    HW115878   0.588   4.047   2.608  0.1745  1.3366  0.4844
 1415SOL    HW215879   0.433   4.073   2.586 -0.0014  0.7890 -0.3777
 1416SOL     OW15880   3.820   4.585   9.455  0.0325  0.1483  0.0935
 1416SOL    HW115881   3.765   4.595   9.532  0.6056  2.2819  0.2252
 1416SOL    HW215882   3.799   4.671   9.418 -1.8984  0.0398  0.9310
 1417SOL     OW15883   4.338   3.165  14.610 -0.1295  0.1436  0.2477
 1417SOL    HW115884   4.315   3.224  14.682  2.5943  1.2571  0.2406
 1417SOL    HW215885   4.381   3.225  14.549 -1.5477  0.2599 -0.6146
 1418SOL     OW15886   0.772   2.615   4.588  0.2643 -0.2717 -0.5165
 1418SOL    HW115887   0.710   2.546   4.612  1.1042 -1.5359 -1.9293
 1418SOL    HW215888   0.718   2.683   4.547  1.2723  0.5027 -0.5516
 1419SOL     OW15889   0.728   3.739   6.017  0.3162 -0.0436  0.3335
 1419SOL    HW115890   0.821   3.761   6.011  1.0332 -2.9904  0.6543
 1419SOL    HW215891   0.682   3.822   6.019 -2.9703 -1.8761  0.7411
 1420SOL     OW15892   3.278   1.311   3.674  0.2262 -0.3421  0.0215
 1420SOL    HW115893   3.364   1.278   3.697 -0.5507 -2.5112 -0.1327
 1420SOL    HW215894   3.256   1.344   3.761  0.4314 -0.4116  0.0990
 1421SOL     OW15895   2.964   1.953   8.230 -0.2914 -0.5753  0.5957
 1421SOL    HW115896   2.919   2.014   8.172 -0.3068 -0.6606  0.5178
 1421SOL    HW215897   2.966   1.873   8.176  0.5348  0.1159 -0.3932
 1422SOL     OW15898   0.656   1.837  12.214 -0.7385  0.0376 -0.4477
 1422SOL    HW115899   0.722   1.771  12.238 -0.3942  0.1846 -0.9912
 1422SOL    HW215900   0.673   1.903  12.281 -1.2877  0.3971 -0.6691
 1423SOL     OW15901   1.323   2.888   8.721 -0.3162 -0.6969 -0.0011
 1423SOL    HW115902   1.396   2.911   8.778  0.9116 -0.7732 -1.5746
 1423SOL    HW215903   1.318   2.970   8.673 -1.0558 -0.4808  0.4468
 1424SOL     OW15904   1.812   0.695   7.757 -0.1147  0.3851 -0.2944
 1424SOL    HW115905   1.717   0.696   7.766 -0.1686  0.4088 -0.9261
 1424SOL    HW215906   1.816   0.726   7.848 -0.5291  0.5571 -0.3329
 1425SOL     OW15907   3.314   2.321   5.571 -0.7483  0.2882  0.6692
 1425SOL    HW115908   3.407   2.303   5.559 -1.1299 -0.8943 -0.5304
 1425SOL    HW215909   3.283   2.329   5.481  3.1111 -0.5609 -0.7431
 1426SOL     OW15910   3.360   4.567   4.447 -0.3977  0.2287 -1.1472
 1426SOL    HW115911   3.281   4.520   4.473 -0.6756  1.1873 -0.2836
 1426SOL    HW215912   3.372   4.624   4.522 -0.2337 -2.6366  0.9832
 1427SOL     OW15913   0.390   0.808  14.813  0.7150  0.0387 -0.5136
 1427SOL    HW115914   0.415   0.898  14.837 -0.5694  0.8162 -2.1134
 1427SOL    HW215915   0.465   0.779  14.763  1.5861 -0.5755  1.1385
 1428SOL     OW15916   2.713   2.823  16.559 -0.1359  0.1522  0.6275
 1428SOL    HW115917   2.701   2.900  16.613  1.9927  0.6226  0.3902
 1428SOL    HW215918   2.747   2.760  16.623  0.9138  0.3293  0.2337
 1429SOL     OW15919   3.825   0.674   6.039 -0.1632  0.2125 -0.9001
 1429SOL    HW115920   3.798   0.585   6.061 -0.4215  0.6595  0.6070
 1429SOL    HW215921   3.740   0.713   6.023  0.0023  0.9478  0.0354
 1430SOL     OW15922   0.453   4.500   6.237 -0.4714  0.2125 -0.4254
 1430SOL    HW115923   0.446   4.583   6.284  0.0561  0.9007 -1.5563
 1430SOL    HW215924   0.362   4.509   6.208 -0.9167  1.2648  1.2944
 1431SOL     OW15925   2.265   2.359   3.905 -0.6989  0.2886  0.1396
 1431SOL    HW115926   2.227   2.272   3.916 -0.8750  0.2892 -0.4685
 1431SOL    HW215927   2.357   2.344   3.929 -0.6707 -1.1309 -0.9048
 1432SOL     OW15928   1.173   3.332  16.864 -0.3234  0.2761  0.3680
 1432SOL    HW115929   1.245   3.374  16.912 -0.4516  0.4041  0.4494
 1432SOL    HW215930   1.116   3.303  16.935  0.3221  1.3489  1.3322
 1433SOL     OW15931   1.572   1.380   8.302 -0.3052 -0.5754 -0.8951
 1433SOL    HW115932   1.505   1.384   8.371 -0.0408 -1.6424 -0.5826
 1433SOL    HW215933   1.637   1.329   8.349 -0.3787  0.4791  0.3323
 1434SOL     OW15934   0.715   0.222   6.375  0.0570  0.5162  0.4003
 1434SOL    HW115935   0.624   0.248   6.362  0.3547  0.4487 -1.7966
 1434SOL    HW215936   0.761   0.302   6.401 -1.9673  2.2999 -1.4187
 1435SOL     OW15937   2.865   3.086   7.830 -0.0749 -0.2713 -0.1222
 1435SOL    HW115938   2.943   3.044   7.793  0.3444  2.0853 -1.9731
 1435SOL    HW215939   2.828   3.004   7.862 -0.8096 -0.7810 -2.2189
 1436SOL     OW15940   1.934   3.329  17.502 -0.7817 -0.0252  0.3407
 1436SOL    HW115941   1.911   3.420  17.485  3.8425  1.0873 -0.1295
 1436SOL    HW215942   1.930   3.302  17.410 -1.7596  2.0503 -0.2058
 1437SOL     OW15943   2.056   1.176   0.574  0.0233 -0.3098  0.4459
 1437SOL    HW115944   2.112   1.205   0.645 -1.5382  0.6115  1.3218
 1437SOL    HW215945   2.073   1.082   0.572 -0.0016 -0.3046 -0.2214
 1438SOL     OW15946   1.457   3.864  12.825  0.0132  0.4604  0.3108
 1438SOL    HW115947   1.442   3.782  12.872  0.9539 -1.5079 -2.8105
 1438SOL    HW215948   1.461   3.922  12.901  0.1702  1.0739 -0.1625
 1439SOL     OW15949   3.402   3.832   6.907 -0.2178 -0.0210  0.2570
 1439SOL    HW115950   3.488   3.841   6.948 -1.3399  1.5575  2.2623
 1439SOL    HW215951   3.348   3.836   6.986 -0.2387 -1.8516  0.3508
 1440SOL     OW15952   3.229   1.772   5.504  0.5229 -0.3745  0.4284
 1440SOL    HW115953   3.252   1.683   5.477  1.5997  0.3599 -1.0845
 1440SOL    HW215954   3.247   1.825   5.426 -0.5593 -0.1501  0.3273
 1441SOL     OW15955   4.471   1.057   5.108  0.5007 -0.0814 -0.3882
 1441SOL    HW115956   4.390   1.084   5.066  0.5614  2.1153  0.8733
 1441SOL    HW215957   4.507   1.023   5.026  0.2935 -1.4242  0.0738
 1442SOL     OW15958   2.434   1.083   2.817  0.3968 -0.3860  0.6342
 1442SOL    HW115959   2.375   1.021   2.859 -0.6449  2.0739  2.8368
 1442SOL    HW215960   2.433   1.047   2.729 -0.6554  2.2557 -0.4396
 1443SOL     OW15961   2.139   3.598   8.348 -0.3687 -0.1585  0.0443
 1443SOL    HW115962   2.118   3.540   8.275  0.2221  0.7337 -0.8529
 1443SOL    HW215963   2.063   3.595   8.406 -0.8728 -0.3980 -0.6333
 1444SOL     OW15964   3.775   4.504   8.163 -0.3428  0.1280  0.1619
 1444SOL    HW115965   3.847   4.529   8.106  0.8371  0.0669  1.6001
 1444SOL    HW215966   3.707   4.548   8.112 -1.6572  0.9129  2.5593
 1445SOL     OW15967   0.764   3.518  12.383  0.2125 -0.0184  0.3928
 1445SOL    HW115968   0.777   3.590  12.321 -1.4972 -1.4204 -1.6040
 1445SOL    HW215969   0.683   3.477  12.353 -0.0978  0.3375  0.7515
 1446SOL     OW15970   2.459   0.963  10.268 -0.1199  0.2346 -0.3064
 1446SOL    HW115971   2.552   0.939  10.270 -0.2422 -0.1669  0.5913
 1446SOL    HW215972   2.468   1.058  10.269 -0.0957  0.2348 -1.9586
 1447SOL     OW15973   1.320   1.818   4.064  0.1057 -0.1325 -0.0236
 1447SOL    HW115974   1.237   1.779   4.093 -0.3990  1.1355  0.2347
 1447SOL    HW215975   1.293   1.872   3.990 -0.4220  0.2443  0.4413
 1448SOL     OW15976   0.533   0.428   7.843  0.0155  0.4823  0.3300
 1448SOL    HW115977   0.582   0.362   7.794 -1.8638 -0.0579 -0.8285
 1448SOL    HW215978   0.551   0.497   7.778  2.4544 -1.5826 -1.2042
 1449SOL     OW15979   1.536   1.520  13.914  0.5698 -0.3782 -0.1887
 1449SOL    HW115980   1.523   1.445  13.971  0.3773  0.2208  0.5559
 1449SOL    HW215981   1.556   1.589  13.978  0.6995 -1.2386  0.6935
 1450SOL     OW15982   2.626   3.301   0.913 -0.6569 -0.1834 -0.3801
 1450SOL    HW115983   2.556   3.350   0.956  0.1038 -0.8350  1.5772
 1450SOL    HW215984   2.690   3.364   0.878 -2.0279  1.1590 -0.4904
 1451SOL     OW15985   1.476   0.837   8.490 -0.3066 -0.0981 -0.3438
 1451SOL    HW115986   1.446   0.891   8.563 -1.0106 -1.9047  0.7104
 1451SOL    HW215987   1.476   0.752   8.535 -2.2445  0.3283  0.4486
 1452SOL     OW15988   0.014   3.393   3.923  0.5136  0.6782  0.1934
 1452SOL    HW115989   0.050   3.315   3.964 -0.1844 -0.5474 -1.5130
 1452SOL    HW215990   0.026   3.364   3.832  0.1024 -0.6446  0.5662
 1453SOL     OW15991   0.680   3.148  11.014  0.2801 -0.1862 -0.1135
 1453SOL    HW115992   0.692   3.161  10.920  0.1721  2.1602  0.2154
 1453SOL    HW215993   0.761   3.190  11.043  1.1261 -1.7017 -0.2794
 1454SOL     OW15994   1.623   3.116   1.820 -0.3054  0.5347  0.0168
 1454SOL    HW115995   1.568   3.123   1.898  0.6530  1.6772  0.6046
 1454SOL    HW215996   1.648   3.025   1.837  2.9992  1.4697  0.2476
 1455SOL     OW15997   2.732   3.908   4.774  0.3106 -0.7414 -0.2564
 1455SOL    HW115998   2.637   3.896   4.787  0.3384  1.0188  1.6248
 1455SOL    HW215999   2.765   3.941   4.857  0.4858  1.3695 -1.1605
 1456SOL     OW16000   1.728   3.862  13.762 -0.5961 -0.1553  0.2841
 1456SOL    HW116001   1.677   3.908  13.695 -0.7890  0.1544  0.6454
 1456SOL    HW216002   1.671   3.873  13.838 -0.0621  2.5849  0.2884
 1457SOL     OW16003   2.141   1.420  16.228 -0.6016 -0.4296  0.3513
 1457SOL    HW116004   2.213   1.448  16.171 -0.5316 -2.0530 -0.3820
 1457SOL    HW216005   2.098   1.370  16.158 -0.2585 -0.0559 -0.1276
 1458SOL     OW16006   1.836   3.003  13.809 -0.5092  0.2229 -0.0013
 1458SOL    HW116007   1.807   2.940  13.743 -0.1734 -1.0934  1.1098
 1458SOL    HW216008   1.902   3.065  13.777 -3.8692  3.4503 -0.7136
 1459SOL     OW16009   0.419   2.525   7.953  0.1270  0.4129  0.1393
 1459SOL    HW116010   0.425   2.516   8.048  0.8680  2.5022  0.2901
 1459SOL    HW216011   0.324   2.527   7.941 -0.0342 -0.0105  1.3726
 1460SOL     OW16012   4.213   1.498  15.952  0.2253  0.4174  0.2961
 1460SOL    HW116013   4.155   1.567  15.921 -0.8903 -0.5553  0.1841
 1460SOL    HW216014   4.302   1.530  15.941  0.5063 -0.8635 -1.2847
 1461SOL     OW16015   2.639   0.015  13.137  0.7843 -0.2059  0.7315
 1461SOL    HW116016   2.626   0.107  13.114  0.9823 -0.9277 -2.2314
 1461SOL    HW216017   2.712   0.016  13.199  0.8711 -1.0851  0.6384
 1462SOL     OW16018   2.868   4.069   7.382 -0.1070 -0.0155  0.4581
 1462SOL    HW116019   2.913   3.989   7.354 -2.6962 -0.3984 -2.5832
 1462SOL    HW216020   2.895   4.129   7.312  0.1779  0.3273  0.8564
 1463SOL     OW16021   1.395   3.661   9.116  0.5376  0.0826 -0.3876
 1463SOL    HW116022   1.428   3.605   9.187 -1.8485  1.2734  1.6345
 1463SOL    HW216023   1.307   3.676   9.148  0.4856  2.0164 -1.4704
 1464SOL     OW16024   0.342   2.665   6.140 -0.2316 -0.8878  0.1838
 1464SOL    HW116025   0.430   2.632   6.160 -0.8133 -2.9010 -0.5096
 1464SOL    HW216026   0.352   2.746   6.090  1.6549 -1.0944  0.2045
 1465SOL     OW16027   3.109   2.465  12.338  0.0522 -0.2431 -0.1767
 1465SOL    HW116028   3.017   2.473  12.364  0.2605  0.2058  0.4300
 1465SOL    HW216029   3.155   2.529  12.393 -0.9704 -1.3077  1.9470
 1466SOL     OW16030   3.025   0.247   7.402  0.1463 -0.3275 -0.3014
 1466SOL    HW116031   3.077   0.327   7.412 -0.6090  0.0209  0.8089
 1466SOL    HW216032   3.095   0.185   7.422  0.5739  0.0548 -0.6086
 1467SOL     OW16033   3.566   2.991   2.283 -0.7295  0.1092  0.2564
 1467SOL    HW116034   3.552   3.022   2.372  0.5439  1.6367 -0.0788
 1467SOL    HW216035   3.616   3.068   2.258 -0.5557  0.7263  2.4842
 1468SOL     OW16036   3.575   1.526   6.027  0.3988 -0.4045 -0.0374
 1468SOL    HW116037   3.524   1.551   6.104  0.3870 -1.2356  0.2282
 1468SOL    HW216038   3.637   1.462   6.063 -0.8586 -2.5735 -1.7709
 1469SOL     OW16039   3.551   4.160   6.241  0.2864 -0.2973  0.7184
 1469SOL    HW116040   3.609   4.228   6.207  0.0813 -0.4596  0.0280
 1469SOL    HW216041   3.507   4.206   6.312  0.0864 -0.6031  0.7963
 1470SOL     OW16042   2.418   0.419   0.682 -0.5666  0.5568  0.6034
 1470SOL    HW116043   2.478   0.494   0.683  0.1788 -0.0111 -1.3672
 1470SOL    HW216044   2.411   0.415   0.587  0.3689 -0.9566  0.6001
 1471SOL     OW16045   3.585   2.368  11.792  0.0262  0.1672 -0.5476
 1471SOL    HW116046   3.619   2.359  11.703 -1.0020 -1.5529 -0.7721
 1471SOL    HW216047   3.576   2.463  11.801  0.3263  0.3993 -2.6110
 1472SOL     OW16048   1.349   0.420   1.913  0.3694 -0.0692 -0.1962
 1472SOL    HW116049   1.273   0.362   1.918  0.4261 -0.1972 -0.9589
 1472SOL    HW216050   1.402   0.379   1.846  0.8020  1.1964 -0.6323
 1473SOL     OW16051   2.157   1.010  11.290  0.3549 -0.0228  0.4821
 1473SOL    HW116052   2.120   1.009  11.378  0.6192  0.9561  0.6031
 1473SOL    HW216053   2.177   0.917  11.279 -1.8949 -0.1672 -2.5391
 1474SOL     OW16054   4.413   4.631   6.648  0.3360  0.1497 -0.3623
 1474SOL    HW116055   4.502   4.641   6.684  0.4551  0.4152 -0.7353
 1474SOL    HW216056   4.420   4.585   6.564 -0.1976  2.9012 -1.9069
 1475SOL     OW16057   0.128   0.450   7.201 -0.5520 -0.0546 -0.5519
 1475SOL    HW116058   0.186   0.425   7.272  1.8969 -1.3167 -2.9627
 1475SOL    HW216059   0.052   0.447   7.259 -1.5213  0.2644 -1.7882
 1476SOL     OW16060   0.909   0.961  11.771 -0.4653  0.7501 -0.0074
 1476SOL    HW116061   0.985   0.938  11.717  0.6021  1.9523  0.9686
 1476SOL    HW216062   0.900   1.056  11.760  0.6906  0.6959 -1.3466
 1477SOL     OW16063   3.341   4.630   3.421  0.2209  0.5702 -0.4231
 1477SOL    HW116064   3.288   4.660   3.348 -1.7081  0.8209  1.0842
 1477SOL    HW216065   3.375   4.545   3.394 -0.1153  0.2106  0.2924
 1478SOL     OW16066   3.192   3.583  11.785 -0.1506 -0.0782  0.0646
 1478SOL    HW116067   3.261   3.610  11.847 -0.9983  0.4996  0.7500
 1478SOL    HW216068   3.190   3.675  11.758 -0.7890 -0.5425 -1.4449
 1479SOL     OW16069   0.998   0.659   5.358 -0.2502 -0.0745  0.0981
 1479SOL    HW116070   0.966   0.577   5.321 -0.5708 -0.5838  1.4933
 1479SOL    HW216071   0.947   0.721   5.306 -0.3391  0.1971  0.5086
 1480SOL     OW16072   3.693   2.636   0.317  0.2742  0.0779  0.4167
 1480SOL    HW116073   3.747   2.600   0.247  2.4375  0.2823  1.9723
 1480SOL    HW216074   3.619   2.669   0.266  0.9800  0.6445 -0.2368
 1481SOL     OW16075   3.263   0.134   7.134  0.2087 -0.1440 -0.3662
 1481SOL    HW116076   3.195   0.171   7.078 -0.6775  0.8198  1.3314
 1481SOL    HW216077   3.339   0.192   7.127  0.1084  0.0360  0.0754
 1482SOL     OW16078   1.805   3.261   3.275  0.6637  0.8089 -0.0905
 1482SOL    HW116079   1.883   3.314   3.289  1.6490 -0.5492 -0.4656
 1482SOL    HW216080   1.842   3.175   3.255 -1.6211  0.3753 -2.4360
 1483SOL     OW16081   4.605   3.036   3.926  0.6177 -0.5554 -0.0610
 1483SOL    HW116082   4.699   3.053   3.917 -0.1111  3.3497 -0.0853
 1483SOL    HW216083   4.586   3.045   4.020  0.3687 -1.6476 -0.0101
 1484SOL     OW16084   1.627   0.435   2.534 -0.0914 -0.0644 -0.3563
 1484SOL    HW116085   1.709   0.467   2.497 -0.3726  1.3513  0.2602
 1484SOL    HW216086   1.568   0.476   2.470 -2.5991 -2.5101  0.3838
 1485SOL     OW16087   2.940   2.568   7.286 -0.4319 -0.0289  0.5331
 1485SOL    HW116088   2.901   2.561   7.199  1.7623 -3.3147 -0.1996
 1485SOL    HW216089   3.017   2.620   7.262 -1.2416  0.6484 -0.5850
 1486SOL     OW16090   1.894   4.645   7.555 -0.1239  0.4643 -0.8951
 1486SOL    HW116091   1.915   4.618   7.466 -0.2837  0.0894 -0.8184
 1486SOL    HW216092   1.844   4.565   7.572  4.3057 -2.1740 -0.2469
 1487SOL     OW16093   3.672   4.462   7.634 -0.2005 -0.2935  0.6029
 1487SOL    HW116094   3.700   4.410   7.710 -2.7234  0.6340  2.1649
 1487SOL    HW216095   3.644   4.539   7.683  0.7538  0.4610 -0.0595
 1488SOL     OW16096   3.013   4.446   7.478 -0.0372  0.1207 -0.7476
 1488SOL    HW116097   2.965   4.517   7.521 -1.1585 -1.9807  1.4905
 1488SOL    HW216098   3.087   4.431   7.537 -0.7835 -0.5075  0.0291
 1489SOL     OW16099   2.802   2.911   9.756 -0.2463  0.2934 -0.2815
 1489SOL    HW116100   2.868   2.980   9.745 -1.3889  1.5816  1.0714
 1489SOL    HW216101   2.763   2.937   9.839  0.4086  0.8509 -0.1415
 1490SOL     OW16102   4.521   3.608   0.555  0.1632 -0.1191  0.1704
 1490SOL    HW116103   4.604   3.591   0.512 -0.3633 -0.4848 -0.7045
 1490SOL    HW216104   4.476   3.526   0.534  0.1076  0.2420 -1.0997
 1491SOL     OW16105   3.148   0.026  12.241 -0.0100 -0.0056 -0.1667
 1491SOL    HW116106   3.118   0.003  12.329 -0.5212 -1.7626 -0.8016
 1491SOL    HW216107   3.116   4.690  12.195  0.9476 -0.6721  0.2782
 1492SOL     OW16108   1.456   1.404   5.635  0.0893  0.2959  0.3742
 1492SOL    HW116109   1.497   1.396   5.722 -0.2491  1.9705  0.6718
 1492SOL    HW216110   1.381   1.346   5.648 -0.6218  1.7470  2.7979
 1493SOL     OW16111   0.395   3.058  15.893  0.1104  0.6407  0.0609
 1493SOL    HW116112   0.411   3.048  15.800 -2.1158  2.6134 -0.5480
 1493SOL    HW216113   0.468   3.011  15.933  0.9261  2.4364  0.7021
 1494SOL     OW16114   1.229   1.969   5.979  0.1166 -0.0288  0.2710
 1494SOL    HW116115   1.255   1.919   6.056  0.7096 -0.5514 -0.2693
 1494SOL    HW216116   1.150   2.016   6.006  0.6403  1.9971 -1.6789
 1495SOL     OW16117   0.380   4.270  16.615  0.3253  0.4934 -0.3842
 1495SOL    HW116118   0.355   4.178  16.616 -1.1867  0.9162  1.8303
 1495SOL    HW216119   0.346   4.294  16.529  0.6133  0.9883 -0.3562
 1496SOL     OW16120   4.327   2.991   5.911  0.7602  0.3331  0.1624
 1496SOL    HW116121   4.279   2.995   5.993 -0.7592 -0.0518 -0.6976
 1496SOL    HW216122   4.258   2.975   5.847 -0.1056  2.6651  0.5220
 1497SOL     OW16123   2.748   3.707   8.755  0.4457  0.3047  0.1627
 1497SOL    HW116124   2.732   3.678   8.844  0.2124  0.7151  0.2543
 1497SOL    HW216125   2.838   3.739   8.762  0.3146  1.3916 -2.8651
 1498SOL     OW16126   3.182   3.136  15.308 -0.1215 -0.1196 -0.3944
 1498SOL    HW116127   3.121   3.076  15.351 -0.6670  1.6113  1.2444
 1498SOL    HW216128   3.235   3.076  15.255  0.2033 -0.2843  0.1129
 1499SOL     OW16129   0.329   0.869   3.634 -0.0486  0.5388  0.1140
 1499SOL    HW116130   0.258   0.851   3.573 -0.2820 -0.4788  0.6937
 1499SOL    HW216131   0.393   0.894   3.566  0.0560 -0.2743 -0.0834
 1500SOL     OW16132   2.646   1.578   5.204 -0.2188  0.4665 -0.4236
 1500SOL    HW116133   2.581   1.570   5.135 -0.2163 -0.9229 -0.2698
 1500SOL    HW216134   2.658   1.672   5.200 -1.3087  0.5915 -0.5733
 1501SOL     OW16135   2.611   2.243   6.345  0.7061  0.1262  0.4237
 1501SOL    HW116136   2.654   2.328   6.349  3.2513 -1.0995 -0.8997
 1501SOL    HW216137   2.635   2.204   6.429  3.3308 -0.9066 -0.8088
 1502SOL     OW16138   4.073   1.786   6.162 -0.4769  0.3902  0.5711
 1502SOL    HW116139   4.058   1.708   6.108  0.0789  0.8042 -0.1958
 1502SOL    HW216140   4.060   1.751   6.250 -1.2810  3.2224  1.5548
 1503SOL     OW16141   0.313   0.152   9.419  0.1005  0.1138 -0.5493
 1503SOL    HW116142   0.261   0.072   9.421  0.0338  0.1637 -0.2834
 1503SOL    HW216143   0.254   0.224   9.439  0.3468  0.4432 -0.9826
 1504SOL     OW16144   2.301   0.365   3.839 -0.5119  0.4164 -0.1452
 1504SOL    HW116145   2.379   0.336   3.793  0.1633  1.0078  0.6334
 1504SOL    HW216146   2.308   0.461   3.833  1.6090  0.2426 -0.2893
 1505SOL     OW16147   0.299   3.996  16.602  0.4997  0.6109 -0.0700
 1505SOL    HW116148   0.368   3.954  16.550 -0.8014 -3.8999  1.8759
 1505SOL    HW216149   0.226   3.937  16.581 -1.0867  1.2618  3.6339
 1506SOL     OW16150   3.708   1.030  17.439 -0.0600  0.0833  0.4004
 1506SOL    HW116151   3.698   0.955  17.382 -2.0718  2.7679 -2.7708
 1506SOL    HW216152   3.689   1.102  17.379 -0.8910  1.0307  1.7948
 1507SOL     OW16153   1.394   2.412   4.545  0.3439 -0.2195  0.1181
 1507SOL    HW116154   1.456   2.375   4.482 -1.3602 -2.1912 -0.4084
 1507SOL    HW216155   1.367   2.493   4.501  0.7801  1.1358  2.3505
 1508SOL     OW16156   0.935   4.223   4.415 -0.6827  0.2915 -0.1155
 1508SOL    HW116157   0.965   4.314   4.414 -1.1707  0.4235 -1.8350
 1508SOL    HW216158   0.909   4.217   4.324  1.7851  0.3184 -0.8240
 1509SOL     OW16159   2.115   3.865   5.655  0.1755 -0.1504 -0.3292
 1509SOL    HW116160   2.113   3.828   5.567  0.8143 -0.2640 -0.2939
 1509SOL    HW216161   2.023   3.860   5.682  0.3574  0.6918  0.4836
 1510SOL     OW16162   0.170   1.503   3.081  0.6784  0.3316  0.0331
 1510SOL    HW116163   0.131   1.585   3.111 -0.1197 -0.6525  1.6898
 1510SOL    HW216164   0.262   1.518   3.103  0.4855  1.1047  0.3202
 1511SOL     OW16165   0.846   1.874   2.237  0.4327 -0.1270 -0.1848
 1511SOL    HW116166   0.800   1.945   2.283 -1.0699 -0.6235 -0.9037
 1511SOL    HW216167   0.770   1.825   2.205  2.1016 -2.1078 -1.0602
 1512SOL     OW16168   1.815   4.355   8.816 -0.6529 -0.1790 -0.3598
 1512SOL    HW116169   1.804   4.367   8.910  3.7112  0.2445  0.0920
 1512SOL    HW216170   1.861   4.271   8.814  0.5378  0.4759  0.0178
 1513SOL     OW16171   0.141   2.159   4.719  0.0626 -0.0862  0.0242
 1513SOL    HW116172   0.158   2.152   4.813 -1.0684  2.8327  0.4497
 1513SOL    HW216173   0.225   2.184   4.679 -0.1670  1.1638  0.3433
 1514SOL     OW16174   1.128   2.743   8.607 -0.4126  0.4440  0.2050
 1514SOL    HW116175   1.214   2.776   8.633 -0.5122  1.3810 -0.6556
 1514SOL    HW216176   1.125   2.648   8.620  1.9169  0.4213  0.5696
 1515SOL     OW16177   2.999   0.875   2.645 -0.4243  0.4521 -0.5194
 1515SOL    HW116178   2.967   0.787   2.626 -1.2952  0.4267  1.0967
 1515SOL    HW216179   3.095   0.867   2.641 -0.5090 -0.8202  0.0316
 1516SOL     OW16180   0.806   1.676   1.590 -0.5409  0.2074  0.5681
 1516SOL    HW116181   0.754   1.605   1.552 -0.5282  0.5318 -0.0524
 1516SOL    HW216182   0.887   1.674   1.538 -0.3297 -1.2988  0.9737
 1517SOL     OW16183   4.481   0.795   6.722 -0.1014  0.3929 -0.5943
 1517SOL    HW116184   4.492   0.701   6.711 -3.2190  0.0608 -0.9036
 1517SOL    HW216185   4.449   0.789   6.812 -0.1011  0.0494 -0.6184
 1518SOL     OW16186   1.676   4.185   6.718 -0.2106  0.0638  0.1995
 1518SOL    HW116187   1.644   4.266   6.758  0.8906 -1.1465  3.4838
 1518SOL    HW216188   1.605   4.143   6.671 -0.4914 -0.2435  0.9035
 1519SOL     OW16189   3.193   0.597  16.018  0.0554 -0.3739 -0.0953
 1519SOL    HW116190   3.135   0.607  15.942 -1.2264  1.0829  1.0679
 1519SOL    HW216191   3.130   0.592  16.090 -0.6893  3.1195 -0.5029
 1520SOL     OW16192   2.938   3.320  11.741 -0.2887 -0.0879  0.2142
 1520SOL    HW116193   2.871   3.276  11.689 -1.7533  0.0537  1.9901
 1520SOL    HW216194   2.957   3.247  11.800 -2.7366  0.7198  1.9750
 1521SOL     OW16195   3.172   0.313   4.146 -0.0768 -0.3766 -0.0068
 1521SOL    HW116196   3.198   0.235   4.097  0.7306 -0.2447  0.2008
 1521SOL    HW216197   3.256   0.346   4.181  0.0608 -0.9947  0.2402
 1522SOL     OW16198   3.957   2.591  16.381 -0.2672  0.0112  0.3324
 1522SOL    HW116199   3.916   2.580  16.466  0.0599 -0.3045  0.4537
 1522SOL    HW216200   3.948   2.510  16.330  0.0499 -0.4637  1.0314
 1523SOL     OW16201   2.708   4.673  15.425 -0.0881 -0.2438  0.4028
 1523SOL    HW116202   2.736   0.006  15.372  2.5098  0.9870  3.5002
 1523SOL    HW216203   2.618   4.654  15.398 -1.0240  3.3789  0.9662
 1524SOL     OW16204   0.393   2.259   6.933  0.4659 -0.8070 -0.0387
 1524SOL    HW116205   0.457   2.243   6.863  0.0452 -0.5322 -0.4898
 1524SOL    HW216206   0.431   2.335   6.977 -2.5357  0.2337  0.7283
 1525SOL     OW16207   1.103   1.519   8.772  0.1929  0.4126 -0.4616
 1525SOL    HW116208   1.054   1.523   8.690  1.3041  0.7474 -1.1104
 1525SOL    HW216209   1.039   1.559   8.831 -1.8901 -1.2229 -1.6215
 1526SOL     OW16210   1.510   0.800   1.491  0.3383  0.3917 -0.4051
 1526SOL    HW116211   1.415   0.807   1.496  0.1767 -2.8886  0.9843
 1526SOL    HW216212   1.547   0.864   1.552 -0.6269  0.1702  0.4054
 1527SOL     OW16213   3.673   2.802   2.483  0.3973 -0.7408 -0.2264
 1527SOL    HW116214   3.717   2.822   2.400 -0.0133  0.0923 -0.2404
 1527SOL    HW216215   3.660   2.888   2.524  0.4014 -1.0068  0.3374
 1528SOL     OW16216   2.802   0.797   4.431  0.1073  0.4246  0.1659
 1528SOL    HW116217   2.828   0.875   4.382 -0.6520  0.1950 -0.6132
 1528SOL    HW216218   2.884   0.748   4.436 -1.0795 -1.3659  1.8672
 1529SOL     OW16219   0.862   1.503  10.000 -0.3825  0.3943  0.2119
 1529SOL    HW116220   0.944   1.506  10.050 -1.4825  1.1977  1.9716
 1529SOL    HW216221   0.862   1.415   9.962 -0.4525  0.6169 -0.3029
 1530SOL     OW16222   1.563   3.315   4.652  0.8240  0.1817 -0.3797
 1530SOL    HW116223   1.588   3.264   4.729 -1.1237 -1.5204 -0.8970
 1530SOL    HW216224   1.487   3.265   4.624  1.1445 -0.1951 -0.5621
 1531SOL     OW16225   2.369   3.360   2.954  0.1836 -0.3490  0.0269
 1531SOL    HW116226   2.322   3.441   2.935 -0.4969 -0.2074  2.3844
 1531SOL    HW216227   2.347   3.307   2.877 -0.8272  2.1247 -1.4016
 1532SOL     OW16228   2.782   0.978   5.475 -0.4222  0.5364 -0.6169
 1532SOL    HW116229   2.724   1.022   5.537 -1.0497 -0.5069 -0.4651
 1532SOL    HW216230   2.823   1.057   5.439  2.1776 -0.0413  1.0225
 1533SOL     OW16231   3.557   4.172   1.456 -0.2917  0.2933 -0.0003
 1533SOL    HW116232   3.640   4.158   1.501 -0.6982 -1.8638  0.1021
 1533SOL    HW216233   3.548   4.078   1.441  0.9642  0.1577  0.0911
 1534SOL     OW16234   2.446   0.510  13.227  0.2862 -0.6886 -0.1929
 1534SOL    HW116235   2.381   0.569  13.265  0.6797 -1.1736  1.2324
 1534SOL    HW216236   2.516   0.573  13.209 -1.7785  1.8124  0.5040
 1535SOL     OW16237   4.739   0.335  12.832  0.0128 -0.1454 -0.6805
 1535SOL    HW116238   4.717   0.252  12.875 -1.8175  0.6093 -0.1389
 1535SOL    HW216239   4.656   0.367  12.797 -0.2578  0.3074  0.3559
 1536SOL     OW16240   1.445   1.027   2.344 -0.3706 -0.4092  0.3764
 1536SOL    HW116241   1.408   1.112   2.364 -1.4094 -0.6912 -0.3169
 1536SOL    HW216242   1.463   0.981   2.426 -1.3215  0.5381  1.1074
 1537SOL     OW16243   4.360   4.288  12.432 -0.1866 -0.0113 -0.2672
 1537SOL    HW116244   4.346   4.309  12.340  1.6819 -1.8845 -0.9760
 1537SOL    HW216245   4.315   4.364  12.469 -1.5619 -0.9084 -0.0664
 1538SOL     OW16246   1.492   2.089   5.030  0.0203 -0.7306  0.4992
 1538SOL    HW116247   1.484   2.083   4.935  0.9420  0.3953  0.3607
 1538SOL    HW216248   1.582   2.121   5.025  0.0646 -0.8975  0.1808
 1539SOL     OW16249   4.201   3.884   1.794  0.2765 -0.3367  0.2587
 1539SOL    HW116250   4.172   3.827   1.723  2.0828  1.9454 -2.3049
 1539SOL    HW216251   4.271   3.830   1.832  1.3678  0.3060 -0.8712
 1540SOL     OW16252   1.732   0.765   2.377 -0.5359  0.3995  0.0560
 1540SOL    HW116253   1.758   0.855   2.396  0.4262 -0.1133  1.1818
 1540SOL    HW216254   1.794   0.711   2.427 -0.9668 -2.5579 -2.5990
 1541SOL     OW16255   2.099   1.163  12.326 -0.5117  0.0732 -0.0387
 1541SOL    HW116256   2.056   1.092  12.374 -1.4732 -0.3390 -1.5000
 1541SOL    HW216257   2.169   1.115  12.282  0.2208  0.1941  0.9860
 1542SOL     OW16258   2.526   3.451  17.126 -0.1704  0.0197 -0.2145
 1542SOL    HW116259   2.435   3.427  17.141  0.0034 -0.9046 -0.6833
 1542SOL    HW216260   2.564   3.394  17.193  1.2004 -1.5596 -2.3446
 1543SOL     OW16261   3.862   0.540   7.141 -0.2914 -0.4148  0.2083
 1543SOL    HW116262   3.888   0.482   7.213  1.5878  0.2219  0.0522
 1543SOL    HW216263   3.804   0.490   7.083 -2.3795 -1.2972  3.0713
 1544SOL     OW16264   4.570   1.977   3.513  0.2304 -0.1465 -0.5250
 1544SOL    HW116265   4.494   2.031   3.535  0.1376 -0.2407 -0.6187
 1544SOL    HW216266   4.629   2.019   3.576 -1.3036 -2.2922  2.3684
 1545SOL     OW16267   0.980   1.044   8.492  0.1998  0.1220  0.0430
 1545SOL    HW116268   1.071   1.062   8.514  0.5854 -0.2967 -1.2163
 1545SOL    HW216269   0.936   1.028   8.575 -1.1055  0.9550 -0.4726
 1546SOL     OW16270   4.127   3.883  12.417  0.4847 -0.1003 -0.1466
 1546SOL    HW116271   4.096   3.856  12.331  3.0654 -0.2553 -1.0354
 1546SOL    HW216272   4.076   3.823  12.471 -1.4545  1.0874 -0.6753
 1547SOL     OW16273   2.666   0.244   1.196 -0.1229 -0.0923  0.0100
 1547SOL    HW116274   2.572   0.228   1.191  0.0608 -0.6133 -1.6278
 1547SOL    HW216275   2.688   0.306   1.266 -2.2209 -0.5876  1.1222
 1548SOL     OW16276   1.970   4.671   7.858  0.1451  0.8097  0.3383
 1548SOL    HW116277   1.894   4.612   7.859  0.0723  0.8984 -0.7149
 1548SOL    HW216278   1.929   0.016   7.850 -1.5752 -0.0065  0.2862
 1549SOL     OW16279   2.911   4.706  16.304  0.0035  0.2423  0.3007
 1549SOL    HW116280   2.885   0.006  16.221 -0.5698  0.3323  0.5233
 1549SOL    HW216281   2.984   0.019  16.335  1.2143 -0.9012 -0.5613
 1550SOL     OW16282   4.477   0.417   9.771 -0.2269 -0.1610 -0.2799
 1550SOL    HW116283   4.561   0.373   9.759  0.7441  2.0322 -1.5272
 1550SOL    HW216284   4.484   0.486   9.705  0.1631 -0.0078 -0.0808
 1551SOL     OW16285   3.046   0.517  14.292 -0.6391 -0.3478 -0.5856
 1551SOL    HW116286   2.961   0.488  14.260 -1.2672 -0.9159  1.5675
 1551SOL    HW216287   3.095   0.462  14.231  3.0466 -1.8600  3.7338
 1552SOL     OW16288   0.109   2.816   5.047 -0.5161 -0.2484 -0.1423
 1552SOL    HW116289   0.037   2.794   5.106  0.5406  1.7268  1.8696
 1552SOL    HW216290   0.072   2.806   4.959 -0.4758 -0.0700 -0.1792
 1553SOL     OW16291   4.223   1.515   6.368  0.2910 -0.1499  0.0678
 1553SOL    HW116292   4.176   1.578   6.422  1.6643 -0.4079  1.5734
 1553SOL    HW216293   4.180   1.431   6.385  0.7219 -0.7809 -1.9619
 1554SOL     OW16294   0.139   1.977   2.321 -0.1835  0.4117  0.3228
 1554SOL    HW116295   0.105   1.900   2.276 -0.6322  0.1948  1.0238
 1554SOL    HW216296   0.127   2.048   2.258  1.4819 -0.1974 -0.6551
 1555SOL     OW16297   1.861   3.894   2.042  0.0259  0.2412 -0.4867
 1555SOL    HW116298   1.769   3.882   2.063  0.6597 -2.0371  1.0235
 1555SOL    HW216299   1.854   3.951   1.966 -1.9883  0.3886 -0.1932
 1556SOL     OW16300   0.319   4.289   9.021 -0.5989  0.4224  0.5479
 1556SOL    HW116301   0.304   4.264   8.930 -0.2189 -1.4954  1.0094
 1556SOL    HW216302   0.410   4.316   9.023 -0.6591  0.6760 -0.1239
 1557SOL     OW16303   1.013   0.536   8.240  0.3159 -0.1832  0.0872
 1557SOL    HW116304   0.918   0.538   8.225  0.1595 -0.9140  1.0360
 1557SOL    HW216305   1.034   0.630   8.243 -2.3795  0.3415  2.3240
 1558SOL     OW16306   2.805   1.167   1.835 -0.3045 -0.5193  0.3941
 1558SOL    HW116307   2.800   1.257   1.803  1.8118 -0.7782 -0.6623
 1558SOL    HW216308   2.743   1.158   1.907 -1.1683  1.9958 -0.0617
 1559SOL     OW16309   0.904   1.969   4.456  0.0821  0.0846  0.2161
 1559SOL    HW116310   0.985   1.988   4.408  0.6288 -0.7932  0.7967
 1559SOL    HW216311   0.945   1.935   4.535  0.6290  0.3761  0.0549
 1560SOL     OW16312   1.486   1.875   8.334  0.0012  0.7192 -0.1174
 1560SOL    HW116313   1.553   1.813   8.362 -2.0613 -2.0998 -1.3678
 1560SOL    HW216314   1.540   1.916   8.265  0.2056 -1.3584 -1.1928
 1561SOL     OW16315   0.064   3.560   0.741  0.5294  0.5174  0.6570
 1561SOL    HW116316   0.051   3.559   0.646  0.6008 -2.8812  0.6856
 1561SOL    HW216317   4.720   3.535   0.776 -0.4349 -1.5323 -3.1371
 1562SOL     OW16318   1.417   2.466  15.797  0.2843  0.0500  0.3037
 1562SOL    HW116319   1.347   2.532  15.798  0.5952  0.3814  0.3807
 1562SOL    HW216320   1.379   2.408  15.863  1.8970 -0.6465  0.6170
 1563SOL     OW16321   2.991   0.621  11.738 -0.0406  0.0494 -0.1342
 1563SOL    HW116322   3.006   0.603  11.831  0.4866  0.4848 -0.1338
 1563SOL    HW216323   2.986   0.530  11.710  1.5842 -0.1864  0.3787
 1564SOL     OW16324   1.175   4.471   3.762  0.2476  0.1763  0.1173
 1564SOL    HW116325   1.111   4.443   3.697  0.1647 -0.6108  0.5405
 1564SOL    HW216326   1.235   4.397   3.772  1.8137  1.5174  0.7586
 1565SOL     OW16327   3.392   3.444   7.461  0.0473 -0.3729  0.4913
 1565SOL    HW116328   3.467   3.404   7.416 -2.2536 -2.4027 -1.5318
 1565SOL    HW216329   3.318   3.392   7.430 -0.0457 -0.4284  0.8048
 1566SOL     OW16330   3.758   2.385   6.079  0.2375 -0.0349  0.4146
 1566SOL    HW116331   3.685   2.327   6.059  1.5813 -1.2035 -1.1006
 1566SOL    HW216332   3.816   2.368   6.004 -1.1177  0.2541 -0.7005
 1567SOL     OW16333   4.582   3.912  12.913  0.2173  0.5025  0.7051
 1567SOL    HW116334   4.495   3.892  12.879  0.1730  0.8447  0.6232
 1567SOL    HW216335   4.635   3.911  12.833  0.1001 -1.9136  0.6455
 1568SOL     OW16336   3.295   0.663   6.567  0.1315  0.4730  0.1232
 1568SOL    HW116337   3.271   0.598   6.634  0.4894 -1.8897 -2.0535
 1568SOL    HW216338   3.216   0.666   6.513 -0.6631 -1.0220  1.1780
 1569SOL     OW16339   1.447   4.297   7.648 -0.5094 -0.4947  0.0588
 1569SOL    HW116340   1.430   4.230   7.714 -1.4904  1.9230  2.2485
 1569SOL    HW216341   1.479   4.243   7.576 -2.0233 -0.2419 -0.7919
 1570SOL     OW16342   0.950   2.994   7.024  0.0784  0.0454 -0.6779
 1570SOL    HW116343   0.919   3.082   7.000  0.6782  0.9215  1.7670
 1570SOL    HW216344   1.000   2.973   6.946  0.2864 -0.8611 -0.2955
 1571SOL     OW16345   4.584   0.816  13.221  0.5111  0.5777  0.0776
 1571SOL    HW116346   4.583   0.807  13.317  0.7392  1.6014  0.1705
 1571SOL    HW216347   4.528   0.893  13.213  0.1378  0.1136 -1.7518
 1572SOL     OW16348   0.519   0.039   9.689 -0.4398 -0.3126 -0.4029
 1572SOL    HW116349   0.545   0.090   9.612  0.9233 -1.2813 -0.5827
 1572SOL    HW216350   0.464   4.708   9.659  1.1763 -1.6183 -0.1769
 1573SOL     OW16351   0.014   2.735   8.859  0.4295  0.7616 -0.0649
 1573SOL    HW116352   0.104   2.747   8.886  0.7169 -1.5571  0.0133
 1573SOL    HW216353   0.003   2.747   8.764  2.8344  3.5187  0.0361
 1574SOL     OW16354   1.062   3.421   6.730 -0.1503 -0.1680 -0.4922
 1574SOL    HW116355   1.073   3.511   6.759 -0.7210 -0.0057 -0.7834
 1574SOL    HW216356   1.013   3.448   6.653 -1.4628  0.7488  0.6544
 1575SOL     OW16357   4.593   0.743   6.219 -0.1812 -0.0544  0.5336
 1575SOL    HW116358   4.598   0.653   6.185  2.2012  0.0568  0.6269
 1575SOL    HW216359   4.643   0.729   6.299  0.2257 -2.5549 -0.1349
 1576SOL     OW16360   1.653   4.361  16.647 -0.4801 -0.1972 -0.2286
 1576SOL    HW116361   1.634   4.273  16.613  1.8630 -0.8595  0.1750
 1576SOL    HW216362   1.682   4.407  16.569 -1.4518  1.9243  0.6778
 1577SOL     OW16363   3.696   0.062   7.030 -0.0543 -0.1857 -0.6498
 1577SOL    HW116364   3.711   4.738   7.099 -0.4041  3.0181  2.3843
 1577SOL    HW216365   3.771   0.121   7.022 -0.0037 -0.1641 -0.0282
 1578SOL     OW16366   0.437   4.717   6.585 -0.5950 -0.6786  0.4111
 1578SOL    HW116367   0.460   4.624   6.593 -0.6871 -0.6325  1.2520
 1578SOL    HW216368   0.434   4.729   6.490 -1.0180 -0.5931  0.4344
 1579SOL     OW16369   0.526   4.082   8.014  0.0950 -0.2361 -0.2756
 1579SOL    HW116370   0.443   4.038   8.034 -0.9222  1.5744 -0.4577
 1579SOL    HW216371   0.561   4.103   8.101  0.0130  0.3824 -0.3912
 1580SOL     OW16372   0.583   1.127   9.155 -0.3791 -0.2970 -0.0713
 1580SOL    HW116373   0.677   1.108   9.163 -0.3036  0.6821  1.2949
 1580SOL    HW216374   0.548   1.054   9.103  0.9719 -1.2615  0.3671
 1581SOL     OW16375   4.486   1.248   5.891 -0.2143  0.1840 -0.1094
 1581SOL    HW116376   4.519   1.170   5.846  1.5172  0.2924  0.9813
 1581SOL    HW216377   4.477   1.225   5.983  6.2954 -2.6572 -0.2064
 1582SOL     OW16378   3.443   3.423   4.197 -0.2872  0.3754  0.4595
 1582SOL    HW116379   3.451   3.329   4.185 -1.2250  0.3078  0.3241
 1582SOL    HW216380   3.356   3.426   4.238 -0.3070  1.5105  0.3575
 1583SOL     OW16381   1.893   1.480   7.518  0.0986 -0.5098  0.6127
 1583SOL    HW116382   1.925   1.395   7.487  0.4415 -0.8129  1.8310
 1583SOL    HW216383   1.798   1.464   7.517 -0.0700  0.4882  0.7216
 1584SOL     OW16384   1.894   4.368   1.483 -0.1420 -0.8089  0.3663
 1584SOL    HW116385   1.804   4.399   1.476  0.2190 -0.4771 -2.9650
 1584SOL    HW216386   1.931   4.389   1.397  0.7404 -2.9188  0.2314
 1585SOL     OW16387   4.319   0.803   8.191 -0.0889  0.0190 -0.1822
 1585SOL    HW116388   4.407   0.788   8.228  0.1559  1.3541 -0.2465
 1585SOL    HW216389   4.318   0.898   8.184 -1.6022 -0.2137 -2.9115
 1586SOL     OW16390   3.633   4.367  17.041  0.2492 -0.2914  0.0752
 1586SOL    HW116391   3.669   4.378  16.953 -1.9900 -0.4189 -0.8606
 1586SOL    HW216392   3.554   4.421  17.035  0.9258  0.7002  0.1233
 1587SOL     OW16393   3.190   4.723   5.047  0.4313  0.1429 -0.4914
 1587SOL    HW116394   3.238   4.671   4.983  1.7689  1.0826 -0.2638
 1587SOL    HW216395   3.100   4.712   5.019  0.3295 -1.2383  0.3690
 1588SOL     OW16396   1.988   2.264   3.009  0.4332 -0.4081 -0.1744
 1588SOL    HW116397   1.893   2.272   2.994  0.6201  2.2347  0.0527
 1588SOL    HW216398   2.012   2.180   2.968  2.2210 -0.0949  0.2762
 1589SOL     OW16399   2.703   1.314   6.688 -0.1084 -0.1134 -0.3433
 1589SOL    HW116400   2.693   1.362   6.770 -0.9466 -0.8251 -0.0298
 1589SOL    HW216401   2.611   1.289   6.675 -0.4110  1.4304 -1.1541
 1590SOL     OW16402   3.811   2.821   2.237 -0.6733 -0.1240  0.8841
 1590SOL    HW116403   3.767   2.857   2.160  1.2829  0.1519 -0.0876
 1590SOL    HW216404   3.890   2.874   2.240 -1.2925  0.7850  1.1586
 1591SOL     OW16405   1.759   4.541  10.183 -0.3859 -0.2869  0.3557
 1591SOL    HW116406   1.853   4.558  10.183 -0.0308 -2.1357  1.7576
 1591SOL    HW216407   1.724   4.622  10.219  2.2209  0.1488  1.8589
 1592SOL     OW16408   2.262   1.588   3.603 -1.0457  1.0417 -0.1683
 1592SOL    HW116409   2.214   1.651   3.550 -1.1554 -0.1386 -1.5059
 1592SOL    HW216410   2.204   1.512   3.595  0.7046 -0.5937  2.4862
 1593SOL     OW16411   1.240   1.221  10.012 -0.4535 -0.3412  0.4837
 1593SOL    HW116412   1.284   1.247  10.092 -0.3807 -0.6354  0.5378
 1593SOL    HW216413   1.234   1.126  10.025 -0.2317 -0.4764 -0.3691
 1594SOL     OW16414   3.341   3.302  12.056  0.5239 -0.4997  0.7629
 1594SOL    HW116415   3.315   3.242  11.986  0.1213 -0.1977  0.6535
 1594SOL    HW216416   3.414   3.352  12.018  0.3198 -2.0199 -1.5712
 1595SOL     OW16417   2.898   1.451   2.866  0.3343  0.0744  0.2836
 1595SOL    HW116418   2.820   1.395   2.856 -0.6386  1.2935  1.0873
 1595SOL    HW216419   2.876   1.523   2.806  0.6158  0.1180  0.2328
 1596SOL     OW16420   1.851   2.998   7.039 -0.0250 -0.3359 -0.3001
 1596SOL    HW116421   1.795   2.921   7.029  1.0276 -0.7136 -3.1885
 1596SOL    HW216422   1.822   3.030   7.125  0.5923  0.5676 -0.4310
 1597SOL     OW16423   4.314   3.834  16.311  0.0978  0.1830  0.8234
 1597SOL    HW116424   4.261   3.906  16.345 -1.3310 -0.4803 -0.0248
 1597SOL    HW216425   4.388   3.846  16.371  0.9765  1.1749 -0.4675
 1598SOL     OW16426   1.941   0.834   6.372 -0.6247  0.5142 -1.0174
 1598SOL    HW116427   1.979   0.779   6.303  0.7275 -1.8502  1.6166
 1598SOL    HW216428   1.854   0.796   6.384  1.3669 -3.7091 -0.1011
 1599SOL     OW16429   1.629   0.066   2.360 -0.1395 -0.8557 -0.5751
 1599SOL    HW116430   1.604   0.118   2.436  2.1017  0.2397 -0.5798
 1599SOL    HW216431   1.613   4.722   2.401  2.8973 -1.4089 -0.5186
 1600SOL     OW16432   4.366   3.312   3.568  0.3662  0.0547 -0.4746
 1600SOL    HW116433   4.365   3.224   3.605  0.3651  0.0392 -0.5125
 1600SOL    HW216434   4.318   3.301   3.487  1.6433 -0.4737 -1.1578
 1601SOL     OW16435   4.236   1.241  10.942 -0.0834  0.3992 -0.2777
 1601SOL    HW116436   4.161   1.300  10.937  0.8445  1.5056 -1.2965
 1601SOL    HW216437   4.225   1.188  10.863 -0.8710  0.2892 -0.0860
 1602SOL     OW16438   2.547   3.383  13.511  0.4427 -0.1834  0.0755
 1602SOL    HW116439   2.546   3.399  13.416  1.3348 -0.9063 -0.0531
 1602SOL    HW216440   2.614   3.447  13.535  0.2009 -0.3475  1.1820
 1603SOL     OW16441   3.156   0.914   4.821  0.0953 -0.3999  0.7097
 1603SOL    HW116442   3.178   0.895   4.912 -0.6961  2.0294  1.4181
 1603SOL    HW216443   3.072   0.868   4.825 -0.4410  0.5754  0.8290
 1604SOL     OW16444   1.660   3.029   7.872 -0.7603  0.1600  0.3358
 1604SOL    HW116445   1.704   2.961   7.821  0.8177  0.7462  0.9344
 1604SOL    HW216446   1.582   3.036   7.817 -1.0366 -0.9844  0.5774
 1605SOL     OW16447   0.083   0.836   2.866 -0.3871  0.1403  0.2377
 1605SOL    HW116448   0.104   0.779   2.792 -1.6471  4.1997 -3.1910
 1605SOL    HW216449   0.115   0.920   2.833  0.8021  0.3220  1.8594
 1606SOL     OW16450   0.350   0.167   5.212 -0.4351 -0.1707  0.1414
 1606SOL    HW116451   0.329   0.246   5.262  0.6774 -0.5870  1.2669
 1606SOL    HW216452   0.266   0.140   5.175 -1.0864  1.1906  0.6504
 1607SOL     OW16453   0.814   1.378   3.213  0.2800 -0.4381 -0.2441
 1607SOL    HW116454   0.851   1.350   3.296  0.2518  1.8545  0.5543
 1607SOL    HW216455   0.765   1.459   3.228 -1.4463 -1.4926 -0.1299
 1608SOL     OW16456   3.716   4.560   7.198  0.4344  0.3163  0.5696
 1608SOL    HW116457   3.669   4.477   7.190 -1.5414  1.5310 -0.6381
 1608SOL    HW216458   3.792   4.537   7.250 -1.2806 -1.1075  2.4605
 1609SOL     OW16459   0.867   0.041   2.632 -0.2235 -0.1749 -0.5458
 1609SOL    HW116460   0.815   0.016   2.556 -2.0691  2.1196 -0.0266
 1609SOL    HW216461   0.939   4.720   2.624  1.7127  2.2854 -2.2657
 1610SOL     OW16462   4.267   3.281   5.355 -0.6666  0.1208 -0.6738
 1610SOL    HW116463   4.345   3.301   5.304 -0.5631  0.5362 -0.3561
 1610SOL    HW216464   4.309   3.283   5.441  0.3641 -0.0990 -1.1751
 1611SOL     OW16465   4.352   2.440   4.260 -0.1813 -0.2031 -0.2015
 1611SOL    HW116466   4.336   2.532   4.236  0.8456 -0.1144 -0.5572
 1611SOL    HW216467   4.279   2.437   4.322 -0.0957  1.6187  0.0133
 1612SOL     OW16468   0.546   2.863  14.403 -0.5872 -0.3762 -0.0195
 1612SOL    HW116469   0.519   2.938  14.350  0.1876 -0.9879 -1.2811
 1612SOL    HW216470   0.458   2.830  14.421 -0.8652 -0.3282 -1.2908
 1613SOL     OW16471   4.513   4.542   9.854 -0.5164  0.6188  0.1979
 1613SOL    HW116472   4.579   4.473   9.858  0.1839  1.2553 -0.4762
 1613SOL    HW216473   4.460   4.521   9.777 -2.5822  3.6695  0.7834
 1614SOL     OW16474   3.450   0.073  14.409  0.1742 -0.4891 -0.7929
 1614SOL    HW116475   3.498   0.020  14.473 -0.8104  1.5136  1.5994
 1614SOL    HW216476   3.377   0.104  14.462 -1.8654 -1.3095 -3.0787
 1615SOL     OW16477   3.630   4.296   8.896 -0.3388  0.3573  0.3552
 1615SOL    HW116478   3.608   4.214   8.942 -0.2548  1.0091  1.5535
 1615SOL    HW216479   3.692   4.331   8.959 -0.6163 -0.8287  1.2968
 1616SOL     OW16480   0.546   4.205  12.329 -0.2511  0.1280 -0.4780
 1616SOL    HW116481   0.575   4.288  12.291  1.3805  0.3700  1.3657
 1616SOL    HW216482   0.486   4.172  12.261 -4.2767  0.0628  3.0914
 1617SOL     OW16483   2.449   2.402  14.552  0.3471  0.1874  0.1369
 1617SOL    HW116484   2.469   2.456  14.628 -0.8365  0.0315  0.5657
 1617SOL    HW216485   2.356   2.420  14.540  0.1409 -1.9693 -1.4749
 1618SOL     OW16486   1.585   1.142   4.715 -0.0237  0.0273  0.0598
 1618SOL    HW116487   1.531   1.217   4.741  2.4099  1.3858  1.2071
 1618SOL    HW216488   1.667   1.184   4.743  0.3592 -0.1558 -0.7619
 1619SOL     OW16489   0.829   0.437   1.616 -0.1355  0.0738 -0.3897
 1619SOL    HW116490   0.741   0.442   1.654  0.1425  1.6622  0.0626
 1619SOL    HW216491   0.890   0.491   1.666 -0.0162 -0.3264 -0.1066
 1620SOL     OW16492   0.837   2.859   7.722  0.1640 -0.3064  0.7059
 1620SOL    HW116493   0.825   2.939   7.774 -0.2129  1.0964 -1.5070
 1620SOL    HW216494   0.891   2.893   7.651  0.1449  1.1942  1.4057
 1621SOL     OW16495   0.161   4.550  13.595 -0.2032  0.5215  0.2388
 1621SOL    HW116496   0.089   4.612  13.581  0.9839  1.1212 -3.3710
 1621SOL    HW216497   0.176   4.570  13.687  2.5074  0.3148 -0.1404
 1622SOL     OW16498   1.539   2.670  12.483  0.2957  0.1950 -0.3929
 1622SOL    HW116499   1.595   2.740  12.450 -0.1303  0.9680  0.5257
 1622SOL    HW216500   1.460   2.694  12.436 -1.5658 -2.9143  1.1421
 1623SOL     OW16501   2.047   0.100   5.580  0.0398 -0.1552 -0.5299
 1623SOL    HW116502   2.118   0.119   5.519  3.3338 -2.1328  2.6337
 1623SOL    HW216503   2.102   0.065   5.650  0.8576 -1.9958 -2.1127
 1624SOL     OW16504   4.042   2.165   6.032  0.5235  0.5114  0.3787
 1624SOL    HW116505   4.074   2.207   6.112 -1.5821  1.5352  0.7025
 1624SOL    HW216506   4.097   2.211   5.969 -1.4515  1.4779 -0.6330
 1625SOL     OW16507   2.816   2.561  12.415  0.8680 -0.3530 -0.0706
 1625SOL    HW116508   2.845   2.481  12.457  0.0873 -1.3976 -1.5134
 1625SOL    HW216509   2.767   2.528  12.339 -1.1941 -1.2226  1.6519
 1626SOL     OW16510   3.259   1.199  15.144 -0.1004  0.5945 -0.0768
 1626SOL    HW116511   3.241   1.247  15.063 -0.3140  2.0664  0.8388
 1626SOL    HW216512   3.314   1.131  15.105  0.6984  0.4544  1.2985
 1627SOL     OW16513   2.817   2.327   6.642 -0.2177  0.1678 -0.4777
 1627SOL    HW116514   2.864   2.327   6.725 -1.0392 -2.6185 -0.0145
 1627SOL    HW216515   2.893   2.339   6.585  0.8260 -2.8296  0.2479
 1628SOL     OW16516   2.988   0.751   9.967 -0.6861 -0.4278 -0.4700
 1628SOL    HW116517   2.930   0.675   9.961 -1.6611  0.4400 -2.0908
 1628SOL    HW216518   2.978   0.787   9.878  0.8825 -0.3350 -0.5968
 1629SOL     OW16519   0.989   2.099   2.046  0.0064  0.0264  0.3667
 1629SOL    HW116520   0.903   2.057   2.050  0.9235 -1.9706 -0.8427
 1629SOL    HW216521   0.959   2.162   1.980  0.9018 -1.6000 -1.6151
 1630SOL     OW16522   2.674   3.368  10.877  0.1751 -0.1614  0.4254
 1630SOL    HW116523   2.623   3.425  10.934 -1.5718 -0.3214 -0.9744
 1630SOL    HW216524   2.733   3.321  10.935  0.4913 -0.8786 -0.4673
 1631SOL     OW16525   0.539   2.279  13.249 -0.9974 -0.0746  0.0023
 1631SOL    HW116526   0.550   2.238  13.335  0.3598  0.3349  0.0290
 1631SOL    HW216527   0.609   2.238  13.198 -1.7461 -0.7433 -0.4698
 1632SOL     OW16528   4.434   2.318   0.928 -0.4961  0.3827  0.3299
 1632SOL    HW116529   4.472   2.231   0.917  0.8613  0.8995  0.9603
 1632SOL    HW216530   4.516   2.366   0.924  0.1365 -0.8812 -1.6323
 1633SOL     OW16531   4.459   0.278   0.962  0.2202  0.4072 -0.5746
 1633SOL    HW116532   4.387   0.246   1.017  0.8057 -0.2915 -0.2143
 1633SOL    HW216533   4.504   0.195   0.945 -0.1828 -0.3492  2.0316
 1634SOL     OW16534   3.693   0.623  10.345 -0.6719 -0.7895  0.1595
 1634SOL    HW116535   3.765   0.645  10.286 -1.7915 -0.9353 -1.2756
 1634SOL    HW216536   3.734   0.676  10.413  0.5266 -0.9124 -0.4678
 1635SOL     OW16537   0.832   3.743   8.793  0.4810  0.4065  0.4036
 1635SOL    HW116538   0.920   3.744   8.755  1.1223 -3.5659  1.7412
 1635SOL    HW216539   0.831   3.825   8.843 -2.6247  1.9580 -2.2176
 1636SOL     OW16540   0.257   2.049  12.754 -0.7599  0.2510  0.1641
 1636SOL    HW116541   0.312   2.081  12.825  0.0695  0.7136 -0.6903
 1636SOL    HW216542   0.254   2.114  12.684 -0.3603 -0.6910 -0.7189
 1637SOL     OW16543   3.372   2.987   7.223  0.1031 -0.2196  0.1764
 1637SOL    HW116544   3.355   2.921   7.289 -1.4627 -1.2280 -1.2143
 1637SOL    HW216545   3.422   3.050   7.274  0.4906  0.1402 -0.6355
 1638SOL     OW16546   1.308   4.638   9.173  0.1704 -0.1992 -0.2777
 1638SOL    HW116547   1.308   4.544   9.190  2.1009 -0.4736 -1.7306
 1638SOL    HW216548   1.398   4.643   9.140  0.5823 -0.6043  0.7735
 1639SOL     OW16549   1.118   4.504   8.967  0.4592  0.4632 -0.0067
 1639SOL    HW116550   1.204   4.476   8.998 -1.5475 -2.2954  3.0049
 1639SOL    HW216551   1.072   4.494   9.050  1.2033  1.4146  0.5119
 1640SOL     OW16552   1.518   2.200   5.429 -0.9282 -0.1261 -0.0984
 1640SOL    HW116553   1.506   2.124   5.372 -0.5084 -0.9795  0.9655
 1640SOL    HW216554   1.441   2.184   5.485 -1.8762  0.2329 -1.2983
 1641SOL     OW16555   1.809   3.662  15.952 -0.0741 -0.4299 -0.2726
 1641SOL    HW116556   1.789   3.581  15.906  1.4287 -0.5055 -0.8048
 1641SOL    HW216557   1.742   3.715  15.910 -0.6330  0.1402  1.3095
 1642SOL     OW16558   1.813   3.077   1.602  0.5002 -0.2842  0.0330
 1642SOL    HW116559   1.746   3.110   1.662  0.6994  1.5182 -0.7226
 1642SOL    HW216560   1.884   3.141   1.610  1.7257 -1.6812  0.3264
 1643SOL     OW16561   2.826   1.547   9.285  0.1332 -0.2896  0.0809
 1643SOL    HW116562   2.841   1.477   9.348 -0.1962  0.5416  1.0902
 1643SOL    HW216563   2.738   1.579   9.307  0.0697  0.2118 -0.9361
 1644SOL     OW16564   4.052   1.475  16.910 -0.1907 -0.1352  0.5767
 1644SOL    HW116565   4.128   1.451  16.963  0.3745 -0.2635 -0.2939
 1644SOL    HW216566   4.007   1.536  16.969 -2.1376 -0.6798 -0.3354
 1645SOL     OW16567   3.609   3.834   7.080  0.2912  0.3069 -0.2618
 1645SOL    HW116568   3.597   3.860   7.172 -0.0191 -2.3631  0.4430
 1645SOL    HW216569   3.691   3.788   7.100 -0.2338  0.0612  1.3356
 1646SOL     OW16570   2.248   3.731  14.819 -0.0711 -0.1238  0.4860
 1646SOL    HW116571   2.329   3.683  14.837 -0.0437  0.2778  1.4379
 1646SOL    HW216572   2.213   3.683  14.744  0.7241 -0.3999  0.2889
 1647SOL     OW16573   2.338   1.764   3.214  0.2903 -0.4840  0.1608
 1647SOL    HW116574   2.372   1.731   3.297 -0.6680 -1.0611  0.3230
 1647SOL    HW216575   2.308   1.683   3.172  1.5915  0.1607 -2.0245
 1648SOL     OW16576   1.864   2.763   3.214 -0.0800 -0.4996 -0.1289
 1648SOL    HW116577   1.791   2.811   3.176  0.3259  2.7193  3.2061
 1648SOL    HW216578   1.895   2.729   3.130 -0.9798 -1.9027  0.1087
 1649SOL     OW16579   0.870   3.913   5.170  0.1614  0.2598 -0.0824
 1649SOL    HW116580   0.842   3.942   5.257 -1.9232 -0.2173 -0.5952
 1649SOL    HW216581   0.791   3.943   5.126  0.9654 -0.3344 -1.9493
 1650SOL     OW16582   2.463   2.938   6.662  0.0132  0.2628 -0.6805
 1650SOL    HW116583   2.389   2.997   6.645 -0.4572 -0.1795 -0.1541
 1650SOL    HW216584   2.484   2.911   6.572  0.0116  1.0265 -0.9097
 1651SOL     OW16585   1.531   4.320   0.115  0.0738 -0.7287  0.0491
 1651SOL    HW116586   1.500   4.230   0.120  1.6528 -1.2958 -0.3991
 1651SOL    HW216587   1.486   4.348   0.036 -1.2437 -1.0077  0.7037
 1652SOL     OW16588   4.644   0.538   7.392 -0.5247  0.0821 -0.1186
 1652SOL    HW116589   4.590   0.486   7.451 -1.1336 -0.0294 -0.7817
 1652SOL    HW216590   4.585   0.606   7.359  0.9527  0.9751 -0.9250
 1653SOL     OW16591   0.684   4.504   8.716 -0.2671 -0.0472 -0.2022
 1653SOL    HW116592   0.659   4.413   8.731 -0.8241  0.4127  1.6453
 1653SOL    HW216593   0.731   4.479   8.637 -0.1491  0.3609 -0.2621
 1654SOL     OW16594   1.171   3.217  15.872 -0.4247 -0.0929  0.7464
 1654SOL    HW116595   1.105   3.214  15.941  0.0785 -1.4932  1.1723
 1654SOL    HW216596   1.254   3.188  15.911 -0.4032 -2.8625 -1.3969
 1655SOL     OW16597   4.194   1.306   5.479  0.1873 -0.2920  0.0812
 1655SOL    HW116598   4.174   1.243   5.410  0.1629  2.2111 -2.2111
 1655SOL    HW216599   4.284   1.282   5.502  0.5000 -0.2989 -1.1286
 1656SOL     OW16600   2.649   0.910   1.236  0.1415 -0.2921 -0.3781
 1656SOL    HW116601   2.652   1.004   1.252 -0.7836 -0.2168 -0.6641
 1656SOL    HW216602   2.727   0.904   1.181  0.2173 -1.6475 -0.1291
 1657SOL     OW16603   0.378   4.040   4.711 -1.0329  0.2847 -0.1251
 1657SOL    HW116604   0.403   3.969   4.770  1.0249  1.2185  0.1184
 1657SOL    HW216605   0.419   4.019   4.627 -1.3782 -2.5944  0.4241
 1658SOL     OW16606   0.703   0.029  11.243  0.0169  0.4043 -0.1299
 1658SOL    HW116607   0.778   0.085  11.219 -0.1902  0.2869 -1.0620
 1658SOL    HW216608   0.626   0.085  11.227  0.6167  1.3354  0.2184
 1659SOL     OW16609   4.050   2.385  17.319  0.2685  0.5650 -0.3336
 1659SOL    HW116610   4.060   2.479  17.305 -1.2967  0.6017 -1.2652
 1659SOL    HW216611   4.061   2.367  17.413 -2.1099 -3.5881 -0.8688
 1660SOL     OW16612   0.125   3.682   4.303 -0.2375 -0.4045  0.1104
 1660SOL    HW116613   0.188   3.753   4.290  0.1526 -0.9016 -0.7075
 1660SOL    HW216614   0.178   3.609   4.334 -0.9237 -1.1493 -0.4815
 1661SOL     OW16615   1.776   2.926  13.283 -0.2425  0.5163  0.4408
 1661SOL    HW116616   1.748   2.888  13.200 -0.3801  1.2680  0.1472
 1661SOL    HW216617   1.865   2.937  13.251  0.4057 -0.1397  1.9926
 1662SOL     OW16618   4.101   3.582  11.828  0.4871  0.0138 -0.2288
 1662SOL    HW116619   4.178   3.542  11.788  1.4558  0.2574  1.3874
 1662SOL    HW216620   4.132   3.577  11.918 -0.9430  1.8145  0.3511
 1663SOL     OW16621   1.286   4.719  13.984  0.1279 -0.1295  0.6859
 1663SOL    HW116622   1.248   4.711  14.072  3.8864  0.8550  2.4386
 1663SOL    HW216623   1.221   4.668  13.936 -0.1493  0.2708  0.6357
 1664SOL     OW16624   2.302   0.758  11.287 -0.1282 -0.6509  0.1312
 1664SOL    HW116625   2.232   0.692  11.291 -0.4609 -0.3357 -0.6338
 1664SOL    HW216626   2.359   0.711  11.226 -0.7504 -0.2707 -0.7413
 1665SOL     OW16627   4.443   1.616  13.440  0.5396 -0.0556  0.4601
 1665SOL    HW116628   4.530   1.655  13.433  0.8501 -0.7966  0.2429
 1665SOL    HW216629   4.413   1.646  13.355  0.7855 -0.0569  0.3738
 1666SOL     OW16630   0.089   4.384   6.451 -0.0998  0.2393  0.3491
 1666SOL    HW116631   0.086   4.479   6.447 -0.7062  0.1671 -0.8965
 1666SOL    HW216632   0.007   4.366   6.497  1.3338 -1.3390  2.3259
 1667SOL     OW16633   3.015   2.426   4.233  0.0141  0.4436 -0.3369
 1667SOL    HW116634   3.073   2.362   4.191  1.3880  2.1034 -0.9307
 1667SOL    HW216635   2.929   2.383   4.233  0.3389 -0.2112  1.3578
 1668SOL     OW16636   2.383   3.738   8.389 -0.4193 -0.1727  0.2514
 1668SOL    HW116637   2.423   3.664   8.434 -1.1405 -1.3141 -0.9763
 1668SOL    HW216638   2.292   3.707   8.393 -0.6846  0.7310  1.2761
 1669SOL     OW16639   0.846   2.679   3.107 -0.2234 -0.1197 -0.6669
 1669SOL    HW116640   0.825   2.694   3.015  0.0304  2.5568 -0.2764
 1669SOL    HW216641   0.817   2.764   3.139 -1.5623 -0.5184 -0.7778
 1670SOL     OW16642   0.379   1.943   1.470 -0.5024 -0.5317  0.0217
 1670SOL    HW116643   0.381   1.966   1.563 -0.9535 -1.8185  0.3451
 1670SOL    HW216644   0.394   1.849   1.477  0.0575 -0.3761  0.8577
 1671SOL     OW16645   2.397   0.662  11.753  0.3922 -0.1143 -0.2756
 1671SOL    HW116646   2.346   0.663  11.672  1.2924  0.4567 -0.8377
 1671SOL    HW216647   2.376   0.578  11.795 -1.1151 -0.0996 -0.9970
 1672SOL     OW16648   4.589   1.047   8.855  0.3098  0.1059 -0.1213
 1672SOL    HW116649   4.620   1.069   8.768  0.3682 -2.4342 -0.7552
 1672SOL    HW216650   4.593   1.136   8.890  2.2184 -0.4646  1.1445
 1673SOL     OW16651   4.696   0.670   5.009 -0.3461 -0.4498 -0.0940
 1673SOL    HW116652   4.661   0.712   5.088  1.9708 -0.8874  1.1525
 1673SOL    HW216653   4.733   0.746   4.966  0.4705 -1.1280 -0.5710
 1674SOL     OW16654   1.025   1.413   6.771  0.0145  0.2331 -0.7518
 1674SOL    HW116655   0.978   1.490   6.805  1.0005 -0.3305  1.8818
 1674SOL    HW216656   1.109   1.421   6.817  0.3578 -1.4435 -1.1034
 1675SOL     OW16657   2.109   0.124   3.899  0.0477 -0.1461  0.2547
 1675SOL    HW116658   2.183   0.063   3.894  1.3531  1.4613  0.0879
 1675SOL    HW216659   2.149   0.211   3.895 -0.1923 -0.1115 -1.5660
 1676SOL     OW16660   2.116   3.522   5.101  0.7121  0.0600  0.2297
 1676SOL    HW116661   2.196   3.486   5.062  0.5981  0.8013 -0.6873
 1676SOL    HW216662   2.144   3.536   5.191  1.3873 -0.1921  0.0598
 1677SOL     OW16663   0.529   1.214  10.092 -0.4306 -0.3818  0.3921
 1677SOL    HW116664   0.571   1.284  10.141 -1.5338 -1.1459  2.4249
 1677SOL    HW216665   0.579   1.138  10.122  0.8790  0.8060  1.2284
 1678SOL     OW16666   4.300   2.309   2.238  0.4601  0.3623  0.5752
 1678SOL    HW116667   4.392   2.301   2.263  0.4738  1.7541  0.9994
 1678SOL    HW216668   4.272   2.379   2.297 -1.3855 -0.1170  0.2654
 1679SOL     OW16669   2.376   0.382   1.169  0.5840 -0.3845  0.2101
 1679SOL    HW116670   2.331   0.426   1.097  1.0293  1.5821  1.1295
 1679SOL    HW216671   2.308   0.385   1.236 -0.0292 -0.0952 -0.4274
 1680SOL     OW16672   0.646   4.461   9.637  0.3321  0.1459  0.3169
 1680SOL    HW116673   0.581   4.529   9.615  1.7032 -0.1651 -4.6296
 1680SOL    HW216674   0.593   4.382   9.640  1.0091 -0.2864  0.7635
 1681SOL     OW16675   3.020   3.370   0.741 -0.2039 -1.3837  0.3157
 1681SOL    HW116676   2.999   3.296   0.684 -1.3506 -0.4185 -0.4996
 1681SOL    HW216677   2.940   3.422   0.750  0.5367 -0.0212 -0.9204
 1682SOL     OW16678   2.818   1.849   7.900  0.2323  0.1476 -0.0388
 1682SOL    HW116679   2.732   1.818   7.929  1.6439 -2.3518  1.4479
 1682SOL    HW216680   2.869   1.801   7.964  0.9578 -0.6875 -1.2524
 1683SOL     OW16681   2.834   1.045   2.890 -0.1950 -0.1953 -0.4397
 1683SOL    HW116682   2.830   1.033   2.985 -1.5162  1.0755 -0.3199
 1683SOL    HW216683   2.773   0.977   2.861 -1.2999  0.0215  1.3213
 1684SOL     OW16684   0.511   0.777   2.510  0.2569  0.1273 -0.7386
 1684SOL    HW116685   0.480   0.857   2.553  1.3306  0.7212 -1.0797
 1684SOL    HW216686   0.558   0.814   2.435  0.1356  0.4597 -0.6534
 1685SOL     OW16687   2.322   2.135  13.707 -0.0520  0.0347  0.0425
 1685SOL    HW116688   2.339   2.218  13.750  2.2760 -0.1642 -0.5062
 1685SOL    HW216689   2.236   2.144  13.666 -1.5403  0.8815  3.3671
 1686SOL     OW16690   1.231   2.038   7.619  0.2884 -0.2174  0.4614
 1686SOL    HW116691   1.287   2.008   7.691 -1.0874 -4.0435 -0.0326
 1686SOL    HW216692   1.144   2.002   7.639 -0.4450  1.8376  0.9625
 1687SOL     OW16693   1.527   1.072   1.986  0.0074  0.0223 -0.2909
 1687SOL    HW116694   1.598   1.134   2.004  1.0398 -0.5713 -2.3290
 1687SOL    HW216695   1.472   1.121   1.925  0.3197  0.4825 -0.2034
 1688SOL     OW16696   1.119   3.171   4.225  0.1724  0.0046 -0.2453
 1688SOL    HW116697   1.146   3.260   4.203  0.8753 -0.5724 -1.7675
 1688SOL    HW216698   1.201   3.122   4.225  0.0717 -0.1593 -1.7083
 1689SOL     OW16699   0.750   3.377  10.772 -0.3623 -0.1607  0.2017
 1689SOL    HW116700   0.843   3.355  10.762 -0.5148 -0.5454 -0.3998
 1689SOL    HW216701   0.713   3.291  10.750  1.6244 -1.2231  0.9940
 1690SOL     OW16702   3.920   2.173   9.396 -0.1051  0.1167 -0.4286
 1690SOL    HW116703   3.996   2.187   9.339  0.3992 -0.2617  0.1456
 1690SOL    HW216704   3.876   2.100   9.353  0.3384  0.0867 -0.8236
 1691SOL     OW16705   3.312   0.100  13.472  0.5738 -0.3299 -0.0475
 1691SOL    HW116706   3.261   0.110  13.391 -0.5471 -1.2239  0.5614
 1691SOL    HW216707   3.273   0.149  13.544  0.6620 -1.5314  0.8135
 1692SOL     OW16708   0.746   3.212   4.842  0.1010 -0.1223  0.9643
 1692SOL    HW116709   0.787   3.298   4.846 -0.4150  0.1090  1.4139
 1692SOL    HW216710   0.730   3.200   4.936  4.0624  0.6735  1.7295
 1693SOL     OW16711   2.139   3.034   7.841  0.1374  0.2606 -0.4975
 1693SOL    HW116712   2.184   3.068   7.919  0.4835 -1.2991 -0.0198
 1693SOL    HW216713   2.051   3.069   7.854  0.9400  1.1877  2.3672
 1694SOL     OW16714   4.159   2.533   6.116 -0.3304  0.7778 -0.5612
 1694SOL    HW116715   4.155   2.446   6.157 -1.8296  0.3471 -1.6091
 1694SOL    HW216716   4.246   2.533   6.076 -1.4443  2.6054 -2.9923
 1695SOL     OW16717   2.323   1.067  14.286 -0.3020 -0.1177  0.5891
 1695SOL    HW116718   2.272   1.127  14.341  0.6176  2.1465 -1.0555
 1695SOL    HW216719   2.389   1.118  14.240 -0.7149 -0.5936 -0.5357
 1696SOL     OW16720   1.067   2.796   7.158  0.3732  0.0090 -0.2510
 1696SOL    HW116721   1.015   2.862   7.113  0.7457  0.5608  0.1199
 1696SOL    HW216722   1.009   2.727   7.187 -2.1012  1.2200 -2.3157
 1697SOL     OW16723   3.390   0.075   4.015 -0.3480  0.0407  0.3032
 1697SOL    HW116724   3.475   0.040   3.986  1.0652  1.4624  2.7259
 1697SOL    HW216725   3.390   0.063   4.110  0.8603  2.1148  0.5583
 1698SOL     OW16726   0.818   2.782  11.681  0.3797  0.1930  0.6308
 1698SOL    HW116727   0.805   2.840  11.756 -1.7794 -0.5571  0.8222
 1698SOL    HW216728   0.914   2.790  11.677  0.5272 -1.5449  0.6912
 1699SOL     OW16729   2.987   2.897   6.103  0.1002  0.0372 -0.0375
 1699SOL    HW116730   3.039   2.912   6.024 -0.8863 -1.9617 -1.0601
 1699SOL    HW216731   2.906   2.865   6.064 -1.6410  2.5440  1.5003
 1700SOL     OW16732   0.070   2.302   5.043  0.2890 -0.1581 -0.0791
 1700SOL    HW116733   0.143   2.340   5.093  0.3808  0.5843 -0.7832
 1700SOL    HW216734   0.001   2.366   5.059 -0.9872 -1.3444 -0.8381
 1701SOL     OW16735   4.343   4.353   5.211  0.4702  0.2263 -0.4416
 1701SOL    HW116736   4.309   4.442   5.219  1.9942  0.7455  0.1834
 1701SOL    HW216737   4.356   4.329   5.303 -2.3139 -0.1475 -0.1441
 1702SOL     OW16738   3.870   0.925   8.028  0.3050 -0.8374 -0.6695
 1702SOL    HW116739   3.838   0.850   8.079 -1.8173  0.1553 -0.5768
 1702SOL    HW216740   3.953   0.949   8.069 -0.0994  1.7987 -1.3994
 1703SOL     OW16741   3.396   3.359  16.806  0.2787 -0.3908  0.7273
 1703SOL    HW116742   3.476   3.320  16.840 -0.7180 -1.7031  1.5545
 1703SOL    HW216743   3.330   3.309  16.854 -1.0001 -0.2330 -0.8741
 1704SOL     OW16744   3.908   2.572  17.555 -0.0614 -0.2292 -0.3472
 1704SOL    HW116745   3.968   2.520  17.608 -1.8536 -0.8717  1.0522
 1704SOL    HW216746   3.971   2.638  17.526 -2.2928  1.9305 -0.2902
 1705SOL     OW16747   1.108   4.515   7.631  0.1559 -0.0223 -0.1560
 1705SOL    HW116748   1.014   4.498   7.637 -0.2164  1.0963 -2.8999
 1705SOL    HW216749   1.113   4.594   7.577 -3.0734 -0.4432 -1.0901
 1706SOL     OW16750   4.053   2.802   6.885 -0.2346 -0.0303 -0.8330
 1706SOL    HW116751   4.001   2.870   6.841 -0.3310  0.0573 -0.5809
 1706SOL    HW216752   4.010   2.721   6.856  0.2453 -0.4442 -0.3756
 1707SOL     OW16753   4.196   1.006   2.481  0.1161 -0.7131  0.0231
 1707SOL    HW116754   4.143   1.077   2.517 -1.6379 -0.8820 -2.1934
 1707SOL    HW216755   4.235   1.055   2.410 -2.0522  1.5008  0.3443
 1708SOL     OW16756   0.022   3.096   5.344 -0.3572  0.3613 -0.2121
 1708SOL    HW116757   0.014   3.120   5.252 -0.8867  0.1276 -0.2291
 1708SOL    HW216758   4.687   3.042   5.367 -0.9404  2.1253  1.9406
 1709SOL     OW16759   0.060   1.795   4.843  0.5013  0.5628  0.7912
 1709SOL    HW116760   0.058   1.883   4.881  0.6951  0.4929  0.9614
 1709SOL    HW216761   0.047   1.740   4.920  0.5280 -4.5053 -2.7932
 1710SOL     OW16762   4.406   0.477   7.529  0.6162 -0.0887  0.5594
 1710SOL    HW116763   4.329   0.463   7.584  0.1727  0.4620  0.0716
 1710SOL    HW216764   4.359   0.503   7.450  1.4482 -2.0930 -0.5972
 1711SOL     OW16765   2.878   1.250   9.842 -0.0739 -0.5989  0.9093
 1711SOL    HW116766   2.889   1.220   9.752 -1.4453 -0.3086  0.6422
 1711SOL    HW216767   2.863   1.342   9.820 -1.4331 -1.0279  0.0311
 1712SOL     OW16768   1.302   3.114   3.592 -0.9897  1.0123 -0.1922
 1712SOL    HW116769   1.360   3.042   3.568 -0.2741  0.6754  2.6513
 1712SOL    HW216770   1.265   3.087   3.676 -0.9009  2.0177  0.1732
 1713SOL     OW16771   4.106   3.184   5.639 -0.2905  0.3928  0.2631
 1713SOL    HW116772   4.177   3.212   5.697 -1.2527  2.7866  0.2965
 1713SOL    HW216773   4.157   3.195   5.559  1.1473 -1.1337  0.9688
 1714SOL     OW16774   0.297   1.745   4.689 -0.5591 -0.0279 -0.4177
 1714SOL    HW116775   0.222   1.744   4.749 -0.4061  0.2963 -0.2255
 1714SOL    HW216776   0.267   1.710   4.605 -0.2804  1.1029 -0.9807
 1715SOL     OW16777   3.948   2.557   3.114  0.4512 -0.5625  0.4599
 1715SOL    HW116778   3.916   2.557   3.024  0.2356 -5.0409  0.5265
 1715SOL    HW216779   3.933   2.465   3.138  0.3029 -0.5223  0.5224
 1716SOL     OW16780   1.331   0.649   7.401 -0.2424  0.0052 -0.1299
 1716SOL    HW116781   1.374   0.584   7.347  0.9445  0.8779 -0.2383
 1716SOL    HW216782   1.250   0.663   7.351  0.3673  0.9744 -0.8476
 1717SOL     OW16783   0.869   0.235   0.782  0.5185 -0.1937  0.3135
 1717SOL    HW116784   0.907   0.169   0.725 -0.9750 -2.5629  2.0661
 1717SOL    HW216785   0.939   0.299   0.771  0.4386  0.0848  1.4103
 1718SOL     OW16786   0.292   0.931   3.083 -0.2291 -0.4283  0.5458
 1718SOL    HW116787   0.216   0.893   3.127 -1.0255  0.9449  0.3506
 1718SOL    HW216788   0.281   0.899   2.994  1.4697 -0.2792  0.2870
 1719SOL     OW16789   0.880   3.464  15.940  0.6795  0.4630 -0.2764
 1719SOL    HW116790   0.818   3.537  15.938  1.5034  1.0707 -3.0129
 1719SOL    HW216791   0.843   3.402  15.877 -1.3584 -0.0448  1.4339
 1720SOL     OW16792   2.735   3.548   2.138 -0.2205  0.0962 -0.1684
 1720SOL    HW116793   2.719   3.476   2.077  1.5081 -0.3008 -0.1643
 1720SOL    HW216794   2.695   3.511   2.216 -0.2476  2.0259  0.7354
 1721SOL     OW16795   0.502   1.237   7.224 -0.0848 -0.0611 -0.6237
 1721SOL    HW116796   0.580   1.225   7.278  0.7203 -0.0265 -1.7812
 1721SOL    HW216797   0.531   1.192   7.145  0.6935  2.1922 -1.6058
 1722SOL     OW16798   1.648   1.650   4.327 -0.6895  0.1176 -0.0143
 1722SOL    HW116799   1.687   1.577   4.375  1.1405  0.5830 -0.7876
 1722SOL    HW216800   1.560   1.660   4.363 -1.2129 -1.3076 -0.9197
 1723SOL     OW16801   1.713   0.119   2.984 -0.2918 -0.2206 -0.2497
 1723SOL    HW116802   1.681   0.208   2.999  0.7253 -0.0608  0.9794
 1723SOL    HW216803   1.652   0.073   2.925  0.2336 -1.5679  0.2643
 1724SOL     OW16804   2.396   1.297  11.319 -0.1517 -0.4449 -0.0736
 1724SOL    HW116805   2.397   1.226  11.383 -1.3316 -1.0659 -0.7479
 1724SOL    HW216806   2.408   1.375  11.373 -1.1618 -0.5217  0.2577
 1725SOL     OW16807   3.937   0.542   6.633 -0.1311 -0.5084 -0.5953
 1725SOL    HW116808   3.907   0.633   6.628  1.3153 -0.1727 -3.1630
 1725SOL    HW216809   3.975   0.539   6.545  1.4689 -0.6261  0.0871
 1726SOL     OW16810   2.041   2.623  14.345  0.0553  0.1767 -0.2167
 1726SOL    HW116811   1.945   2.622  14.343  0.0979 -1.4967 -1.6939
 1726SOL    HW216812   2.059   2.564  14.272 -0.2255 -1.2215  0.8341
 1727SOL     OW16813   0.429   1.734   4.988 -0.1622  0.5999 -0.6977
 1727SOL    HW116814   0.455   1.826   4.997 -1.1331  0.5914  2.2453
 1727SOL    HW216815   0.382   1.744   4.905 -1.0008 -1.3114 -0.4684
 1728SOL     OW16816   4.261   0.085   4.576 -0.3439 -0.0916  0.0620
 1728SOL    HW116817   4.294   0.168   4.541 -0.3698 -0.6472 -1.2675
 1728SOL    HW216818   4.253   0.026   4.502 -0.7604 -0.6213  0.5245
 1729SOL     OW16819   0.949   3.149  11.503  0.2076 -0.5718 -0.0526
 1729SOL    HW116820   1.033   3.179  11.537 -0.4621 -1.4918  2.3546
 1729SOL    HW216821   0.968   3.145  11.409 -1.6927  2.5228 -0.5996
 1730SOL     OW16822   4.331   2.339   3.250  0.0108  0.7675  0.4466
 1730SOL    HW116823   4.250   2.317   3.296 -1.8570 -1.9281 -4.1352
 1730SOL    HW216824   4.326   2.434   3.244 -0.3372  0.6448 -1.0556
 1731SOL     OW16825   1.570   4.373   0.927 -0.4105  0.7950  0.2482
 1731SOL    HW116826   1.536   4.447   0.977  0.1180  0.8296  0.5499
 1731SOL    HW216827   1.576   4.409   0.838  2.0408 -0.1163  0.0658
 1732SOL     OW16828   2.082   0.395   6.201 -0.2530  0.4254  0.2387
 1732SOL    HW116829   2.093   0.391   6.106  2.5533 -0.0068  0.5796
 1732SOL    HW216830   1.986   0.395   6.194 -0.2404 -1.2273 -0.1014
 1733SOL     OW16831   4.369   2.310   9.474 -0.0684 -0.3299 -0.6177
 1733SOL    HW116832   4.409   2.257   9.406  1.3090 -1.8109  1.3285
 1733SOL    HW216833   4.371   2.396   9.433  1.5189  0.1156  0.3859
 1734SOL     OW16834   3.779   1.257   4.319 -0.1534 -0.1792 -0.7653
 1734SOL    HW116835   3.820   1.174   4.344  0.7123  0.4246 -0.1561
 1734SOL    HW216836   3.858   1.311   4.307  0.0705  0.0487  1.7312
 1735SOL     OW16837   1.226   2.514  12.191  0.0485 -0.0979  0.1470
 1735SOL    HW116838   1.291   2.584  12.197 -0.8795  0.7980 -0.2757
 1735SOL    HW216839   1.144   2.561  12.183  0.5064  0.2373 -2.6503
 1736SOL     OW16840   1.499   4.473   8.746 -0.4661  0.1111  0.0321
 1736SOL    HW116841   1.487   4.389   8.790 -0.8469  0.2295  0.1561
 1736SOL    HW216842   1.439   4.523   8.803 -0.8569 -0.4478  0.1124
 1737SOL     OW16843   2.384   2.093   2.992 -0.6148  0.0492  0.2582
 1737SOL    HW116844   2.343   2.164   3.042  0.8683  0.4690  0.8714
 1737SOL    HW216845   2.437   2.127   2.920  0.1364 -2.3698 -0.3196
 1738SOL     OW16846   2.720   0.404  12.220  0.2262 -0.4174  0.1852
 1738SOL    HW116847   2.745   0.485  12.266 -1.2346 -0.1636  0.5323
 1738SOL    HW216848   2.636   0.417  12.178 -0.7459 -3.2865  1.2962
 1739SOL     OW16849   4.092   3.901  10.426 -0.1776 -0.3036  0.1050
 1739SOL    HW116850   4.140   3.883  10.506  2.6362 -0.2348 -1.5913
 1739SOL    HW216851   4.156   3.876  10.360  2.6545  2.6235  1.7819
 1740SOL     OW16852   1.198   2.677   9.643 -0.6075 -0.0387 -0.2173
 1740SOL    HW116853   1.142   2.755   9.645  1.4500  1.4645 -0.9753
 1740SOL    HW216854   1.129   2.610   9.648 -0.5720 -0.0942 -0.4547
 1741SOL     OW16855   1.306   0.034   1.568  0.4049 -0.6519  0.2276
 1741SOL    HW116856   1.300   0.114   1.516  0.2469 -0.0303  1.2060
 1741SOL    HW216857   1.321   0.071   1.655  0.8556 -0.8090  0.2204
 1742SOL     OW16858   4.009   2.946  12.162 -1.0987 -0.2241  0.2190
 1742SOL    HW116859   4.004   2.851  12.174 -2.5281 -0.1307  0.3924
 1742SOL    HW216860   4.014   2.977  12.253 -0.7598  1.2170 -0.2829
 1743SOL     OW16861   2.687   3.680   1.846  1.0540 -0.4756 -0.3024
 1743SOL    HW116862   2.600   3.718   1.858  1.0265 -0.0679 -1.7903
 1743SOL    HW216863   2.707   3.641   1.931 -1.6004 -1.3916 -0.1039
 1744SOL     OW16864   0.356   4.422  16.840 -0.2745  0.0734 -0.4020
 1744SOL    HW116865   0.357   4.507  16.797  1.1308 -0.9957 -2.4970
 1744SOL    HW216866   0.370   4.363  16.766  2.6267  1.9547 -1.3505
 1745SOL     OW16867   0.243   3.943   8.984 -0.2132 -0.2237  0.1860
 1745SOL    HW116868   0.230   3.921   8.892 -2.1874 -0.1396  0.4605
 1745SOL    HW216869   0.205   3.869   9.032  0.5023 -0.3069  0.6334
 1746SOL     OW16870   2.799   4.471  15.548 -0.2056 -0.1338 -0.1388
 1746SOL    HW116871   2.809   4.503  15.637 -2.0592 -0.0882  0.0569
 1746SOL    HW216872   2.748   4.544  15.512  0.2004  0.8248  1.2472
 1747SOL     OW16873   4.154   3.686   5.378  0.1072 -0.1972 -0.2802
 1747SOL    HW116874   4.107   3.683   5.461  1.3459 -0.2088  0.4212
 1747SOL    HW216875   4.243   3.666   5.407 -0.1128 -0.2144  0.3829
 1748SOL     OW16876   0.317   2.870   9.413 -0.2062 -0.2192 -0.2060
 1748SOL    HW116877   0.300   2.786   9.456  0.6778 -0.6758 -0.7247
 1748SOL    HW216878   0.407   2.881   9.444  0.5558  0.8504 -2.7825
 1749SOL     OW16879   0.024   3.403   5.704  0.3283  0.0857  0.1765
 1749SOL    HW116880   0.036   3.482   5.651  0.4443  0.8322  1.3170
 1749SOL    HW216881   0.064   3.332   5.653  0.6429  1.3313 -1.3187
 1750SOL     OW16882   3.378   2.531   4.799  0.3580  0.7476  0.0720
 1750SOL    HW116883   3.325   2.537   4.878  0.1730  0.8701 -0.0604
 1750SOL    HW216884   3.324   2.575   4.734  2.8054 -0.6888 -2.9588
 1751SOL     OW16885   0.335   4.512   5.136 -0.1848 -0.0397  0.0487
 1751SOL    HW116886   0.343   4.600   5.099 -0.8425 -0.1530 -0.3643
 1751SOL    HW216887   0.273   4.529   5.207  0.5811  0.4483  0.5935
 1752SOL     OW16888   1.117   1.992   7.977  0.0949  0.5497 -0.0752
 1752SOL    HW116889   1.205   1.970   8.008 -0.7240 -0.3549  1.6752
 1752SOL    HW216890   1.065   1.964   8.053 -0.1900 -0.1594 -0.5349
 1753SOL     OW16891   2.948   3.789   7.982 -0.2264 -0.3406 -0.3546
 1753SOL    HW116892   2.861   3.821   8.006 -0.3820 -1.9452  1.1844
 1753SOL    HW216893   3.012   3.794   8.053 -0.6416  2.0446 -0.1332
 1754SOL     OW16894   4.638   4.248   8.177  0.2853 -0.8736  0.3938
 1754SOL    HW116895   4.553   4.244   8.220 -0.2849 -0.3543 -0.6918
 1754SOL    HW216896   4.631   4.178   8.112 -2.2257  0.4817 -0.8091
 1755SOL     OW16897   2.068   1.835   5.561  0.6399 -0.2092 -0.0172
 1755SOL    HW116898   2.108   1.851   5.646  0.4551  0.5548 -0.0757
 1755SOL    HW216899   2.090   1.911   5.507 -1.8334  0.7079  0.2710
 1756SOL     OW16900   1.754   3.544   9.011  0.0319 -0.1024 -0.7993
 1756SOL    HW116901   1.799   3.514   8.932  0.2880 -0.2107 -0.6086
 1756SOL    HW216902   1.743   3.467   9.067 -0.1155  0.9522  0.6136
 1757SOL     OW16903   1.819   2.322   5.845 -0.4896  0.2901  0.1967
 1757SOL    HW116904   1.732   2.333   5.883 -0.1686  2.9019  0.2122
 1757SOL    HW216905   1.867   2.355   5.921  0.9446 -1.5823  0.0943
 1758SOL     OW16906   1.819   1.792  13.844  0.0726  0.4350  0.1720
 1758SOL    HW116907   1.801   1.787  13.750 -3.4976 -0.3051  0.8736
 1758SOL    HW216908   1.734   1.765  13.879  1.6222 -2.7576  1.3981
 1759SOL     OW16909   4.338   2.845   2.683 -0.6193 -0.0650  0.2776
 1759SOL    HW116910   4.303   2.934   2.678  0.6445  0.3649 -0.8792
 1759SOL    HW216911   4.298   2.810   2.603 -1.5814  1.1471  0.2255
 1760SOL     OW16912   1.745   1.788   3.789  0.6621 -0.5754 -0.6008
 1760SOL    HW116913   1.748   1.697   3.817  0.3712 -0.2948  0.3513
 1760SOL    HW216914   1.835   1.819   3.782  1.1463 -1.7431  0.4586
 1761SOL     OW16915   1.624   4.332   8.023  0.0552  0.6912  0.3649
 1761SOL    HW116916   1.566   4.403   8.052  1.9526  2.6669 -0.6246
 1761SOL    HW216917   1.588   4.269   8.085 -1.1300  0.2571 -0.7706
 1762SOL     OW16918   0.974   0.719   6.872 -0.6024  0.1118  0.4870
 1762SOL    HW116919   1.017   0.770   6.940  1.5524 -1.0312  0.0049
 1762SOL    HW216920   0.939   0.649   6.926  1.6570 -0.9392  0.5879
 1763SOL     OW16921   3.032   3.117   1.020  0.6074 -0.8608 -0.0985
 1763SOL    HW116922   3.065   3.186   1.077  0.2805 -0.2783 -0.6118
 1763SOL    HW216923   2.939   3.109   1.043  0.1950  2.4282 -0.6639
 1764SOL     OW16924   4.547   0.356   6.815  0.2126 -0.1213  0.1073
 1764SOL    HW116925   4.606   0.281   6.826 -1.3495 -1.2463  0.8578
 1764SOL    HW216926   4.575   0.383   6.727 -1.2745  0.1823 -0.2635
 1765SOL     OW16927   1.720   0.148   6.602 -0.0048 -0.0698  0.6142
 1765SOL    HW116928   1.803   0.175   6.562  0.4870  1.1829  2.4455
 1765SOL    HW216929   1.749   0.068   6.647  0.5240 -0.2769 -0.0954
 1766SOL     OW16930   0.763   2.065   6.747 -0.3663  0.3866  0.4086
 1766SOL    HW116931   0.702   2.138   6.748  0.7017  1.2940 -0.4821
 1766SOL    HW216932   0.847   2.106   6.724  0.1744 -2.1118 -2.0673
 1767SOL     OW16933   0.512   0.669   9.953 -0.4156  0.3076 -0.2464
 1767SOL    HW116934   0.469   0.725   9.888  0.6018 -2.6172 -3.4195
 1767SOL    HW216935   0.456   0.696  10.026  2.8238  1.4003  1.8047
 1768SOL     OW16936   3.914   4.445  16.171  0.5716 -0.2536 -0.1009
 1768SOL    HW116937   3.863   4.455  16.091  0.2315 -0.7205  0.0564
 1768SOL    HW216938   3.966   4.525  16.166 -0.8356  0.6613 -0.1466
 1769SOL     OW16939   0.972   1.732  12.200  0.2952  0.0160 -0.2420
 1769SOL    HW116940   0.921   1.688  12.268  0.0331 -0.3090 -0.6560
 1769SOL    HW216941   0.975   1.668  12.129 -1.3610 -2.5497  2.0139
 1770SOL     OW16942   0.116   2.441   7.997  0.2998 -0.9644  0.7387
 1770SOL    HW116943   0.053   2.450   7.926 -1.0727 -0.2556  2.0477
 1770SOL    HW216944   0.080   2.379   8.060  1.5173 -1.6395  0.7689
 1771SOL     OW16945   2.907   0.134   8.470 -0.0215  0.1817  0.0990
 1771SOL    HW116946   2.901   0.124   8.565  0.1720  2.2916  0.3238
 1771SOL    HW216947   2.999   0.154   8.455  0.2309 -0.9761  0.0608
 1772SOL     OW16948   2.888   1.700  12.838 -0.3585 -0.0129 -0.1234
 1772SOL    HW116949   2.851   1.725  12.753 -0.6744 -0.9087 -0.2518
 1772SOL    HW216950   2.818   1.706  12.903  0.9747  0.8814  1.2199
 1773SOL     OW16951   4.579   2.962   2.180  0.0199 -0.4529 -0.2702
 1773SOL    HW116952   4.580   2.869   2.158  2.0739 -0.4352 -0.1959
 1773SOL    HW216953   4.608   2.964   2.271  1.8134  0.8411 -0.8825
 1774SOL     OW16954   0.310   1.077   6.921  0.4761  0.5050 -0.0974
 1774SOL    HW116955   0.224   1.102   6.956  0.2387  0.0503 -0.3620
 1774SOL    HW216956   0.326   1.135   6.846  0.6615  1.7530  0.9069
 1775SOL     OW16957   3.684   0.133   8.061 -0.3915 -0.7733  0.1784
 1775SOL    HW116958   3.750   0.201   8.052 -0.3268 -1.0627 -1.6585
 1775SOL    HW216959   3.635   0.165   8.136 -1.6536 -1.3326 -0.4057
 1776SOL     OW16960   4.359   2.123   3.638 -0.1833 -0.0762 -0.1396
 1776SOL    HW116961   4.274   2.166   3.633 -0.3053 -0.4255 -1.0188
 1776SOL    HW216962   4.411   2.202   3.647  0.5245 -0.1723 -3.3698
 1777SOL     OW16963   2.243   3.577   9.111  0.2924 -0.0747 -0.2460
 1777SOL    HW116964   2.265   3.618   9.195 -4.7314  0.8194  0.6559
 1777SOL    HW216965   2.211   3.658   9.070  1.8376 -0.0163 -1.3105
 1778SOL     OW16966   2.993   1.733   8.066  0.1273  0.2057  0.1510
 1778SOL    HW116967   3.080   1.744   8.028  1.5115 -1.5438  2.8479
 1778SOL    HW216968   2.976   1.640   8.057  0.2456  0.1731  0.2650
 1779SOL     OW16969   2.869   3.787  12.073  0.4102  0.2487  0.1076
 1779SOL    HW116970   2.933   3.773  12.143  0.9487  0.5213 -0.3320
 1779SOL    HW216971   2.919   3.854  12.026 -0.3099  0.6206 -0.1263
 1780SOL     OW16972   0.278   3.955  13.108 -0.2963  0.0396 -0.2956
 1780SOL    HW116973   0.329   4.036  13.100 -1.5275  1.0254  1.8739
 1780SOL    HW216974   0.283   3.952  13.203  2.7044 -1.8856 -0.5296
 1781SOL     OW16975   0.984   1.697   5.942  0.4081  0.1289 -0.0475
 1781SOL    HW116976   0.921   1.652   5.886  0.9699  1.1244 -1.4762
 1781SOL    HW216977   0.985   1.786   5.906  0.0593  0.2609  0.2754
 1782SOL     OW16978   4.345   1.050  11.105  0.6994 -0.4658 -0.1799
 1782SOL    HW116979   4.291   1.109  11.053  0.9543  1.6286  1.9138
 1782SOL    HW216980   4.291   1.048  11.185 -0.9726 -2.0798 -1.3468
 1783SOL     OW16981   4.180   0.480   7.802 -0.3658  0.1435 -0.3770
 1783SOL    HW116982   4.207   0.562   7.844 -1.8089  0.8701 -0.8571
 1783SOL    HW216983   4.193   0.419   7.874 -2.0879 -2.3837 -2.2255
 1784SOL     OW16984   3.286   1.439   8.946  0.0676  0.1501 -0.4477
 1784SOL    HW116985   3.202   1.464   8.983  0.7274  0.9905  0.4834
 1784SOL    HW216986   3.324   1.527   8.934 -1.1913  0.3835 -2.7663
 1785SOL     OW16987   2.241   3.128   5.237 -0.5375  0.2098 -0.6935
 1785SOL    HW116988   2.271   3.177   5.313  0.7685  0.9001 -1.6567
 1785SOL    HW216989   2.327   3.102   5.202 -1.1551 -0.8787 -1.4137
 1786SOL     OW16990   1.326   3.603   8.289 -0.6061 -0.0643 -0.2970
 1786SOL    HW116991   1.277   3.638   8.215  0.2787  3.6703  0.8745
 1786SOL    HW216992   1.270   3.532   8.320 -2.3250  2.1587  1.6822
 1787SOL     OW16993   2.845   4.520   1.450  0.7156 -0.1059  0.2318
 1787SOL    HW116994   2.782   4.589   1.430 -1.4686 -2.2056 -0.2010
 1787SOL    HW216995   2.935   4.536   1.421  0.3195  0.2439 -0.8245
 1788SOL     OW16996   1.069   0.001   8.862 -0.1424  0.3456 -0.3280
 1788SOL    HW116997   1.034   0.031   8.946  0.3301  1.6229 -0.5874
 1788SOL    HW216998   1.086   4.651   8.887 -0.8752  0.6176  1.1323
 1789SOL     OW16999   0.825   2.634   8.795 -0.8474 -0.4735 -0.1177
 1789SOL    HW117000   0.815   2.678   8.879 -0.0872  0.0957 -0.3257
 1789SOL    HW217001   0.741   2.662   8.758  0.6559  1.4517 -2.1131
 1790SOL     OW17002   4.477   1.475   0.246 -0.7665 -0.1734  0.0705
 1790SOL    HW117003   4.558   1.475   0.195  0.0191  3.1272  1.3461
 1790SOL    HW217004   4.460   1.381   0.254  0.3070 -0.3938 -0.1784
 1791SOL     OW17005   4.649   0.392  11.853 -0.0448  0.7226  0.1888
 1791SOL    HW117006   4.672   0.455  11.785 -2.0086 -0.1408 -1.2711
 1791SOL    HW217007   4.647   0.449  11.931 -1.0698 -1.0368  1.4540
 1792SOL     OW17008   2.500   1.982   3.215  0.9133  0.0769  0.1379
 1792SOL    HW117009   2.455   2.024   3.141 -0.8369  1.8916  2.2185
 1792SOL    HW217010   2.457   1.897   3.210  0.7829 -0.0325  3.0147
 1793SOL     OW17011   1.286   2.911   6.508 -0.4340  0.6298 -0.0124
 1793SOL    HW117012   1.241   2.995   6.517  0.3399  0.9670  0.7737
 1793SOL    HW217013   1.372   2.939   6.541 -0.5705 -0.7903  1.5658
 1794SOL     OW17014   0.868   2.780   2.300 -0.0705 -0.0674  0.1601
 1794SOL    HW117015   0.815   2.710   2.339  0.3753  0.8047  2.3097
 1794SOL    HW217016   0.853   2.840   2.373 -0.0496  1.3773 -1.0183
 1795SOL     OW17017   2.194   4.002   8.644  0.5977  0.1023 -0.2458
 1795SOL    HW117018   2.254   3.928   8.658 -0.1830 -0.1035  2.1419
 1795SOL    HW217019   2.200   4.015   8.550  2.1533 -0.8295 -0.2833
 1796SOL     OW17020   2.921   3.255   6.615  0.3824 -0.1351  0.0788
 1796SOL    HW117021   2.861   3.217   6.679  2.6035 -0.6304  1.8441
 1796SOL    HW217022   2.870   3.332   6.589 -0.8836 -1.2185 -0.6210
 1797SOL     OW17023   0.178   2.894   2.303 -0.5444  0.6629 -0.4061
 1797SOL    HW117024   0.167   2.946   2.223 -1.5275  0.4569 -0.4040
 1797SOL    HW217025   0.102   2.920   2.354 -0.4432  0.4693 -0.1526
 1798SOL     OW17026   0.667   3.209   3.063 -0.2480 -0.0847 -0.2130
 1798SOL    HW117027   0.575   3.189   3.051 -0.5635  1.1173  0.1291
 1798SOL    HW217028   0.669   3.205   3.159 -2.7954  0.6443 -0.1205
 1799SOL     OW17029   0.815   3.447   5.574 -0.2514 -0.0814 -0.6934
 1799SOL    HW117030   0.830   3.536   5.605 -1.8400  0.5609 -1.7474
 1799SOL    HW217031   0.803   3.469   5.482  5.5727  0.3776 -1.3587
 1800SOL     OW17032   2.825   2.173  15.063 -0.2708 -0.0122 -0.5094
 1800SOL    HW117033   2.863   2.249  15.108  1.5077 -1.6141  0.6880
 1800SOL    HW217034   2.876   2.105  15.108 -2.1657 -1.4052 -0.4599
 1801SOL     OW17035   3.770   2.243  13.179  0.2047  0.4676 -0.2114
 1801SOL    HW117036   3.744   2.243  13.086  0.3782  2.1449 -0.2517
 1801SOL    HW217037   3.704   2.189  13.223 -0.1279  1.9961  1.1407
 1802SOL     OW17038   3.330   1.209   7.313  0.1595 -0.3440  0.3468
 1802SOL    HW117039   3.368   1.156   7.244 -2.1806 -0.0707 -1.1662
 1802SOL    HW217040   3.283   1.134   7.351  1.7043 -0.8068  1.3384
 1803SOL     OW17041   0.168   2.919   2.997  0.5606 -0.0299 -0.2145
 1803SOL    HW117042   0.156   2.916   3.092 -0.7322  2.5315 -0.3203
 1803SOL    HW217043   0.247   2.971   2.979  0.8970 -0.0094  1.2893
 1804SOL     OW17044   0.255   0.319   8.642  0.0970  0.3672  0.3048
 1804SOL    HW117045   0.307   0.239   8.650  0.2428  0.3073 -1.2821
 1804SOL    HW217046   0.208   0.323   8.725 -2.4365 -1.1483 -1.0762
 1805SOL     OW17047   3.035   3.173   5.449  0.4976  0.1976 -0.1788
 1805SOL    HW117048   3.121   3.148   5.484  1.5759  1.1205 -2.1356
 1805SOL    HW217049   3.055   3.141   5.361  0.0159  1.2101 -0.6588
 1806SOL     OW17050   0.479   2.189   9.289 -0.3182  0.3930  0.1018
 1806SOL    HW117051   0.526   2.146   9.360 -0.4513  1.9593  1.1252
 1806SOL    HW217052   0.395   2.184   9.334  0.2852 -2.5789  0.9369
 1807SOL     OW17053   3.498   3.080  16.731 -0.3005  0.2741  0.6128
 1807SOL    HW117054   3.497   3.122  16.645 -1.1983  0.7691  0.8696
 1807SOL    HW217055   3.563   3.128  16.781 -0.3824  1.8624 -0.8200
 1808SOL     OW17056   1.621   3.579   5.348 -0.0573 -0.5655 -0.9087
 1808SOL    HW117057   1.611   3.635   5.271 -2.0737  1.3150  0.7215
 1808SOL    HW217058   1.536   3.535   5.350  0.1644 -0.9060  1.1515
 1809SOL     OW17059   4.311   0.257  10.907 -0.3802 -0.2303  0.3760
 1809SOL    HW117060   4.398   0.216  10.905 -0.1069  0.3329  0.5867
 1809SOL    HW217061   4.289   0.229  10.997  0.3911  0.8991  0.9127
 1810SOL     OW17062   3.478   0.390   0.944 -0.2316  0.8709 -0.1580
 1810SOL    HW117063   3.479   0.328   1.017  2.7973  0.9479 -0.1042
 1810SOL    HW217064   3.561   0.435   0.961 -0.7113  0.9975  1.8439
 1811SOL     OW17065   3.691   1.764   5.639  0.6809 -0.0236 -0.5028
 1811SOL    HW117066   3.660   1.706   5.570 -2.5857  1.5612 -0.3259
 1811SOL    HW217067   3.722   1.693   5.696  0.9343  0.5581  0.0808
 1812SOL     OW17068   3.794   2.763   6.628  0.0820  0.0388 -0.8049
 1812SOL    HW117069   3.841   2.839   6.661  0.6070 -0.2406 -0.9117
 1812SOL    HW217070   3.844   2.749   6.548 -2.9128  1.4920 -2.9377
 1813SOL     OW17071   4.181   3.747   6.988 -0.1701  0.3066 -0.3083
 1813SOL    HW117072   4.140   3.818   7.038  0.8545  0.1190  0.7961
 1813SOL    HW217073   4.128   3.670   7.011  0.8751 -0.8654 -1.8943
 1814SOL     OW17074   3.939   2.321   1.145  0.0729 -0.0694 -0.3487
 1814SOL    HW117075   3.952   2.229   1.167  0.9373  0.8824  3.2142
 1814SOL    HW217076   3.947   2.325   1.050 -1.4061  2.2951 -0.3805
 1815SOL     OW17077   0.691   3.473  11.195 -0.0998  0.1766  0.2361
 1815SOL    HW117078   0.738   3.493  11.276 -0.8326 -2.0048  1.1938
 1815SOL    HW217079   0.749   3.404  11.162  0.5523  0.0236  1.7002
 1816SOL     OW17080   4.606   0.756   8.718  0.2295  0.1127 -0.1973
 1816SOL    HW117081   4.621   0.848   8.695 -0.7437  0.0403 -1.0986
 1816SOL    HW217082   4.534   0.769   8.780 -0.2396  0.8825 -0.9064
 1817SOL     OW17083   2.500   3.225   0.604  0.1698 -0.1426  0.1058
 1817SOL    HW117084   2.568   3.160   0.625  1.2232  1.3780  1.3234
 1817SOL    HW217085   2.452   3.174   0.538  0.2338  2.8297 -2.2164
 1818SOL     OW17086   2.880   3.511  10.422 -0.1354 -0.3504  0.4544
 1818SOL    HW117087   2.868   3.508  10.517  1.4216  1.1448  0.6997
 1818SOL    HW217088   2.945   3.442  10.410  2.1206  1.7753  0.4402
 1819SOL     OW17089   4.200   3.226   4.952 -0.0088 -0.5125  0.1683
 1819SOL    HW117090   4.131   3.165   4.926  0.2957  0.1012 -2.0387
 1819SOL    HW217091   4.157   3.266   5.028  0.3871 -3.2639  1.8646
 1820SOL     OW17092   3.920   3.219   2.458 -0.4122  0.9110  0.6037
 1820SOL    HW117093   3.961   3.284   2.514  1.5012 -0.2460  0.5535
 1820SOL    HW217094   3.939   3.134   2.498  0.5346  0.4590 -0.8228
 1821SOL     OW17095   1.950   3.702   4.997  0.4057  0.5629  0.2959
 1821SOL    HW117096   2.023   3.755   5.030  2.1569 -0.9123 -1.2335
 1821SOL    HW217097   1.973   3.624   5.048 -1.4579 -0.2548 -0.1105
 1822SOL     OW17098   3.953   4.051   8.962  0.4089 -0.3825  0.8215
 1822SOL    HW117099   3.940   3.994   8.886  2.9136  1.2271 -0.8156
 1822SOL    HW217100   3.913   3.999   9.032 -0.2991 -1.9535 -0.7364
 1823SOL     OW17101   2.220   1.054   8.093  0.0329 -0.0128  0.0189
 1823SOL    HW117102   2.174   1.130   8.131 -0.2562  0.5184 -1.3782
 1823SOL    HW217103   2.312   1.082   8.094 -0.2231  0.8267  0.4283
 1824SOL     OW17104   0.265   1.248   4.344  0.2223 -0.5413 -0.3772
 1824SOL    HW117105   0.323   1.181   4.308 -0.1037 -2.3147  2.3466
 1824SOL    HW217106   0.330   1.312   4.372 -1.7835  1.8187 -1.0595
 1825SOL     OW17107   4.501   2.976  10.533  0.2467 -0.1158 -0.3116
 1825SOL    HW117108   4.505   3.055  10.587  0.4320 -0.6343  0.4502
 1825SOL    HW217109   4.428   2.928  10.572  0.6278 -0.9586 -0.6178
 1826SOL     OW17110   0.785   2.717   7.381 -0.3839  0.7574  0.2566
 1826SOL    HW117111   0.732   2.701   7.303  0.2351  1.2583 -0.2687
 1826SOL    HW217112   0.777   2.810   7.403 -2.0012  0.5954  0.3539
 1827SOL     OW17113   2.765   1.625   8.934 -0.1165  0.2661 -0.7634
 1827SOL    HW117114   2.784   1.653   8.844  3.7216 -1.3528 -0.4366
 1827SOL    HW217115   2.739   1.708   8.975 -0.0498 -1.3547  2.5362
 1828SOL     OW17116   4.005   1.526   2.141 -0.5648  0.3426 -0.2391
 1828SOL    HW117117   3.928   1.566   2.102 -0.6931  2.0725  1.7906
 1828SOL    HW217118   4.072   1.556   2.081  0.8184  1.7878  2.0321
 1829SOL     OW17119   1.970   0.116  16.401  0.8276  0.4850  0.0263
 1829SOL    HW117120   1.987   0.023  16.410 -1.7708 -0.0470 -0.4088
 1829SOL    HW217121   1.979   0.124  16.306 -2.1542 -1.4375 -0.4222
 1830SOL     OW17122   4.569   4.621   8.547 -0.3634 -0.2027  0.6228
 1830SOL    HW117123   4.631   4.680   8.591  3.5157 -1.4063 -3.1695
 1830SOL    HW217124   4.600   4.625   8.456 -1.6067 -1.2404  0.1678
 1831SOL     OW17125   1.764   2.165   4.638 -0.1703 -0.1430  0.4800
 1831SOL    HW117126   1.697   2.123   4.583  1.1842  0.0698 -1.3327
 1831SOL    HW217127   1.842   2.114   4.618 -1.2857 -1.9990  0.8643
 1832SOL     OW17128   4.042   3.046  12.423 -0.0203 -0.8711  0.5388
 1832SOL    HW117129   4.027   3.014  12.512  0.5825 -0.1625  0.8960
 1832SOL    HW217130   4.136   3.066  12.426 -0.3987  0.8467  1.1745
 1833SOL     OW17131   3.422   4.390   3.345  0.3970 -0.0748 -0.2940
 1833SOL    HW117132   3.507   4.368   3.307  0.0473 -1.9673  0.0482
 1833SOL    HW217133   3.361   4.349   3.283 -0.0406  0.8189 -0.4593
 1834SOL     OW17134   1.316   3.976   1.295  0.1264 -0.5289 -0.6273
 1834SOL    HW117135   1.363   4.037   1.352 -0.1224 -0.9995  0.0767
 1834SOL    HW217136   1.246   3.945   1.352  0.5215 -2.1405 -1.0077
 1835SOL     OW17137   2.521   2.401  12.365  0.1353 -0.0915 -0.1399
 1835SOL    HW117138   2.476   2.317  12.360 -0.7978  0.4286 -0.4465
 1835SOL    HW217139   2.574   2.399  12.285  1.7056 -1.0031  0.9049
 1836SOL     OW17140   2.634   0.534   4.400 -0.1846  0.0354 -0.4127
 1836SOL    HW117141   2.680   0.616   4.419 -0.6418 -0.1531  1.5370
 1836SOL    HW217142   2.615   0.538   4.307 -2.9041  0.2895  0.1502
 1837SOL     OW17143   4.001   1.761   3.882 -0.3385  0.6200 -0.1841
 1837SOL    HW117144   3.994   1.855   3.867  1.6004  0.5978 -1.2545
 1837SOL    HW217145   3.979   1.736   3.793  0.2450 -4.9442  1.2231
 1838SOL     OW17146   3.040   0.296   7.104 -0.3357 -0.1078 -0.0988
 1838SOL    HW117147   3.026   0.254   7.189  1.9490 -0.3297  0.1717
 1838SOL    HW217148   2.980   0.370   7.105  0.3324  0.4075  2.6899
 1839SOL     OW17149   1.998   3.994   1.366  0.0403  0.0692 -0.0013
 1839SOL    HW117150   1.947   4.024   1.291 -0.0204  1.1908  0.4779
 1839SOL    HW217151   1.943   3.923   1.400 -0.7617  0.7692  0.1766
 1840SOL     OW17152   0.874   2.368   3.579  0.4199 -0.0333  0.1661
 1840SOL    HW117153   0.802   2.309   3.602 -0.6844  0.5247 -1.8482
 1840SOL    HW217154   0.827   2.446   3.550 -2.1898 -1.2802  0.9766
 1841SOL     OW17155   3.597   4.411   5.177 -0.1092 -0.0528 -0.0910
 1841SOL    HW117156   3.550   4.465   5.241 -0.8425  0.3101 -0.9390
 1841SOL    HW217157   3.582   4.474   5.106 -0.6364  1.9146  1.7764
 1842SOL     OW17158   4.353   4.532  17.127  0.2777  0.0551 -0.3620
 1842SOL    HW117159   4.269   4.507  17.166 -0.3914 -0.6896 -2.2920
 1842SOL    HW217160   4.349   4.627  17.137  0.7628 -0.0423  0.7742
 1843SOL     OW17161   2.400   0.636  16.471 -0.1357  0.4596  0.0466
 1843SOL    HW117162   2.415   0.730  16.459 -1.0313  0.4469 -1.2128
 1843SOL    HW217163   2.375   0.621  16.562 -1.6691 -1.1091 -0.6423
 1844SOL     OW17164   2.920   2.403  16.766 -0.5812  0.0638 -0.6196
 1844SOL    HW117165   2.844   2.345  16.764 -0.9612  0.5791 -1.0302
 1844SOL    HW217166   2.959   2.375  16.848  0.5194 -0.4177 -1.3063
 1845SOL     OW17167   0.383   4.396   5.909  0.1582  0.0529 -0.2128
 1845SOL    HW117168   0.382   4.454   5.833 -2.7273  0.5091  0.1795
 1845SOL    HW217169   0.477   4.394   5.931 -0.0641  0.9138  0.8645
 1846SOL     OW17170   2.424   0.049   6.594  0.7890  0.1169  0.5288
 1846SOL    HW117171   2.467   0.006   6.668  1.1030  1.1113  0.9254
 1846SOL    HW217172   2.502   0.092   6.559  1.6586 -0.7327  1.4102
 1847SOL     OW17173   4.228   3.560   6.304 -0.3091 -0.1602  0.0676
 1847SOL    HW117174   4.246   3.626   6.237  1.1178 -0.2033  0.4037
 1847SOL    HW217175   4.251   3.608   6.383 -1.6885  0.2001  0.2487
 1848SOL     OW17176   0.647   1.007   6.704 -0.0350 -0.0696  0.6887
 1848SOL    HW117177   0.643   0.913   6.725 -0.5940 -0.5686 -1.6674
 1848SOL    HW217178   0.732   0.996   6.660  0.0994  2.9475  0.2198
 1849SOL     OW17179   0.072   2.819   1.079  0.8476 -0.1991 -0.2759
 1849SOL    HW117180   0.057   2.746   1.139 -1.9785  0.3509 -0.2842
 1849SOL    HW217181   0.014   2.801   1.005  2.2372 -1.6434 -1.0092
 1850SOL     OW17182   0.258   0.768  13.262  0.0454  0.4590  0.0155
 1850SOL    HW117183   0.231   0.677  13.250  0.1933  0.5143 -0.6996
 1850SOL    HW217184   0.312   0.765  13.183  1.5434 -1.1314  1.1015
 1851SOL     OW17185   3.298   4.242  15.854 -0.5182 -0.3850  0.4684
 1851SOL    HW117186   3.240   4.247  15.930 -0.6475  0.5995  0.3121
 1851SOL    HW217187   3.276   4.324  15.809  3.8122  1.9348  2.5432
 1852SOL     OW17188   0.748   2.825   5.250  0.5201  0.0938 -0.1016
 1852SOL    HW117189   0.826   2.790   5.207  0.3279 -0.4005 -0.0383
 1852SOL    HW217190   0.692   2.821   5.172 -0.9322  0.6728  0.9261
 1853SOL     OW17191   3.733   0.927  15.214  0.2029 -0.0525  0.2798
 1853SOL    HW117192   3.655   0.872  15.215  0.9043 -1.0780 -0.9620
 1853SOL    HW217193   3.693   0.999  15.165  1.7078  0.9044  0.4697
 1854SOL     OW17194   2.904   0.247   6.342 -0.3696 -0.1274  0.4802
 1854SOL    HW117195   2.987   0.216   6.376 -0.4961 -0.4326  0.5108
 1854SOL    HW217196   2.855   0.167   6.360  1.8534 -1.4071  0.8155
 1855SOL     OW17197   2.260   0.021   8.115 -0.5319  0.1873  0.0490
 1855SOL    HW117198   2.297   0.055   8.197  0.1975 -1.3767  0.3647
 1855SOL    HW217199   2.306   4.679   8.107  0.4029  1.0077 -2.9057
 1856SOL     OW17200   3.337   1.236   4.043 -0.2997 -0.2981  0.6740
 1856SOL    HW117201   3.413   1.186   4.012 -1.6456 -1.3642 -0.9483
 1856SOL    HW217202   3.372   1.310   4.092 -0.6918  1.3786 -1.5727
 1857SOL     OW17203   4.117   3.883   2.734 -0.6174  0.9919 -0.1348
 1857SOL    HW117204   4.043   3.839   2.693 -0.4068  0.1319  0.4249
 1857SOL    HW217205   4.156   3.812   2.785 -0.7012  0.1778 -1.2166
 1858SOL     OW17206   0.036   2.271   5.492  0.7489  0.5286 -0.3368
 1858SOL    HW117207   0.091   2.295   5.417  1.6808 -1.1768 -0.1999
 1858SOL    HW217208   0.023   2.179   5.471 -0.4883  0.8758 -1.1124
 1859SOL     OW17209   4.215   3.847   5.046 -0.4051  0.4020 -0.0821
 1859SOL    HW117210   4.222   3.765   5.095 -0.9205  0.9414  0.8984
 1859SOL    HW217211   4.189   3.813   4.961 -0.1779  1.3779 -0.5439
 1860SOL     OW17212   4.205   0.124   7.421 -0.5357 -0.4838  0.1233
 1860SOL    HW117213   4.152   0.141   7.499 -0.4167 -0.9796  0.3136
 1860SOL    HW217214   4.275   0.075   7.465 -2.0687 -2.0935  0.7683
 1861SOL     OW17215   2.255   1.632  15.261  0.0892 -0.0480  0.2145
 1861SOL    HW117216   2.264   1.695  15.189  2.0325 -0.6778 -0.1066
 1861SOL    HW217217   2.345   1.603  15.274  0.2718 -0.0779 -1.0870
 1862SOL     OW17218   3.715   1.091   3.119  0.3560  0.6714  0.6650
 1862SOL    HW117219   3.701   0.997   3.114  0.2714  0.8280 -1.9239
 1862SOL    HW217220   3.783   1.099   3.052  0.2013  1.2352  0.5757
 1863SOL     OW17221   0.066   3.830  16.522  0.4055  0.0520  0.3965
 1863SOL    HW117222   0.029   3.748  16.555 -2.6422  0.2961 -2.4638
 1863SOL    HW217223   0.084   3.809  16.430  0.8402  0.9649  0.2770
 1864SOL     OW17224   1.727   1.442   4.920 -0.1772 -0.2164 -0.5444
 1864SOL    HW117225   1.679   1.400   4.992 -2.7319 -1.7263 -3.1110
 1864SOL    HW217226   1.803   1.484   4.958 -1.0066 -0.3095  1.2071
 1865SOL     OW17227   4.113   0.949   4.554  0.4320 -0.5308 -0.5690
 1865SOL    HW117228   4.154   0.869   4.519  4.1158  2.3694 -2.8467
 1865SOL    HW217229   4.189   0.963   4.609 -0.5302 -1.1145  0.9027
 1866SOL     OW17230   1.628   4.337   4.381 -0.0169  0.0701  0.1754
 1866SOL    HW117231   1.662   4.248   4.390 -0.9810 -0.2423  0.7909
 1866SOL    HW217232   1.612   4.345   4.287  1.2647 -0.7446 -0.0996
 1867SOL     OW17233   2.406   4.415  11.438 -0.2654  0.7190 -0.0266
 1867SOL    HW117234   2.363   4.330  11.433 -1.8835  1.5373 -0.1474
 1867SOL    HW217235   2.454   4.401  11.520  0.0829 -0.2117 -0.3966
 1868SOL     OW17236   1.605   4.677   9.797 -0.2956  0.0498 -0.4657
 1868SOL    HW117237   1.609   0.014   9.851 -0.8663  0.1748 -0.6103
 1868SOL    HW217238   1.674   4.627   9.842 -3.3370 -1.8661  2.0251
 1869SOL     OW17239   0.800   4.659   1.590 -0.1573 -0.2785 -0.0825
 1869SOL    HW117240   0.894   4.658   1.609  0.1563  2.4285 -1.4840
 1869SOL    HW217241   0.803   4.693   1.501 -2.1939 -1.0470 -0.4467
 1870SOL     OW17242   3.592   1.467   7.313 -0.3529 -0.4287  0.3342
 1870SOL    HW117243   3.673   1.471   7.262  1.1680 -1.3581  2.6620
 1870SOL    HW217244   3.606   1.396   7.377  1.9839 -0.5499 -0.3001
 1871SOL     OW17245   1.548   1.992  10.596  0.2147  0.2098 -0.2053
 1871SOL    HW117246   1.503   1.977  10.680 -0.1203 -1.6689 -0.7202
 1871SOL    HW217247   1.606   1.916  10.596 -0.0642 -0.0084 -0.1310
 1872SOL     OW17248   0.421   0.074   6.026 -0.4380 -0.0249 -0.6608
 1872SOL    HW117249   0.470   0.147   5.988 -0.0888  0.0699 -0.0191
 1872SOL    HW217250   0.349   0.066   5.963 -0.1616 -3.1024 -0.5641
 1873SOL     OW17251   3.214   0.834   6.200 -0.0089 -0.2035 -0.0544
 1873SOL    HW117252   3.306   0.832   6.227 -0.0060  2.8920  0.1652
 1873SOL    HW217253   3.188   0.747   6.230  0.2554 -0.5688 -0.8861
 1874SOL     OW17254   3.180   0.630   1.838  0.5975 -0.1504 -0.6367
 1874SOL    HW117255   3.146   0.543   1.858  2.1171 -0.1975  1.7377
 1874SOL    HW217256   3.122   0.693   1.880  1.6619  0.6662 -0.3922
 1875SOL     OW17257   3.196   0.690  14.564  0.0167  0.7699 -0.5812
 1875SOL    HW117258   3.138   0.726  14.631  3.0942  2.3941  1.2026
 1875SOL    HW217259   3.177   0.597  14.571  0.0788  0.8419  0.4970
 1876SOL     OW17260   4.009   1.757   6.823 -0.0193  0.4587 -0.0980
 1876SOL    HW117261   3.925   1.802   6.835  0.2280  0.7146  0.6614
 1876SOL    HW217262   4.053   1.763   6.907 -0.1948  0.8936 -0.0368
 1877SOL     OW17263   4.591   2.417   9.073  0.1910  0.1516  0.2038
 1877SOL    HW117264   4.615   2.500   9.115  0.4074  0.4997 -0.6126
 1877SOL    HW217265   4.649   2.422   8.997  0.7456 -0.8087  0.5520
 1878SOL     OW17266   0.098   4.090  12.975  0.8147  0.1950  0.3126
 1878SOL    HW117267   0.158   4.125  12.910  0.8768  1.6643  1.1667
 1878SOL    HW217268   0.146   4.022  13.022  0.5730 -1.5768 -1.9598
 1879SOL     OW17269   0.467   2.504   7.061 -0.6650  0.7637  0.3337
 1879SOL    HW117270   0.401   2.565   7.094 -0.5085  1.5838 -0.8780
 1879SOL    HW217271   0.542   2.521   7.118 -0.8568  0.5052  0.6614
 1880SOL     OW17272   3.360   3.466  11.507 -0.8411  0.3578  0.2752
 1880SOL    HW117273   3.264   3.464  11.512 -0.8169 -1.1366  0.1238
 1880SOL    HW217274   3.390   3.419  11.585 -1.4287  1.4924  1.1885
 1881SOL     OW17275   2.031   3.682   8.776 -0.0446 -0.1946  0.6191
 1881SOL    HW117276   2.111   3.647   8.735 -1.2583 -1.7600 -0.3833
 1881SOL    HW217277   1.979   3.604   8.793 -0.1055 -0.2266  0.2983
 1882SOL     OW17278   0.459   1.162  12.770  0.1935 -0.2684 -0.0631
 1882SOL    HW117279   0.453   1.156  12.674 -0.7351 -1.2153  0.0560
 1882SOL    HW217280   0.491   1.252  12.777  0.1744 -0.3554  1.1472
 1883SOL     OW17281   4.639   3.093   4.558  0.0436 -0.4043  0.2214
 1883SOL    HW117282   4.605   3.173   4.519  1.0577  0.4151  1.0324
 1883SOL    HW217283   4.572   3.075   4.624 -1.0234  0.4005 -0.6373
 1884SOL     OW17284   2.337   1.564   5.587  0.1390 -0.1396 -0.0208
 1884SOL    HW117285   2.421   1.520   5.570  0.6215  0.2506  1.3419
 1884SOL    HW217286   2.367   1.629   5.651  2.0784 -0.2435 -0.8173
 1885SOL     OW17287   2.792   2.348   3.625  0.0835  0.1671  0.3707
 1885SOL    HW117288   2.848   2.403   3.570  1.0604  0.2391  1.4399
 1885SOL    HW217289   2.713   2.401   3.625 -0.4567 -0.6323  0.7358
 1886SOL     OW17290   1.252   2.364   6.651 -0.4529 -0.1040  0.4568
 1886SOL    HW117291   1.268   2.458   6.659  1.8144 -0.5380  0.9423
 1886SOL    HW217292   1.329   2.341   6.703  0.0287 -2.1316 -1.1544
 1887SOL     OW17293   4.510   2.322   3.709  0.0661  0.0389 -0.2185
 1887SOL    HW117294   4.523   2.326   3.804 -1.4902  0.4819 -0.0256
 1887SOL    HW217295   4.581   2.378   3.676  2.2641 -3.0415 -0.7002
 1888SOL     OW17296   0.294   4.577   3.024  0.0611 -0.2045 -0.1406
 1888SOL    HW117297   0.387   4.597   3.013  0.3769 -2.1697 -1.1226
 1888SOL    HW217298   0.271   4.530   2.944  0.6083  1.1378 -1.0845
 1889SOL     OW17299   0.278   2.866   7.014  0.3411 -0.2936  0.0832
 1889SOL    HW117300   0.223   2.890   6.939  0.7224  1.4130  0.3476
 1889SOL    HW217301   0.358   2.846   6.967 -0.2776  1.1257 -1.5992
 1890SOL     OW17302   3.151   0.225   9.976  0.0668  0.3902  0.0329
 1890SOL    HW117303   3.085   0.284   9.939  1.2037  1.4121 -0.3658
 1890SOL    HW217304   3.239   0.262   9.983  0.0334 -0.0058  2.3907
 1891SOL     OW17305   4.503   1.023   4.844 -0.0248 -0.4101  0.3851
 1891SOL    HW117306   4.536   1.091   4.786  0.6854 -1.3343 -0.2982
 1891SOL    HW217307   4.464   0.966   4.778  0.0319 -1.2525  1.0822
 1892SOL     OW17308   4.708   3.153   5.094 -0.2978 -0.3368  0.2872
 1892SOL    HW117309   4.698   3.113   5.008 -2.9205 -0.6128  0.7153
 1892SOL    HW217310   0.016   3.232   5.073 -1.6074  0.4294  0.1433
 1893SOL     OW17311   1.523   3.326   4.280  0.3478  0.0942  0.2421
 1893SOL    HW117312   1.538   3.276   4.200 -2.3690  1.5389 -1.1722
 1893SOL    HW217313   1.594   3.290   4.333 -0.9552 -1.5929  0.8300
 1894SOL     OW17314   3.235   4.006   1.205 -0.1834 -0.3487  0.1641
 1894SOL    HW117315   3.187   4.053   1.137 -2.8379 -2.3024  0.6691
 1894SOL    HW217316   3.162   3.971   1.257 -0.5239 -0.9113 -0.7016
 1895SOL     OW17317   4.094   0.541   6.869 -0.2188 -0.6051 -0.0611
 1895SOL    HW117318   4.130   0.459   6.837  3.4573  1.7232 -1.9013
 1895SOL    HW217319   4.043   0.575   6.795  2.5129  0.1843 -1.5474
 1896SOL     OW17320   3.477   4.724   3.642  0.2090 -0.3026 -0.2181
 1896SOL    HW117321   3.563   4.689   3.619 -0.0459 -0.5855 -0.7223
 1896SOL    HW217322   3.419   4.679   3.581  1.2810 -0.4114 -1.1408
 1897SOL     OW17323   1.792   0.844   5.801  0.1708  0.3213 -0.1651
 1897SOL    HW117324   1.733   0.847   5.725 -0.1539 -1.1268  0.0293
 1897SOL    HW217325   1.740   0.882   5.872  1.8820  0.8624  0.7812
 1898SOL     OW17326   0.804   2.980   8.088  0.0173 -0.5978  0.0800
 1898SOL    HW117327   0.756   3.052   8.047 -0.5139 -2.5379 -2.7025
 1898SOL    HW217328   0.821   3.020   8.173  2.1434 -0.0067 -0.6396
 1899SOL     OW17329   1.293   3.970   3.966  0.0991  0.3396 -0.3492
 1899SOL    HW117330   1.359   4.028   3.927  0.6057  0.0220  0.0333
 1899SOL    HW217331   1.235   4.044   3.980 -1.9446 -0.9929 -1.8283
 1900SOL     OW17332   4.214   2.070  14.209 -0.3414 -0.1582 -0.1068
 1900SOL    HW117333   4.183   1.982  14.188  0.1311 -0.6176  1.0856
 1900SOL    HW217334   4.292   2.044  14.258  0.4723  4.2518  0.9178
 1901SOL     OW17335   2.122   2.564   3.141  0.1656 -0.0065 -0.1363
 1901SOL    HW117336   2.141   2.654   3.167  0.1972  0.3621 -1.4650
 1901SOL    HW217337   2.037   2.581   3.101 -0.8175 -0.6978  1.6638
 1902SOL     OW17338   0.691   3.802   8.033  0.3704 -0.3174  0.5256
 1902SOL    HW117339   0.681   3.716   7.993  0.8602  0.4795 -1.3207
 1902SOL    HW217340   0.772   3.829   7.991 -0.8955  1.9365 -0.4948
 1903SOL     OW17341   2.274   4.084  17.397  0.2756 -0.0391  0.2694
 1903SOL    HW117342   2.329   4.161  17.414  0.3420  0.2178 -1.0767
 1903SOL    HW217343   2.329   4.018  17.439  0.6932  0.1679  0.0428
 1904SOL     OW17344   4.550   0.987   9.286 -0.9447 -0.6981 -0.1213
 1904SOL    HW117345   4.485   0.979   9.356 -1.1297  0.3499 -0.1729
 1904SOL    HW217346   4.589   0.900   9.285  1.7206  0.5067 -1.7856
 1905SOL     OW17347   4.222   3.868   6.712  0.5450 -0.2957  0.1214
 1905SOL    HW117348   4.196   3.806   6.781 -3.2073  1.2867  0.1724
 1905SOL    HW217349   4.226   3.952   6.758 -0.3097 -1.0997  1.6844
 1906SOL     OW17350   3.998   3.498   8.575 -0.3783 -0.4137  0.5805
 1906SOL    HW117351   3.935   3.489   8.646  1.5985  0.5591  2.4445
 1906SOL    HW217352   3.994   3.410   8.539  0.5189 -0.1644 -0.1391
 1907SOL     OW17353   1.056   1.149   2.011  0.1044  1.0780 -0.0092
 1907SOL    HW117354   1.098   1.123   1.929 -0.8052 -0.9084  0.1345
 1907SOL    HW217355   1.124   1.114   2.069 -0.6832  0.6126  0.6397
 1908SOL     OW17356   1.905   0.914   7.607  0.5826  0.3917 -0.3304
 1908SOL    HW117357   1.957   0.955   7.676  1.5067 -2.8408  0.9038
 1908SOL    HW217358   1.868   0.835   7.647  2.6032 -0.3436  0.0797
 1909SOL     OW17359   3.939   0.713   8.825 -0.2848  0.4201 -0.0871
 1909SOL    HW117360   3.916   0.720   8.918 -1.7774 -0.0547 -0.4169
 1909SOL    HW217361   4.004   0.643   8.828 -2.0878 -1.2691 -0.8825
 1910SOL     OW17362   0.434   2.921   4.118  0.3583  0.1828 -0.2612
 1910SOL    HW117363   0.354   2.878   4.148 -1.6279  0.6847 -4.8675
 1910SOL    HW217364   0.499   2.855   4.140  0.1524 -0.1923 -0.7838
 1911SOL     OW17365   0.171   1.693   3.470 -0.0514  0.5223 -0.0622
 1911SOL    HW117366   0.095   1.652   3.510 -1.1555  1.6816 -0.9557
 1911SOL    HW217367   0.237   1.627   3.451 -0.9299 -0.6110  0.8298
 1912SOL     OW17368   1.218   1.593   6.956 -0.0334  0.1921  0.2994
 1912SOL    HW117369   1.165   1.668   6.984  1.0143  0.1379  2.4649
 1912SOL    HW217370   1.265   1.634   6.884 -0.5553  0.4444  0.1028
 1913SOL     OW17371   2.997   0.179  17.184  0.7138  0.2955 -0.5641
 1913SOL    HW117372   3.032   0.151  17.268 -3.1929 -1.3002  0.5024
 1913SOL    HW217373   3.058   0.250  17.164  1.4737 -0.6258 -1.5492
 1914SOL     OW17374   2.060   4.427   5.926 -0.3526 -0.4001  0.1189
 1914SOL    HW117375   2.030   4.404   6.013 -0.3062 -0.6665  0.0643
 1914SOL    HW217376   1.976   4.455   5.891  1.2573  0.4452 -3.1300
 1915SOL     OW17377   3.875   2.990   7.225  0.0225  0.0102  0.3667
 1915SOL    HW117378   3.950   3.011   7.169 -0.2324  0.1579  0.0771
 1915SOL    HW217379   3.917   3.029   7.301 -1.9327  0.2021  1.3702
 1916SOL     OW17380   0.401   3.874   9.847  0.0010 -0.4688  0.0546
 1916SOL    HW117381   0.366   3.860   9.759 -1.6786  0.1486  0.6247
 1916SOL    HW217382   0.324   3.849   9.898  0.5388 -0.4263  0.8944
 1917SOL     OW17383   1.666   3.176  17.129 -0.5692 -0.1501  0.0159
 1917SOL    HW117384   1.587   3.146  17.083  0.7570 -0.6643 -1.9459
 1917SOL    HW217385   1.663   3.271  17.120  0.7580  0.0237  1.3443
 1918SOL     OW17386   2.464   2.618   4.077  0.2199 -0.4762 -0.7580
 1918SOL    HW117387   2.506   2.705   4.073 -2.6145  0.8255 -1.9845
 1918SOL    HW217388   2.379   2.653   4.049  0.3028  0.7366  0.5076
 1919SOL     OW17389   3.674   4.150   3.526 -0.1995  0.0031 -0.3289
 1919SOL    HW117390   3.606   4.217   3.518  0.4556  0.6351 -0.6232
 1919SOL    HW217391   3.636   4.092   3.591 -0.6828  2.4698  1.5931
 1920SOL     OW17392   1.346   3.435   9.568 -0.0898  0.3237 -0.4249
 1920SOL    HW117393   1.289   3.392   9.503 -0.8207  0.6771 -0.0227
 1920SOL    HW217394   1.406   3.364   9.592 -0.7137 -0.8571 -2.3261
 1921SOL     OW17395   0.123   1.017  14.670  0.4389 -0.2212 -0.2083
 1921SOL    HW117396   0.181   1.029  14.745 -1.4608 -0.9414  1.3815
 1921SOL    HW217397   0.182   1.047  14.601 -1.3647 -0.3228 -1.7912
 1922SOL     OW17398   1.261   0.518  14.857  0.6781 -0.4513  0.0264
 1922SOL    HW117399   1.247   0.425  14.841 -4.5635  0.6707 -1.7159
 1922SOL    HW217400   1.270   0.526  14.952  0.1619 -0.8687  0.1084
 1923SOL     OW17401   2.034   3.973   5.293 -0.1036  0.3019 -0.2865
 1923SOL    HW117402   2.027   3.878   5.300 -0.3634  0.1108 -3.1011
 1923SOL    HW217403   1.970   4.008   5.355 -0.9713 -0.7158 -0.6121
 1924SOL     OW17404   0.493   0.365  10.943 -0.1581 -0.3543  0.6096
 1924SOL    HW117405   0.445   0.444  10.968  1.3945  0.7499  0.0803
 1924SOL    HW217406   0.584   0.389  10.957 -0.0101  0.4185 -1.6907
 1925SOL     OW17407   3.129   3.145   3.044  0.2548  0.5549 -0.3928
 1925SOL    HW117408   3.041   3.174   3.066 -0.0760 -1.5279  1.0422
 1925SOL    HW217409   3.131   3.202   2.967  1.4944  1.7995  0.5580
 1926SOL     OW17410   3.723   2.218  12.921 -0.9220 -0.0428  0.2634
 1926SOL    HW117411   3.647   2.258  12.879 -1.4366 -1.3103 -0.0299
 1926SOL    HW217412   3.704   2.131  12.885 -0.6368 -0.8778  2.1579
 1927SOL     OW17413   0.705   4.406  12.120  0.3851  0.4607 -0.1466
 1927SOL    HW117414   0.645   4.470  12.157 -0.6953  0.7623 -2.3683
 1927SOL    HW217415   0.764   4.467  12.074  1.3810  0.7014  1.4698
 1928SOL     OW17416   3.548   1.822   2.575 -0.5133  0.3675  0.3527
 1928SOL    HW117417   3.539   1.731   2.548 -1.7298  0.6170 -0.1084
 1928SOL    HW217418   3.628   1.849   2.531 -2.3971  3.8634 -1.0177
 1929SOL     OW17419   3.464   3.733  13.907  0.2051  0.0454 -0.4022
 1929SOL    HW117420   3.517   3.687  13.842  2.0567  1.6504  0.0089
 1929SOL    HW217421   3.506   3.815  13.932  0.6593 -0.4189  0.3771
 1930SOL     OW17422   4.239   4.306   6.199  0.3274 -0.0107  0.4094
 1930SOL    HW117423   4.304   4.268   6.258 -0.5673 -0.7464  0.9072
 1930SOL    HW217424   4.289   4.385   6.177 -0.6145  0.8537  1.4094
 1931SOL     OW17425   1.092   4.157   4.006  0.0381  0.2113  0.4045
 1931SOL    HW117426   1.042   4.120   4.079  1.5684 -2.5163  0.0619
 1931SOL    HW217427   1.137   4.237   4.035 -0.0198  0.3235  0.1791
 1932SOL     OW17428   3.357   2.866   2.662  0.5013  0.2151  0.0372
 1932SOL    HW117429   3.441   2.911   2.669  0.3090  0.3458  1.5308
 1932SOL    HW217430   3.347   2.870   2.567 -1.0805  0.3892  0.2069
 1933SOL     OW17431   1.906   1.876   8.309 -0.1549  0.1715  0.2358
 1933SOL    HW117432   1.923   1.940   8.240 -0.9960  1.0222  0.8057
 1933SOL    HW217433   1.862   1.936   8.371 -1.5254  2.7081 -3.1681
 1934SOL     OW17434   2.613   1.606   2.356  0.0377 -0.6211 -0.2219
 1934SOL    HW117435   2.599   1.692   2.396  1.3178  0.1863 -1.4637
 1934SOL    HW217436   2.536   1.556   2.383  0.5170 -0.4554  1.4157
 1935SOL     OW17437   2.563   4.373  12.918  0.0067  0.1799  0.0849
 1935SOL    HW117438   2.643   4.339  12.959 -0.0773  0.7867  0.7479
 1935SOL    HW217439   2.552   4.458  12.960 -0.5732  0.2914 -0.3003
 1936SOL     OW17440   4.014   2.915   9.516 -0.1586  0.6404 -0.6412
 1936SOL    HW117441   3.970   2.986   9.562  0.0564  0.7683 -0.6320
 1936SOL    HW217442   4.096   2.908   9.565 -0.0737  0.8472 -0.7521
 1937SOL     OW17443   4.081   1.068   9.412  0.2647  0.9029 -0.3373
 1937SOL    HW117444   4.176   1.075   9.421  0.5458 -0.3104 -2.2178
 1937SOL    HW217445   4.076   0.998   9.347  0.0095  2.9990 -2.6320
 1938SOL     OW17446   3.296   3.414  12.303 -0.6612  0.4264 -0.2729
 1938SOL    HW117447   3.320   3.375  12.218  0.0840  1.1424 -0.3956
 1938SOL    HW217448   3.201   3.420  12.298 -0.6914  0.3661  0.2466
 1939SOL     OW17449   3.044   3.299   5.904  0.4455  0.0893  0.2453
 1939SOL    HW117450   2.992   3.313   5.825  2.5619 -0.8928 -1.2994
 1939SOL    HW217451   3.134   3.288   5.875  0.3805  0.7418 -0.2027
 1940SOL     OW17452   1.302   3.909   0.843  0.8523 -0.2392  0.0433
 1940SOL    HW117453   1.379   3.936   0.892 -1.0028  1.2703  2.1006
 1940SOL    HW217454   1.241   3.882   0.912  1.9258  1.1430  1.5242
 1941SOL     OW17455   4.347   2.087   8.781  0.4453 -0.2224  0.4116
 1941SOL    HW117456   4.441   2.102   8.770  0.0182  1.2868 -1.0322
 1941SOL    HW217457   4.358   1.994   8.801 -0.1226 -0.2182  0.7283
 1942SOL     OW17458   3.207   3.271   9.281 -0.3234 -0.5332  0.3985
 1942SOL    HW117459   3.220   3.214   9.357  0.6141 -2.8369 -1.4688
 1942SOL    HW217460   3.289   3.321   9.284  0.8761 -2.3871 -1.3009
 1943SOL     OW17461   3.095   2.175   7.311  0.1587  0.2295  0.9115
 1943SOL    HW117462   3.039   2.152   7.385  1.5847 -2.9209  0.9935
 1943SOL    HW217463   3.147   2.100   7.283  0.5839  0.7172  0.3913
 1944SOL     OW17464   2.838   2.229   3.009 -0.2736  1.3101 -0.0987
 1944SOL    HW117465   2.882   2.287   3.071  0.7405 -0.3724  0.7531
 1944SOL    HW217466   2.833   2.153   3.068 -1.5527  2.3321  1.1120
 1945SOL     OW17467   3.846   3.502   3.960 -0.3763  0.4898  0.1505
 1945SOL    HW117468   3.921   3.549   3.996  0.2116 -1.4787  1.4764
 1945SOL    HW217469   3.771   3.550   3.993  0.7040  0.4527  2.6098
 1946SOL     OW17470   4.501   3.295   5.190 -0.1027 -0.1617  0.4583
 1946SOL    HW117471   4.568   3.243   5.145  0.3498  1.7327 -1.0462
 1946SOL    HW217472   4.557   3.366   5.222  0.7675  0.4924 -2.5524
 1947SOL     OW17473   4.689   3.064   1.677  0.2915  0.2962 -0.1243
 1947SOL    HW117474   4.730   3.134   1.729  0.9221 -2.1474  2.6671
 1947SOL    HW217475   0.001   3.000   1.725 -1.1402  1.2201  2.7447
 1948SOL     OW17476   3.323   2.294   2.100 -0.3201 -0.0405 -0.1039
 1948SOL    HW117477   3.396   2.317   2.042  0.2695 -1.2357  0.1643
 1948SOL    HW217478   3.301   2.202   2.087 -1.0471  0.2501 -0.9439
 1949SOL     OW17479   0.149   3.857   4.816  0.0561  0.8021 -0.2395
 1949SOL    HW117480   0.165   3.774   4.769 -0.4021  0.2120  0.6487
 1949SOL    HW217481   0.160   3.916   4.742  1.6891  0.5762 -0.1934
 1950SOL     OW17482   0.281   0.894   2.670  0.7860  0.2110  0.0451
 1950SOL    HW117483   0.211   0.946   2.630 -1.0693 -2.4577 -0.1428
 1950SOL    HW217484   0.264   0.804   2.644 -1.8671  0.6819  0.1847
 1951SOL     OW17485   0.427   4.694  11.564  0.1226 -0.1575 -0.2737
 1951SOL    HW117486   0.522   4.689  11.556  0.2801  2.1912  0.0196
 1951SOL    HW217487   0.412   4.629  11.632 -1.1218 -0.4048 -0.7834
 1952SOL     OW17488   0.187   2.747   4.120 -0.0693 -0.1108 -0.8567
 1952SOL    HW117489   0.200   2.708   4.207  1.7577  1.6072 -0.3733
 1952SOL    HW217490   0.158   2.830   4.157 -1.9141 -0.0181 -2.5039
 1953SOL     OW17491   0.781   4.575   3.500 -0.0053 -0.2674 -0.2184
 1953SOL    HW117492   0.805   4.668   3.508  0.6974 -0.7601  3.5694
 1953SOL    HW217493   0.697   4.595   3.458  0.3515  0.8350 -0.4118
 1954SOL     OW17494   3.773   3.060  12.002 -0.0656 -0.8802  0.0606
 1954SOL    HW117495   3.858   3.062  12.047  0.2344 -0.1530 -0.5400
 1954SOL    HW217496   3.793   2.982  11.952  0.7266 -0.2609 -0.6018
 1955SOL     OW17497   2.083   3.567  16.658  0.2914 -0.2550 -0.4518
 1955SOL    HW117498   1.994   3.596  16.640  1.0892  1.0026 -2.3674
 1955SOL    HW217499   2.119   3.644  16.614 -2.1984  0.0627 -1.9302
 1956SOL     OW17500   2.467   3.085   3.618  0.4129  0.4865 -0.1627
 1956SOL    HW117501   2.535   3.095   3.686  0.0725 -0.5586  0.3172
 1956SOL    HW217502   2.525   3.053   3.549 -0.3074  0.1605 -0.6085
 1957SOL     OW17503   4.166   2.168   5.346 -0.1805  0.0069 -0.2669
 1957SOL    HW117504   4.192   2.156   5.255 -0.3441  0.7273 -0.4153
 1957SOL    HW217505   4.103   2.240   5.348 -0.7727 -0.5413  0.8080
 1958SOL     OW17506   2.061   3.289   4.661 -0.2592 -0.6024 -0.0112
 1958SOL    HW117507   2.040   3.286   4.754  0.6856 -1.5963  0.1674
 1958SOL    HW217508   2.125   3.218   4.667 -0.7965 -1.1007 -0.1174
 1959SOL     OW17509   1.989   3.958  11.840  0.3694 -0.1863  0.0350
 1959SOL    HW117510   2.051   3.931  11.908 -0.2999  1.3221  1.2418
 1959SOL    HW217511   1.915   3.962  11.901 -1.8656  0.1390 -2.6842
 1960SOL     OW17512   4.303   2.345   4.532  0.0523  0.1556 -0.2583
 1960SOL    HW117513   4.389   2.366   4.495  0.7638  0.6183  1.7031
 1960SOL    HW217514   4.324   2.287   4.605 -0.9647 -0.0723 -0.1448
 1961SOL     OW17515   2.043   3.121  10.926 -0.6488 -0.0896 -0.5949
 1961SOL    HW117516   2.092   3.200  10.953  1.5452 -1.8984  0.7330
 1961SOL    HW217517   1.961   3.156  10.893 -0.4108  0.4890 -0.5776
 1962SOL     OW17518   1.459   3.288   3.731  0.2616 -0.0142  0.1866
 1962SOL    HW117519   1.549   3.312   3.710  0.2997 -2.3335 -2.2100
 1962SOL    HW217520   1.444   3.211   3.676  1.8812 -1.3258  1.5885
 1963SOL     OW17521   1.770   3.211  11.378 -0.1587 -0.6320  0.5807
 1963SOL    HW117522   1.801   3.154  11.307 -0.9220 -0.0636 -0.2116
 1963SOL    HW217523   1.821   3.292  11.380 -2.6083  0.8733  1.5679
 1964SOL     OW17524   2.340   3.110   6.969 -0.1311 -0.1104 -0.0463
 1964SOL    HW117525   2.264   3.052   6.973  0.9462 -1.5210  0.2202
 1964SOL    HW217526   2.368   3.120   7.060  2.1037  1.3634 -0.9095
 1965SOL     OW17527   0.971   1.931   4.118  0.3494  0.3974 -0.6596
 1965SOL    HW117528   1.044   1.958   4.174 -0.9286 -1.3136  1.8487
 1965SOL    HW217529   0.914   2.007   4.125 -0.6783 -0.4411  0.1359
 1966SOL     OW17530   0.623   0.658  10.861  0.4563 -0.1180 -1.0430
 1966SOL    HW117531   0.532   0.679  10.882  0.1634 -2.4367  0.0617
 1966SOL    HW217532   0.661   0.686  10.944 -0.1156  0.9295 -1.1405
 1967SOL     OW17533   2.918   1.791   2.034 -0.4069 -0.2607 -0.4745
 1967SOL    HW117534   2.976   1.721   2.004  2.7056  1.3327  1.8315
 1967SOL    HW217535   2.834   1.750   2.012 -0.3606 -0.7521  0.2567
 1968SOL     OW17536   2.833   3.884   4.036  0.7339 -0.4302  0.7782
 1968SOL    HW117537   2.783   3.938   4.097 -0.7188 -0.1722 -0.6388
 1968SOL    HW217538   2.762   3.826   4.009 -0.8885  2.2813 -0.7969
 1969SOL     OW17539   1.417   3.725   3.454  0.6159 -0.1189 -0.3898
 1969SOL    HW117540   1.409   3.654   3.519  1.3350 -0.2780 -0.4699
 1969SOL    HW217541   1.438   3.796   3.515  2.2491 -1.2787  0.4236
 1970SOL     OW17542   0.411   4.299  11.036 -0.3877 -0.7045 -0.4859
 1970SOL    HW117543   0.473   4.358  11.080 -0.7031  0.1071 -1.1247
 1970SOL    HW217544   0.350   4.287  11.108  0.6900  0.9911  0.7079
 1971SOL     OW17545   0.296   3.349   9.422  0.6692 -0.4466  0.0422
 1971SOL    HW117546   0.308   3.430   9.372  1.6257 -1.1883 -0.9250
 1971SOL    HW217547   0.331   3.280   9.365 -0.1034  0.2518 -1.2814
 1972SOL     OW17548   3.420   4.150   0.153 -0.7021  0.5303 -0.4008
 1972SOL    HW117549   3.457   4.203   0.082  1.7688 -0.0173  0.4802
 1972SOL    HW217550   3.327   4.171   0.154 -0.5113  1.4355 -1.2007
 1973SOL     OW17551   0.948   1.823   3.056  0.1797 -0.1012  0.0347
 1973SOL    HW117552   1.019   1.759   3.056 -1.5497 -2.0286  1.9559
 1973SOL    HW217553   0.939   1.837   3.151 -0.6528  0.4011 -0.1159
 1974SOL     OW17554   1.147   0.085   2.347  0.3532 -0.3071 -0.1029
 1974SOL    HW117555   1.204   0.083   2.270  3.1898  1.0269  1.9305
 1974SOL    HW217556   1.067   0.099   2.298 -0.4070  0.5862  1.3649
 1975SOL     OW17557   2.761   2.035   2.054 -0.3904  0.1138  0.0336
 1975SOL    HW117558   2.809   1.952   2.052  0.0183  0.3150  1.6819
 1975SOL    HW217559   2.794   2.072   2.136 -1.0162  1.6407 -0.3892
 1976SOL     OW17560   1.048   3.845   9.854 -0.2434  0.0951  0.0761
 1976SOL    HW117561   1.057   3.869   9.762  1.3476  0.6578  0.3876
 1976SOL    HW217562   1.110   3.772   9.861  0.1903  0.2618 -2.1727
 1977SOL     OW17563   4.615   1.100   9.797  0.3424  0.1024  0.3194
 1977SOL    HW117564   4.587   1.151   9.873  1.5236  2.0755 -0.5684
 1977SOL    HW217565   4.598   1.164   9.728  4.3438  2.0383  1.1357
 1978SOL     OW17566   1.571   3.906   7.790  0.1951 -0.1785  0.2927
 1978SOL    HW117567   1.635   3.966   7.829 -0.0677  0.7618 -0.7076
 1978SOL    HW217568   1.491   3.957   7.781 -0.8492 -1.3494  2.8963
 1979SOL     OW17569   4.368   0.592  14.497 -0.1899 -0.8056  0.7108
 1979SOL    HW117570   4.372   0.638  14.581 -0.3157  2.9334 -1.3199
 1979SOL    HW217571   4.462   0.599  14.483 -0.2856  1.3342  1.1234
 1980SOL     OW17572   1.534   2.842   3.190  0.9610 -0.5715  0.1193
 1980SOL    HW117573   1.548   2.841   3.095  0.2490 -0.2995  0.0089
 1980SOL    HW217574   1.490   2.927   3.195  1.3857 -0.4456  1.6316
 1981SOL     OW17575   1.632   1.698   8.656  0.3449  0.0315  0.3225
 1981SOL    HW117576   1.574   1.629   8.688  0.7978 -0.4002  0.1993
 1981SOL    HW217577   1.646   1.667   8.567  2.7056 -1.7961  1.3601
 1982SOL     OW17578   2.370   4.058   6.100  0.3735 -0.1312  0.3565
 1982SOL    HW117579   2.341   4.030   6.013  0.9639  0.0227  0.1064
 1982SOL    HW217580   2.455   4.014   6.094 -0.6886 -2.1850  0.3344
 1983SOL     OW17581   4.635   2.511   5.052 -0.3821 -0.1479 -0.4646
 1983SOL    HW117582   4.574   2.480   5.118 -0.6915  0.7277 -0.3391
 1983SOL    HW217583   4.654   2.596   5.092 -0.7541 -0.0571 -0.4802
 1984SOL     OW17584   3.957   4.506  13.545 -0.4545 -0.2245  0.1916
 1984SOL    HW117585   4.049   4.495  13.569 -0.3056  3.2215  1.1404
 1984SOL    HW217586   3.935   4.416  13.521  1.0608 -1.2656  2.6453
 1985SOL     OW17587   3.368   2.703   3.824  0.3315 -0.4622 -0.1088
 1985SOL    HW117588   3.300   2.738   3.880 -0.7792 -1.8531 -0.5962
 1985SOL    HW217589   3.451   2.704   3.872 -1.4327 -2.7716  2.9273
 1986SOL     OW17590   3.229   3.596  13.865  0.6675  0.1403 -0.3778
 1986SOL    HW117591   3.308   3.645  13.890  0.7209 -0.9997  1.7325
 1986SOL    HW217592   3.255   3.505  13.875 -0.4677 -0.2060 -0.5567
 1987SOL     OW17593   2.956   2.913   9.370 -0.3091 -0.0569 -0.5113
 1987SOL    HW117594   2.960   2.939   9.462  2.2082  1.6458 -1.1218
 1987SOL    HW217595   2.904   2.982   9.328 -1.4818 -1.1348 -0.8480
 1988SOL     OW17596   2.026   1.163   4.463  0.5334  0.5493  0.8055
 1988SOL    HW117597   1.959   1.218   4.423  0.4626 -0.3339 -0.3143
 1988SOL    HW217598   1.978   1.122   4.535 -0.2127 -1.8764 -1.0591
 1989SOL     OW17599   2.259   3.711  17.439  0.4727 -0.4087 -0.6149
 1989SOL    HW117600   2.273   3.803  17.460  0.8783 -0.7581  0.6635
 1989SOL    HW217601   2.227   3.679  17.523  0.3450 -0.3788 -0.6528
 1990SOL     OW17602   1.891   1.817   5.274  0.4802 -0.6911 -0.5055
 1990SOL    HW117603   1.956   1.834   5.341  0.8083  1.4096 -1.3518
 1990SOL    HW217604   1.847   1.901   5.261 -0.2048 -1.0847 -0.7399
 1991SOL     OW17605   2.040   3.726   7.878 -0.1164 -0.1560 -0.3922
 1991SOL    HW117606   2.008   3.705   7.791  1.8608  1.5467 -1.5395
 1991SOL    HW217607   2.048   3.636   7.910 -0.1499  0.0412  0.1823
 1992SOL     OW17608   0.519   0.190   8.091 -0.5420  0.0593  0.3312
 1992SOL    HW117609   0.594   0.204   8.034 -0.9371 -0.1385 -0.2378
 1992SOL    HW217610   0.563   0.137   8.156 -0.4119  0.1366  0.3050
 1993SOL     OW17611   1.072   2.428   2.992  0.3523 -0.3682  0.4121
 1993SOL    HW117612   0.978   2.428   2.976  0.8669 -0.0091 -2.4998
 1993SOL    HW217613   1.108   2.406   2.906 -0.8275  4.1871 -1.2271
 1994SOL     OW17614   0.565   2.890   4.957  0.1736  0.5868 -0.2403
 1994SOL    HW117615   0.499   2.835   4.998  0.9316  1.0749  1.6267
 1994SOL    HW217616   0.513   2.970   4.962 -1.6479 -0.4791 -1.9890
 1995SOL     OW17617   1.356   2.453   8.997 -0.0072  0.4607  0.1147
 1995SOL    HW117618   1.424   2.489   9.053 -0.8327  0.1441  1.3426
 1995SOL    HW217619   1.386   2.476   8.909 -0.5149  1.5396  0.2303
 1996SOL     OW17620   2.257   3.504   5.354  0.3325 -0.5851  0.0753
 1996SOL    HW117621   2.249   3.411   5.374 -0.4936 -0.1855  1.5545
 1996SOL    HW217622   2.352   3.507   5.345  0.3127  0.5236  0.2019
 1997SOL     OW17623   0.349   3.304   5.424 -0.5530 -0.1975 -0.0660
 1997SOL    HW117624   0.274   3.259   5.463 -1.6438 -0.0282 -1.9910
 1997SOL    HW217625   0.387   3.344   5.502  0.2361  2.3506 -1.7480
 1998SOL     OW17626   1.141   1.468  10.005 -0.4707  0.0255  0.2919
 1998SOL    HW117627   1.221   1.478  10.057 -1.0850  0.5345  1.1310
 1998SOL    HW217628   1.155   1.376   9.982  0.8446  0.3187 -0.0801
 1999SOL     OW17629   1.641   0.827   5.511  0.2360 -0.4530  0.4355
 1999SOL    HW117630   1.648   0.747   5.458 -0.8711 -0.7985  0.8015
 1999SOL    HW217631   1.638   0.891   5.440 -0.1858  0.5019  1.3124
 2000SOL     OW17632   2.681   3.526  13.060 -0.5788  0.6181  0.1585
 2000SOL    HW117633   2.767   3.499  13.029  0.3244  2.8524  0.7325
 2000SOL    HW217634   2.676   3.618  13.034  1.6646  1.3841  2.4171
 2001SOL     OW17635   3.423   2.361   6.833  0.3569  0.6024  0.1290
 2001SOL    HW117636   3.472   2.290   6.792  2.3049  1.5347  0.8789
 2001SOL    HW217637   3.456   2.433   6.781  4.3587  0.5018  2.5822
 2002SOL     OW17638   1.616   4.736   8.667  0.4464  0.2938 -0.3715
 2002SOL    HW117639   1.538   4.725   8.721  1.0546 -1.3732  0.1485
 2002SOL    HW217640   1.575   0.038   8.592 -0.2941 -0.8740 -0.6367
 2003SOL     OW17641   1.191   4.056   6.398 -0.3275  0.5124  0.7106
 2003SOL    HW117642   1.179   3.998   6.323 -1.0895  3.9359 -1.8117
 2003SOL    HW217643   1.261   4.120   6.382 -0.7875  0.8875  0.2153
 2004SOL     OW17644   0.589   2.283   1.909  0.2354 -0.3003  0.2838
 2004SOL    HW117645   0.573   2.347   1.839 -0.7642 -0.2741  0.5444
 2004SOL    HW217646   0.501   2.250   1.926 -0.3190  1.0821  0.1106
 2005SOL     OW17647   4.296   3.354   4.191 -0.4630  0.2235 -0.0647
 2005SOL    HW117648   4.348   3.339   4.112  0.4618 -0.0376  0.5785
 2005SOL    HW217649   4.290   3.449   4.192 -0.7610  0.1998  0.1763
 2006SOL     OW17650   0.789   2.683   7.918 -0.3628  0.7870  0.3308
 2006SOL    HW117651   0.845   2.706   7.844 -1.8566  0.4569 -0.9094
 2006SOL    HW217652   0.796   2.760   7.974 -0.7413  0.3241  1.0130
 2007SOL     OW17653   4.076   1.023   4.862 -0.2014  0.6392  0.3185
 2007SOL    HW117654   4.080   0.930   4.838  0.8782 -0.2705  4.0771
 2007SOL    HW217655   4.032   1.055   4.783 -1.6036  1.7172  1.5380
 2008SOL     OW17656   3.466   3.605   4.572 -0.1102 -0.6313 -0.2456
 2008SOL    HW117657   3.518   3.685   4.581  1.1023 -1.4272 -0.2036
 2008SOL    HW217658   3.496   3.580   4.485 -0.7748 -1.1851 -0.3164
 2009SOL     OW17659   4.739   3.214   7.941  0.0161  0.0180  0.9997
 2009SOL    HW117660   0.025   3.235   7.851 -0.2405 -0.6996  0.7561
 2009SOL    HW217661   4.722   3.120   7.938  0.1581  0.0681 -1.5855
 2010SOL     OW17662   2.245   0.298   0.845 -0.4104 -0.1185  0.4172
 2010SOL    HW117663   2.195   0.265   0.770 -2.5854 -0.4132  1.9941
 2010SOL    HW217664   2.302   0.357   0.795 -0.0940 -1.5724 -0.9434
 2011SOL     OW17665   4.434   2.542  11.206  0.2452  0.2330 -0.0743
 2011SOL    HW117666   4.423   2.449  11.227 -1.3012  0.7821  1.5321
 2011SOL    HW217667   4.442   2.532  11.111 -1.5983 -0.0747 -0.1924
 2012SOL     OW17668   2.668   0.866   5.264  0.3093  0.0809 -0.1826
 2012SOL    HW117669   2.603   0.930   5.239 -0.8376 -0.0970  2.3356
 2012SOL    HW217670   2.696   0.906   5.346 -0.5217 -0.2620  0.2694
 2013SOL     OW17671   3.571   2.675  16.565 -0.6054 -0.2913  0.3928
 2013SOL    HW117672   3.488   2.694  16.522  1.2392 -0.3535 -3.1997
 2013SOL    HW217673   3.544   2.655  16.654  1.7779 -0.6193  1.0326
 2014SOL     OW17674   3.554   2.032   9.869  0.0772  0.2688 -0.1010
 2014SOL    HW117675   3.565   1.957   9.811 -0.1871  1.9440 -2.3366
 2014SOL    HW217676   3.607   2.100   9.828 -1.2556  1.5527  0.2808
 2015SOL     OW17677   2.536   2.298   1.525  0.0274  0.2839 -0.3466
 2015SOL    HW117678   2.591   2.225   1.554 -0.4687  0.0047 -0.0971
 2015SOL    HW217679   2.469   2.253   1.474  0.1004 -1.6789  1.3090
 2016SOL     OW17680   3.441   2.260   3.310 -0.1948 -0.2285  0.0877
 2016SOL    HW117681   3.448   2.165   3.297  1.9986  0.0302 -0.5405
 2016SOL    HW217682   3.378   2.255   3.382 -2.0100  2.9556 -1.2657
 2017SOL     OW17683   2.947   0.524   8.105  0.2553 -0.5622  0.0325
 2017SOL    HW117684   2.975   0.457   8.168  0.9625  0.3038  0.6393
 2017SOL    HW217685   2.918   0.477   8.027 -2.5371  1.0270  0.1015
 2018SOL     OW17686   3.465   1.958   5.955 -0.9255  0.9887 -0.3017
 2018SOL    HW117687   3.424   1.972   6.041 -0.4767 -0.3933  0.1283
 2018SOL    HW217688   3.388   1.959   5.898 -0.2731 -0.3763 -1.2189
 2019SOL     OW17689   1.876   0.275   1.783  0.2815  0.4051  0.5123
 2019SOL    HW117690   1.845   0.187   1.806 -1.7835  1.0748  0.2435
 2019SOL    HW217691   1.911   0.261   1.695  1.6563 -1.6177  1.3611
 2020SOL     OW17692   0.810   4.124   1.992 -0.6263  0.3477 -0.1764
 2020SOL    HW117693   0.783   4.207   1.952  0.0133  0.1924 -0.9208
 2020SOL    HW217694   0.815   4.071   1.912  0.9897 -0.4158  0.4463
 2021SOL     OW17695   3.289   3.493  15.201  0.0084 -0.3834 -0.3512
 2021SOL    HW117696   3.374   3.523  15.169 -0.7160  1.2524 -0.7310
 2021SOL    HW217697   3.264   3.548  15.275  0.2051 -0.4118 -0.2638
 2022SOL     OW17698   2.877   1.152   4.651 -0.2464 -0.0661 -0.6604
 2022SOL    HW117699   2.872   1.056   4.643 -0.2717 -0.3555  3.0020
 2022SOL    HW217700   2.785   1.167   4.670 -0.1629  0.3600 -0.5981
 2023SOL     OW17701   2.512   2.188   4.582 -0.5610  0.2163  0.0965
 2023SOL    HW117702   2.505   2.126   4.510 -0.1449  0.2531  0.0261
 2023SOL    HW217703   2.597   2.172   4.623 -1.1405  0.3218  1.3573
 2024SOL     OW17704   1.409   1.043  10.588 -0.1273 -0.4239 -0.0548
 2024SOL    HW117705   1.354   0.980  10.634 -0.9655 -0.7204 -1.4790
 2024SOL    HW217706   1.418   1.013  10.498  0.2411  1.7884 -0.7569
 2025SOL     OW17707   4.218   2.372  14.985 -0.1057  0.0094  0.2047
 2025SOL    HW117708   4.266   2.365  15.068 -0.4829  0.1742  0.4374
 2025SOL    HW217709   4.258   2.299  14.937 -1.8197 -0.3734 -0.6258
 2026SOL     OW17710   0.055   4.264  13.969 -0.3728  0.1314 -0.1512
 2026SOL    HW117711   4.717   4.222  14.003 -1.2310  1.0763 -1.0205
 2026SOL    HW217712   0.035   4.271  13.876 -0.9006  1.1291  0.0461
 2027SOL     OW17713   2.844   3.437   2.694  0.2984 -0.3370  0.0321
 2027SOL    HW117714   2.908   3.387   2.642  0.0902 -0.4424 -0.1249
 2027SOL    HW217715   2.839   3.394   2.779  0.5032  3.4699  1.9375
 2028SOL     OW17716   2.537   3.627  15.868 -0.6075  0.1921 -0.3388
 2028SOL    HW117717   2.580   3.553  15.826  0.4293 -1.1099  2.9704
 2028SOL    HW217718   2.526   3.691  15.798 -0.6809  0.4563 -0.0871
 2029SOL     OW17719   2.839   3.122  17.057 -0.0781  0.2297 -0.7817
 2029SOL    HW117720   2.813   3.160  16.973  0.0621 -0.7867 -1.2892
 2029SOL    HW217721   2.906   3.180  17.093 -1.4181  0.2719  1.5887
 2030SOL     OW17722   3.842   3.932   6.003 -0.2836 -0.2708  0.0586
 2030SOL    HW117723   3.806   3.924   6.092  2.8199 -1.8467  1.1706
 2030SOL    HW217724   3.769   3.977   5.960  0.0149 -0.2901 -0.4646
 2031SOL     OW17725   3.077   0.160   3.261  0.2060 -0.4304  0.1712
 2031SOL    HW117726   3.078   0.066   3.275  4.3933 -0.4082 -0.1109
 2031SOL    HW217727   2.994   0.168   3.214  0.5542  0.2241 -0.3365
 2032SOL     OW17728   2.349   3.115  12.078 -0.4521  0.7501  0.1238
 2032SOL    HW117729   2.320   3.191  12.128 -1.1015  0.1318  0.6800
 2032SOL    HW217730   2.430   3.085  12.120 -1.7444 -1.7902  0.7979
 2033SOL     OW17731   4.212   2.656   7.676 -0.3601  0.0657  0.1761
 2033SOL    HW117732   4.212   2.708   7.595  1.1470 -0.3637 -0.1001
 2033SOL    HW217733   4.133   2.681   7.723 -2.4610  0.0605 -3.3021
 2034SOL     OW17734   2.338   1.875   2.224  0.6023  0.0928 -0.9411
 2034SOL    HW117735   2.287   1.889   2.304  0.8059 -2.2421 -0.4084
 2034SOL    HW217736   2.404   1.942   2.242 -2.2480  3.3000 -2.4401
 2035SOL     OW17737   3.589   4.389   2.559  0.0832 -0.0240 -0.0411
 2035SOL    HW117738   3.511   4.382   2.504  1.0214  1.6355 -1.5909
 2035SOL    HW217739   3.559   4.416   2.645 -1.9623 -0.0173 -0.7536
 2036SOL     OW17740   0.355   1.464   7.875 -0.6002 -0.0335 -0.3924
 2036SOL    HW117741   0.322   1.533   7.817 -0.1567  0.5770  0.0848
 2036SOL    HW217742   0.399   1.514   7.943  0.6516  0.1124 -1.3134
 2037SOL     OW17743   1.597   3.542   1.323  0.2336  0.1059  0.7081
 2037SOL    HW117744   1.611   3.509   1.234 -1.5982 -0.9383  0.8145
 2037SOL    HW217745   1.547   3.620   1.300 -0.9758 -1.1774 -1.0292
 2038SOL     OW17746   4.692   4.205   9.472 -0.0890  0.1187  0.0524
 2038SOL    HW117747   4.681   4.138   9.404 -1.6453 -0.6582  1.0721
 2038SOL    HW217748   4.616   4.209   9.529 -2.1032  1.3767 -2.7043
 2039SOL     OW17749   1.786   1.422  12.430  0.0929 -0.2503  0.0906
 2039SOL    HW117750   1.870   1.436  12.474  0.1072 -0.5416  0.1563
 2039SOL    HW217751   1.823   1.378  12.353  0.3818 -1.0135  0.6669
 2040SOL     OW17752   2.058   2.096   6.710 -0.4701 -0.2939 -0.0138
 2040SOL    HW117753   2.150   2.114   6.731  0.0125 -1.2526 -1.2799
 2040SOL    HW217754   2.025   2.086   6.799 -0.4621 -0.0486  0.0173
 2041SOL     OW17755   3.647   2.273  16.657  0.1034  0.0029 -0.1014
 2041SOL    HW117756   3.704   2.340  16.619 -0.6371 -0.3577 -1.8402
 2041SOL    HW217757   3.562   2.295  16.619  1.5244  0.0432 -3.2889
 2042SOL     OW17758   4.309   1.066   9.922  0.3389 -0.5132  0.1267
 2042SOL    HW117759   4.254   1.099   9.851  0.7756 -0.3533 -0.1395
 2042SOL    HW217760   4.360   1.145   9.941  0.0604 -0.3179  0.0784
 2043SOL     OW17761   0.257   1.860  10.324 -0.4130  0.0295  0.1131
 2043SOL    HW117762   0.256   1.869  10.228 -1.1754  2.7618  0.3965
 2043SOL    HW217763   0.193   1.928  10.342  0.3286  0.7005  0.2506
 2044SOL     OW17764   3.458   4.570   9.959  0.1589 -0.1747  0.3442
 2044SOL    HW117765   3.482   4.661   9.974  2.4525 -0.7881  0.3443
 2044SOL    HW217766   3.363   4.581   9.952  0.3004  1.0823  0.5081
 2045SOL     OW17767   2.075   0.456  11.726  0.4004 -0.1471 -0.0723
 2045SOL    HW117768   2.107   0.534  11.680 -0.3762  1.6140  2.3752
 2045SOL    HW217769   2.051   0.399  11.653 -1.5817  0.3442  0.2073
 2046SOL     OW17770   1.293   0.460  13.753  0.0267  0.2923  0.9832
 2046SOL    HW117771   1.359   0.521  13.787  2.6076 -1.4308 -0.9211
 2046SOL    HW217772   1.255   0.519  13.688 -1.2235 -0.2673  1.2099
 2047SOL     OW17773   3.813   0.558   9.295 -0.3678 -0.4162  0.4039
 2047SOL    HW117774   3.858   0.615   9.359 -2.0340  1.0095  0.3152
 2047SOL    HW217775   3.740   0.529   9.349  0.0295 -0.0853  1.1224
 2048SOL     OW17776   2.132   2.594   8.425  0.1063  0.2539 -0.2549
 2048SOL    HW117777   2.199   2.574   8.360  0.0274 -0.2364 -0.1925
 2048SOL    HW217778   2.183   2.641   8.490  1.3931 -0.5534 -0.6929
 2049SOL     OW17779   4.509   2.375  15.022  0.0468  0.1341 -0.0166
 2049SOL    HW117780   4.450   2.350  15.093 -2.2189  0.6900 -1.7023
 2049SOL    HW217781   4.488   2.469  15.029  1.5541  0.5765 -1.6499
 2050SOL     OW17782   3.895   1.729   7.735  0.0748  0.4081  0.5671
 2050SOL    HW117783   3.888   1.634   7.744 -0.9259  0.2154 -2.5432
 2050SOL    HW217784   3.969   1.745   7.676  0.8545 -0.1839  1.3741
 2051SOL     OW17785   2.517   0.851   4.264 -0.4512 -1.0117  0.3436
 2051SOL    HW117786   2.564   0.837   4.182  0.1952  1.2495  0.3163
 2051SOL    HW217787   2.443   0.790   4.264 -1.3726  0.0944 -1.7125
 2052SOL     OW17788   0.335   0.039  14.561  0.2664  0.6845  0.1269
 2052SOL    HW117789   0.329   4.734  14.477 -2.6616 -0.4064  0.9340
 2052SOL    HW217790   0.427   0.032  14.584  0.5627  1.5099 -0.8010
 2053SOL     OW17791   3.626   0.766   7.795 -0.0202  0.3544  0.0844
 2053SOL    HW117792   3.629   0.788   7.888  1.2189  0.1452  0.0931
 2053SOL    HW217793   3.645   0.673   7.809 -0.1761  0.2627 -0.3161
 2054SOL     OW17794   4.321   2.903   2.969 -0.1119  0.2261 -0.1141
 2054SOL    HW117795   4.387   2.954   2.921  1.0980 -1.9155 -0.7354
 2054SOL    HW217796   4.297   2.837   2.905 -0.3405  0.2951 -0.0972
 2055SOL     OW17797   0.572   0.257   1.422  0.6028  0.0507  0.4663
 2055SOL    HW117798   0.603   0.179   1.375  0.2338 -0.0964  0.4667
 2055SOL    HW217799   0.543   0.206   1.498 -0.7774 -0.7246 -0.5755
 2056SOL     OW17800   2.128   1.060  10.817 -0.2047 -0.2595 -0.6809
 2056SOL    HW117801   2.153   1.026  10.732 -0.0441  1.2690 -1.2364
 2056SOL    HW217802   2.194   1.128  10.824  0.1447 -0.7678  1.1066
 2057SOL     OW17803   1.909   2.335   6.869  0.4261  0.0509  0.5671
 2057SOL    HW117804   1.932   2.299   6.783 -0.8212 -2.1763  1.1655
 2057SOL    HW217805   1.985   2.391   6.886 -0.8070  1.2296  2.1107
 2058SOL     OW17806   1.063   1.643   1.095 -0.0558 -0.3019  0.6187
 2058SOL    HW117807   1.000   1.659   1.165  0.8793  1.8606  0.9685
 2058SOL    HW217808   1.114   1.568   1.126 -1.2106 -1.6606 -0.7662
 2059SOL     OW17809   0.452   1.270   3.969  0.3969 -0.0855 -0.0583
 2059SOL    HW117810   0.439   1.357   4.005  0.9946  0.4535 -1.1463
 2059SOL    HW217811   0.547   1.255   3.975  0.4470  0.5418  0.6535
 2060SOL     OW17812   0.729   1.014   4.082 -0.1735  0.0785  0.4455
 2060SOL    HW117813   0.778   0.934   4.099  2.3869  1.3376 -1.0301
 2060SOL    HW217814   0.797   1.068   4.042 -1.1511  0.4382 -0.7245
 2061SOL     OW17815   2.742   3.995   7.666 -0.6725 -0.4101  0.4292
 2061SOL    HW117816   2.675   3.997   7.735 -1.3825 -1.8753 -0.2116
 2061SOL    HW217817   2.678   3.982   7.597  1.4743 -2.6600 -1.1534
 2062SOL     OW17818   3.272   4.683   5.308 -0.2816  0.5676 -0.2977
 2062SOL    HW117819   3.302   0.032   5.324 -3.7518  1.2943  1.9542
 2062SOL    HW217820   3.255   4.699   5.215 -2.7221 -0.3225 -0.0028
 2063SOL     OW17821   3.220   3.354   6.342  0.4022  0.0477 -0.7546
 2063SOL    HW117822   3.271   3.416   6.291 -1.1980  2.9559  1.1364
 2063SOL    HW217823   3.146   3.359   6.282  0.6617  1.5368 -0.9460
 2064SOL     OW17824   0.321   3.828   2.497  0.4990  0.1371  0.2908
 2064SOL    HW117825   0.405   3.791   2.469 -0.1560 -2.1690  1.3452
 2064SOL    HW217826   0.338   3.883   2.573  0.2041 -1.3964  1.4564
 2065SOL     OW17827   4.049   2.956   1.014 -0.1529 -0.1634 -0.6158
 2065SOL    HW117828   3.972   2.920   0.969 -0.7145 -0.8202  0.8498
 2065SOL    HW217829   4.063   2.889   1.081 -2.1083  0.4879  0.4822
 2066SOL     OW17830   2.769   0.543   4.760  0.2580  0.5878  0.7237
 2066SOL    HW117831   2.832   0.487   4.714 -0.1034  0.9120 -0.1693
 2066SOL    HW217832   2.693   0.494   4.727  1.5877 -1.9241  1.3442
 2067SOL     OW17833   3.470   1.170   7.735  0.2221  0.2349  0.2661
 2067SOL    HW117834   3.430   1.237   7.679 -0.3759 -0.7930 -0.5396
 2067SOL    HW217835   3.542   1.147   7.676 -1.3741 -6.2671  0.8081
 2068SOL     OW17836   3.729   1.573  16.435  0.0743 -0.4024 -0.1762
 2068SOL    HW117837   3.765   1.654  16.471  2.5856 -0.8686 -1.6679
 2068SOL    HW217838   3.730   1.517  16.513 -0.4885 -0.8498 -0.4925
 2069SOL     OW17839   3.154   1.236   7.585 -0.3091 -0.8424 -0.1706
 2069SOL    HW117840   3.112   1.198   7.662 -1.9387 -0.8487 -1.0601
 2069SOL    HW217841   3.074   1.259   7.537 -1.3167 -1.9279  0.9923
 2070SOL     OW17842   1.420   2.564  14.040 -0.0524 -0.8797 -0.3870
 2070SOL    HW117843   1.383   2.627  13.978 -0.5677 -0.3127  0.4929
 2070SOL    HW217844   1.513   2.579  14.023  0.3896  0.4058  3.0147
 2071SOL     OW17845   3.139   0.723   8.005  0.3541  0.9593  0.4028
 2071SOL    HW117846   3.103   0.638   7.983  0.2811  0.4958  2.3490
 2071SOL    HW217847   3.067   0.778   7.973 -1.7171 -0.0691  3.3011
 2072SOL     OW17848   0.203   0.980  16.726 -0.5758  0.1251 -0.7301
 2072SOL    HW117849   0.253   1.004  16.648  1.2894 -1.3857 -0.0248
 2072SOL    HW217850   0.226   0.887  16.719  1.5486  0.7260 -1.6841
 2073SOL     OW17851   2.811   2.878   6.972 -0.6369 -0.0423  0.1547
 2073SOL    HW117852   2.833   2.941   6.904  1.9811 -0.3237  0.7187
 2073SOL    HW217853   2.762   2.818   6.916 -0.6009  0.0934 -0.0241
 2074SOL     OW17854   1.348   2.777   7.984 -0.0076  0.1087  0.3152
 2074SOL    HW117855   1.409   2.763   7.912 -0.7057 -1.8453  0.0968
 2074SOL    HW217856   1.260   2.789   7.947 -0.1400 -1.2029  0.1777
 2075SOL     OW17857   4.248   4.311   6.569  0.2780 -0.2943  0.1701
 2075SOL    HW117858   4.332   4.268   6.585  1.3679  0.7820 -2.7374
 2075SOL    HW217859   4.202   4.231   6.543 -0.1529 -0.1152  0.3741
 2076SOL     OW17860   1.601   0.961   3.459 -0.1165  0.0154 -0.2587
 2076SOL    HW117861   1.595   0.887   3.520 -1.3751  0.0202 -0.3782
 2076SOL    HW217862   1.603   1.036   3.518  2.4475 -0.0162 -0.3045
 2077SOL     OW17863   0.103   2.079  12.186 -0.3551  0.4461  0.0906
 2077SOL    HW117864   0.162   2.103  12.114  0.8168 -0.2834  0.8074
 2077SOL    HW217865   0.044   2.008  12.162 -2.4345  2.4485 -0.7468
 2078SOL     OW17866   2.306   3.021   2.142 -0.1557  0.2686 -0.1016
 2078SOL    HW117867   2.289   3.036   2.049  0.4445 -0.5308 -0.3388
 2078SOL    HW217868   2.260   2.938   2.154 -0.8606  0.4266 -1.8119
 2079SOL     OW17869   2.829   0.093   1.430  0.1723  0.5297  0.5427
 2079SOL    HW117870   2.791   0.179   1.414  0.4561  0.3987 -0.7815
 2079SOL    HW217871   2.751   0.041   1.412 -0.9867  2.5175 -0.1506
 2080SOL     OW17872   4.262   1.512   3.551 -0.6891  0.1493 -0.1736
 2080SOL    HW117873   4.310   1.593   3.564  1.4041 -1.3611  1.5463
 2080SOL    HW217874   4.256   1.504   3.455  1.5687 -0.6898 -0.2436
 2081SOL     OW17875   2.327   1.642   1.741 -0.0305  0.0682 -0.4116
 2081SOL    HW117876   2.348   1.691   1.821  1.9059 -1.4002 -0.0187
 2081SOL    HW217877   2.287   1.704   1.681 -1.2711  1.8660  2.2711
 2082SOL     OW17878   3.191   3.903  16.026 -0.5112 -0.3186  0.1886
 2082SOL    HW117879   3.125   3.934  15.963  1.0994  1.6028 -0.5540
 2082SOL    HW217880   3.266   3.923  15.970 -0.4633 -3.0006 -0.6805
 2083SOL     OW17881   2.224   1.668   8.417  0.2209 -0.4808  0.1458
 2083SOL    HW117882   2.289   1.603   8.388 -0.0414 -0.2628 -0.9452
 2083SOL    HW217883   2.157   1.649   8.351 -0.9108  1.7596  0.6460
 2084SOL     OW17884   2.988   3.460  12.365 -0.1948 -0.5479  0.1323
 2084SOL    HW117885   2.903   3.425  12.393 -1.5832  2.3968 -0.4231
 2084SOL    HW217886   2.960   3.551  12.359  1.8708  0.1396  1.0865
 2085SOL     OW17887   3.813   4.274   7.889 -0.3561  0.2177  0.6281
 2085SOL    HW117888   3.790   4.236   7.805  1.0432 -2.0150  1.2346
 2085SOL    HW217889   3.728   4.301   7.925  0.6116  0.6403  2.6332
 2086SOL     OW17890   1.024   2.420   6.869 -0.2772 -0.4278 -0.3503
 2086SOL    HW117891   1.038   2.426   6.964 -0.4600 -2.0286 -0.2231
 2086SOL    HW217892   1.073   2.339   6.855  0.4806  0.0510 -0.4227
 2087SOL     OW17893   3.768   3.241  11.697 -0.3433 -0.1440  0.0246
 2087SOL    HW117894   3.786   3.198  11.781 -3.0233  1.2312  1.2900
 2087SOL    HW217895   3.788   3.332  11.718 -1.0244  0.3847 -1.6496
 2088SOL     OW17896   2.970   3.624   4.118  0.4077  0.5956 -0.2934
 2088SOL    HW117897   2.984   3.623   4.023  1.3951  1.4545 -0.1583
 2088SOL    HW217898   2.929   3.537   4.126  0.8644  0.4235  0.1936
 2089SOL     OW17899   2.168   2.474   6.852 -0.1078 -0.2796 -0.0600
 2089SOL    HW117900   2.258   2.444   6.840 -0.6435 -2.5671  1.5329
 2089SOL    HW217901   2.179   2.553   6.800  0.2776  0.1732  0.6989
 2090SOL     OW17902   0.676   2.661  14.548  0.3582  0.3260  0.0254
 2090SOL    HW117903   0.612   2.594  14.573  1.3505  0.6117  3.2453
 2090SOL    HW217904   0.633   2.703  14.474  0.1664 -0.0400 -0.0725
 2091SOL     OW17905   0.150   2.237   1.764 -0.0810 -0.0733 -0.1949
 2091SOL    HW117906   0.087   2.279   1.823 -0.9762  0.3290 -1.4442
 2091SOL    HW217907   0.137   2.143   1.769  1.4711 -0.3966 -2.2073
 2092SOL     OW17908   1.864   1.968   1.395  0.0946  0.2520  0.2618
 2092SOL    HW117909   1.957   1.945   1.399 -0.1436 -0.5170  1.6104
 2092SOL    HW217910   1.833   1.924   1.475 -0.7768  1.6602  0.6963
 2093SOL     OW17911   2.144   0.392   9.358  0.1572  0.2568  0.1291
 2093SOL    HW117912   2.172   0.481   9.337  4.3577 -1.5977 -2.0203
 2093SOL    HW217913   2.124   0.368   9.268 -1.8637 -1.1241  0.9422
 2094SOL     OW17914   2.647   4.300   5.926  0.5984 -0.1794 -0.5804
 2094SOL    HW117915   2.637   4.378   5.980 -1.0783  0.9500 -2.5139
 2094SOL    HW217916   2.669   4.245   6.001  2.5665 -0.6388 -1.4921
 2095SOL     OW17917   3.628   3.620   4.296 -0.7195 -0.1022 -0.1187
 2095SOL    HW117918   3.571   3.565   4.242 -2.4607  0.6498  0.9225
 2095SOL    HW217919   3.694   3.556   4.321 -1.7184 -0.4769  1.5692
 2096SOL     OW17920   3.254   3.017   6.610 -0.5150 -0.2364 -0.1192
 2096SOL    HW117921   3.322   3.073   6.649 -0.7550 -0.9022  1.2557
 2096SOL    HW217922   3.287   2.930   6.633  1.4502  0.7916  0.9734
 2097SOL     OW17923   1.325   1.588   6.177  0.3871 -0.2362  0.1912
 2097SOL    HW117924   1.376   1.511   6.203  0.6241 -0.9974 -2.5753
 2097SOL    HW217925   1.353   1.586   6.086 -1.6052  0.5826 -0.4358
 2098SOL     OW17926   2.676   4.103   8.519 -0.0413 -0.1090 -0.1806
 2098SOL    HW117927   2.603   4.060   8.474  1.7603 -1.3712 -1.9113
 2098SOL    HW217928   2.654   4.067   8.605 -0.6064 -1.8118 -1.0410
 2099SOL     OW17929   0.594   0.153  16.963 -0.1204  0.3405  0.5070
 2099SOL    HW117930   0.511   0.140  16.916 -0.8014 -3.1547  2.6408
 2099SOL    HW217931   0.598   0.066  17.003  2.2181  0.1722 -0.1111
 2100SOL     OW17932   3.050   4.229  15.957 -0.3347 -0.3117 -0.6306
 2100SOL    HW117933   3.002   4.246  16.038 -0.1712  0.0678 -0.6128
 2100SOL    HW217934   2.977   4.198  15.903 -0.7101 -0.6279  0.0595
 2101SOL     OW17935   3.040   2.721   8.976 -0.1868 -0.4925 -0.5384
 2101SOL    HW117936   3.084   2.771   9.045  1.2976 -0.1155 -1.7563
 2101SOL    HW217937   3.055   2.771   8.896 -0.4241 -0.4286 -0.5435
 2102SOL     OW17938   3.763   0.797   4.441 -0.1454 -0.5548 -0.2814
 2102SOL    HW117939   3.767   0.828   4.531  0.8489  1.1286 -0.9100
 2102SOL    HW217940   3.800   0.709   4.450 -1.3910 -1.0567 -0.1080
 2103SOL     OW17941   3.567   0.981   2.215 -0.1503  0.5578 -0.0618
 2103SOL    HW117942   3.544   1.072   2.234  1.3467  1.2117 -1.4011
 2103SOL    HW217943   3.481   0.956   2.181 -1.1185  0.7690  2.2077
 2104SOL     OW17944   3.485   0.771  15.235  0.1010  0.9527  0.0993
 2104SOL    HW117945   3.533   0.695  15.202  1.2889  2.1527 -0.9489
 2104SOL    HW217946   3.428   0.719  15.292  1.8524 -1.2871 -0.2111
 2105SOL     OW17947   0.093   3.463  15.849  0.4900  0.3432  0.0525
 2105SOL    HW117948   0.093   3.416  15.932  0.7369 -0.6886 -0.5395
 2105SOL    HW217949   0.122   3.397  15.787 -0.9654 -0.4367  0.1965
 2106SOL     OW17950   0.783   3.983   1.771 -0.3567 -0.0881 -0.1588
 2106SOL    HW117951   0.692   3.983   1.742 -0.9687 -0.0721  1.7384
 2106SOL    HW217952   0.797   3.888   1.766  0.3014  0.1298 -2.5390
 2107SOL     OW17953   1.638   4.064   9.183  0.1840 -0.6546  0.2330
 2107SOL    HW117954   1.549   4.029   9.173  0.2116 -0.8091  0.5298
 2107SOL    HW217955   1.673   4.011   9.254 -0.7068 -1.2857  0.1970
 2108SOL     OW17956   2.779   1.131   6.990 -0.0691 -0.4506 -0.1981
 2108SOL    HW117957   2.797   1.091   7.076 -0.0291 -0.2292 -0.1032
 2108SOL    HW217958   2.687   1.153   7.005  0.0693  1.2065 -1.8549
 2109SOL     OW17959   3.839   4.026   5.182  0.0647  0.4302  0.0398
 2109SOL    HW117960   3.846   4.120   5.165  2.0673  0.2814  0.0941
 2109SOL    HW217961   3.932   4.002   5.185 -0.3240 -1.0307  0.1830
 2110SOL     OW17962   3.608   0.144   6.384  0.3475 -0.0970  0.1719
 2110SOL    HW117963   3.665   0.121   6.457 -0.4797 -1.4982  0.3694
 2110SOL    HW217964   3.565   0.216   6.428  0.3879 -0.1679  0.3251
 2111SOL     OW17965   3.611   2.856   4.908  0.2057 -0.6503 -0.7299
 2111SOL    HW117966   3.687   2.914   4.918  1.6709 -2.8565  0.8493
 2111SOL    HW217967   3.584   2.868   4.817 -0.2078  0.4521 -0.4657
 2112SOL     OW17968   3.097   0.632   3.190 -0.2866  0.1059 -0.5492
 2112SOL    HW117969   3.094   0.689   3.113 -0.9533 -1.3428 -1.5938
 2112SOL    HW217970   3.041   0.560   3.161 -0.4525 -0.3572  0.9528
 2113SOL     OW17971   1.369   3.173   4.953  0.1464 -0.7954 -0.3783
 2113SOL    HW117972   1.377   3.115   5.028 -4.2105 -1.3651 -0.3176
 2113SOL    HW217973   1.328   3.253   4.987  3.2307  0.5559  0.1341
 2114SOL     OW17974   3.084   1.036   7.209 -0.5020 -0.6315 -0.3232
 2114SOL    HW117975   3.106   1.005   7.121 -0.1422  1.5183 -0.9815
 2114SOL    HW217976   3.148   0.998   7.270 -0.2975 -0.9863 -0.7613
 2115SOL     OW17977   3.456   1.969   7.365  0.4163 -0.0761  0.2925
 2115SOL    HW117978   3.389   1.958   7.298 -0.6069  1.9584  1.0104
 2115SOL    HW217979   3.478   1.878   7.388  1.8369  0.1223 -0.2963
 2116SOL     OW17980   3.698   2.586   5.526 -0.9110 -0.0194  0.1434
 2116SOL    HW117981   3.648   2.533   5.464 -0.6929 -0.4290  0.3155
 2116SOL    HW217982   3.664   2.673   5.506  0.9714  0.6080 -0.3407
 2117SOL     OW17983   4.315   3.012   5.494 -0.2041 -0.2684 -0.2190
 2117SOL    HW117984   4.298   2.922   5.466 -1.9916  0.2306 -0.7363
 2117SOL    HW217985   4.410   3.008   5.488 -0.1134  0.1584  1.0762
 2118SOL     OW17986   1.435   2.291   6.905 -0.5045 -0.0636 -0.0102
 2118SOL    HW117987   1.522   2.330   6.896 -0.9553  1.3024  1.5718
 2118SOL    HW217988   1.389   2.348   6.966 -1.2260  0.5817 -1.1622
 2119SOL     OW17989   3.692   4.670  12.018  0.4017 -0.4108  0.6440
 2119SOL    HW117990   3.606   4.635  12.043 -0.6630  0.3813 -1.9584
 2119SOL    HW217991   3.681   4.658  11.924 -1.8228  2.5611  0.5222
 2120SOL     OW17992   2.943   3.382   9.298  0.5222  0.5212 -0.4215
 2120SOL    HW117993   3.034   3.358   9.280  0.9416 -0.4491  2.9660
 2120SOL    HW217994   2.952   3.436   9.377 -0.8230 -0.3959  0.3594
 2121SOL     OW17995   4.690   3.009  13.187 -0.2782  0.1042  0.4125
 2121SOL    HW117996   4.736   3.061  13.253 -0.6853  0.1480  0.6632
 2121SOL    HW217997   0.023   2.956  13.158 -1.1449 -0.0347 -1.5681
 2122SOL     OW17998   2.857   1.911  14.710 -0.1359 -0.3534 -0.0669
 2122SOL    HW117999   2.859   1.923  14.615 -0.7342  1.1907  0.1260
 2122SOL    HW218000   2.816   1.992  14.739  1.2113  0.0732  0.6499
 2123SOL     OW18001   3.376   3.327   0.323  0.3513 -0.2137 -0.2439
 2123SOL    HW118002   3.435   3.312   0.249 -0.9864 -0.6856 -1.2136
 2123SOL    HW218003   3.318   3.253   0.306 -0.1702 -0.7669  3.9992
 2124SOL     OW18004   0.647   3.951   5.012  0.1374 -0.5647 -0.1280
 2124SOL    HW118005   0.710   3.983   4.948 -1.1228 -0.1265 -1.1531
 2124SOL    HW218006   0.584   4.023   5.010  1.5265  0.7059  1.6212
 2125SOL     OW18007   4.267   0.777  13.357 -0.7158  0.3175  0.2798
 2125SOL    HW118008   4.268   0.854  13.302 -0.1030 -0.1827 -0.4080
 2125SOL    HW218009   4.214   0.707  13.318  1.1518 -1.1441  0.3493
 2126SOL     OW18010   1.671   0.492   8.449  0.8196 -0.0371  0.2031
 2126SOL    HW118011   1.634   0.505   8.536  0.9621  1.3598  0.0506
 2126SOL    HW218012   1.764   0.480   8.469  0.2382 -0.0333  2.9025
 2127SOL     OW18013   2.016   1.735   7.063  0.0343 -0.5102 -0.5567
 2127SOL    HW118014   2.077   1.728   7.136 -0.6138  1.2823  0.1710
 2127SOL    HW218015   1.946   1.682   7.101 -0.0602 -1.1233 -1.6018
 2128SOL     OW18016   4.510   2.698   2.154  0.2029  0.7251 -0.2153
 2128SOL    HW118017   4.490   2.626   2.095  1.1284 -0.0009  0.3630
 2128SOL    HW218018   4.537   2.652   2.234  0.1768 -1.0586 -1.2456
 2129SOL     OW18019   3.055   2.472   5.096  0.0653 -0.4389  0.3678
 2129SOL    HW118020   3.124   2.499   5.035  0.6172 -1.0150  0.7435
 2129SOL    HW218021   2.990   2.439   5.034 -1.2136  0.9106  1.0056
 2130SOL     OW18022   1.867   4.381  13.063  0.0743  0.1129 -0.1910
 2130SOL    HW118023   1.867   4.316  13.133  0.5925  0.5185  0.1871
 2130SOL    HW218024   1.955   4.419  13.068 -0.2341  0.7566  0.2622
 2131SOL     OW18025   4.250   1.184  17.465 -0.0997  0.1294 -0.3358
 2131SOL    HW118026   4.258   1.092  17.438 -0.6875  0.1788 -0.7031
 2131SOL    HW218027   4.168   1.192  17.514  0.6877 -0.1506  0.9989
 2132SOL     OW18028   0.866   4.554   2.296 -0.6318 -0.1160 -0.0529
 2132SOL    HW118029   0.824   4.577   2.379  1.3961  0.3896  0.8320
 2132SOL    HW218030   0.950   4.522   2.327 -0.5234  0.1574 -0.0603
 2133SOL     OW18031   3.549   3.229   7.294  0.1076  0.0780  0.1159
 2133SOL    HW118032   3.615   3.226   7.225  0.5486 -0.5033  0.5693
 2133SOL    HW218033   3.597   3.218   7.376 -1.5971 -2.2799  0.7993
 2134SOL     OW18034   0.192   0.049   4.851 -0.4356 -0.1117 -0.2404
 2134SOL    HW118035   0.199   0.115   4.782  0.2179  0.7983  0.7036
 2134SOL    HW218036   0.106   0.015   4.827  0.0293 -1.1450 -0.4356
 2135SOL     OW18037   0.629   2.442   4.123 -0.1107 -0.2518 -0.7064
 2135SOL    HW118038   0.704   2.419   4.177 -0.5990  1.1297  0.5580
 2135SOL    HW218039   0.635   2.537   4.111 -0.1547  0.0115  1.4202
 2136SOL     OW18040   4.415   3.387   0.405 -0.0812  0.2680  0.0600
 2136SOL    HW118041   4.371   3.348   0.330  1.2771 -0.5138 -0.3256
 2136SOL    HW218042   4.377   3.330   0.471 -1.2691  0.1802 -0.7184
 2137SOL     OW18043   0.999   0.964  10.095 -0.6844 -0.1644 -0.0113
 2137SOL    HW118044   1.008   0.982  10.189  1.9310 -0.5401 -0.1878
 2137SOL    HW218045   1.092   0.954  10.077  0.0420  1.1732  2.9634
 2138SOL     OW18046   3.540   4.015   8.404 -0.1198 -0.0932  0.5939
 2138SOL    HW118047   3.620   4.068   8.411 -1.0062  1.7376 -2.8806
 2138SOL    HW218048   3.553   3.968   8.322 -1.2396 -1.0245  0.9494
 2139SOL     OW18049   0.044   3.062  12.264  0.2849 -0.0517 -0.0315
 2139SOL    HW118050   4.723   3.135  12.253 -2.2490 -1.8346  2.6268
 2139SOL    HW218051   0.034   3.012  12.183  4.1119 -2.7116  1.1508
 2140SOL     OW18052   3.868   1.180   5.487  0.2127 -0.8742  0.1150
 2140SOL    HW118053   3.845   1.219   5.403  0.1315 -2.1928 -0.4862
 2140SOL    HW218054   3.903   1.096   5.456  1.4440 -0.5297  0.5365
 2141SOL     OW18055   4.701   1.286   5.588  0.0542  0.1230  0.3070
 2141SOL    HW118056   0.056   1.275   5.586 -0.1209 -1.2047 -1.4146
 2141SOL    HW218057   4.676   1.294   5.680 -0.1952  1.7202  0.1022
 2142SOL     OW18058   4.137   1.883   5.413  0.6670  0.2493  0.9046
 2142SOL    HW118059   4.066   1.884   5.477  2.0097 -0.7389  2.3958
 2142SOL    HW218060   4.153   1.977   5.408  0.2580  0.3076  0.6363
 2143SOL     OW18061   4.082   4.549   4.489 -0.3330 -0.5750  0.2598
 2143SOL    HW118062   4.071   4.489   4.415 -0.6832 -1.0703  0.7142
 2143SOL    HW218063   4.000   4.593   4.508  0.1204  0.2325  0.3746
 2144SOL     OW18064   3.949   2.639  16.757  0.2440  0.1841  0.8560
 2144SOL    HW118065   4.038   2.664  16.733 -0.0640  0.1578 -0.3190
 2144SOL    HW218066   3.917   2.725  16.784  0.3406  1.7880 -4.1224
 2145SOL     OW18067   3.760   1.050   5.073 -0.3419  0.2140 -0.7289
 2145SOL    HW118068   3.778   1.139   5.104  0.7510 -0.1576 -0.2984
 2145SOL    HW218069   3.716   1.066   4.989 -1.0554 -0.3541 -0.4627
 2146SOL     OW18070   2.700   3.342   2.918  0.2597  0.6518 -0.5129
 2146SOL    HW118071   2.770   3.311   2.975  0.5585  0.5823 -0.9192
 2146SOL    HW218072   2.635   3.354   2.988  0.4642 -0.3960 -0.1459
 2147SOL     OW18073   1.762   3.679   7.328  0.3434  0.2404  0.4227
 2147SOL    HW118074   1.701   3.649   7.260 -2.0810 -0.8751  3.1172
 2147SOL    HW218075   1.706   3.671   7.405  0.4789 -0.0511  0.4907
 2148SOL     OW18076   4.361   4.526   9.643 -0.4863  0.2216 -0.3903
 2148SOL    HW118077   4.283   4.471   9.632 -0.8561  0.4792  0.9157
 2148SOL    HW218078   4.329   4.598   9.589 -1.9312  0.5785  0.9433
 2149SOL     OW18079   1.833   4.695   4.994 -0.8357  0.1167 -0.1787
 2149SOL    HW118080   1.924   4.705   4.968 -1.4925  0.1650 -2.4664
 2149SOL    HW218081   1.841   0.028   5.054 -0.3618 -1.4299  1.6665
 2150SOL     OW18082   1.934   3.785  14.087 -0.3309  0.3915  0.3174
 2150SOL    HW118083   2.004   3.720  14.094 -2.0017 -1.7422 -2.9701
 2150SOL    HW218084   1.971   3.869  14.113 -1.5123  0.8520  0.4913
 2151SOL     OW18085   4.545   0.615   9.564 -0.2224  0.2258  0.6543
 2151SOL    HW118086   4.449   0.610   9.558 -0.0979 -0.2676 -0.9881
 2151SOL    HW218087   4.558   0.699   9.607 -1.4179  1.2107 -0.8947
 2152SOL     OW18088   0.122   1.488   8.841  0.3990 -0.9693  0.5544
 2152SOL    HW118089   0.057   1.506   8.773  0.3063  3.0350  1.7018
 2152SOL    HW218090   0.186   1.439   8.789  0.2863 -2.4289  1.8136
 2153SOL     OW18091   1.929   0.463   3.880  0.0334  0.3519  0.1418
 2153SOL    HW118092   1.987   0.432   3.950  0.0423  0.2839  0.1040
 2153SOL    HW218093   1.882   0.535   3.922 -1.3394 -0.5372  0.1744
 2154SOL     OW18094   2.990   0.691   6.998 -0.1833 -0.1135  0.6847
 2154SOL    HW118095   2.922   0.748   6.964 -1.3696 -1.5652  0.6037
 2154SOL    HW218096   2.942   0.608   6.999 -0.1176 -0.1526  0.6643
 2155SOL     OW18097   4.120   1.440   8.779 -0.4896 -0.0317  0.3858
 2155SOL    HW118098   4.189   1.404   8.723 -2.0318 -1.4818 -0.5684
 2155SOL    HW218099   4.073   1.362   8.809 -0.6594 -0.5374 -1.1903
 2156SOL     OW18100   1.989   3.465   6.244  0.3482 -0.4697  0.3170
 2156SOL    HW118101   1.984   3.447   6.150 -3.0083 -0.4704  0.5000
 2156SOL    HW218102   2.083   3.472   6.259  0.0602  2.3109  0.7545
 2157SOL     OW18103   1.695   2.038   7.091 -0.1467 -0.3850 -0.1769
 2157SOL    HW118104   1.629   2.007   7.030  0.5076 -2.5110  0.1853
 2157SOL    HW218105   1.770   2.019   7.035 -0.8409  1.3164 -1.6820
 2158SOL     OW18106   2.284   4.367   9.568  0.0718  0.0241 -0.3208
 2158SOL    HW118107   2.323   4.279   9.571 -1.2096 -0.5703 -1.2684
 2158SOL    HW218108   2.346   4.401   9.633 -1.3599 -0.6746  1.4203
 2159SOL     OW18109   0.692   4.704   7.689  0.3129  0.3775 -0.7336
 2159SOL    HW118110   0.664   4.703   7.598 -0.6793  0.6117 -0.4265
 2159SOL    HW218111   0.617   0.005   7.732 -1.2684 -1.4812 -1.7001
 2160SOL     OW18112   1.980   4.702   8.144 -0.0960 -0.2564  0.4924
 2160SOL    HW118113   2.028   4.702   8.061 -1.0056 -0.0077 -0.0382
 2160SOL    HW218114   2.051   0.002   8.193  1.4073 -2.3294  0.0236
 2161SOL     OW18115   0.548   3.470  10.943 -0.1802  0.9857  0.3599
 2161SOL    HW118116   0.580   3.419  11.017  1.6463  0.5766 -0.7068
 2161SOL    HW218117   0.618   3.465  10.877 -2.0574 -1.1112 -1.4947
 2162SOL     OW18118   1.349   0.901  16.093 -0.4733  0.0773  0.4518
 2162SOL    HW118119   1.414   0.969  16.077 -1.0194  0.4912 -0.0399
 2162SOL    HW218120   1.272   0.958  16.091  0.0443  0.6496 -3.5048
 2163SOL     OW18121   1.908   2.611   2.975  0.1831 -0.0147 -0.1196
 2163SOL    HW118122   1.855   2.689   2.955  0.1868  0.5348  1.9912
 2163SOL    HW218123   1.869   2.546   2.917 -1.5327  1.4757 -0.6630
 2164SOL     OW18124   2.354   2.892  10.145  0.3850  0.3995 -0.0901
 2164SOL    HW118125   2.360   2.800  10.171 -1.5309  0.5283  0.8801
 2164SOL    HW218126   2.268   2.892  10.103  1.0091  0.9929 -1.3526
 2165SOL     OW18127   3.781   1.288   3.317  0.1594 -0.4157  0.3610
 2165SOL    HW118128   3.731   1.237   3.255 -0.7240  2.5156 -1.3576
 2165SOL    HW218129   3.869   1.265   3.287 -0.6130 -1.5517 -0.9702
 2166SOL     OW18130   0.903   1.522   4.954 -0.0927  0.2963  0.6165
 2166SOL    HW118131   0.944   1.451   5.004 -0.9848 -0.4250  0.3284
 2166SOL    HW218132   0.824   1.533   5.008  0.3693  2.3588  0.8600
 2167SOL     OW18133   3.992   2.822   3.144  0.3735  1.2820 -0.1075
 2167SOL    HW118134   3.988   2.727   3.141  0.9547  1.1988  2.2210
 2167SOL    HW218135   4.032   2.841   3.228 -0.2113  1.0430  0.2271
 2168SOL     OW18136   3.946   2.628   1.754 -0.7769  0.5387 -0.7207
 2168SOL    HW118137   3.960   2.540   1.788  0.3878  1.5544  1.4382
 2168SOL    HW218138   3.974   2.611   1.665  0.7086  1.4269 -0.4220
 2169SOL     OW18139   2.324   2.765   1.929  0.4573  0.1041 -0.0408
 2169SOL    HW118140   2.300   2.821   1.856  1.4857  0.6522  0.0500
 2169SOL    HW218141   2.279   2.801   2.006  0.3567  0.8234 -0.4377
 2170SOL     OW18142   2.123   4.251  12.956  0.2556  0.0175  0.3430
 2170SOL    HW118143   2.113   4.334  13.001 -0.3463 -0.8457  1.8011
 2170SOL    HW218144   2.205   4.208  12.981  0.9530  1.8840  1.2374
 2171SOL     OW18145   3.491   4.272   6.504  0.1098 -0.0539 -0.1798
 2171SOL    HW118146   3.417   4.243   6.556 -1.0350  0.8257 -1.3134
 2171SOL    HW218147   3.507   4.355   6.549  0.5666 -0.4813  0.4342
 2172SOL     OW18148   3.983   3.828  11.684  0.0646  0.2028 -0.2276
 2172SOL    HW118149   4.058   3.788  11.728  0.8961  0.7336 -1.1857
 2172SOL    HW218150   3.917   3.836  11.753  1.0917 -1.0625  0.9073
 2173SOL     OW18151   1.478   4.066  13.029 -0.7474 -0.1347 -0.2382
 2173SOL    HW118152   1.408   4.131  13.030  0.9032  1.5948  3.0011
 2173SOL    HW218153   1.544   4.126  12.994  0.6571 -0.8759  1.1217
 2174SOL     OW18154   2.036   1.227   5.159 -0.1954  0.3989  0.4261
 2174SOL    HW118155   2.048   1.319   5.138  1.3008  0.2231  0.4831
 2174SOL    HW218156   2.042   1.179   5.077 -0.8404  0.0361  0.5877
 2175SOL     OW18157   3.864   2.395  14.276 -0.6605 -0.0834 -0.0046
 2175SOL    HW118158   3.845   2.488  14.263 -2.6501 -0.5135 -0.0956
 2175SOL    HW218159   3.949   2.389  14.233 -0.4619  2.7575 -0.0002
 2176SOL     OW18160   3.717   3.597   9.514 -0.0122 -0.3706  0.4131
 2176SOL    HW118161   3.625   3.605   9.488  0.0541 -2.5355 -0.4873
 2176SOL    HW218162   3.727   3.504   9.533  1.8637 -0.3391 -0.4222
 2177SOL     OW18163   2.300   3.129   0.386 -0.0781  0.4410  0.6079
 2177SOL    HW118164   2.359   3.134   0.311  1.5396  0.8428  1.8992
 2177SOL    HW218165   2.220   3.102   0.341  1.2984 -2.4839 -0.0976
 2178SOL     OW18166   3.483   2.120  15.778 -0.3421  0.0474 -0.4695
 2178SOL    HW118167   3.568   2.123  15.823 -0.1368 -0.2909 -0.8304
 2178SOL    HW218168   3.499   2.068  15.700 -1.2589  0.3138 -0.8351
 2179SOL     OW18169   4.107   3.948   7.150 -0.6388 -1.0486 -0.3440
 2179SOL    HW118170   4.130   4.041   7.161  0.6695 -1.3142 -0.8687
 2179SOL    HW218171   4.110   3.918   7.241 -0.3143  0.9903  0.3312
 2180SOL     OW18172   3.924   1.620   7.416  0.4802  0.4315 -0.5466
 2180SOL    HW118173   3.991   1.557   7.442  0.8924  0.4203 -1.6632
 2180SOL    HW218174   3.899   1.590   7.329 -1.3587 -0.3377  0.2382
 2181SOL     OW18175   4.727   3.771   2.127  0.8125  0.3433  0.8928
 2181SOL    HW118176   0.042   3.695   2.142  1.1992 -0.0574 -2.6898
 2181SOL    HW218177   0.059   3.819   2.087 -0.4583  1.7172  0.2495
 2182SOL     OW18178   1.253   1.265  10.532  0.1844  0.0977  0.4582
 2182SOL    HW118179   1.319   1.198  10.550 -0.5707 -0.9990 -0.8791
 2182SOL    HW218180   1.216   1.282  10.619  3.1373  0.3994  1.6554
 2183SOL     OW18181   1.772   2.003   2.574 -0.4145 -0.6525  0.5217
 2183SOL    HW118182   1.837   1.938   2.600  0.7478 -0.2091 -1.2829
 2183SOL    HW218183   1.808   2.055   2.502 -1.9298 -0.3097  0.0189
 2184SOL     OW18184   2.170   4.235   0.985  0.5766 -0.0272 -0.3911
 2184SOL    HW118185   2.127   4.319   0.971 -0.6981 -0.4536  1.0116
 2184SOL    HW218186   2.144   4.186   0.907  2.3887 -1.0447 -0.3790
 2185SOL     OW18187   0.647   1.002   6.381  0.1422 -0.5646 -0.0309
 2185SOL    HW118188   0.645   0.907   6.389 -2.0538 -0.5504 -0.3828
 2185SOL    HW218189   0.612   1.019   6.469 -2.3221 -0.9646 -0.9376
 2186SOL     OW18190   0.387   0.198   2.694  0.6537 -0.8103  0.4020
 2186SOL    HW118191   0.340   0.123   2.657 -1.7056  0.8955 -0.0379
 2186SOL    HW218192   0.442   0.234   2.624 -1.2031 -0.4334 -0.8586
 2187SOL     OW18193   3.032   1.263   3.865 -0.3466  0.5773  0.1596
 2187SOL    HW118194   3.057   1.178   3.902 -1.4647 -0.4481 -1.4703
 2187SOL    HW218195   2.944   1.242   3.832  0.1166  0.5439 -1.0149
 2188SOL     OW18196   3.817   0.355   8.296 -0.1852 -0.1576  0.4271
 2188SOL    HW118197   3.815   0.431   8.354  1.8064  1.5649 -1.7831
 2188SOL    HW218198   3.910   0.335   8.289 -0.5614 -1.1828 -1.8947
 2189SOL     OW18199   2.375   3.006   9.480 -0.0600 -0.1271  0.5384
 2189SOL    HW118200   2.379   3.046   9.567 -0.2093  0.9275  0.0648
 2189SOL    HW218201   2.460   2.961   9.474 -0.2531 -0.7718  2.6199
 2190SOL     OW18202   3.022   0.741   0.967 -0.0451 -0.0116  0.1256
 2190SOL    HW118203   3.105   0.753   0.921  0.3836 -0.9005  0.6664
 2190SOL    HW218204   2.972   0.689   0.905 -0.2818 -1.0588  1.2109
 2191SOL     OW18205   0.589   0.884   7.963 -0.0493 -0.0553  0.1133
 2191SOL    HW118206   0.593   0.820   8.034  0.3419  0.3924  0.4961
 2191SOL    HW218207   0.495   0.883   7.942 -0.2508 -1.6163  1.0557
 2192SOL     OW18208   2.877   1.579   2.418  0.0972 -0.1739  0.4425
 2192SOL    HW118209   2.903   1.626   2.497  0.5135  2.4670 -1.2986
 2192SOL    HW218210   2.786   1.548   2.420 -0.1714  0.4234 -3.3903
 2193SOL     OW18211   3.039   1.331   8.835 -0.3108 -0.8382  0.5657
 2193SOL    HW118212   3.062   1.239   8.818 -1.2246 -1.1854  1.1429
 2193SOL    HW218213   2.945   1.343   8.818 -0.0922 -1.5013 -1.0840
 2194SOL     OW18214   1.378   4.409   4.733  0.1270 -0.4515  0.4701
 2194SOL    HW118215   1.333   4.453   4.662 -0.4106 -1.2889  0.3029
 2194SOL    HW218216   1.397   4.471   4.804  0.8101  0.2622 -0.3430
 2195SOL     OW18217   2.044   0.585  13.091  0.2798 -0.3092  0.2715
 2195SOL    HW118218   1.962   0.620  13.055  1.7030  1.9544 -0.7649
 2195SOL    HW218219   2.057   0.654  13.156 -0.4549 -0.2361  0.3438
 2196SOL     OW18220   3.584   3.463   2.653 -0.2808  0.8547 -0.5278
 2196SOL    HW118221   3.524   3.536   2.637  1.1860  1.7630 -1.9351
 2196SOL    HW218222   3.522   3.396   2.682  1.6665 -0.4727  0.5437
 2197SOL     OW18223   0.755   1.692   0.156 -0.0648  0.0166 -0.2047
 2197SOL    HW118224   0.669   1.670   0.122  0.3295 -1.5164 -0.2124
 2197SOL    HW218225   0.798   1.736   0.082  1.6073  1.0154  1.3583
 2198SOL     OW18226   0.257   3.055   1.652 -0.1214  0.0416 -0.5597
 2198SOL    HW118227   0.227   3.082   1.565  1.0951  1.7429 -0.4420
 2198SOL    HW218228   0.280   2.965   1.630  0.8713 -0.3330  2.0045
 2199SOL     OW18229   4.639   0.731   9.293 -0.1961  0.0062  0.1785
 2199SOL    HW118230   4.672   0.691   9.374 -2.1683 -0.0807  0.9430
 2199SOL    HW218231   4.690   0.690   9.223 -0.2457  1.0356 -0.4620
 2200SOL     OW18232   2.294   4.593   5.500 -0.5197  0.6669  0.0805
 2200SOL    HW118233   2.229   4.652   5.460 -1.1309 -0.3866 -0.4869
 2200SOL    HW218234   2.277   4.515   5.446 -0.2349 -0.4256  1.5730
 2201SOL     OW18235   0.436   3.920   0.482 -0.2737  0.1880  0.0833
 2201SOL    HW118236   0.523   3.879   0.485 -0.4976 -0.4643 -2.1028
 2201SOL    HW218237   0.449   3.999   0.429 -1.2401 -0.7933 -1.6130
 2202SOL     OW18238   2.558   3.188   6.812 -0.3764  0.0974  0.0945
 2202SOL    HW118239   2.572   3.274   6.851 -2.8844  1.3817 -1.8295
 2202SOL    HW218240   2.474   3.167   6.852 -1.7366 -0.9668 -3.3000
 2203SOL     OW18241   1.677   3.029   3.860  0.0755 -0.2475 -0.0002
 2203SOL    HW118242   1.720   2.984   3.787 -1.6886 -0.4257 -0.9329
 2203SOL    HW218243   1.753   3.026   3.918  0.2503 -0.4116 -0.2408
 2204SOL     OW18244   0.308   0.208  16.883  0.3594 -0.2828 -0.3352
 2204SOL    HW118245   0.251   0.138  16.913  0.7040  0.0574  1.0815
 2204SOL    HW218246   0.265   0.284  16.923  0.7471  0.3555 -1.1169
 2205SOL     OW18247   1.646   3.182   9.332  0.3475 -0.4003 -0.4053
 2205SOL    HW118248   1.716   3.242   9.304 -1.6512  1.9158 -0.4470
 2205SOL    HW218249   1.670   3.107   9.278  2.6893 -0.3472  0.5419
 2206SOL     OW18250   1.674   2.863   8.727 -0.2552 -0.0687  0.6877
 2206SOL    HW118251   1.755   2.826   8.692  0.1724  2.0179 -0.5125
 2206SOL    HW218252   1.637   2.908   8.650  3.2321 -1.4353 -1.7847
 2207SOL     OW18253   3.127   4.576   1.295 -0.2580  0.3917  0.0426
 2207SOL    HW118254   3.101   4.573   1.204 -1.7909 -0.0387  0.5017
 2207SOL    HW218255   3.169   4.490   1.303  3.9571  2.2498 -1.8855
 2208SOL     OW18256   2.773   3.374   3.746  0.2023 -0.3584 -0.1772
 2208SOL    HW118257   2.851   3.414   3.784 -1.8211  3.1538  0.2582
 2208SOL    HW218258   2.745   3.443   3.686 -0.4274 -3.1743 -3.0999
 2209SOL     OW18259   1.449   2.145   9.094 -0.0948 -0.2602 -0.2378
 2209SOL    HW118260   1.511   2.108   9.031 -1.5160  1.9065 -2.9089
 2209SOL    HW218261   1.374   2.175   9.042  1.0213  1.1197 -1.0711
 2210SOL     OW18262   4.015   3.046   4.820  0.0983 -0.0779 -0.5930
 2210SOL    HW118263   4.020   2.952   4.802 -0.4668 -0.6984  2.5706
 2210SOL    HW218264   3.981   3.067   4.733 -0.3395 -2.4121 -0.9780
 2211SOL     OW18265   0.207   0.194  12.423 -0.0482  0.3628  0.6987
 2211SOL    HW118266   0.245   0.276  12.394  1.6905 -0.3137  1.0771
 2211SOL    HW218267   0.278   0.171  12.483  1.8761  3.3415 -0.4674
 2212SOL     OW18268   1.449   4.367   2.813 -0.1872 -0.1796  0.5122
 2212SOL    HW118269   1.406   4.396   2.733  1.1674  0.4636  0.0309
 2212SOL    HW218270   1.537   4.344   2.782 -0.5618  0.0277 -0.6893
 2213SOL     OW18271   0.577   4.168   7.094  0.4113 -0.7862 -0.1638
 2213SOL    HW118272   0.580   4.143   7.002 -0.5042 -1.4666 -0.0010
 2213SOL    HW218273   0.501   4.116   7.118 -0.5398  1.7527  2.2914
 2214SOL     OW18274   3.314   4.403  11.972 -0.5102  0.5358  0.4545
 2214SOL    HW118275   3.336   4.490  11.939  1.4044  0.3821  1.3861
 2214SOL    HW218276   3.375   4.413  12.044 -1.4933 -0.7244  1.4645
 2215SOL     OW18277   3.979   0.298  17.266  0.0728  0.1422 -0.4266
 2215SOL    HW118278   3.997   0.216  17.220  3.0556  0.2870  0.5300
 2215SOL    HW218279   3.981   0.271  17.358  1.3045 -0.2719 -0.5778
 2216SOL     OW18280   2.434   3.447   7.043 -0.1342  0.1475  0.9003
 2216SOL    HW118281   2.412   3.379   7.106 -0.1660 -0.3823  0.3185
 2216SOL    HW218282   2.511   3.488   7.083  0.1511  0.8327 -0.3477
 2217SOL     OW18283   4.139   1.294   3.677  0.5944 -0.3796 -0.4740
 2217SOL    HW118284   4.156   1.377   3.632 -0.4868 -0.1222 -0.4286
 2217SOL    HW218285   4.213   1.237   3.656 -0.5758 -1.0791 -2.7260
 2218SOL     OW18286   1.859   4.148   6.323 -0.2525  0.1299  0.7428
 2218SOL    HW118287   1.896   4.086   6.386  1.9624 -1.0253 -1.6752
 2218SOL    HW218288   1.778   4.100   6.307  0.2047 -0.8573  1.4242
 2219SOL     OW18289   3.374   2.861   4.709 -0.1308 -0.3221 -0.2776
 2219SOL    HW118290   3.353   2.908   4.790 -0.5419 -0.8893 -0.0564
 2219SOL    HW218291   3.306   2.794   4.714 -0.4439 -0.0892 -1.3535
 2220SOL     OW18292   1.226   0.135   2.593 -0.5596 -0.2135  0.0762
 2220SOL    HW118293   1.230   0.229   2.576  0.0022  0.2730  2.9557
 2220SOL    HW218294   1.193   0.099   2.510 -0.3073 -0.5718  0.1341
 2221SOL     OW18295   0.151   0.408  14.168 -0.4913  0.4419 -0.5400
 2221SOL    HW118296   0.232   0.437  14.210  0.5172 -1.8421 -0.8703
 2221SOL    HW218297   0.100   0.368  14.238 -0.3284 -2.2422 -1.9314
 2222SOL     OW18298   1.346   1.466   3.564 -0.7963  0.0819  0.5082
 2222SOL    HW118299   1.349   1.408   3.489  0.2458 -1.6724  1.9248
 2222SOL    HW218300   1.263   1.437   3.601 -0.4388 -2.2942 -0.5760
 2223SOL     OW18301   3.830   3.971   4.173 -0.2457 -0.6754 -0.0390
 2223SOL    HW118302   3.850   3.877   4.176  0.4756 -0.5596 -1.2401
 2223SOL    HW218303   3.767   3.975   4.101  0.2417 -1.4817 -0.5121
 2224SOL     OW18304   4.618   3.636   1.010  0.0442 -0.4226 -0.3372
 2224SOL    HW118305   4.583   3.569   0.951 -2.0831  0.6678 -0.3124
 2224SOL    HW218306   4.659   3.694   0.945 -0.3384  1.1937  0.8843
 2225SOL     OW18307   1.975   4.366   0.023 -0.4022  0.1625 -0.7785
 2225SOL    HW118308   2.007   4.277   0.040  0.5670  0.7581  0.5039
 2225SOL    HW218309   1.975   4.370  17.689 -1.2075 -2.5161 -0.8903
 2226SOL     OW18310   3.783   2.585   7.073 -0.1005  0.1727 -0.3869
 2226SOL    HW118311   3.793   2.499   7.112  0.5017 -0.1732 -1.2933
 2226SOL    HW218312   3.849   2.589   7.004  1.0251  0.6383  0.7204
 2227SOL     OW18313   2.109   0.113   1.015 -0.4190 -0.2698 -0.4440
 2227SOL    HW118314   2.100   0.161   1.097 -2.1967 -0.8450 -0.2955
 2227SOL    HW218315   2.132   0.179   0.950 -0.3338  2.0571  1.9349
 2228SOL     OW18316   3.626   0.426   1.369 -0.2991  0.4558  0.4315
 2228SOL    HW118317   3.608   0.339   1.334 -0.8718  0.1250  1.5487
 2228SOL    HW218318   3.625   0.417   1.464 -1.2325 -2.1382  0.1605
 2229SOL     OW18319   3.089   0.956   9.660  0.5944 -0.5362 -0.2151
 2229SOL    HW118320   2.993   0.946   9.657  0.2253  3.3448 -1.2436
 2229SOL    HW218321   3.098   0.993   9.572  0.3252  0.3017  0.1054
 2230SOL     OW18322   0.173   2.890   3.311 -0.1152 -0.3174 -0.9566
 2230SOL    HW118323   0.095   2.944   3.322 -0.9701 -1.8447  0.5244
 2230SOL    HW218324   0.234   2.926   3.375 -2.1186 -1.3082  1.4939
 2231SOL     OW18325   2.541   1.892   1.722 -0.0182  0.1994 -0.4646
 2231SOL    HW118326   2.470   1.848   1.675 -0.2295  0.5902 -0.5100
 2231SOL    HW218327   2.600   1.914   1.651 -0.3700  0.3482 -0.7113
 2232SOL     OW18328   2.787   0.744   3.295 -0.1518  0.1627  0.7287
 2232SOL    HW118329   2.869   0.698   3.281 -0.4224  0.1357 -0.7650
 2232SOL    HW218330   2.787   0.722   3.388 -1.4315 -1.4306  0.3492
 2233SOL     OW18331   2.305   3.723  17.754  0.4065  0.1171  0.3052
 2233SOL    HW118332   2.217   3.704   0.025  0.4403  0.6272  0.6887
 2233SOL    HW218333   2.341   3.766   0.070 -0.6741  0.3675  0.6715
 2234SOL     OW18334   4.301   0.737   1.736  0.4396  0.3895 -0.1168
 2234SOL    HW118335   4.220   0.687   1.728 -0.4735  1.7819  0.3929
 2234SOL    HW218336   4.274   0.822   1.701 -0.3541  0.4059  0.5514
 2235SOL     OW18337   3.318   4.202  12.807  0.8522  0.5361 -0.1205
 2235SOL    HW118338   3.300   4.249  12.888  0.3944 -1.0159  0.6932
 2235SOL    HW218339   3.335   4.281  12.756  3.4528 -0.6855 -1.1257
 2236SOL     OW18340   3.958   4.224   8.730 -0.1184  0.4517  0.0272
 2236SOL    HW118341   3.956   4.132   8.702  0.7611  0.2126  0.7425
 2236SOL    HW218342   3.908   4.211   8.810  0.5510 -0.0883  0.3650
 2237SOL     OW18343   3.886   2.692   8.631 -0.4157 -0.1791 -0.1543
 2237SOL    HW118344   3.827   2.665   8.560  0.2723 -0.0666 -0.7616
 2237SOL    HW218345   3.866   2.630   8.701 -0.7483  0.4770  0.3344
 2238SOL     OW18346   0.518   4.227   6.165 -0.0484  0.0507 -0.8536
 2238SOL    HW118347   0.490   4.319   6.162  1.6170  0.5504 -0.9104
 2238SOL    HW218348   0.450   4.192   6.222  1.6220  0.9629  1.6619
 2239SOL     OW18349   1.340   1.732  13.700 -0.1011 -0.4077  0.3963
 2239SOL    HW118350   1.345   1.636  13.699 -0.6556 -0.4364  2.2016
 2239SOL    HW218351   1.248   1.755  13.690  0.4200  0.9410 -1.4496
 2240SOL     OW18352   4.296   4.006   5.715  0.7945 -0.2070 -0.3904
 2240SOL    HW118353   4.229   4.022   5.781 -0.0378 -2.2258 -0.7348
 2240SOL    HW218354   4.236   3.974   5.647 -0.9875 -0.3349  1.2516
 2241SOL     OW18355   1.469   4.724   3.736 -0.2524  0.3974 -0.7571
 2241SOL    HW118356   1.474   0.076   3.758  1.9443  0.2080 -0.4705
 2241SOL    HW218357   1.390   4.718   3.682 -2.3470  0.7260  2.2484
 2242SOL     OW18358   1.956   4.144   2.781  0.4989  0.5954 -0.2217
 2242SOL    HW118359   1.868   4.169   2.808  0.0612 -1.7751  0.5276
 2242SOL    HW218360   1.989   4.106   2.863  0.6801  1.1600 -0.0272
 2243SOL     OW18361   0.344   0.303   9.790  0.0056 -0.3897 -0.3805
 2243SOL    HW118362   0.366   0.217   9.754  0.6174 -0.1916 -0.4798
 2243SOL    HW218363   0.419   0.358   9.766  0.4296 -1.7750 -2.2012
 2244SOL     OW18364   3.645   1.095   0.228  0.4677 -0.4289  0.3539
 2244SOL    HW118365   3.695   1.177   0.224 -0.2521  0.0063  0.1443
 2244SOL    HW218366   3.567   1.126   0.274  0.0555 -1.3935  0.3003
 2245SOL     OW18367   2.944   2.924   4.500  0.2911 -0.1335 -0.2430
 2245SOL    HW118368   3.032   2.937   4.535  0.2503 -2.7869  0.8547
 2245SOL    HW218369   2.879   2.950   4.566  3.3861 -0.0685  2.7971
 2246SOL     OW18370   4.278   0.246   9.778  0.1242 -0.1985  0.7750
 2246SOL    HW118371   4.241   0.219   9.694  1.4309 -3.3305  1.1871
 2246SOL    HW218372   4.350   0.299   9.745 -0.1385  0.7366  1.7100
 2247SOL     OW18373   0.184   2.435   6.048 -0.3631  0.4746  0.4565
 2247SOL    HW118374   0.219   2.519   6.076  0.7415 -0.2080  1.1090
 2247SOL    HW218375   0.214   2.379   6.119  1.8063  0.9090 -0.1335
 2248SOL     OW18376   2.649   4.696   3.313 -0.2316 -0.0800  0.6007
 2248SOL    HW118377   2.636   4.604   3.339  1.3725 -0.6719 -0.6647
 2248SOL    HW218378   2.592   4.704   3.236  1.7282  0.4935 -0.7870
 2249SOL     OW18379   4.550   1.208   1.066  0.7500 -0.2292  0.1942
 2249SOL    HW118380   4.492   1.131   1.071 -2.1325  1.7254 -3.1038
 2249SOL    HW218381   4.481   1.274   1.065  1.0976  0.1095 -1.7435
 2250SOL     OW18382   0.324   3.292   9.042 -0.3177  0.0184  0.0906
 2250SOL    HW118383   0.348   3.257   8.957  0.4385  2.9263 -0.8845
 2250SOL    HW218384   0.282   3.371   9.010 -0.3297  1.6761  4.1246
 2251SOL     OW18385   3.268   3.066   9.456 -0.3253  0.2410 -0.7831
 2251SOL    HW118386   3.345   3.051   9.511 -0.1389  1.0899 -0.8153
 2251SOL    HW218387   3.193   3.031   9.505  0.4649 -1.5152 -0.8328
 2252SOL     OW18388   4.172   4.581   6.752  0.4061 -0.3335 -0.2142
 2252SOL    HW118389   4.264   4.591   6.727 -0.0084  0.3526 -1.4879
 2252SOL    HW218390   4.171   4.622   6.838  0.4060  2.7228 -1.6475
 2253SOL     OW18391   3.304   3.445   5.535 -0.5095  0.1597 -0.0780
 2253SOL    HW118392   3.225   3.464   5.484 -1.8149 -2.2526  1.0443
 2253SOL    HW218393   3.277   3.383   5.602  0.6480 -1.2160 -0.8778
 2254SOL     OW18394   3.089   2.716   5.229  0.2757  0.2591  0.6271
 2254SOL    HW118395   3.073   2.626   5.201  2.5804  0.4358 -1.2304
 2254SOL    HW218396   3.184   2.722   5.223  0.2121 -0.3477 -0.8653
 2255SOL     OW18397   4.491   1.686   8.298 -0.0703 -0.2006  0.0575
 2255SOL    HW118398   4.542   1.756   8.339 -1.8176 -0.2440  2.3318
 2255SOL    HW218399   4.521   1.695   8.208 -3.1334  0.9037 -0.8552
 2256SOL     OW18400   2.175   2.872   7.147  0.1323 -0.3363  0.4554
 2256SOL    HW118401   2.117   2.796   7.145  0.1604 -0.3456 -0.0707
 2256SOL    HW218402   2.123   2.929   7.204 -1.1359 -1.3927  0.3692
 2257SOL     OW18403   2.037   0.484   6.820 -0.6337 -0.4364 -0.4600
 2257SOL    HW118404   2.104   0.499   6.754 -1.0904  1.8872 -0.3955
 2257SOL    HW218405   1.970   0.437   6.771  0.8715  0.9392 -3.7864
 2258SOL     OW18406   3.947   1.511   5.512 -0.4467  0.5564  0.1922
 2258SOL    HW118407   4.002   1.497   5.589  2.3078 -1.4385 -2.1376
 2258SOL    HW218408   3.978   1.443   5.453 -1.0324  0.1802  0.3248
 2259SOL     OW18409   0.018   1.980  10.975 -0.1647  0.1265  0.1998
 2259SOL    HW118410   0.006   1.923  11.051  1.4870  0.2753  0.5790
 2259SOL    HW218411   4.675   2.025  10.969 -1.1501 -1.9183 -1.3191
 2260SOL     OW18412   3.937   2.363   1.818  0.0758 -0.2820  0.1380
 2260SOL    HW118413   3.967   2.279   1.784 -1.0351 -0.3303 -0.7362
 2260SOL    HW218414   3.865   2.340   1.878  0.0141  1.8809  0.9187
 2261SOL     OW18415   2.584   1.831   8.258 -0.1705 -0.8665 -0.1178
 2261SOL    HW118416   2.573   1.747   8.213 -0.9923 -0.6754 -0.2714
 2261SOL    HW218417   2.553   1.885   8.186 -1.2269 -1.1125  0.1474
 2262SOL     OW18418   4.534   4.152   6.755 -0.4471  0.2453 -0.3943
 2262SOL    HW118419   4.584   4.182   6.830  1.8348  1.2862 -2.3364
 2262SOL    HW218420   4.450   4.119   6.788  0.6598 -3.0568 -0.9131
 2263SOL     OW18421   3.047   1.316  13.268  0.2059  0.1814 -0.8000
 2263SOL    HW118422   3.124   1.288  13.219  0.0716 -0.6363 -0.5295
 2263SOL    HW218423   3.075   1.386  13.327 -0.4690  0.7958 -1.2069
 2264SOL     OW18424   3.795   1.827   4.859 -0.1935 -0.5164 -0.2094
 2264SOL    HW118425   3.796   1.908   4.808  2.0486  0.3921  1.2574
 2264SOL    HW218426   3.747   1.766   4.803  1.9164 -0.6694 -1.8188
 2265SOL     OW18427   2.095   4.076   3.417 -0.3737  0.4909  0.1304
 2265SOL    HW118428   2.055   4.144   3.471 -0.1708  0.4524  0.3314
 2265SOL    HW218429   2.020   4.031   3.379 -0.3444  0.5584 -0.0055
 2266SOL     OW18430   1.818   1.717  13.231  0.2947 -0.5960 -0.1638
 2266SOL    HW118431   1.893   1.692  13.177  0.2212 -0.5287 -0.2948
 2266SOL    HW218432   1.756   1.645  13.222 -2.2317  1.6794 -1.0438
 2267SOL     OW18433   0.591   0.749   3.364  0.2784 -0.3739  0.0434
 2267SOL    HW118434   0.548   0.713   3.442  0.2320  0.5904  0.4561
 2267SOL    HW218435   0.610   0.671   3.312  1.4557 -1.5003  2.1676
 2268SOL     OW18436   2.206   0.605   4.905  0.9213  0.8806 -0.3472
 2268SOL    HW118437   2.293   0.618   4.944  0.3678  1.9325  0.5593
 2268SOL    HW218438   2.220   0.553   4.826 -1.3959 -1.3635  0.7433
 2269SOL     OW18439   0.445   3.552  14.734 -0.0900 -0.4552  0.2989
 2269SOL    HW118440   0.506   3.495  14.686  1.4348  1.6376 -0.2365
 2269SOL    HW218441   0.507   3.608  14.780 -1.7639  1.0422  0.7088
 2270SOL     OW18442   3.280   0.904   3.812  0.2313 -0.1630 -0.7595
 2270SOL    HW118443   3.272   0.923   3.719  0.9462  1.4407 -0.4895
 2270SOL    HW218444   3.225   0.826   3.821 -1.9991  1.4765 -0.4284
 2271SOL     OW18445   1.008   1.340   8.209  0.0268 -0.6181  0.1222
 2271SOL    HW118446   1.004   1.430   8.242  1.6231 -0.4796 -0.0746
 2271SOL    HW218447   0.967   1.351   8.123 -1.3240  0.5461  0.9229
 2272SOL     OW18448   3.179   0.009  15.852  0.1064  0.2469  0.1355
 2272SOL    HW118449   3.196   4.659  15.827  2.5548  0.5158  0.8119
 2272SOL    HW218450   3.118   4.722  15.920 -0.5952 -1.8915 -1.3632
 2273SOL     OW18451   4.699   0.329   6.349 -0.2226 -0.3059 -0.4329
 2273SOL    HW118452   0.032   0.324   6.409 -0.7421 -0.7004  0.1678
 2273SOL    HW218453   4.703   0.249   6.297 -0.3905 -1.1955  0.9358
 2274SOL     OW18454   1.853   4.669  11.818  0.0744  0.6352 -0.2886
 2274SOL    HW118455   1.923   4.710  11.869 -0.1230  0.4456  0.1358
 2274SOL    HW218456   1.778   4.693  11.873  0.2284  2.2318 -0.8062
 2275SOL     OW18457   3.831   1.804  10.024  0.0821 -0.3765  0.1239
 2275SOL    HW118458   3.857   1.859   9.950  0.8987  0.3568  0.9599
 2275SOL    HW218459   3.753   1.851  10.053 -0.9594 -2.3719  0.5151
 2276SOL     OW18460   1.309   0.535  15.441 -0.0130 -0.2412  0.6992
 2276SOL    HW118461   1.382   0.583  15.402  0.4327 -0.7996  0.8444
 2276SOL    HW218462   1.329   0.552  15.533 -0.2174  0.8755  0.5361
 2277SOL     OW18463   1.711   1.643  11.577  0.0040 -0.1528 -0.0329
 2277SOL    HW118464   1.703   1.728  11.619 -0.3620  0.3946 -1.2198
 2277SOL    HW218465   1.695   1.582  11.649  2.4330 -1.8770 -0.9697
 2278SOL     OW18466   0.668   1.512  16.937 -0.5115 -0.3386 -0.0704
 2278SOL    HW118467   0.574   1.528  16.925 -0.4404  1.2971  1.3328
 2278SOL    HW218468   0.701   1.529  16.849  0.0169 -2.6820 -0.3090
 2279SOL     OW18469   2.712   2.098  11.291 -0.1127 -0.5223  0.6895
 2279SOL    HW118470   2.774   2.068  11.357 -0.4330 -0.3299  1.0777
 2279SOL    HW218471   2.768   2.103  11.214  0.1306  0.8714  0.9536
 2280SOL     OW18472   0.458   2.323   9.703 -0.4949  0.3027 -0.3719
 2280SOL    HW118473   0.480   2.237   9.667 -4.1464 -1.2201  0.9985
 2280SOL    HW218474   0.520   2.333   9.775  1.1780  0.0319 -1.7824
 2281SOL     OW18475   4.568   3.635   2.469 -0.0053  0.6877 -0.0727
 2281SOL    HW118476   4.636   3.702   2.480  2.6997 -1.8074 -1.8418
 2281SOL    HW218477   4.611   3.555   2.440 -2.2922  0.0888 -1.7673
 2282SOL     OW18478   2.551   2.712   1.228 -0.3453  0.0651  0.2219
 2282SOL    HW118479   2.514   2.789   1.185 -0.2344  0.2896  0.5247
 2282SOL    HW218480   2.644   2.734   1.224 -0.7099  1.3947 -1.0287
 2283SOL     OW18481   2.034   2.550   4.414  0.5679  0.0097  0.6361
 2283SOL    HW118482   1.995   2.491   4.349 -2.0266  1.0449  1.2525
 2283SOL    HW218483   2.011   2.506   4.496 -4.5347 -0.4369 -1.0392
 2284SOL     OW18484   2.213   2.828   3.149 -0.1028 -0.2798 -0.1248
 2284SOL    HW118485   2.309   2.828   3.147 -0.0602 -0.7724  2.0249
 2284SOL    HW218486   2.197   2.889   3.078  0.3533  0.5566  0.4914
 2285SOL     OW18487   0.845   0.963   7.819  0.5084  0.1606  0.1022
 2285SOL    HW118488   0.874   0.885   7.864 -1.3004  0.5224  1.8820
 2285SOL    HW218489   0.750   0.971   7.829  0.6328  1.7343  0.0426
 2286SOL     OW18490   4.123   3.682   9.634 -0.5377  0.0355 -0.4492
 2286SOL    HW118491   4.121   3.647   9.723 -0.8634 -0.6242 -0.7194
 2286SOL    HW218492   4.041   3.733   9.642  1.3558  3.3392 -2.0687
 2287SOL     OW18493   1.042   4.559   7.990  0.1348  0.0024 -0.6522
 2287SOL    HW118494   1.136   4.547   8.002  0.0716  0.3605  0.1942
 2287SOL    HW218495   1.042   4.594   7.901  0.9382  2.4377  0.3007
 2288SOL     OW18496   0.729   4.400   6.278  0.3810 -0.4187 -0.3069
 2288SOL    HW118497   0.675   4.339   6.228  0.4133 -0.8211  0.1524
 2288SOL    HW218498   0.667   4.463   6.315  0.2805 -0.7116  0.0274
 2289SOL     OW18499   1.525   4.229  11.607 -0.1196  0.2536  0.3252
 2289SOL    HW118500   1.519   4.134  11.599 -0.1783  0.2856 -0.0138
 2289SOL    HW218501   1.618   4.237  11.630 -0.2066  1.7332  0.1874
 2290SOL     OW18502   4.525   2.822   3.222  0.0208  0.3067 -0.3570
 2290SOL    HW118503   4.550   2.905   3.183 -0.4623  1.0228  0.8498
 2290SOL    HW218504   4.577   2.820   3.302 -1.7832 -1.1258  0.7900
 2291SOL     OW18505   3.826   4.151   2.213  0.4972  0.4132  0.1816
 2291SOL    HW118506   3.734   4.166   2.191  0.2572 -0.9896  0.2253
 2291SOL    HW218507   3.863   4.210   2.147 -1.1689  1.4752  0.2076
 2292SOL     OW18508   0.573   2.503  17.576  0.4334  0.1111  0.3039
 2292SOL    HW118509   0.646   2.509  17.514  0.6468  1.9173  0.7279
 2292SOL    HW218510   0.613   2.524  17.660  0.5756 -1.4692  0.6431
 2293SOL     OW18511   3.302   3.948  15.280  0.1042  0.3508  0.0759
 2293SOL    HW118512   3.242   4.023  15.282  0.4471  0.5274  3.4642
 2293SOL    HW218513   3.236   3.879  15.269 -0.0994  0.8142 -1.6032
 2294SOL     OW18514   3.773   1.629   5.351  0.5845 -0.5027 -0.0850
 2294SOL    HW118515   3.833   1.597   5.419 -0.0615 -0.7285  0.3776
 2294SOL    HW218516   3.828   1.686   5.297 -1.4618  2.6061  1.1163
 2295SOL     OW18517   2.204   1.888   2.944  0.4353 -0.2505 -0.1126
 2295SOL    HW118518   2.241   1.827   3.008  0.9263 -0.7252 -0.8384
 2295SOL    HW218519   2.264   1.962   2.947 -1.7114  1.3620  1.9486
 2296SOL     OW18520   2.009   3.610   4.254 -0.3195 -0.5038  0.0066
 2296SOL    HW118521   1.950   3.575   4.320 -0.6681 -1.5700 -0.8707
 2296SOL    HW218522   2.024   3.526   4.210  0.9833 -0.9933  1.3706
 2297SOL     OW18523   3.118   4.349   1.605 -0.1820  0.9104 -0.0894
 2297SOL    HW118524   3.041   4.294   1.614  1.0265 -0.7310  0.1355
 2297SOL    HW218525   3.103   4.411   1.676 -0.0449  0.3184  0.4530
 2298SOL     OW18526   4.581   4.695   1.943 -0.9473  0.1214 -0.3901
 2298SOL    HW118527   4.614   0.018   1.881 -0.6525  0.0291 -0.3295
 2298SOL    HW218528   4.581   4.625   1.877  0.7995  1.6473 -2.0233
 2299SOL     OW18529   2.125   0.650   9.036 -0.1011  0.1944  0.3314
 2299SOL    HW118530   2.213   0.647   8.999  0.8393 -0.6940  2.6526
 2299SOL    HW218531   2.107   0.562   9.070 -3.1864  0.3274 -0.9446
 2300SOL     OW18532   4.386   1.517   7.868 -0.0254 -0.3549  0.1115
 2300SOL    HW118533   4.307   1.464   7.875  0.0486 -0.4618  0.1389
 2300SOL    HW218534   4.346   1.601   7.893 -0.6285 -0.9934  1.2844
 2301SOL     OW18535   0.479   1.455   3.121 -0.0535 -0.5319  0.2538
 2301SOL    HW118536   0.459   1.362   3.113 -1.2775 -0.2960  0.6108
 2301SOL    HW218537   0.553   1.464   3.060 -0.4797  0.7356 -0.0891
 2302SOL     OW18538   0.621   4.276   4.401  0.2365 -0.5620  0.1450
 2302SOL    HW118539   0.669   4.291   4.320  1.1228  0.2929  0.8299
 2302SOL    HW218540   0.545   4.333   4.384 -1.0587 -2.5873 -0.8233
 2303SOL     OW18541   3.845   0.196   2.000  0.4398  0.1298 -0.1210
 2303SOL    HW118542   3.839   0.189   2.095 -3.1733 -0.5454 -0.4159
 2303SOL    HW218543   3.829   0.108   1.965 -0.1360 -0.1892  0.9448
 2304SOL     OW18544   0.222   2.271   3.749  0.4920  0.5562  0.5495
 2304SOL    HW118545   0.181   2.354   3.724 -2.0657 -1.0378 -0.5378
 2304SOL    HW218546   0.288   2.272   3.680 -0.8159 -0.4547 -0.7018
 2305SOL     OW18547   2.298   0.857  11.546  0.2606  0.2813  0.6319
 2305SOL    HW118548   2.346   0.940  11.546  2.4725 -1.0007  0.8888
 2305SOL    HW218549   2.317   0.823  11.459  1.0616  0.3755  0.7614
 2306SOL     OW18550   0.393   0.887   1.662 -0.1108 -0.0982 -0.0412
 2306SOL    HW118551   0.350   0.945   1.599 -2.5108 -1.4193  0.3489
 2306SOL    HW218552   0.442   0.830   1.604 -1.2651 -0.3676 -0.7518
 2307SOL     OW18553   0.959   1.303  16.092  0.6969 -0.4202 -0.0523
 2307SOL    HW118554   0.915   1.315  16.008 -0.8579 -1.9732  0.5416
 2307SOL    HW218555   1.034   1.249  16.066  0.7439 -0.3688 -0.0237
 2308SOL     OW18556   0.808   3.521   7.492 -0.0600  0.6573  0.2553
 2308SOL    HW118557   0.820   3.508   7.586  1.2087  2.8060  0.3739
 2308SOL    HW218558   0.873   3.589   7.475 -0.5199  0.8099 -0.8613
 2309SOL     OW18559   1.875   3.396   5.130 -0.2343 -0.2298  0.5233
 2309SOL    HW118560   1.963   3.434   5.117 -1.1966  0.9795 -2.5244
 2309SOL    HW218561   1.875   3.387   5.225  1.4599  0.6473  0.6174
 2310SOL     OW18562   3.007   3.461   5.116 -0.0889  0.4190  0.2922
 2310SOL    HW118563   3.025   3.492   5.028 -0.7577 -1.9572 -0.6941
 2310SOL    HW218564   3.092   3.433   5.150 -0.9359  0.8906  2.8062
 2311SOL     OW18565   3.070   0.716   3.822 -0.3381  0.4609 -0.9074
 2311SOL    HW118566   3.031   0.633   3.851 -0.2823  1.6702  2.5641
 2311SOL    HW218567   3.098   0.690   3.734 -2.0054 -1.4230 -0.8935
 2312SOL     OW18568   0.927   1.942   5.857  0.4285  0.0888 -0.1756
 2312SOL    HW118569   0.892   1.982   5.937 -1.4946  0.6623 -1.3027
 2312SOL    HW218570   0.990   2.008   5.828 -0.6581  1.5789  0.8813
 2313SOL     OW18571   4.077   2.528   9.775  0.1245  0.1623  0.0490
 2313SOL    HW118572   4.028   2.448   9.794  2.2676 -0.7826  1.6639
 2313SOL    HW218573   4.059   2.536   9.682 -0.3922 -0.7510  0.0695
 2314SOL     OW18574   2.525   1.272   2.300 -0.1203 -0.4199 -0.3940
 2314SOL    HW118575   2.486   1.348   2.345  0.8429 -0.4032  0.4052
 2314SOL    HW218576   2.460   1.206   2.327 -1.2418  0.3413 -1.2545
 2315SOL     OW18577   2.393   4.103   4.280  0.2250  0.6822 -0.2165
 2315SOL    HW118578   2.313   4.064   4.243  1.0425 -0.2662 -0.9804
 2315SOL    HW218579   2.375   4.119   4.373  0.7409 -0.7516  0.1256
 2316SOL     OW18580   3.019   4.071   4.955  0.5127  0.1572 -0.3559
 2316SOL    HW118581   3.054   4.026   5.032 -1.9371  0.6023  1.0425
 2316SOL    HW218582   3.040   4.008   4.887  0.1541  0.0573 -0.3765
 2317SOL     OW18583   3.186   4.172   6.279  0.2107  0.9602 -0.0905
 2317SOL    HW118584   3.253   4.115   6.317 -3.2454 -1.4154  2.4963
 2317SOL    HW218585   3.105   4.142   6.321  1.0675  0.9365  1.5368
 2318SOL     OW18586   3.507   1.754  11.311 -0.8732  0.0549  0.2650
 2318SOL    HW118587   3.472   1.735  11.224  1.5518  0.4071 -0.7712
 2318SOL    HW218588   3.539   1.843  11.299 -1.5592  0.4491  1.3783
 2319SOL     OW18589   0.959   4.109   1.445 -0.2621  0.3693  0.5566
 2319SOL    HW118590   0.874   4.136   1.480  0.4626  1.2994  1.5968
 2319SOL    HW218591   0.943   4.016   1.430 -0.3584  0.4681  0.0221
 2320SOL     OW18592   2.443   1.534   6.574  0.0751  0.1301 -0.3123
 2320SOL    HW118593   2.432   1.480   6.652  1.1231 -1.1418 -1.0361
 2320SOL    HW218594   2.447   1.620   6.615 -1.5851  0.1653 -0.2204
 2321SOL     OW18595   3.454   1.939   8.025 -0.0849  0.1070 -0.3212
 2321SOL    HW118596   3.387   1.872   8.011  0.2020 -0.5965  1.8108
 2321SOL    HW218597   3.483   1.956   7.935 -1.3266 -1.1289 -0.9406
 2322SOL     OW18598   0.249   1.502   1.649  0.0018  0.0534  0.0045
 2322SOL    HW118599   0.158   1.489   1.677 -0.8351  0.8671 -2.3018
 2322SOL    HW218600   0.252   1.448   1.570  2.4351  0.4260 -0.1526
 2323SOL     OW18601   3.183   4.211   7.302 -0.4431  0.2188 -0.8687
 2323SOL    HW118602   3.210   4.186   7.214  0.8805  0.1577 -0.4428
 2323SOL    HW218603   3.095   4.247   7.289 -0.7413 -0.0278  0.4780
 2324SOL     OW18604   2.688   0.091   1.768  0.5967  0.1685  0.2897
 2324SOL    HW118605   2.632   0.115   1.694  0.9790  0.7406  0.1820
 2324SOL    HW218606   2.697   0.180   1.803 -0.2090  1.0503 -1.7324
 2325SOL     OW18607   3.047   2.435  13.187  0.2947 -0.0034 -0.1392
 2325SOL    HW118608   2.975   2.372  13.187 -0.4321  0.8305 -0.5089
 2325SOL    HW218609   2.998   2.515  13.205 -2.3759 -2.1693  2.2664
 2326SOL     OW18610   2.804   0.373   2.704 -0.2446  0.4197 -0.7376
 2326SOL    HW118611   2.729   0.337   2.752  1.7342 -2.2515  0.3777
 2326SOL    HW218612   2.874   0.336   2.758  0.2466  3.8504  0.9573
 2327SOL     OW18613   3.585   4.624  14.569  0.1372 -0.1484 -0.1081
 2327SOL    HW118614   3.677   4.617  14.546  0.3047 -1.4692  1.0143
 2327SOL    HW218615   3.571   4.535  14.601  0.1732 -0.0450  0.1932
 2328SOL     OW18616   4.416   2.284  11.238  0.1364 -0.2629  0.3851
 2328SOL    HW118617   4.500   2.253  11.203 -2.5264 -2.9904 -3.5046
 2328SOL    HW218618   4.355   2.217  11.209 -0.3414  0.4420 -0.2180
 2329SOL     OW18619   1.288   3.595   6.361  0.5714 -0.0240  0.3357
 2329SOL    HW118620   1.227   3.659   6.323  1.0213  1.6674  2.5046
 2329SOL    HW218621   1.235   3.516   6.359  0.5121  0.0510 -1.7807
 2330SOL     OW18622   3.569   2.119   2.097  0.5311 -0.6699  0.0141
 2330SOL    HW118623   3.537   2.164   2.176 -3.1391 -1.0630 -1.2332
 2330SOL    HW218624   3.532   2.034   2.123 -0.0338 -0.2203  0.7142
 2331SOL     OW18625   0.942   0.347   4.985  0.2015  0.1275  0.0915
 2331SOL    HW118626   0.979   0.267   5.023 -1.1566 -0.2209  0.6775
 2331SOL    HW218627   0.849   0.325   4.985 -0.4167  2.7303  1.9194
 2332SOL     OW18628   1.918   3.005   2.721 -0.5671 -0.2575  0.6547
 2332SOL    HW118629   1.871   2.960   2.652  0.6416 -0.0624 -0.3090
 2332SOL    HW218630   1.955   3.073   2.664 -0.1609 -2.8273 -2.1031
 2333SOL     OW18631   0.810   0.532   4.246  0.1370  0.0764 -0.1451
 2333SOL    HW118632   0.775   0.485   4.170  0.1592  0.0102 -0.1147
 2333SOL    HW218633   0.751   0.493   4.311 -1.9629  1.1321 -1.4343
 2334SOL     OW18634   4.271   4.068   6.898  0.5051  0.7098  0.3527
 2334SOL    HW118635   4.309   4.045   6.983 -0.4018 -0.0809  0.5476
 2334SOL    HW218636   4.251   4.160   6.912 -2.0831  0.3215 -0.6957
 2335SOL     OW18637   3.160   3.437  14.148 -0.1503 -0.2466 -0.3368
 2335SOL    HW118638   3.213   3.413  14.072 -1.6597  0.1072 -1.5092
 2335SOL    HW218639   3.217   3.501  14.190  0.7241 -1.5517  0.4507
 2336SOL     OW18640   3.281   2.829   7.445 -0.1550  0.1357 -0.3246
 2336SOL    HW118641   3.351   2.768   7.467 -1.1868 -0.8370  0.2425
 2336SOL    HW218642   3.225   2.781   7.384  1.2947 -1.6815 -0.2308
 2337SOL     OW18643   4.313   4.006   8.107 -0.1419 -0.0368  0.4035
 2337SOL    HW118644   4.218   3.994   8.118 -0.5248  1.7128 -0.8857
 2337SOL    HW218645   4.335   3.978   8.196  0.3052  1.0466  0.6383
 2338SOL     OW18646   2.793   1.154   4.150  0.4123  0.5495 -0.0972
 2338SOL    HW118647   2.788   1.131   4.058 -1.6492 -1.9028  0.6338
 2338SOL    HW218648   2.705   1.140   4.183  1.0114 -2.3821  0.2839
 2339SOL     OW18649   2.851   2.656   4.493  0.2264  0.2803  0.0753
 2339SOL    HW118650   2.946   2.658   4.478  0.1283 -3.9011 -1.2729
 2339SOL    HW218651   2.824   2.746   4.479  2.0045  0.9853  1.1289
 2340SOL     OW18652   1.560   3.232   2.197  0.9753  0.3048  0.1370
 2340SOL    HW118653   1.498   3.240   2.270 -0.1937  1.3989 -0.9560
 2340SOL    HW218654   1.635   3.199   2.246  0.2581 -0.8300  0.4872
 2341SOL     OW18655   2.871   3.279  13.177  0.4970 -0.3913 -0.2776
 2341SOL    HW118656   2.888   3.279  13.271  3.9516 -0.0063 -0.8948
 2341SOL    HW218657   2.805   3.210  13.179  0.7564 -0.5858  1.9724
 2342SOL     OW18658   2.495   4.368   2.706  0.2055  0.0624  0.0453
 2342SOL    HW118659   2.559   4.302   2.681 -0.8488 -1.4545  1.3287
 2342SOL    HW218660   2.459   4.373   2.617  0.9849  0.5242 -0.2359
 2343SOL     OW18661   0.408   2.371   3.568 -0.0762  0.1786  0.4476
 2343SOL    HW118662   0.466   2.332   3.504  0.8005  0.2149  1.2253
 2343SOL    HW218663   0.371   2.435   3.507  0.9540  0.6784  0.3474
 2344SOL     OW18664   1.687   0.937   6.026 -0.8380 -0.4822 -0.6945
 2344SOL    HW118665   1.600   0.971   6.044  0.2354  0.9850  1.7918
 2344SOL    HW218666   1.749   1.004   6.056 -1.3603 -0.3461  0.0881
 2345SOL     OW18667   0.767   3.262   9.476 -0.0480 -0.0026  0.5938
 2345SOL    HW118668   0.757   3.356   9.490 -1.5024 -0.5921  3.4528
 2345SOL    HW218669   0.684   3.238   9.516  0.0211  2.4150  2.2033
 2346SOL     OW18670   1.948   3.832  14.912 -0.6653  0.1684 -0.0527
 2346SOL    HW118671   2.040   3.820  14.889 -0.8422 -2.7815  0.8185
 2346SOL    HW218672   1.908   3.751  14.880  0.6446 -0.3655 -0.3372
 2347SOL     OW18673   1.560   0.001   5.727  0.0949 -0.2371 -0.0255
 2347SOL    HW118674   1.655   4.730   5.728 -0.1258 -2.0488 -1.0129
 2347SOL    HW218675   1.531   4.663   5.771  0.8054 -1.3554 -1.5438
 2348SOL     OW18676   4.457   3.192  12.312  0.1470 -0.0927 -0.1303
 2348SOL    HW118677   4.531   3.239  12.275  1.4289 -1.5936  0.5161
 2348SOL    HW218678   4.391   3.200  12.244 -0.1974 -1.7692  0.0087
 2349SOL     OW18679   3.663   2.290   9.855  0.1227  0.2037 -0.2661
 2349SOL    HW118680   3.738   2.301   9.797  1.7413 -0.0614  1.7693
 2349SOL    HW218681   3.592   2.331   9.806 -0.3924 -0.5161 -0.1233
 2350SOL     OW18682   0.502   2.703   3.127  0.3034  0.3507 -0.1839
 2350SOL    HW118683   0.586   2.730   3.165  1.1246  0.9009 -2.3948
 2350SOL    HW218684   0.460   2.782   3.094 -1.7819 -0.9314 -0.5858
 2351SOL     OW18685   3.674   2.488   8.637  0.0859 -0.4611  0.9700
 2351SOL    HW118686   3.628   2.406   8.655 -0.4345 -0.6441 -1.1757
 2351SOL    HW218687   3.659   2.498   8.543 -1.3702 -1.1844  1.1184
 2352SOL     OW18688   2.092   2.380   4.872  0.0922  0.5528 -0.1786
 2352SOL    HW118689   2.082   2.466   4.912 -0.0546  0.4181  0.0762
 2352SOL    HW218690   2.176   2.392   4.828  0.5252 -2.3438 -0.1633
 2353SOL     OW18691   2.371   3.506  15.100 -0.3961 -0.0878 -0.2154
 2353SOL    HW118692   2.348   3.434  15.042  1.8769  0.0956 -1.3570
 2353SOL    HW218693   2.368   3.579  15.038  1.5097 -0.8912 -1.2668
 2354SOL     OW18694   0.153   3.245   6.837  0.8105 -0.2384  0.4654
 2354SOL    HW118695   0.085   3.310   6.821 -0.7161 -1.5745  1.6517
 2354SOL    HW218696   0.228   3.303   6.818 -0.1044  0.1471 -1.9845
 2355SOL     OW18697   0.292   2.133   2.549 -0.4127 -0.0313 -1.0855
 2355SOL    HW118698   0.344   2.093   2.479  0.3131  2.2288 -1.8301
 2355SOL    HW218699   0.278   2.049   2.594  1.4514 -1.4025 -3.0670
 2356SOL     OW18700   2.893   1.439   1.787 -0.4640  0.0048 -0.8426
 2356SOL    HW118701   2.810   1.476   1.757 -0.8770  0.6091  1.0507
 2356SOL    HW218702   2.930   1.409   1.705 -1.2212  1.5968 -1.7685
 2357SOL     OW18703   2.606   1.399   3.954  0.3915  0.0973 -0.5257
 2357SOL    HW118704   2.560   1.393   4.038  3.0825 -1.9736  0.8161
 2357SOL    HW218705   2.563   1.340   3.893  2.7887 -2.1402 -0.0315
 2358SOL     OW18706   0.986   4.648  11.408  0.0119 -0.1042 -0.5908
 2358SOL    HW118707   1.082   4.647  11.411 -0.0351 -0.8435  1.1450
 2358SOL    HW218708   0.978   4.735  11.447 -0.2852 -0.7346  0.7772
 2359SOL     OW18709   1.101   0.323   2.945 -0.3128 -0.0084 -0.0135
 2359SOL    HW118710   1.084   0.383   2.872 -0.5791  0.5940  0.5394
 2359SOL    HW218711   1.009   0.303   2.962 -0.6744  2.8856  1.6162
 2360SOL     OW18712   1.730   4.462   4.931  0.0348 -0.4519  0.2544
 2360SOL    HW118713   1.786   4.534   4.962  4.0387 -2.6573 -1.8501
 2360SOL    HW218714   1.661   4.506   4.881 -0.9748 -1.2377  0.9606
 2361SOL     OW18715   1.348   0.734  11.827 -0.0100 -0.5685  0.6446
 2361SOL    HW118716   1.317   0.651  11.863  0.0962 -1.1005 -0.5121
 2361SOL    HW218717   1.441   0.724  11.846 -0.0779  0.4202  1.5207
 2362SOL     OW18718   1.991   0.112   2.955  0.3132  0.1572  0.3321
 2362SOL    HW118719   1.900   0.108   2.986  0.8515 -0.6595  1.8287
 2362SOL    HW218720   1.969   0.170   2.882 -3.7368 -1.2851  0.3552
 2363SOL     OW18721   3.540   4.121  13.516 -0.1360 -0.4373  0.4385
 2363SOL    HW118722   3.546   4.203  13.565  1.4983 -0.7402  0.7400
 2363SOL    HW218723   3.444   4.114  13.513  0.0872 -2.8206 -0.8449
 2364SOL     OW18724   0.785   0.820   5.562 -0.1052  0.1408  0.0621
 2364SOL    HW118725   0.854   0.778   5.511  1.1187  1.7966  0.3522
 2364SOL    HW218726   0.807   0.910   5.540 -2.0814  0.9586  1.4762
 2365SOL     OW18727   1.834   4.268   9.371  0.5193  0.2095  0.1971
 2365SOL    HW118728   1.882   4.190   9.344 -0.5173  0.3435 -2.0434
 2365SOL    HW218729   1.887   4.307   9.441 -1.0816  0.8104  1.0848
 2366SOL     OW18730   1.958   0.181   3.640 -0.2511  0.2189  0.1418
 2366SOL    HW118731   1.992   0.166   3.728  0.2877 -1.1373 -0.3073
 2366SOL    HW218732   1.885   0.120   3.644  3.2963 -3.9890  0.0480
 2367SOL     OW18733   0.213   0.572  14.592 -0.3909  0.3938 -0.0598
 2367SOL    HW118734   0.235   0.532  14.676 -1.9815  2.0969  1.1596
 2367SOL    HW218735   0.206   0.661  14.626  0.8133 -0.3336  2.0876
 2368SOL     OW18736   0.112   4.092  17.636 -0.2802  0.1058  0.1352
 2368SOL    HW118737   0.121   4.081  17.730  0.8810 -1.0062 -0.0969
 2368SOL    HW218738   0.178   4.160  17.625 -0.2892  0.2845  1.2130
 2369SOL     OW18739   3.110   1.797   3.414  0.2640  0.3346 -0.2644
 2369SOL    HW118740   3.097   1.868   3.352 -1.6090 -1.8874 -2.4169
 2369SOL    HW218741   3.045   1.739   3.374  0.4558 -0.2940  0.3415
 2370SOL     OW18742   3.928   3.695   6.491 -0.2871  0.0953 -0.0938
 2370SOL    HW118743   3.933   3.789   6.474  0.7260  0.3258  1.4320
 2370SOL    HW218744   3.918   3.682   6.585  0.6241  0.4453  0.0576
 2371SOL     OW18745   3.423   3.099   2.981 -0.4546 -0.0888  0.0479
 2371SOL    HW118746   3.338   3.069   3.015 -0.9706  1.4334  0.1519
 2371SOL    HW218747   3.462   3.143   3.057  1.0347 -1.5535  0.1093
 2372SOL     OW18748   1.693   2.930   9.194 -0.1961 -0.1372  0.3985
 2372SOL    HW118749   1.640   2.926   9.114 -0.1906 -1.5358  0.4648
 2372SOL    HW218750   1.775   2.913   9.149  0.4090  0.6996  1.1879
 2373SOL     OW18751   2.943   3.488   0.400  0.0806  0.4467  0.4290
 2373SOL    HW118752   2.862   3.473   0.352  0.8963 -0.6903 -0.6183
 2373SOL    HW218753   2.957   3.409   0.452  0.5427  0.5412  0.4492
 2374SOL     OW18754   1.066   4.675   3.364  1.0083 -0.0163 -0.1480
 2374SOL    HW118755   1.028   4.662   3.278  2.7669 -0.1768 -0.9023
 2374SOL    HW218756   1.003   4.642   3.428  0.7804  0.1730 -0.2767
 2375SOL     OW18757   0.471   4.273   1.714  0.3085  0.0717  0.2753
 2375SOL    HW118758   0.410   4.346   1.714  0.8898  0.5623  3.0193
 2375SOL    HW218759   0.401   4.208   1.715 -0.0085  0.4100 -0.5548
 2376SOL     OW18760   3.241   1.756   8.367 -0.1405  0.2322 -0.3981
 2376SOL    HW118761   3.158   1.710   8.377 -0.8800  2.1349  2.0197
 2376SOL    HW218762   3.281   1.712   8.292  1.8945  2.0488 -0.3968
 2377SOL     OW18763   3.501   3.936   1.304 -0.3716 -0.3166 -0.3581
 2377SOL    HW118764   3.424   3.992   1.298 -0.0594  0.0626 -0.7553
 2377SOL    HW218765   3.452   3.854   1.306 -3.5009  1.5895 -0.2396
 2378SOL     OW18766   3.399   4.001  11.356  0.6781  0.0484 -0.2369
 2378SOL    HW118767   3.361   3.929  11.306 -2.5130 -0.1520  2.5208
 2378SOL    HW218768   3.493   3.983  11.348  0.4103 -1.8161  0.8615
 2379SOL     OW18769   3.388   2.078   4.912  0.2069  0.3023 -0.4644
 2379SOL    HW118770   3.393   1.991   4.872  1.7522  0.2934 -0.2466
 2379SOL    HW218771   3.441   2.136   4.858 -0.3879 -0.0167 -1.3890
 2380SOL     OW18772   2.958   3.475  10.071  0.2772 -0.2581 -0.0682
 2380SOL    HW118773   2.876   3.426  10.077 -0.1332  0.1777 -2.1693
 2380SOL    HW218774   3.002   3.427  10.141 -1.0850 -0.8077  0.4214
 2381SOL     OW18775   1.369   3.710   8.744  0.4010  1.0034 -0.6704
 2381SOL    HW118776   1.404   3.790   8.706  2.7535  0.1443 -0.3365
 2381SOL    HW218777   1.450   3.659   8.748  0.7907  1.7402  0.9915
 2382SOL     OW18778   1.151   1.046   3.707  0.0767 -0.0093 -0.0234
 2382SOL    HW118779   1.198   1.032   3.789 -2.0132 -0.4217  1.1213
 2382SOL    HW218780   1.185   1.132   3.684 -0.5725  0.6748  1.5635
 2383SOL     OW18781   1.670   2.656   5.367 -0.0061 -0.0335 -0.1036
 2383SOL    HW118782   1.705   2.567   5.359  2.4791  0.6562  3.0972
 2383SOL    HW218783   1.703   2.691   5.450  2.1062  0.8097 -1.2909
 2384SOL     OW18784   2.320   4.524   7.318 -0.0166 -0.1105  0.1246
 2384SOL    HW118785   2.334   4.467   7.393 -1.1548 -0.1068  0.3291
 2384SOL    HW218786   2.284   4.462   7.255 -0.2631 -0.5862  0.7446
 2385SOL     OW18787   4.484   4.562  16.871 -0.2171 -0.0863 -0.0781
 2385SOL    HW118788   4.407   4.616  16.890 -0.2062 -0.7359  1.7897
 2385SOL    HW218789   4.474   4.488  16.931 -3.3574 -0.6896 -1.3546
 2386SOL     OW18790   3.748   0.835   2.099 -0.9141  0.2107 -0.0726
 2386SOL    HW118791   3.669   0.877   2.133  0.2516  2.4981 -0.1714
 2386SOL    HW218792   3.797   0.811   2.177  0.1634  0.4341 -0.6809
 2387SOL     OW18793   4.062   1.403   5.186 -0.1480 -0.0861 -0.5152
 2387SOL    HW118794   4.101   1.478   5.232 -0.9884 -0.6010  1.0287
 2387SOL    HW218795   4.095   1.404   5.096  2.4015 -2.9231  0.3610
 2388SOL     OW18796   2.943   1.171   5.585  0.4407  0.1237  0.3373
 2388SOL    HW118797   3.003   1.096   5.583  3.4258  2.5507 -0.5937
 2388SOL    HW218798   2.900   1.147   5.667  1.7812 -0.9836  0.7247
 2389SOL     OW18799   4.255   0.917   2.079 -0.3990 -0.6429  0.3304
 2389SOL    HW118800   4.187   0.866   2.034  0.3062  0.0644 -1.5382
 2389SOL    HW218801   4.295   0.858   2.143 -1.2601 -0.5043  0.9775
 2390SOL     OW18802   0.018   3.775   6.490 -0.0595 -0.0413 -0.3036
 2390SOL    HW118803   0.097   3.724   6.473  0.4615  0.9991 -1.0036
 2390SOL    HW218804   4.717   3.770   6.404  1.3162 -1.2046 -0.9152
 2391SOL     OW18805   1.401   3.107  10.541  0.2424 -0.1064  0.1660
 2391SOL    HW118806   1.372   3.138  10.627  3.6183 -1.1133  1.6894
 2391SOL    HW218807   1.496   3.105  10.552  0.1704 -0.8364  0.6731
 2392SOL     OW18808   2.658   3.346   4.371  0.2252 -0.2669 -0.5599
 2392SOL    HW118809   2.704   3.355   4.454 -0.4654  0.3052 -0.2455
 2392SOL    HW218810   2.673   3.252   4.360 -1.6466 -0.7348  0.8474
 2393SOL     OW18811   3.989   3.193  17.026 -0.4801  0.7062  0.2119
 2393SOL    HW118812   3.969   3.160  16.938  0.6898 -0.7668  0.5108
 2393SOL    HW218813   3.968   3.285  17.012  2.2013  1.3969  0.6687
 2394SOL     OW18814   0.910   4.675   1.116 -0.1747 -0.3553 -0.4625
 2394SOL    HW118815   0.907   0.030   1.108 -0.6809 -0.4036 -0.8410
 2394SOL    HW218816   0.850   4.660   1.043 -1.6013 -2.3943  1.1383
 2395SOL     OW18817   2.950   1.663   3.269  0.2887  1.0426  0.2548
 2395SOL    HW118818   2.874   1.715   3.243 -0.7917 -1.1008 -0.7950
 2395SOL    HW218819   2.939   1.580   3.223  0.0434  1.0232  0.3525
 2396SOL     OW18820   0.100   0.261   7.002  0.5057 -0.6184  0.1832
 2396SOL    HW118821   0.142   0.293   7.081  1.7781  0.7833 -1.0578
 2396SOL    HW218822   0.023   0.218   7.038  0.2982  1.8478  2.6468
 2397SOL     OW18823   3.304   3.326   8.856 -0.4398 -0.1447  0.1325
 2397SOL    HW118824   3.291   3.265   8.929  0.3262 -0.0954  0.3129
 2397SOL    HW218825   3.387   3.297   8.818  1.2977  0.9751  3.0211
 2398SOL     OW18826   3.966   0.922   5.942  0.0608 -0.2714  0.6415
 2398SOL    HW118827   3.914   0.851   5.978  0.5214 -0.1670  1.5252
 2398SOL    HW218828   3.983   0.892   5.853  0.7703 -0.2949  0.7864
 2399SOL     OW18829   2.891   0.784  10.324  1.1667  0.9359  0.0162
 2399SOL    HW118830   2.839   0.777  10.404 -0.8887  0.3707 -1.3557
 2399SOL    HW218831   2.922   0.695  10.307  0.7882  0.4580  1.8824
 2400SOL     OW18832   0.189   4.170   6.975 -0.0420  0.6596  0.2975
 2400SOL    HW118833   0.197   4.074   6.980  0.1891  0.7366  1.4756
 2400SOL    HW218834   0.247   4.183   6.900  0.3913  1.0618  0.7097
 2401SOL     OW18835   3.066   3.972   2.269 -0.1194 -0.5849  0.0951
 2401SOL    HW118836   3.018   4.020   2.202 -1.7096 -0.3736  1.3862
 2401SOL    HW218837   3.037   3.882   2.252 -3.9680  0.8692 -1.0140
 2402SOL     OW18838   1.921   0.385   9.760  0.0392  0.0778  0.2906
 2402SOL    HW118839   1.996   0.415   9.809 -0.3887  1.4726  0.0817
 2402SOL    HW218840   1.930   0.433   9.678 -0.9286  0.5175  0.4421
 2403SOL     OW18841   4.443   1.134  14.539  0.4311  0.7461 -0.5803
 2403SOL    HW118842   4.373   1.083  14.579 -0.2327  1.7484 -0.4736
 2403SOL    HW218843   4.513   1.122  14.603 -1.3793 -1.8686  0.9015
 2404SOL     OW18844   4.676   0.445   5.750 -0.2930 -0.2270 -0.1528
 2404SOL    HW118845   4.684   0.380   5.819 -0.4600 -0.8336 -0.7055
 2404SOL    HW218846   4.607   0.501   5.784 -1.7630 -1.6567 -0.7917
 2405SOL     OW18847   1.703   0.208   0.591 -0.8823  0.0196  0.2605
 2405SOL    HW118848   1.705   0.136   0.528  0.1224  0.2891 -0.0146
 2405SOL    HW218849   1.736   0.279   0.537  2.1008 -0.3308  1.6011
 2406SOL     OW18850   2.737   3.973  12.270 -0.2303 -0.5413 -0.2357
 2406SOL    HW118851   2.717   3.901  12.331  0.7979  1.2817  2.2330
 2406SOL    HW218852   2.808   3.943  12.212 -0.4031 -1.2990 -0.0647
 2407SOL     OW18853   4.168   1.452  10.669 -0.4493  0.6189 -0.1887
 2407SOL    HW118854   4.196   1.362  10.686 -1.1408 -0.0465 -2.4863
 2407SOL    HW218855   4.095   1.432  10.611 -1.0244 -0.8873  1.0680
 2408SOL     OW18856   2.653   0.830   7.883 -0.4952 -0.1380  0.1685
 2408SOL    HW118857   2.725   0.777   7.850 -0.3978  0.5929 -0.7857
 2408SOL    HW218858   2.574   0.784   7.853 -1.9534  1.4926  1.5105
 2409SOL     OW18859   4.516   1.668   3.082 -0.3126  0.5988  0.1891
 2409SOL    HW118860   4.537   1.714   3.163 -1.1649  0.6265  0.3871
 2409SOL    HW218861   4.505   1.578   3.112 -0.0329 -0.1703 -2.0159
 2410SOL     OW18862   1.562   0.633   5.121  0.0178 -0.0327  0.4154
 2410SOL    HW118863   1.548   0.638   5.026  0.8423 -1.5840  0.2053
 2410SOL    HW218864   1.495   0.694   5.152  0.4441  0.2027  0.8640
 2411SOL     OW18865   1.472   0.410  14.029  0.1512 -0.1012  0.0081
 2411SOL    HW118866   1.544   0.465  13.998  0.3538 -0.7755 -0.7079
 2411SOL    HW218867   1.400   0.468  14.004  0.4435 -0.0068 -0.6287
 2412SOL     OW18868   3.812   0.109   5.426  0.4264  0.0522  0.7064
 2412SOL    HW118869   3.833   0.198   5.398  2.2898 -0.6766 -0.2034
 2412SOL    HW218870   3.887   0.092   5.483 -0.5064 -1.4851  1.5030
 2413SOL     OW18871   3.423   1.598   7.713  0.4460 -0.2590 -0.3103
 2413SOL    HW118872   3.386   1.522   7.669  0.1216 -0.5965  0.5328
 2413SOL    HW218873   3.508   1.616   7.674  1.7209 -0.0885  2.4963
 2414SOL     OW18874   2.249   3.768   9.304  0.3774 -0.3224 -0.3257
 2414SOL    HW118875   2.184   3.807   9.246  0.9896 -0.3455 -1.0249
 2414SOL    HW218876   2.234   3.814   9.387  1.6497  1.6508 -1.1784
 2415SOL     OW18877   1.427   0.295  17.267 -0.4382  0.1863 -0.1384
 2415SOL    HW118878   1.510   0.340  17.253 -0.5722  0.4867  0.0477
 2415SOL    HW218879   1.429   0.213  17.217 -0.7575  0.9598 -1.4107
 2416SOL     OW18880   0.941   2.223  13.033  0.1070 -0.3602  0.0712
 2416SOL    HW118881   0.971   2.225  12.942 -0.8099 -0.7840 -0.2385
 2416SOL    HW218882   0.892   2.305  13.042  0.6899  0.3189 -2.8366
 2417SOL     OW18883   0.495   1.396   6.344  0.4396 -0.2345  0.4157
 2417SOL    HW118884   0.477   1.304   6.325  0.0316  0.2498 -1.5012
 2417SOL    HW218885   0.411   1.420   6.384 -1.7153 -1.0584 -3.6485
 2418SOL     OW18886   2.768   0.012   6.419 -0.1034  0.3178  0.2379
 2418SOL    HW118887   2.703   0.057   6.474 -0.0963 -1.4705  1.7015
 2418SOL    HW218888   2.762   4.659   6.437  1.0348  0.2419  0.1834
 2419SOL     OW18889   0.748   1.467   9.043 -0.0527 -0.5563 -0.3021
 2419SOL    HW118890   0.712   1.517   9.117 -0.8163 -0.5844 -0.6544
 2419SOL    HW218891   0.790   1.540   8.998  2.0817 -0.7104  1.4449
 2420SOL     OW18892   0.097   4.001   7.847 -0.9447 -0.3962 -0.0193
 2420SOL    HW118893   0.113   4.083   7.799  0.9640 -1.8279 -1.8288
 2420SOL    HW218894   0.010   3.981   7.813 -1.6854  2.4136  0.1923
 2421SOL     OW18895   2.179   0.433   4.704  0.2421 -0.3298 -0.4697
 2421SOL    HW118896   2.224   0.421   4.620 -0.4668 -0.9860 -0.7497
 2421SOL    HW218897   2.105   0.373   4.707 -0.4276  0.4554 -1.2172
 2422SOL     OW18898   3.841   0.290   5.983  0.0868 -0.1935  0.1942
 2422SOL    HW118899   3.773   0.245   6.033  0.7166 -1.3145  0.0667
 2422SOL    HW218900   3.815   0.380   5.998 -0.1374 -0.0977 -0.8478
 2423SOL     OW18901   4.545   1.320   8.774 -0.2907  0.3852  0.3050
 2423SOL    HW118902   4.576   1.395   8.723 -0.2820 -0.5084 -1.0047
 2423SOL    HW218903   4.487   1.283   8.707  0.6200 -0.4885  0.0092
 2424SOL     OW18904   4.476   2.789   5.706  0.2142  0.1139  0.1279
 2424SOL    HW118905   4.496   2.818   5.796 -1.8092 -1.4788  1.0872
 2424SOL    HW218906   4.385   2.816   5.698 -0.0012 -1.1512 -1.6003
 2425SOL     OW18907   0.718   2.896   3.207 -0.6091 -0.3362  0.3731
 2425SOL    HW118908   0.654   2.968   3.208  0.4372  0.6315 -1.5693
 2425SOL    HW218909   0.774   2.921   3.280 -1.1463 -1.2750  1.1071
 2426SOL     OW18910   0.130   2.230   6.729 -0.5530  0.1284  0.3316
 2426SOL    HW118911   0.063   2.194   6.671  0.8733 -1.6114 -0.2364
 2426SOL    HW218912   0.154   2.149   6.774  0.7153  0.7030  0.6758
 2427SOL     OW18913   2.733   3.105   8.515  0.0985  0.2102 -0.0159
 2427SOL    HW118914   2.814   3.155   8.527  0.3474 -0.1499 -0.1974
 2427SOL    HW218915   2.730   3.063   8.601  2.0168  2.6530  1.2337
 2428SOL     OW18916   1.875   0.271  12.657 -0.1399 -0.0780 -0.4144
 2428SOL    HW118917   1.806   0.274  12.591 -0.4090  1.8668 -0.0374
 2428SOL    HW218918   1.950   0.298  12.602 -0.7260  3.2053  0.4201
 2429SOL     OW18919   0.701   0.324   4.976 -0.0326 -0.2988 -0.6997
 2429SOL    HW118920   0.613   0.359   4.959 -0.5741 -1.6613 -0.7248
 2429SOL    HW218921   0.672   0.245   5.022 -3.7794  1.4728  0.0228
 2430SOL     OW18922   0.541   3.697   4.966  0.5396 -0.4312 -0.1510
 2430SOL    HW118923   0.518   3.720   4.876 -0.8109  0.3175  0.3860
 2430SOL    HW218924   0.547   3.786   5.003 -0.1372 -0.2665 -0.4374
 2431SOL     OW18925   3.028   2.831   8.071 -0.2215  0.2447 -0.3578
 2431SOL    HW118926   2.996   2.883   8.145 -0.1625 -0.7864  0.3851
 2431SOL    HW218927   3.120   2.825   8.095 -0.3618 -0.2688  0.0492
 2432SOL     OW18928   1.646   4.416   1.770 -0.5689 -0.3584  0.1294
 2432SOL    HW118929   1.587   4.450   1.838 -0.5560  0.5589 -0.3194
 2432SOL    HW218930   1.591   4.359   1.716 -0.6127  1.0401 -1.2737
 2433SOL     OW18931   3.203   4.171   4.255  0.0322 -0.1316 -0.5554
 2433SOL    HW118932   3.120   4.215   4.273 -0.2919 -1.3160  0.8859
 2433SOL    HW218933   3.214   4.126   4.339  2.9075  1.8255  0.1282
 2434SOL     OW18934   2.905   1.229   3.412  0.1905  0.7321  0.2358
 2434SOL    HW118935   2.820   1.191   3.436 -0.0698 -0.0698 -1.9460
 2434SOL    HW218936   2.960   1.151   3.418 -0.1873  0.5492  1.2862
 2435SOL     OW18937   1.213   3.400   5.869  0.4379  0.4316  0.1195
 2435SOL    HW118938   1.192   3.369   5.957 -0.5421  1.7526  0.3500
 2435SOL    HW218939   1.244   3.325   5.818  0.7483  2.3276 -2.5216
 2436SOL     OW18940   1.570   3.563   8.233 -0.2423  0.0747  0.1448
 2436SOL    HW118941   1.608   3.623   8.296  0.7858 -0.3752 -0.0534
 2436SOL    HW218942   1.478   3.568   8.261  0.1103  0.4607  1.2242
 2437SOL     OW18943   3.127   1.826  17.284 -0.1965 -0.1563  0.1457
 2437SOL    HW118944   3.082   1.752  17.242 -1.2656  0.4627  0.1990
 2437SOL    HW218945   3.203   1.840  17.227 -0.0584  0.8927  0.6004
 2438SOL     OW18946   0.106   2.498   7.359  0.4023  0.3387  0.3395
 2438SOL    HW118947   0.053   2.428   7.321 -1.2924  2.1180 -0.5883
 2438SOL    HW218948   0.189   2.456   7.380 -0.1231 -0.3224  1.1068
 2439SOL     OW18949   1.990   1.184  11.157 -0.1073 -0.0302 -0.1305
 2439SOL    HW118950   2.005   1.166  11.065  0.8528 -2.0048  0.4134
 2439SOL    HW218951   2.044   1.118  11.201 -1.2434  0.1058  1.4717
 2440SOL     OW18952   2.363   1.985   8.776  0.2146 -0.4543 -0.0853
 2440SOL    HW118953   2.342   2.044   8.848 -0.8287 -0.2326 -0.5799
 2440SOL    HW218954   2.289   2.004   8.718 -0.2329 -3.9818 -0.6647
 2441SOL     OW18955   0.685   3.841   0.478  0.1479  0.3976  0.1008
 2441SOL    HW118956   0.763   3.885   0.512  0.3909 -0.2444  0.3635
 2441SOL    HW218957   0.727   3.758   0.456 -0.9350 -0.1698  0.1951
 2442SOL     OW18958   0.760   1.655   7.142  1.0491  0.0036 -0.1433
 2442SOL    HW118959   0.787   1.567   7.171 -1.6469 -1.2833 -1.5260
 2442SOL    HW218960   0.731   1.700   7.221 -0.2729 -0.2319 -0.4876
 2443SOL     OW18961   4.647   0.603   8.083  0.7271 -0.1918 -0.4587
 2443SOL    HW118962   4.730   0.562   8.105  0.3943 -0.2835  0.5999
 2443SOL    HW218963   4.596   0.522   8.083 -0.6862  0.7045 -0.0616
 2444SOL     OW18964   4.640   1.577   6.242  0.0625  0.2932 -0.5111
 2444SOL    HW118965   4.685   1.657   6.214  0.9996 -0.3071 -0.7047
 2444SOL    HW218966   4.661   1.518   6.169  1.2252 -1.6548  1.4040
 2445SOL     OW18967   4.441   1.226   8.307 -0.4994 -0.7775  0.0930
 2445SOL    HW118968   4.503   1.153   8.314 -0.4057 -0.9002 -1.8817
 2445SOL    HW218969   4.396   1.190   8.231  2.9521  0.5960 -2.6260
 2446SOL     OW18970   2.908   1.958   3.615 -0.2195  0.2119  0.0686
 2446SOL    HW118971   2.967   2.008   3.672 -1.2482  0.3964  0.9664
 2446SOL    HW218972   2.969   1.889   3.587  1.1396  1.2627  0.3997
 2447SOL     OW18973   4.508   2.024   2.224 -0.0270  0.1076 -0.2724
 2447SOL    HW118974   4.538   2.090   2.287 -1.9129 -1.0447  1.8356
 2447SOL    HW218975   4.521   2.067   2.140 -1.9838  0.8721 -0.2082
 2448SOL     OW18976   1.237   0.868   2.859 -0.4112 -0.8392  0.4161
 2448SOL    HW118977   1.321   0.874   2.815 -1.9721  0.7634 -2.3374
 2448SOL    HW218978   1.273   0.876   2.947 -2.6354  1.0713  1.1696
 2449SOL     OW18979   3.710   3.287  10.214 -0.2250  0.3633  0.4344
 2449SOL    HW118980   3.665   3.202  10.217  0.3671  0.0608  0.6229
 2449SOL    HW218981   3.699   3.318  10.304 -1.0838 -0.9253  0.7758
 2450SOL     OW18982   3.871   2.757  12.543  0.6166  0.8437  0.3201
 2450SOL    HW118983   3.781   2.744  12.572  0.7172  2.2545  1.2409
 2450SOL    HW218984   3.892   2.818  12.613  5.0216  1.1377 -1.2322
 2451SOL     OW18985   2.528   1.795   7.556  0.3614 -0.0382 -0.2173
 2451SOL    HW118986   2.535   1.744   7.637  0.4022 -0.1648 -0.2998
 2451SOL    HW218987   2.588   1.734   7.513 -0.3685 -0.5054 -0.5760
 2452SOL     OW18988   2.393   4.732   6.231  0.3492  0.4779 -0.0061
 2452SOL    HW118989   2.368   0.043   6.154 -0.4762  0.7893  0.4704
 2452SOL    HW218990   2.373   0.054   6.300  3.9599  2.8426 -1.1446
 2453SOL     OW18991   3.990   0.291  17.552  0.0178  0.1712  0.2168
 2453SOL    HW118992   3.962   0.223  17.613 -0.0140  0.9294  1.0347
 2453SOL    HW218993   3.960   0.367  17.602  0.5017  0.5145 -0.0156
 2454SOL     OW18994   3.236   3.968   6.478  0.6141  0.2546  0.0129
 2454SOL    HW118995   3.275   3.975   6.565  0.3225  1.2327  0.0631
 2454SOL    HW218996   3.142   3.958   6.494  1.2213 -3.5481  1.2365
 2455SOL     OW18997   2.133   2.534   1.767  0.5081  0.1343 -0.5387
 2455SOL    HW118998   2.107   2.486   1.688 -0.6361  1.0552 -0.7303
 2455SOL    HW218999   2.201   2.592   1.734  1.6256 -0.2997  1.0024
 2456SOL     OW19000   4.480   3.308   8.029  0.2288  0.0837  0.1881
 2456SOL    HW119001   4.447   3.363   7.957  1.2398  0.2392 -0.1636
 2456SOL    HW219002   4.574   3.318   8.015  0.3101 -0.6946  0.1665
 2457SOL     OW19003   0.300   3.159  12.657  0.1478 -0.2999  0.1084
 2457SOL    HW119004   0.300   3.139  12.751 -0.0051 -1.2696 -0.1043
 2457SOL    HW219005   0.257   3.245  12.662  1.9656  0.5112  2.0002
 2458SOL     OW19006   0.736   1.341   7.637  0.0779 -0.4696 -0.4506
 2458SOL    HW119007   0.822   1.299   7.647 -0.0577 -0.6972 -0.2240
 2458SOL    HW219008   0.766   1.429   7.617  1.0143 -0.6708  0.0648
 2459SOL     OW19009   2.989   1.267  10.992 -0.6277 -0.1160 -0.3306
 2459SOL    HW119010   2.980   1.337  10.928 -0.3938  0.3997  0.1937
 2459SOL    HW219011   3.084   1.256  10.991 -0.4468  1.4830 -1.2304
 2460SOL     OW19012   2.159   1.569   7.532  0.5000  0.3658  0.0820
 2460SOL    HW119013   2.167   1.474   7.540 -1.1861  0.2536  0.3726
 2460SOL    HW219014   2.066   1.578   7.514  0.7949  0.7409 -1.2346
 2461SOL     OW19015   0.498   3.636   3.964  0.8571 -1.1138  0.8316
 2461SOL    HW119016   0.581   3.619   3.918 -0.0615 -1.4372 -0.7262
 2461SOL    HW219017   0.441   3.579   3.913 -1.0514  0.1097  1.6314
 2462SOL     OW19018   4.346   1.070   9.484 -0.2357 -0.1645 -0.5590
 2462SOL    HW119019   4.306   0.990   9.518  1.0261  0.1133  1.5547
 2462SOL    HW219020   4.433   1.061   9.521  0.2449 -1.0808 -1.9381
 2463SOL     OW19021   1.497   1.622   2.628 -0.1987  0.1628  0.2759
 2463SOL    HW119022   1.479   1.702   2.678  0.9045 -1.1210  2.7124
 2463SOL    HW219023   1.590   1.614   2.650  0.2504  0.9784 -1.3764
 2464SOL     OW19024   3.469   1.740   4.305 -0.4999  0.3487  0.4292
 2464SOL    HW119025   3.468   1.792   4.225 -0.5068 -0.1604  0.0969
 2464SOL    HW219026   3.528   1.668   4.285  0.8069  0.6800  3.1025
 2465SOL     OW19027   0.379   3.985   3.607 -0.4002 -0.2558  0.4877
 2465SOL    HW119028   0.356   4.005   3.516  1.2862  0.9342  0.3195
 2465SOL    HW219029   0.319   4.049   3.643 -0.3033 -0.8520  1.7222
 2466SOL     OW19030   4.573   0.262  15.996  0.3711  0.0829  0.2583
 2466SOL    HW119031   4.585   0.182  15.945  1.8076  1.3452 -1.3944
 2466SOL    HW219032   4.556   0.330  15.930 -2.6578 -0.1755  0.7818
 2467SOL     OW19033   0.205   3.696   1.833 -0.4537 -0.8711  0.3472
 2467SOL    HW119034   0.264   3.622   1.846 -0.2256 -0.7307  0.1089
 2467SOL    HW219035   0.234   3.726   1.746 -3.3836  0.0509 -0.3010
 2468SOL     OW19036   4.575   4.037   8.015 -0.0532 -0.0689 -0.0016
 2468SOL    HW119037   4.487   4.002   8.018  0.0709 -0.4931 -1.3815
 2468SOL    HW219038   4.635   3.968   8.044  0.6630  0.5317 -0.0494
 2469SOL     OW19039   2.326   1.035   6.944 -0.3695  0.6193  0.2193
 2469SOL    HW119040   2.254   1.041   7.006 -1.2954 -2.1352 -0.5939
 2469SOL    HW219041   2.335   0.942   6.925 -3.1474  0.0181  1.8855
 2470SOL     OW19042   3.018   4.653   6.275 -0.2240 -0.2447  0.0728
 2470SOL    HW119043   3.059   4.672   6.359 -0.3847  0.7333 -0.0773
 2470SOL    HW219044   2.927   4.674   6.298  0.1166  0.8049  0.4533
 2471SOL     OW19045   3.427   3.334  14.810  0.6654  0.7643 -0.1954
 2471SOL    HW119046   3.473   3.282  14.745  0.9284  1.6423 -0.7089
 2471SOL    HW219047   3.375   3.263  14.847 -0.9488  1.9273 -0.2264
 2472SOL     OW19048   0.460   3.446   6.347 -0.0630 -0.4071 -0.1016
 2472SOL    HW119049   0.546   3.478   6.373 -0.4787 -0.4237  1.2632
 2472SOL    HW219050   0.454   3.493   6.263 -0.8359  0.3089  0.3535
 2473SOL     OW19051   0.804   2.033   9.994  0.3227  0.0072  0.6953
 2473SOL    HW119052   0.754   2.087  10.056 -1.2457  0.3645 -0.8728
 2473SOL    HW219053   0.733   1.999   9.940  0.4978 -0.2380  0.6246
 2474SOL     OW19054   3.737   3.832   3.649  0.7510 -0.4698 -0.4874
 2474SOL    HW119055   3.768   3.828   3.558 -0.6643 -1.6945 -0.9098
 2474SOL    HW219056   3.759   3.744   3.680 -3.1732 -1.9818 -2.0513
 2475SOL     OW19057   2.246   1.778  17.030 -0.5452 -0.3290 -0.5196
 2475SOL    HW119058   2.184   1.831  16.980  0.8465  2.0986  0.3323
 2475SOL    HW219059   2.291   1.740  16.954  1.7974  0.2796  0.5623
 2476SOL     OW19060   0.817   2.201   5.350  0.0159 -0.2318  0.1625
 2476SOL    HW119061   0.819   2.284   5.303 -0.0361 -0.1846  0.2448
 2476SOL    HW219062   0.739   2.161   5.312  0.7397 -3.0721  1.6603
 2477SOL     OW19063   3.885   2.680  14.278  0.4089  0.6006  0.2177
 2477SOL    HW119064   3.979   2.685  14.298 -0.4100 -0.0856  4.2576
 2477SOL    HW219065   3.881   2.713  14.188 -2.3436  0.6626  0.3733
 2478SOL     OW19066   1.625   0.616   4.397 -0.2755  0.1978 -0.1562
 2478SOL    HW119067   1.603   0.574   4.480 -1.8197  1.1771 -0.0750
 2478SOL    HW219068   1.542   0.641   4.357 -0.9091 -1.4542  0.1246
 2479SOL     OW19069   1.266   0.900   1.607  0.2996  0.1599 -0.6149
 2479SOL    HW119070   1.180   0.907   1.564 -0.2072 -0.4055  0.2893
 2479SOL    HW219071   1.255   0.825   1.665  0.6521 -0.6386 -1.5736
 2480SOL     OW19072   3.688   0.508   4.728 -0.0231 -0.0893  0.3889
 2480SOL    HW119073   3.622   0.452   4.688 -0.3200 -0.2937  1.1868
 2480SOL    HW219074   3.640   0.583   4.763 -0.6035  1.2590 -3.2562
 2481SOL     OW19075   2.629   0.532  16.046  0.5413  0.3114  0.1942
 2481SOL    HW119076   2.713   0.509  16.086  0.1076 -0.5342  0.6244
 2481SOL    HW219077   2.598   0.451  16.006  2.4903  0.0081 -0.7355
 2482SOL     OW19078   3.870   4.231  13.509  0.0515  0.2979 -0.1670
 2482SOL    HW119079   3.840   4.195  13.425  1.1738 -1.5423  0.2296
 2482SOL    HW219080   3.860   4.151  13.561  0.0371 -0.6474 -1.6224
 2483SOL     OW19081   0.802   3.592   4.127 -0.3867  0.3250  0.0509
 2483SOL    HW119082   0.762   3.506   4.143 -0.1844  0.1045 -0.6277
 2483SOL    HW219083   0.754   3.659   4.177 -0.2028  1.0126 -0.6967
 2484SOL     OW19084   1.243   2.616   6.275 -0.2376 -0.0985 -0.0067
 2484SOL    HW119085   1.162   2.651   6.235 -0.5699  0.0085  0.7699
 2484SOL    HW219086   1.307   2.648   6.211  1.3920  0.8773  2.1050
 2485SOL     OW19087   2.291   3.672   4.033 -0.3882 -0.2874  0.3015
 2485SOL    HW119088   2.203   3.708   4.025 -1.7835 -3.6011  0.7546
 2485SOL    HW219089   2.304   3.689   4.126  1.2931 -2.0747  0.3852
 2486SOL     OW19090   1.600   0.285   1.504 -0.0917  0.4047 -0.5464
 2486SOL    HW119091   1.688   0.257   1.529 -0.2373 -0.3874 -0.9360
 2486SOL    HW219092   1.585   0.240   1.421  0.2620 -0.7354  0.0137
 2487SOL     OW19093   1.184   4.120  14.574  0.3639  0.3585  0.2166
 2487SOL    HW119094   1.277   4.127  14.553  0.4260  3.0460  1.4579
 2487SOL    HW219095   1.148   4.207  14.555 -2.2787 -0.8668 -0.4768
 2488SOL     OW19096   2.533   1.708   4.306 -0.4919  0.1299  0.0078
 2488SOL    HW119097   2.591   1.648   4.352 -0.0929  0.1251 -0.5010
 2488SOL    HW219098   2.599   1.757   4.257  1.3574 -1.3555  1.0069
 2489SOL     OW19099   3.586   1.617   6.626  0.4617 -0.2293  0.0495
 2489SOL    HW119100   3.530   1.682   6.584  0.7771 -0.1570 -0.2594
 2489SOL    HW219101   3.533   1.562   6.683  2.6079 -1.2229  1.0976
 2490SOL     OW19102   1.138   2.048  12.790  0.5614  0.2993 -0.2588
 2490SOL    HW119103   1.224   2.046  12.833  0.7545  1.0083 -0.6155
 2490SOL    HW219104   1.130   2.140  12.766  1.5422  0.0462 -1.5331
 2491SOL     OW19105   0.496   3.059   3.273 -0.6188  0.2257 -0.1484
 2491SOL    HW119106   0.464   3.107   3.349 -1.9565 -1.1717  0.1699
 2491SOL    HW219107   0.438   3.091   3.204 -3.1410  1.6660  2.6322
 2492SOL     OW19108   1.399   3.400   1.428  0.0898 -0.2486 -0.3224
 2492SOL    HW119109   1.459   3.468   1.397 -0.3204  0.7071  0.9477
 2492SOL    HW219110   1.470   3.335   1.430  0.6905  0.4349  0.5748
 2493SOL     OW19111   1.374   4.703  17.503  0.3862 -0.0322  0.4927
 2493SOL    HW119112   1.411   4.694  17.590 -0.0890  1.4033  0.8389
 2493SOL    HW219113   1.400   0.052  17.482 -0.3115  0.2596  0.8739
 2494SOL     OW19114   2.228   4.409   4.546 -0.0166  0.6200 -0.0058
 2494SOL    HW119115   2.149   4.356   4.556 -0.5909  0.9168 -2.7718
 2494SOL    HW219116   2.216   4.465   4.622  0.2330 -0.9965  1.2331
 2495SOL     OW19117   4.302   0.732   9.225  0.3610  0.2765 -0.6847
 2495SOL    HW119118   4.368   0.717   9.293 -2.0436 -0.4152  1.4837
 2495SOL    HW219119   4.357   0.764   9.153  0.3114  0.4183 -0.6606
 2496SOL     OW19120   0.827   1.421   9.484  0.2045  0.3770  0.2129
 2496SOL    HW119121   0.758   1.473   9.444 -0.5681  0.5307  1.7263
 2496SOL    HW219122   0.906   1.474   9.480  1.5100 -1.5657 -0.1483
 2497SOL     OW19123   2.662   3.741   2.627  0.0009 -0.0816 -1.1088
 2497SOL    HW119124   2.576   3.709   2.655 -0.5475  1.6959 -0.8043
 2497SOL    HW219125   2.628   3.802   2.563  0.3489  1.0867 -0.1930
 2498SOL     OW19126   0.865   1.360   3.711  0.2595  0.7361 -0.0052
 2498SOL    HW119127   0.847   1.437   3.657  0.5518  1.3971  0.8381
 2498SOL    HW219128   0.886   1.297   3.642 -0.1452 -1.5901  2.0135
 2499SOL     OW19129   3.583   0.306   1.943 -0.1703  0.2436 -0.5109
 2499SOL    HW119130   3.678   0.301   1.956 -0.2507  1.1694  0.4048
 2499SOL    HW219131   3.579   0.401   1.932  0.2678  0.2935 -0.2257
 2500SOL     OW19132   1.478   0.212   3.474  0.4760  0.2124  0.2568
 2500SOL    HW119133   1.401   0.155   3.470 -0.2615  1.0195  2.7656
 2500SOL    HW219134   1.499   0.211   3.568  0.5017  1.3818  0.2681
 2501SOL     OW19135   1.377   0.674   6.110 -0.1347 -0.1736 -0.1852
 2501SOL    HW119136   1.325   0.629   6.177 -0.8943  0.3799 -0.4006
 2501SOL    HW219137   1.306   0.708   6.055 -0.7460  1.2171  1.4743
 2502SOL     OW19138   3.616   4.112  12.862  0.0647  0.3316  0.3824
 2502SOL    HW119139   3.651   4.198  12.841  1.7882 -0.8009 -1.3998
 2502SOL    HW219140   3.527   4.127  12.831  0.3522 -0.5641 -0.8521
 2503SOL     OW19141   2.161   2.462   2.180 -0.4852 -0.6098 -0.7226
 2503SOL    HW119142   2.126   2.537   2.227  0.1600  0.7062 -2.3316
 2503SOL    HW219143   2.245   2.499   2.154 -1.2618  1.6389 -0.0335
 2504SOL     OW19144   1.675   4.662   7.158  0.2054  0.5261 -0.1659
 2504SOL    HW119145   1.693   4.582   7.109  1.8462 -0.3566  1.8822
 2504SOL    HW219146   1.665   4.623   7.245 -0.4276  0.9733 -0.0356
 2505SOL     OW19147   1.589   2.772   1.264  0.0636  0.4050  0.0901
 2505SOL    HW119148   1.568   2.724   1.344 -1.9214  0.0229 -0.6562
 2505SOL    HW219149   1.641   2.847   1.293  0.2390  0.4530 -0.3490
 2506SOL     OW19150   2.986   1.517   3.803 -0.4689 -0.6498  0.2390
 2506SOL    HW119151   3.018   1.429   3.825  0.7683 -0.6235 -1.4769
 2506SOL    HW219152   3.060   1.564   3.765 -1.5527  0.4442 -0.5316
 2507SOL     OW19153   3.079   3.930   3.011  0.9395  0.1221 -0.4301
 2507SOL    HW119154   3.133   3.944   2.933  0.3725  0.0883 -0.8345
 2507SOL    HW219155   3.095   3.836   3.021  0.7801 -0.1057 -2.2827
 2508SOL     OW19156   0.370   3.211  11.945 -0.3057 -0.1720  0.1071
 2508SOL    HW119157   0.287   3.181  11.908 -1.0500  1.9737  0.0491
 2508SOL    HW219158   0.427   3.144  11.907  1.9620  0.8376  1.7198
 2509SOL     OW19159   0.180   3.943  14.925 -0.7573 -0.5637 -0.3113
 2509SOL    HW119160   0.215   4.026  14.893 -2.1598 -0.2690 -1.0927
 2509SOL    HW219161   0.165   3.897  14.842  1.5164 -1.0413 -0.4483
 2510SOL     OW19162   3.544   3.375   1.159  0.1309 -0.1723 -0.0880
 2510SOL    HW119163   3.458   3.335   1.170 -0.8993  0.9961 -3.7655
 2510SOL    HW219164   3.523   3.450   1.102 -0.5005 -1.6283 -1.7607
 2511SOL     OW19165   4.657   3.928   3.571 -0.3966  0.3168 -0.0109
 2511SOL    HW119166   4.586   3.896   3.626 -2.3555 -0.9837 -3.3132
 2511SOL    HW219167   4.620   4.016   3.557  0.6137  0.5453 -1.2786
 2512SOL     OW19168   3.218   0.600   5.283 -0.2969 -0.4561  0.2008
 2512SOL    HW119169   3.204   0.541   5.209  2.9553  1.6287 -2.0151
 2512SOL    HW219170   3.141   0.582   5.338 -0.3132 -1.4018 -0.1260
 2513SOL     OW19171   0.939   0.998   3.045 -0.5438  0.1068  0.3095
 2513SOL    HW119172   0.858   1.007   3.095  0.5933 -1.6508  2.4625
 2513SOL    HW219173   0.907   0.918   3.003  0.8923 -0.3476  0.0835
 2514SOL     OW19174   4.055   3.937   8.144 -0.1181 -0.3090 -0.1407
 2514SOL    HW119175   4.001   3.864   8.113  0.4141 -1.2811  1.2017
 2514SOL    HW219176   4.007   4.019   8.147  0.1041 -0.2217  1.3754
 2515SOL     OW19177   3.223   3.022   6.319 -0.5309 -0.2403 -0.4034
 2515SOL    HW119178   3.224   3.041   6.413  1.9562 -0.4268 -0.3923
 2515SOL    HW219179   3.182   3.105   6.294 -3.4160 -1.4130  0.4420
 2516SOL     OW19180   2.244   3.146  16.943 -0.3576 -0.0769 -0.2145
 2516SOL    HW119181   2.231   3.217  16.882  1.0607 -0.6151 -1.1456
 2516SOL    HW219182   2.295   3.078  16.897 -2.7592 -1.5400 -0.6867
 2517SOL     OW19183   3.678   1.765   3.006 -0.2001  0.0200 -0.4178
 2517SOL    HW119184   3.664   1.679   2.967 -1.3996 -1.6320  3.6987
 2517SOL    HW219185   3.620   1.756   3.082 -0.2016  0.7802 -0.3203
 2518SOL     OW19186   4.270   0.579   2.690 -0.9081 -0.0418 -0.1143
 2518SOL    HW119187   4.350   0.630   2.699 -0.0584 -1.3406 -0.3767
 2518SOL    HW219188   4.289   0.492   2.725 -2.0752  1.0174  3.2012
 2519SOL     OW19189   1.534   1.888   3.212  0.3056 -0.1026  0.0389
 2519SOL    HW119190   1.607   1.940   3.178  0.5902  0.1955  1.1168
 2519SOL    HW219191   1.546   1.920   3.301  0.3751  0.9817 -0.3602
 2520SOL     OW19192   3.926   1.258  11.193 -0.0177  0.0403 -0.6056
 2520SOL    HW119193   3.855   1.223  11.138 -2.3042  1.3762  1.5216
 2520SOL    HW219194   3.983   1.300  11.129  0.3480  0.7106  0.1636
 2521SOL     OW19195   3.695   0.901   5.660  0.3380 -0.1427 -0.3211
 2521SOL    HW119196   3.780   0.922   5.699  0.1489  2.7361 -1.4527
 2521SOL    HW219197   3.641   0.979   5.671  0.4533 -0.0322 -0.5308
 2522SOL     OW19198   3.803   3.256   6.327  0.4264  0.0356 -0.2712
 2522SOL    HW119199   3.731   3.262   6.390 -0.1235 -3.4793 -0.5507
 2522SOL    HW219200   3.878   3.295   6.370  0.5073 -0.4729  0.0534
 2523SOL     OW19201   1.873   0.107   0.792  0.0026 -0.4466 -0.2256
 2523SOL    HW119202   1.957   0.109   0.747 -0.7698 -0.2796 -1.6590
 2523SOL    HW219203   1.820   0.136   0.718 -0.2995 -0.5186 -0.0361
 2524SOL     OW19204   0.005   2.080   3.710  0.2884  0.0010 -0.3892
 2524SOL    HW119205   4.722   2.071   3.802  0.0249  1.2735 -0.3255
 2524SOL    HW219206   0.078   2.141   3.720 -0.9295  1.3184  0.3867
 2525SOL     OW19207   0.263   0.636   5.980 -0.0987 -0.1013 -0.1829
 2525SOL    HW119208   0.338   0.692   5.960  1.7053 -2.3375  0.2986
 2525SOL    HW219209   0.265   0.589   5.897 -0.0455 -1.9606  0.8719
 2526SOL     OW19210   2.254   3.445   6.292 -0.1502 -0.2600  0.2469
 2526SOL    HW119211   2.336   3.437   6.244 -0.0587  0.6544  0.2607
 2526SOL    HW219212   2.285   3.454   6.382 -0.3238 -1.2816  0.4152
 2527SOL     OW19213   1.622   1.802  17.131 -0.3282  0.8230  0.1666
 2527SOL    HW119214   1.573   1.808  17.213 -2.4052  0.5445 -1.0416
 2527SOL    HW219215   1.574   1.869  17.083 -2.8550 -0.7515  0.4738
 2528SOL     OW19216   0.583   2.423   2.569 -0.0020  0.0458 -0.2803
 2528SOL    HW119217   0.549   2.389   2.652  3.7481  0.6960  1.5104
 2528SOL    HW219218   0.671   2.386   2.573 -0.4905 -1.0651  0.2911
 2529SOL     OW19219   1.296   1.084   8.982 -0.6984 -0.0549 -0.3672
 2529SOL    HW119220   1.247   1.049   9.057 -1.6854  2.2360  0.0677
 2529SOL    HW219221   1.242   1.163   8.975  0.3201  0.5487 -1.3569
 2530SOL     OW19222   1.146   2.666   3.168 -0.5726  0.3270 -0.1459
 2530SOL    HW119223   1.099   2.606   3.109 -3.0980  1.9587  0.2066
 2530SOL    HW219224   1.103   2.627   3.244  1.0334  1.3498  1.2723
 2531SOL     OW19225   4.042   0.834   9.282  0.0656  0.3453 -0.0159
 2531SOL    HW119226   4.133   0.811   9.264 -0.4326 -0.5429 -1.4255
 2531SOL    HW219227   4.027   0.771   9.352 -2.2977 -0.2555 -1.0569
 2532SOL     OW19228   1.028   3.666   6.855 -0.3874 -0.7408  0.2012
 2532SOL    HW119229   1.005   3.717   6.777 -0.0094  0.0052  0.5728
 2532SOL    HW219230   1.105   3.716   6.882 -0.2546 -2.3015  2.6434
 2533SOL     OW19231   3.432   1.984   8.470  0.6066 -0.4232 -0.0907
 2533SOL    HW119232   3.378   1.926   8.416 -2.1223  1.7868  0.2844
 2533SOL    HW219233   3.497   2.013   8.407 -0.6705  0.9805 -0.7621
 2534SOL     OW19234   2.355   0.740  13.415 -0.0354 -0.1623 -0.4880
 2534SOL    HW119235   2.337   0.814  13.473 -0.4510 -0.0319 -0.7846
 2534SOL    HW219236   2.331   0.663  13.468  1.0790 -0.0914  0.1267
 2535SOL     OW19237   0.123   1.046   7.765  0.0704  0.0493  0.1027
 2535SOL    HW119238   0.032   1.018   7.754  0.1867  0.5128 -1.9644
 2535SOL    HW219239   0.135   1.126   7.715  1.1980 -0.4644 -0.4422
 2536SOL     OW19240   1.463   3.080   8.906 -0.1776 -0.2859  0.2430
 2536SOL    HW119241   1.406   3.125   8.968  0.3033  1.0181 -0.2703
 2536SOL    HW219242   1.455   2.993   8.947 -0.6688 -0.1107  0.5182
 2537SOL     OW19243   0.877   0.723   2.615  0.0969  0.1603  0.2804
 2537SOL    HW119244   0.949   0.768   2.572  0.9111  0.1234  1.6205
 2537SOL    HW219245   0.882   0.634   2.582  0.4514  0.2992 -0.0347
 2538SOL     OW19246   3.608   1.939   8.245  0.1104 -0.5446  0.0745
 2538SOL    HW119247   3.683   1.918   8.191 -1.0278  0.0821 -1.7442
 2538SOL    HW219248   3.546   1.953   8.173  0.9997 -0.3136 -0.6385
 2539SOL     OW19249   0.260   3.433   3.629 -0.5205 -0.1603 -0.4498
 2539SOL    HW119250   0.273   3.403   3.719 -0.1704  0.8260 -0.1743
 2539SOL    HW219251   0.252   3.527   3.642 -1.2711 -0.3937  0.7493
 2540SOL     OW19252   2.564   0.505   7.479 -0.2218 -0.0153 -0.4125
 2540SOL    HW119253   2.492   0.489   7.540  0.0111 -0.6884 -0.3080
 2540SOL    HW219254   2.541   0.587   7.436  0.5557  1.5738  2.2104
 2541SOL     OW19255   1.034   1.016   2.734  0.5576  0.8721 -0.5319
 2541SOL    HW119256   1.085   0.955   2.787  0.4561  2.0860  0.9535
 2541SOL    HW219257   0.942   0.996   2.749  1.5192 -1.7524  1.9285
 2542SOL     OW19258   4.402   1.720   1.816 -0.2562  0.0591  0.4128
 2542SOL    HW119259   4.472   1.780   1.789  0.4699 -1.1550 -0.4228
 2542SOL    HW219260   4.338   1.773   1.862 -1.5370 -1.4928  0.3850
 2543SOL     OW19261   3.451   2.293  17.124  0.1392 -0.1903  0.5468
 2543SOL    HW119262   3.423   2.202  17.117 -0.3280  0.0102 -0.1433
 2543SOL    HW219263   3.453   2.313  17.031 -0.0520  2.1125  1.0261
 2544SOL     OW19264   1.570   3.745   9.542 -0.0755  0.1612 -0.3853
 2544SOL    HW119265   1.600   3.656   9.560  0.8349  0.4595 -0.3995
 2544SOL    HW219266   1.630   3.792   9.600 -2.7386  1.7291  1.1016
 2545SOL     OW19267   3.460   2.571  13.516 -0.1470  0.6997  0.0447
 2545SOL    HW119268   3.462   2.643  13.578 -1.1694  0.7133  0.0584
 2545SOL    HW219269   3.549   2.590  13.486 -0.4547  2.1496  0.0853
 2546SOL     OW19270   4.264   0.322  17.532 -0.4263  0.1228 -0.2176
 2546SOL    HW119271   4.230   0.410  17.549  2.8036  0.9374  1.8648
 2546SOL    HW219272   4.183   0.281  17.499 -0.7517  1.2187 -0.7886
 2547SOL     OW19273   3.798   0.903   4.681 -0.0769  0.2345 -0.4959
 2547SOL    HW119274   3.759   0.971   4.737 -1.3935 -0.5638 -0.4374
 2547SOL    HW219275   3.856   0.850   4.736 -0.5464  2.4604  2.1679
 2548SOL     OW19276   0.235   2.664   6.407  0.2568  0.6683  0.6237
 2548SOL    HW119277   0.255   2.688   6.316  0.2864 -1.9375 -0.0882
 2548SOL    HW219278   0.321   2.645   6.445  0.4995  1.2114  0.3506
 2549SOL     OW19279   0.690   2.926   4.427  0.2134 -0.1008  0.6293
 2549SOL    HW119280   0.682   2.963   4.515  1.7327 -1.6719  1.4283
 2549SOL    HW219281   0.776   2.957   4.400  0.9992 -1.4550  1.5700
 2550SOL     OW19282   4.490   2.438   6.515 -0.1319  0.2980 -0.5402
 2550SOL    HW119283   4.524   2.518   6.477  0.4797  1.0460  1.5700
 2550SOL    HW219284   4.527   2.371   6.458  0.2995 -0.3427  0.4849
 2551SOL     OW19285   4.583   4.526   1.725  0.2893  0.1591  0.1187
 2551SOL    HW119286   4.536   4.446   1.705 -0.9553  0.4090  2.0500
 2551SOL    HW219287   4.589   4.570   1.640 -0.6228  0.3677  0.1604
 2552SOL     OW19288   2.972   3.552  10.965 -0.1223 -0.3307 -0.3083
 2552SOL    HW119289   3.054   3.536  11.012 -0.6065  0.2956  0.7722
 2552SOL    HW219290   2.910   3.499  11.015 -0.7712  0.4500 -0.2962
 2553SOL     OW19291   2.760   0.176   6.099  0.4016 -0.5782 -0.1058
 2553SOL    HW119292   2.799   0.204   6.182  0.3228 -1.1110  0.1075
 2553SOL    HW219293   2.769   0.081   6.092  0.8741 -0.4473 -1.2606
 2554SOL     OW19294   3.218   1.331  11.848  0.0395 -0.6397 -0.5220
 2554SOL    HW119295   3.146   1.387  11.820  1.4933  1.8435  0.6238
 2554SOL    HW219296   3.237   1.372  11.933 -0.1724  0.7843 -1.1676
 2555SOL     OW19297   0.012   2.793   4.769  0.1407  0.8125 -0.2261
 2555SOL    HW119298   0.056   2.713   4.741 -1.6383 -0.7026  1.3312
 2555SOL    HW219299   4.687   2.807   4.700 -1.1041 -1.4785  0.5012
 2556SOL     OW19300   2.793   0.247   4.359 -0.6317 -0.0222 -0.4354
 2556SOL    HW119301   2.774   0.331   4.402  0.6662 -0.1631  0.4030
 2556SOL    HW219302   2.790   0.180   4.427  3.6109  0.6233  0.3705
 2557SOL     OW19303   0.392   4.135  15.013 -0.2314  0.3984 -0.5106
 2557SOL    HW119304   0.433   4.218  15.038 -1.0482  0.7044 -0.1708
 2557SOL    HW219305   0.421   4.123  14.922 -0.4744 -2.2865 -0.2310
 2558SOL     OW19306   0.097   3.617   5.143  0.5542  0.5750  0.0116
 2558SOL    HW119307   0.192   3.604   5.140  0.1121 -2.4845 -1.1809
 2558SOL    HW219308   0.083   3.698   5.095  1.2411  1.4368  1.2548
 2559SOL     OW19309   3.137   1.047  14.749  0.3522 -0.3388  0.9381
 2559SOL    HW119310   3.061   1.080  14.701  1.3962  2.8172  1.4748
 2559SOL    HW219311   3.167   1.135  14.772  0.7468  0.3967 -2.5404
 2560SOL     OW19312   4.346   2.559   9.369 -0.4718 -0.1640 -0.4009
 2560SOL    HW119313   4.402   2.618   9.418  0.4728 -1.7469  0.4107
 2560SOL    HW219314   4.352   2.603   9.284  0.5340  1.6669  0.6084
 2561SOL     OW19315   3.504   0.297  11.952  0.1909  0.0907  0.0995
 2561SOL    HW119316   3.431   0.304  11.891 -1.9077 -1.1640  2.4712
 2561SOL    HW219317   3.470   0.246  12.025 -0.2844 -1.4316 -1.2027
 2562SOL     OW19318   1.506   1.151  14.528 -0.6398  0.2753  0.0364
 2562SOL    HW119319   1.411   1.164  14.526 -0.7163 -0.2650  0.0833
 2562SOL    HW219320   1.533   1.146  14.620  0.1272  0.8925 -0.1626
 2563SOL     OW19321   3.948   2.257   3.180 -0.1633 -0.7305 -0.0265
 2563SOL    HW119322   3.880   2.219   3.124 -0.2045  1.1929 -1.2867
 2563SOL    HW219323   4.024   2.207   3.149  0.5290  1.7693 -2.3965
 2564SOL     OW19324   0.793   4.153  16.025 -0.3011  0.3716  0.4814
 2564SOL    HW119325   0.845   4.077  15.998 -0.6213 -0.2415  1.5713
 2564SOL    HW219326   0.785   4.199  15.941 -1.5299 -0.8094 -0.0458
 2565SOL     OW19327   0.934   0.078  12.523 -0.1122 -0.3021  0.1638
 2565SOL    HW119328   1.023   0.088  12.490  0.7637  1.8110  3.1139
 2565SOL    HW219329   0.924   0.141  12.595  0.4312 -1.5811  1.3592
 2566SOL     OW19330   4.178   4.499   7.363 -0.0399 -0.1332 -0.4486
 2566SOL    HW119331   4.083   4.498   7.353 -0.2034 -2.1098  1.3294
 2566SOL    HW219332   4.193   4.463   7.451 -1.2500 -3.6870 -1.7172
 2567SOL     OW19333   0.815   2.438   5.728  0.0207 -0.6764 -0.2623
 2567SOL    HW119334   0.811   2.495   5.651  0.4382 -0.1350  0.1127
 2567SOL    HW219335   0.823   2.499   5.802 -0.9590 -0.1184 -0.6270
 2568SOL     OW19336   1.713   3.985   1.412 -0.0928  0.0672 -0.2285
 2568SOL    HW119337   1.715   4.003   1.506 -1.2904 -1.9683  0.1955
 2568SOL    HW219338   1.770   3.909   1.399 -0.2246 -0.2124  0.8770
 2569SOL     OW19339   4.630   2.857   3.474 -0.1897  0.1866  0.1992
 2569SOL    HW119340   4.704   2.823   3.523 -0.3293 -0.6274 -0.1665
 2569SOL    HW219341   4.627   2.944   3.515  0.8083 -0.0068  0.6765
 2570SOL     OW19342   3.199   4.455   4.033 -0.0103 -0.5488 -0.2685
 2570SOL    HW119343   3.160   4.525   4.085 -1.5296  0.4663 -2.7577
 2570SOL    HW219344   3.177   4.491   3.947  0.6490  1.8942  0.5757
 2571SOL     OW19345   3.875   4.349   2.797  0.3727  0.4058 -0.3765
 2571SOL    HW119346   3.871   4.348   2.701  2.9177  0.8986 -0.4875
 2571SOL    HW219347   3.893   4.441   2.817 -0.0890 -0.1423  2.4897
 2572SOL     OW19348   2.959   0.658   6.041 -1.1374 -0.0152  0.1478
 2572SOL    HW119349   2.871   0.684   6.069 -1.4532  0.2020 -1.0519
 2572SOL    HW219350   2.990   0.738   5.999  0.9514 -1.0782 -0.3380
 2573SOL     OW19351   4.658   3.692   1.746  0.2608  0.0342 -0.4612
 2573SOL    HW119352   4.656   3.612   1.693 -0.3832 -0.4742  0.3208
 2573SOL    HW219353   0.009   3.717   1.748  0.4724 -0.7723  0.1755
 2574SOL     OW19354   2.097   4.310   8.630 -0.3360  0.8299 -0.6022
 2574SOL    HW119355   2.009   4.319   8.594 -1.0840 -2.9437  0.3404
 2574SOL    HW219356   2.099   4.219   8.660 -0.5832  0.7227 -0.9238
 2575SOL     OW19357   0.201   1.983   9.538  0.1765  0.5704 -0.7852
 2575SOL    HW119358   0.292   1.990   9.569 -0.6274  1.6119  1.3608
 2575SOL    HW219359   0.170   2.071   9.559  0.6125  0.3129  0.9548
 2576SOL     OW19360   3.267   3.587   8.212  0.3018 -0.8105  0.1871
 2576SOL    HW119361   3.247   3.680   8.210 -2.3398 -1.3599  0.6694
 2576SOL    HW219362   3.179   3.553   8.194  0.4230  0.0472 -2.1013
 2577SOL     OW19363   2.306   0.621   6.774 -0.0253  0.2648  0.4863
 2577SOL    HW119364   2.248   0.613   6.699 -0.1356  1.9349  0.3900
 2577SOL    HW219365   2.324   0.529   6.790 -0.6797  0.1529  0.5566
 2578SOL     OW19366   2.392   4.363   6.575 -0.1367 -0.4441 -0.1419
 2578SOL    HW119367   2.318   4.313   6.540 -1.3381  0.3483  1.2674
 2578SOL    HW219368   2.413   4.406   6.492  0.5450 -2.2210 -0.8956
 2579SOL     OW19369   1.632   2.766  16.409 -0.3789  0.8974 -0.3498
 2579SOL    HW119370   1.674   2.851  16.397  1.0273  0.5947  2.3098
 2579SOL    HW219371   1.623   2.770  16.505 -2.0573  1.0725 -0.5173
 2580SOL     OW19372   0.428   3.117   5.856  0.1811 -0.0740  0.1085
 2580SOL    HW119373   0.483   3.113   5.778 -1.2928  2.5229 -1.0310
 2580SOL    HW219374   0.490   3.167   5.909 -0.9569  2.8427 -1.3808
 2581SOL     OW19375   0.417   3.332   2.845 -0.7018  0.4101 -0.1633
 2581SOL    HW119376   0.434   3.350   2.752  2.6518 -0.9795  0.1734
 2581SOL    HW219377   0.380   3.419   2.859 -0.1798  0.8994 -1.7875
 2582SOL     OW19378   4.303   4.290   8.279  0.0772  0.5905 -0.2629
 2582SOL    HW119379   4.356   4.221   8.320  0.3260 -0.0469 -1.6466
 2582SOL    HW219380   4.224   4.262   8.325  0.0697  0.5968 -0.2720
 2583SOL     OW19381   1.352   0.458   3.862 -0.2249  0.4020 -0.9367
 2583SOL    HW119382   1.410   0.498   3.927 -1.1768 -1.7938  1.2936
 2583SOL    HW219383   1.262   0.465   3.894  0.1350 -1.1131  0.4148
 2584SOL     OW19384   1.732   2.636   6.594 -0.2754  0.2343  0.0137
 2584SOL    HW119385   1.694   2.703   6.651 -0.7395  0.4710 -0.5734
 2584SOL    HW219386   1.671   2.562   6.602 -1.6456  1.3735  0.1673
 2585SOL     OW19387   0.090   4.322   3.483  0.3545 -0.1312  0.0482
 2585SOL    HW119388   0.034   4.363   3.417  3.0043 -0.6976 -2.5665
 2585SOL    HW219389   0.152   4.281   3.423  0.0577 -1.7304  0.8416
 2586SOL     OW19390   2.401   4.718   1.228  0.0389 -0.0093  0.1071
 2586SOL    HW119391   2.323   4.662   1.220 -0.8198  1.3307 -0.7798
 2586SOL    HW219392   2.350   0.055   1.247  0.7972  0.3960  0.4940
 2587SOL     OW19393   1.514   2.744   5.145  0.2488  0.1122 -0.2223
 2587SOL    HW119394   1.574   2.814   5.119  0.4157 -0.2113 -0.7354
 2587SOL    HW219395   1.561   2.728   5.226 -0.1776  0.4323  0.0860
 2588SOL     OW19396   0.893   3.410   3.798 -0.0018  0.3997  0.2876
 2588SOL    HW119397   0.950   3.389   3.871 -0.5304  1.0243  0.8741
 2588SOL    HW219398   0.958   3.448   3.739 -0.1219  0.6116  0.2950
 2589SOL     OW19399   1.466   3.606   4.171 -0.3525 -0.1990  0.2762
 2589SOL    HW119400   1.508   3.537   4.223  1.0424  0.9531  0.6503
 2589SOL    HW219401   1.455   3.558   4.089  2.2241  0.3185 -0.3487
 2590SOL     OW19402   3.474   0.699   5.039 -0.6973 -0.1523 -0.3245
 2590SOL    HW119403   3.550   0.747   5.072 -1.4043  0.0978  0.9740
 2590SOL    HW219404   3.486   0.618   5.088 -1.7658 -0.0373  0.1247
 2591SOL     OW19405   3.269   0.492   1.385 -0.2209  0.2169  0.3214
 2591SOL    HW119406   3.309   0.421   1.334 -1.3287  0.6103 -1.0897
 2591SOL    HW219407   3.328   0.500   1.461  0.7537 -1.3467 -0.2584
 2592SOL     OW19408   0.586   1.074   3.720  0.2044 -0.5040  0.0370
 2592SOL    HW119409   0.506   1.101   3.674 -0.3997 -0.8578  0.8811
 2592SOL    HW219410   0.613   1.153   3.766 -0.5116  0.8793 -1.9190
 2593SOL     OW19411   2.076   0.123  15.112 -0.6394 -0.3196 -0.3105
 2593SOL    HW119412   1.982   0.111  15.126 -0.4380  1.1437  2.3083
 2593SOL    HW219413   2.094   0.109  15.205  0.3296 -1.0127 -0.6059
 2594SOL     OW19414   0.860   4.042   4.834  0.8846  0.3991  1.1000
 2594SOL    HW119415   0.938   3.987   4.842  1.0361  0.6421  1.2839
 2594SOL    HW219416   0.852   4.049   4.739 -0.3464  0.9774  1.2497
 2595SOL     OW19417   0.982   0.197  14.090 -0.2166  0.2362 -0.2792
 2595SOL    HW119418   1.001   0.191  13.996 -3.2882  2.2974 -1.0405
 2595SOL    HW219419   0.908   0.136  14.090 -2.1496  2.6112 -1.4088
 2596SOL     OW19420   4.112   1.789   8.277 -0.2127 -0.2780 -0.0802
 2596SOL    HW119421   4.149   1.802   8.364  1.7954  4.8342 -1.7132
 2596SOL    HW219422   4.037   1.728   8.284  1.5291 -2.4836 -0.6204
 2597SOL     OW19423   2.706   3.455  15.729 -0.3815  0.3737  1.0896
 2597SOL    HW119424   2.750   3.402  15.796  3.7800  0.6526 -1.4642
 2597SOL    HW219425   2.735   3.416  15.647  0.4411  1.4334  0.8781
 2598SOL     OW19426   2.553   4.055   3.641  0.0119  0.3972  0.8097
 2598SOL    HW119427   2.459   4.063   3.658 -0.1068 -0.8465  0.7554
 2598SOL    HW219428   2.564   4.117   3.569 -1.5639 -0.0566  0.1705
 2599SOL     OW19429   0.967   3.216  11.998 -0.3370  0.0074 -0.1976
 2599SOL    HW119430   0.924   3.273  11.934  1.6409  0.6056 -0.9678
 2599SOL    HW219431   0.930   3.250  12.080  0.4898 -2.6058  1.2437
 2600SOL     OW19432   2.147   1.497   5.093 -0.3488 -0.0021  0.9060
 2600SOL    HW119433   2.189   1.563   5.148  0.3262 -0.4194  0.8940
 2600SOL    HW219434   2.223   1.462   5.047 -0.6780  0.7200 -0.1862
 2601SOL     OW19435   4.702   3.224   1.439 -0.5645  0.5661 -0.8826
 2601SOL    HW119436   0.005   3.158   1.387  0.5369  0.1901  0.5274
 2601SOL    HW219437   4.633   3.179   1.487 -0.1423  1.3876  0.4923
 2602SOL     OW19438   4.739   3.124   7.077  0.0808 -0.0868 -0.4647
 2602SOL    HW119439   4.696   3.146   6.994 -2.4178 -1.4504  0.4583
 2602SOL    HW219440   0.090   3.128   7.053 -0.1021 -2.3449 -1.5656
 2603SOL     OW19441   3.674   1.498  17.311 -0.2946  0.2024 -0.0327
 2603SOL    HW119442   3.684   1.588  17.340 -0.0462  0.6560 -1.5578
 2603SOL    HW219443   3.726   1.453  17.377  0.4014 -0.1728 -0.8353
 2604SOL     OW19444   3.712   3.654   6.092 -0.2820  0.3448 -0.1559
 2604SOL    HW119445   3.627   3.678   6.055 -0.0293 -3.0186 -2.9733
 2604SOL    HW219446   3.684   3.607   6.170 -1.2296  0.1599 -0.6020
 2605SOL     OW19447   1.419   0.729   4.005  0.5528 -0.5404  0.3882
 2605SOL    HW119448   1.495   0.679   3.978  0.5336 -0.0876 -0.4909
 2605SOL    HW219449   1.392   0.700   4.092  1.0228 -0.5843  0.5178
 2606SOL     OW19450   4.587   3.307   7.451  0.0467  0.0923  0.2469
 2606SOL    HW119451   4.609   3.399   7.444  2.1040 -0.0098  5.3709
 2606SOL    HW219452   4.507   3.315   7.504 -1.5972  1.2059 -2.3968
 2607SOL     OW19453   3.893   2.942  10.284  0.2455 -0.1942 -0.2074
 2607SOL    HW119454   3.965   2.933  10.222 -1.0016  0.4518 -1.7579
 2607SOL    HW219455   3.944   2.941  10.365  1.0197  1.7530 -0.6855
 2608SOL     OW19456   2.572   1.623  15.289 -0.0800  1.0835  0.1139
 2608SOL    HW119457   2.650   1.623  15.233  0.9844 -0.4300  1.5737
 2608SOL    HW219458   2.591   1.552  15.351 -0.0305  0.4723 -0.6093
 2609SOL     OW19459   4.153   4.594   4.181 -0.0508 -0.4550 -0.0796
 2609SOL    HW119460   4.144   4.595   4.276  0.6450  0.2186 -0.0185
 2609SOL    HW219461   4.066   4.565   4.156 -1.3234  0.5438  3.2254
 2610SOL     OW19462   2.294   3.885   5.861 -0.2006  0.0879 -0.3066
 2610SOL    HW119463   2.358   3.823   5.827 -0.8393 -0.1981 -0.9746
 2610SOL    HW219464   2.225   3.889   5.794  1.6888  0.2228 -2.2151
 2611SOL     OW19465   1.013   2.018  12.212  0.0083 -0.0782 -0.6351
 2611SOL    HW119466   1.026   1.923  12.215 -1.8780 -0.3136  0.2341
 2611SOL    HW219467   1.064   2.048  12.137  1.0550 -2.4907 -0.8908
 2612SOL     OW19468   1.825   2.373   3.459  0.6735  0.1368  0.0105
 2612SOL    HW119469   1.873   2.444   3.416  0.8942  0.5622  0.9724
 2612SOL    HW219470   1.817   2.402   3.550  0.1722 -1.5379  0.5060
 2613SOL     OW19471   2.399   1.439  10.042  0.2282  0.0186 -0.5381
 2613SOL    HW119472   2.383   1.450  10.136 -1.9133  2.0318 -1.1309
 2613SOL    HW219473   2.331   1.376  10.017  0.0561  0.4852 -1.2435
 2614SOL     OW19474   1.382   2.309   3.897  0.3067  0.2164  0.1487
 2614SOL    HW119475   1.396   2.402   3.876 -1.4111  0.0417 -1.7604
 2614SOL    HW219476   1.349   2.316   3.986  0.8945  2.8894  0.1800
 2615SOL     OW19477   2.798   2.905   6.477  0.1801  0.0711 -0.1012
 2615SOL    HW119478   2.835   2.829   6.523 -0.2986  0.7134  1.3482
 2615SOL    HW219479   2.754   2.864   6.403  1.4250 -0.3244 -0.6258
 2616SOL     OW19480   0.275   3.950   5.765  0.0614 -0.3523 -0.0101
 2616SOL    HW119481   0.336   3.918   5.698 -0.7625 -1.3826 -0.2654
 2616SOL    HW219482   0.195   3.927   5.718  0.5561  0.1548 -1.1031
 2617SOL     OW19483   0.059   4.665   8.881  0.3860  0.2339  0.0281
 2617SOL    HW119484   4.724   4.608   8.888  0.0535  0.5867 -0.6943
 2617SOL    HW219485   0.026   0.009   8.912  1.3862  0.6693 -0.0840
 2618SOL     OW19486   3.251   3.552  10.192  0.1264 -0.0698  0.3042
 2618SOL    HW119487   3.200   3.472  10.209 -1.5597  1.0750  0.6368
 2618SOL    HW219488   3.181   3.617  10.197 -2.9223 -3.1137 -2.2813
 2619SOL     OW19489   0.186   3.597   4.738 -0.1530 -0.2225 -0.4886
 2619SOL    HW119490   0.260   3.570   4.683 -0.2101  1.2602 -1.2871
 2619SOL    HW219491   0.130   3.519   4.736 -1.3261  0.6075  0.0830
 2620SOL     OW19492   0.294   4.068  14.454  0.3927  0.1043  0.5003
 2620SOL    HW119493   0.228   4.045  14.389  0.5698  0.2092  0.2852
 2620SOL    HW219494   0.354   4.115  14.395  0.1851 -1.4740 -0.9654
 2621SOL     OW19495   3.238   4.289   1.362 -0.2133  0.1027  0.3885
 2621SOL    HW119496   3.175   4.300   1.433  1.2459  0.9115  1.5663
 2621SOL    HW219497   3.251   4.195   1.365  0.0921  0.0850 -1.3298
 2622SOL     OW19498   3.174   0.095  10.654 -0.5374  0.8971 -0.1195
 2622SOL    HW119499   3.159   0.044  10.733  1.0045  0.0411 -0.3752
 2622SOL    HW219500   3.256   0.062  10.617  0.2919 -0.6407  3.0976
 2623SOL     OW19501   0.913   4.552   9.561  0.2206  0.0254  0.2907
 2623SOL    HW119502   0.908   4.485   9.493  0.1620 -0.6259  0.9290
 2623SOL    HW219503   0.822   4.563   9.590 -0.4210 -1.1110 -1.3126
 2624SOL     OW19504   3.790   3.231   4.169 -0.5802  0.0234  0.3890
 2624SOL    HW119505   3.811   3.313   4.213  0.5173 -0.6064  1.0510
 2624SOL    HW219506   3.870   3.183   4.148 -0.0338  1.1146  0.0072
 2625SOL     OW19507   1.096   3.625   4.895  0.3022  0.2085  0.5055
 2625SOL    HW119508   1.022   3.684   4.909  0.1272  0.2612 -0.6032
 2625SOL    HW219509   1.129   3.650   4.808  1.5557  0.0951  0.9470
 2626SOL     OW19510   2.571   0.333  14.976  0.1369 -0.1648 -0.2818
 2626SOL    HW119511   2.658   0.319  14.940  0.0710  1.7445 -1.2205
 2626SOL    HW219512   2.568   0.427  14.959  1.0078 -0.3896 -1.6556
 2627SOL     OW19513   1.626   2.766   8.043 -0.4157 -0.3928 -0.3463
 2627SOL    HW119514   1.576   2.799   7.968  0.8631 -1.8091 -1.8170
 2627SOL    HW219515   1.566   2.772   8.118 -0.2755 -0.0808 -0.2582
 2628SOL     OW19516   1.002   1.856   6.570  0.0155 -0.0652  0.3479
 2628SOL    HW119517   1.050   1.904   6.638  0.0463 -1.5442  1.3777
 2628SOL    HW219518   1.067   1.793   6.539 -0.4938 -1.3738  1.8659
 2629SOL     OW19519   0.400   0.164   2.269  0.2040  0.2392  0.6639
 2629SOL    HW119520   0.478   0.211   2.300  1.2652  0.6481 -2.6478
 2629SOL    HW219521   0.440   0.076   2.268 -1.2535 -0.3890 -1.2693
 2630SOL     OW19522   3.378   1.212   9.414 -0.5900  0.8277 -0.2574
 2630SOL    HW119523   3.381   1.155   9.337 -1.9090 -1.1565  1.1529
 2630SOL    HW219524   3.462   1.195   9.457 -0.3014 -0.6087 -1.3871
 2631SOL     OW19525   0.743   3.017   6.740 -0.2307 -0.0493 -0.3754
 2631SOL    HW119526   0.812   3.074   6.773 -1.3056  0.5829  0.8110
 2631SOL    HW219527   0.734   3.050   6.651 -0.1959  0.5602 -0.1553
 2632SOL     OW19528   0.275   2.982   7.980  0.5960  0.1329  0.4187
 2632SOL    HW119529   0.275   2.920   7.907 -1.3374 -1.6838  1.9467
 2632SOL    HW219530   0.361   3.020   7.962  0.7496 -0.0279  0.8032
 2633SOL     OW19531   2.066   3.757  14.390  0.1461 -0.2096 -0.5689
 2633SOL    HW119532   2.139   3.730  14.446  0.6201  0.9666 -0.6239
 2633SOL    HW219533   2.103   3.711  14.314 -0.3889  1.1079 -1.6298
 2634SOL     OW19534   0.875   0.211   1.066 -0.0090  0.3130 -0.2935
 2634SOL    HW119535   0.806   0.278   1.064 -0.4018 -0.1148 -1.6984
 2634SOL    HW219536   0.894   0.214   0.972 -1.5567  2.5328 -0.5576
 2635SOL     OW19537   0.953   1.146  12.770  0.1318 -0.0955 -0.1472
 2635SOL    HW119538   1.013   1.173  12.701 -0.5539  1.3594 -0.1790
 2635SOL    HW219539   0.892   1.218  12.787  0.2749 -0.5574  2.3325
 2636SOL     OW19540   4.228   0.842  12.700  0.0666 -0.0605  0.1858
 2636SOL    HW119541   4.204   0.868  12.611 -1.1009 -2.4526 -0.2032
 2636SOL    HW219542   4.278   0.920  12.725 -0.8953  0.1299  1.5210
 2637SOL     OW19543   4.249   1.062   8.145  0.1285 -0.1455  0.5612
 2637SOL    HW119544   4.244   1.094   8.054 -0.9410 -0.7490  0.4031
 2637SOL    HW219545   4.162   1.095   8.171  0.4700  0.4170  0.9882
 2638SOL     OW19546   3.174   3.358   4.190 -0.1052  0.1176  0.0001
 2638SOL    HW119547   3.196   3.419   4.120  0.0743 -0.3101 -0.3166
 2638SOL    HW219548   3.083   3.385   4.207  0.2772  1.2208  0.3216
 2639SOL     OW19549   2.597   4.597   2.825 -0.0981 -0.0764 -0.1310
 2639SOL    HW119550   2.537   4.527   2.797  0.5392 -0.0352 -1.5881
 2639SOL    HW219551   2.598   4.660   2.754 -1.9954  0.0708 -0.0487
 2640SOL     OW19552   1.448   4.726   6.007  0.7201 -0.5954  0.3974
 2640SOL    HW119553   1.533   4.689   6.028  1.9768  2.0894  0.0773
 2640SOL    HW219554   1.411   4.656   5.954 -0.3751  0.1072  0.2358
 2641SOL     OW19555   2.220   0.216   2.340  0.1870  0.6250 -0.2185
 2641SOL    HW119556   2.270   0.141   2.372 -0.4457  0.2423 -0.1413
 2641SOL    HW219557   2.163   0.238   2.413  0.4307  2.4570 -0.5727
 2642SOL     OW19558   3.358   3.355  13.946 -0.0321 -0.0358  0.0775
 2642SOL    HW119559   3.409   3.301  13.885  0.9368 -0.8187  1.6088
 2642SOL    HW219560   3.432   3.371  14.003 -0.5984  0.7768  0.5868
 2643SOL     OW19561   0.933   0.422   2.298 -0.0252 -0.3174  0.2729
 2643SOL    HW119562   1.013   0.475   2.299 -0.8054  0.7941  3.7925
 2643SOL    HW219563   0.867   0.491   2.303 -0.1277 -0.5584  2.0354
 2644SOL     OW19564   4.302   4.093   3.059  0.0982  0.1208 -0.4274
 2644SOL    HW119565   4.240   4.071   3.129  0.4693  2.4388  0.6143
 2644SOL    HW219566   4.250   4.105   2.980  0.9491 -2.2696 -1.3457
 2645SOL     OW19567   3.425   2.418   5.853 -0.1966 -0.1048 -0.3914
 2645SOL    HW119568   3.436   2.503   5.811  0.9829 -0.4788 -0.8234
 2645SOL    HW219569   3.509   2.378   5.830  0.6170  0.4358  1.6649
 2646SOL     OW19570   2.464   3.544   8.820  0.1829  0.0259 -0.3763
 2646SOL    HW119571   2.536   3.489   8.790 -0.3214 -1.2830  0.8443
 2646SOL    HW219572   2.505   3.586   8.896 -0.7417  1.7421 -0.8073
 2647SOL     OW19573   2.708   3.129   3.486  0.2977  0.2415  0.3253
 2647SOL    HW119574   2.705   3.215   3.445  2.5055  0.0325 -0.2796
 2647SOL    HW219575   2.749   3.084   3.412 -1.6072 -0.6697 -0.1980
 2648SOL     OW19576   1.971   1.895   4.905  0.6808  0.6854  0.4321
 2648SOL    HW119577   1.969   1.989   4.887 -0.0511  0.2499 -1.7767
 2648SOL    HW219578   1.885   1.856   4.887  1.7217 -0.2658 -2.5344
 2649SOL     OW19579   2.351   4.049  14.116 -0.3396 -0.1615  0.0196
 2649SOL    HW119580   2.315   3.960  14.117  1.5302 -0.8825  1.3898
 2649SOL    HW219581   2.363   4.053  14.021 -0.8511  0.4214 -0.0221
 2650SOL     OW19582   0.088   0.948   0.598  0.1082 -0.6167 -0.6617
 2650SOL    HW119583   0.159   0.931   0.661  0.2784  1.5995 -0.2466
 2650SOL    HW219584   0.067   1.039   0.616  1.5446 -0.0231 -1.9433
 2651SOL     OW19585   4.326   1.543   6.701 -0.2123  0.2193  0.3119
 2651SOL    HW119586   4.384   1.526   6.627  1.4859  0.5404  1.5969
 2651SOL    HW219587   4.251   1.586   6.659  1.1491  1.3277 -0.9820
 2652SOL     OW19588   3.632   1.089   4.140 -0.7246 -0.0808  0.1022
 2652SOL    HW119589   3.714   1.103   4.093 -1.1455  3.5090  0.4062
 2652SOL    HW219590   3.654   1.134   4.222 -2.2490  0.9813 -0.0837
 2653SOL     OW19591   3.245   1.180   9.098 -0.5119 -0.0452 -0.3942
 2653SOL    HW119592   3.251   1.256   9.041 -0.6063  0.5518  0.3894
 2653SOL    HW219593   3.311   1.118   9.068 -1.0018 -0.3799 -0.7861
 2654SOL     OW19594   4.206   3.700   3.125  0.2093  0.2908  0.3876
 2654SOL    HW119595   4.160   3.685   3.042 -1.1583  0.9112  1.0487
 2654SOL    HW219596   4.208   3.617   3.173 -1.7723 -0.4995 -0.9333
 2655SOL     OW19597   0.308   0.481  17.232 -0.2036 -0.2193  0.0872
 2655SOL    HW119598   0.386   0.438  17.197  0.2901  0.9138 -0.1884
 2655SOL    HW219599   0.328   0.575  17.227 -0.1698 -0.2089  0.4643
 2656SOL     OW19600   2.588   1.501   8.640 -0.2807 -0.3488 -0.0585
 2656SOL    HW119601   2.615   1.545   8.559 -1.5384 -0.1167 -0.3483
 2656SOL    HW219602   2.519   1.565   8.656 -0.9774 -0.8057 -1.2547
 2657SOL     OW19603   3.644   2.696   3.988  0.4969 -0.4449 -0.1097
 2657SOL    HW119604   3.729   2.654   3.998  0.8987  0.6157  1.0380
 2657SOL    HW219605   3.618   2.695   4.080 -4.2412 -0.9863 -1.4448
 2658SOL     OW19606   2.350   0.121   1.914 -0.2005 -0.0832  0.2422
 2658SOL    HW119607   2.307   0.045   1.876 -0.6472  0.2179  0.1433
 2658SOL    HW219608   2.275   0.179   1.899  1.3956  2.1510  0.9066
 2659SOL     OW19609   2.583   4.280   2.288  0.0600 -0.4856 -0.6658
 2659SOL    HW119610   2.574   4.373   2.268 -0.7776 -0.4670 -0.1979
 2659SOL    HW219611   2.516   4.273   2.355  0.6491 -0.2009 -0.0472
 2660SOL     OW19612   0.282   2.987   5.298  0.7355 -0.5469 -0.1130
 2660SOL    HW119613   0.196   3.024   5.317  1.4500  1.0904 -0.0728
 2660SOL    HW219614   0.303   2.930   5.372  0.7963  0.7692  0.9006
 2661SOL     OW19615   0.904   2.566  11.877 -0.0678 -0.6240  0.0531
 2661SOL    HW119616   0.823   2.537  11.834  1.2006 -2.3727 -1.1906
 2661SOL    HW219617   0.955   2.486  11.861  0.4722  0.0195 -1.4181
 2662SOL     OW19618   0.294   0.414   4.108  0.1351  0.6002 -0.2542
 2662SOL    HW119619   0.255   0.403   4.022 -1.5706  1.8757  0.3477
 2662SOL    HW219620   0.360   0.481   4.094 -0.8655  1.7937  0.7218
 2663SOL     OW19621   1.459   0.508   5.723  0.4810  0.0301  0.3327
 2663SOL    HW119622   1.532   0.541   5.672 -0.6204  1.6478 -0.2035
 2663SOL    HW219623   1.462   0.414   5.703  1.6458 -0.4346  2.8228
 2664SOL     OW19624   3.293   2.118   9.049 -0.6519 -0.3593  0.2067
 2664SOL    HW119625   3.350   2.140   9.123 -1.4586  0.1563  0.6846
 2664SOL    HW219626   3.295   2.023   9.066  0.3256 -0.1658  1.1946
 2665SOL     OW19627   4.690   1.784   9.886 -0.0957  0.1825 -0.1185
 2665SOL    HW119628   4.697   1.699   9.841 -0.1419  0.8167 -1.3361
 2665SOL    HW219629   4.657   1.840   9.816 -1.5403 -2.6833 -1.7549
 2666SOL     OW19630   4.249   0.291  14.039  0.6818  0.6465 -0.7813
 2666SOL    HW119631   4.320   0.311  13.978 -0.0001  0.3209 -1.6808
 2666SOL    HW219632   4.271   0.355  14.107 -2.6239  0.4640  0.4677
 2667SOL     OW19633   0.932   3.368   3.486 -0.5430 -0.1658 -0.1915
 2667SOL    HW119634   1.001   3.307   3.512  0.5012  0.3080 -1.8113
 2667SOL    HW219635   0.970   3.448   3.449  3.2253 -1.2627  1.2630
 2668SOL     OW19636   4.161   1.189   5.907  0.2447  0.2873  1.1183
 2668SOL    HW119637   4.102   1.213   5.835 -1.0494 -0.4710  1.9319
 2668SOL    HW219638   4.222   1.263   5.905  2.0098 -1.1522  2.0396
 2669SOL     OW19639   4.072   3.380   7.338  0.3035  0.1170  0.0855
 2669SOL    HW119640   4.084   3.428   7.257  1.5425  1.0708  0.8383
 2669SOL    HW219641   4.132   3.309   7.316 -0.6788 -0.1806 -1.5990
 2670SOL     OW19642   2.301   2.893  16.804  0.1049 -0.2389  0.4940
 2670SOL    HW119643   2.336   2.841  16.877  0.7892 -0.3484  0.0878
 2670SOL    HW219644   2.206   2.886  16.811  0.1933 -1.0712  0.7737
 2671SOL     OW19645   0.706   0.162   6.097  0.8079 -0.2525 -0.1166
 2671SOL    HW119646   0.744   0.172   6.184 -0.5863 -0.5043  0.5266
 2671SOL    HW219647   0.654   0.082   6.100  1.5547 -0.6736  1.2358
 2672SOL     OW19648   1.935   4.566   3.373  0.0030  0.3638  0.1557
 2672SOL    HW119649   1.880   4.506   3.424  0.5821 -2.0147 -2.0144
 2672SOL    HW219650   1.876   4.608   3.310 -1.6263 -0.5048  1.0965
 2673SOL     OW19651   4.403   4.441   5.491  0.0350 -0.2576  0.5457
 2673SOL    HW119652   4.384   4.505   5.560  2.3799 -0.5498  1.4725
 2673SOL    HW219653   4.371   4.362   5.535 -2.7008 -0.0734 -1.0995
 2674SOL     OW19654   3.168   0.964   6.739 -0.1212 -0.0341  0.1155
 2674SOL    HW119655   3.148   0.944   6.648 -1.6121 -2.0805  0.8826
 2674SOL    HW219656   3.103   1.034   6.745  1.6306  1.5074  1.4348
 2675SOL     OW19657   4.208   3.024   8.208 -0.3175  0.0967  0.0370
 2675SOL    HW119658   4.200   3.116   8.186  1.6859 -0.0489 -1.3549
 2675SOL    HW219659   4.294   3.007   8.169 -0.9664 -0.0488 -1.3370
 2676SOL     OW19660   3.731   0.773   3.154  0.4434 -0.4784 -0.0000
 2676SOL    HW119661   3.736   0.703   3.220  0.9058 -1.3116 -0.9140
 2676SOL    HW219662   3.694   0.733   3.075  0.4352 -0.6272  0.0774
 2677SOL     OW19663   1.121   1.265   8.903 -0.4838 -0.4854  0.6861
 2677SOL    HW119664   1.026   1.256   8.897 -0.4748 -1.2724  1.7571
 2677SOL    HW219665   1.129   1.355   8.871 -0.3896 -1.0940 -1.0009
 2678SOL     OW19666   4.447   1.845   8.835  0.1399 -0.3874  0.4552
 2678SOL    HW119667   4.482   1.818   8.751 -0.3197 -0.2226  0.2118
 2678SOL    HW219668   4.456   1.767   8.890  0.1066 -1.4819 -1.1130
 2679SOL     OW19669   2.142   1.696   9.202 -0.3656 -0.1961  0.2452
 2679SOL    HW119670   2.160   1.742   9.120 -0.1836 -1.4216 -0.4043
 2679SOL    HW219671   2.056   1.672   9.167  0.1215 -1.9623  0.2339
 2680SOL     OW19672   4.699   1.617   5.817 -0.0710  0.0333 -0.3420
 2680SOL    HW119673   0.027   1.618   5.751  0.2970  3.1064  0.0525
 2680SOL    HW219674   4.678   1.711   5.822 -0.0798  0.0258 -0.2474
 2681SOL     OW19675   4.010   2.077   8.519 -0.6690 -0.1488 -0.2138
 2681SOL    HW119676   4.029   2.084   8.426  1.0938 -3.3480 -0.0750
 2681SOL    HW219677   3.955   2.155   8.533  0.4566  0.7791 -1.0088
 2682SOL     OW19678   3.604   1.313  10.137 -0.1270  0.8599  0.0571
 2682SOL    HW119679   3.579   1.266  10.058  2.9301 -1.8155  0.6582
 2682SOL    HW219680   3.654   1.380  10.091  0.6102 -0.4888 -1.1030
 2683SOL     OW19681   3.166   0.708   3.480  0.4456  0.0005 -0.0892
 2683SOL    HW119682   3.183   0.712   3.386  2.1588  1.3591  0.2618
 2683SOL    HW219683   3.177   0.616   3.500  1.9585  0.3531  0.7213
 2684SOL     OW19684   2.430   3.601   2.627 -0.2958  0.0345  0.1914
 2684SOL    HW119685   2.384   3.617   2.545  2.7047 -0.1299 -1.5345
 2684SOL    HW219686   2.463   3.514   2.604 -2.2457 -0.2371 -1.5976
 2685SOL     OW19687   1.184   3.403   8.387  0.3370 -0.6687 -0.2442
 2685SOL    HW119688   1.196   3.311   8.411 -1.1993 -0.5376  1.0317
 2685SOL    HW219689   1.185   3.441   8.475  0.3684 -2.9487  0.7545
 2686SOL     OW19690   4.514   0.454   2.534 -0.2890 -0.3123 -0.0975
 2686SOL    HW119691   4.469   0.377   2.569 -0.6613  0.1015  0.3399
 2686SOL    HW219692   4.477   0.436   2.448  0.8936 -0.6489 -0.5324
 2687SOL     OW19693   1.084   0.291  13.853  0.5219 -0.2010 -0.3981
 2687SOL    HW119694   1.167   0.312  13.810  1.2810  0.2993  1.3159
 2687SOL    HW219695   1.082   0.357  13.922  1.2260 -0.6528  0.0508
 2688SOL     OW19696   2.375   3.344   4.622  0.2209 -0.3086 -0.0298
 2688SOL    HW119697   2.280   3.348   4.623  0.3095  1.2652  1.1572
 2688SOL    HW219698   2.383   3.342   4.526  0.9830  0.8945  0.0019
 2689SOL     OW19699   1.782   0.635   2.092  1.3343  0.0332 -0.1421
 2689SOL    HW119700   1.817   0.645   2.003  1.3712 -2.9446 -0.4689
 2689SOL    HW219701   1.711   0.699   2.096 -0.7942 -2.3431  0.2161
 2690SOL     OW19702   4.637   0.170   4.419  0.9218  0.1200 -0.6486
 2690SOL    HW119703   4.617   0.197   4.329  0.6696 -0.9061 -0.9068
 2690SOL    HW219704   4.696   0.099   4.394 -1.5503 -2.0497 -0.3625
 2691SOL     OW19705   3.769   3.976   6.841 -0.5406  0.1228  0.2370
 2691SOL    HW119706   3.759   3.989   6.935 -0.1158 -2.1536  0.5928
 2691SOL    HW219707   3.710   4.042   6.804 -0.0046  0.4022 -0.1237
 2692SOL     OW19708   2.273   3.659  14.508 -1.2397 -0.3497 -0.0673
 2692SOL    HW119709   2.310   3.612  14.433  3.2838  2.0333  0.6964
 2692SOL    HW219710   2.354   3.660  14.559 -0.0838 -2.4359 -1.8556
 2693SOL     OW19711   1.525   0.436   3.291 -0.6789 -0.3523  0.5012
 2693SOL    HW119712   1.451   0.426   3.231  0.2180 -0.4779 -0.5761
 2693SOL    HW219713   1.502   0.369   3.356 -0.7497  1.2319  2.1040
 2694SOL     OW19714   1.139   2.572  15.936  0.0125  0.3707  0.3977
 2694SOL    HW119715   1.152   2.517  16.013  0.7046 -0.0117  0.0126
 2694SOL    HW219716   1.061   2.533  15.897 -1.5576 -0.8035  4.7137
 2695SOL     OW19717   4.692   3.206  13.403  0.5376  0.2171  0.1154
 2695SOL    HW119718   4.621   3.214  13.466  3.8440 -0.5741  3.8951
 2695SOL    HW219719   4.739   3.289  13.413  0.2202  0.4011  0.0930
 2696SOL     OW19720   1.243   2.646   6.571  0.3443  0.5072 -0.1394
 2696SOL    HW119721   1.257   2.633   6.477 -0.0382  1.4913 -0.3345
 2696SOL    HW219722   1.267   2.738   6.572 -3.0614  1.3608  1.6858
 2697SOL     OW19723   0.888   4.125  12.720 -0.0429 -0.1086  0.5044
 2697SOL    HW119724   0.953   4.188  12.753 -1.3057  1.3119  0.3160
 2697SOL    HW219725   0.830   4.183  12.671  1.3084  2.0083  1.3714
 2698SOL     OW19726   2.800   2.211  14.791  0.3927  0.3046  0.3269
 2698SOL    HW119727   2.821   2.207  14.884  3.3013  1.1746 -0.3022
 2698SOL    HW219728   2.887   2.191  14.757  0.5016 -0.8510  1.3110
 2699SOL     OW19729   2.889   3.744   0.531  0.2175 -0.3153 -0.2968
 2699SOL    HW119730   2.928   3.658   0.516  2.7080  0.4330  1.6783
 2699SOL    HW219731   2.886   3.773   0.440 -1.3626  2.5412  0.6587
 2700SOL     OW19732   1.240   1.458   3.964  0.6269 -0.1212  0.0516
 2700SOL    HW119733   1.233   1.388   4.028  0.2198  0.5358  0.7314
 2700SOL    HW219734   1.225   1.540   4.011 -0.7724 -1.1498  1.3882
 2701SOL     OW19735   0.150   1.058  11.017 -0.4596  0.6681 -0.2626
 2701SOL    HW119736   0.146   0.969  11.053  1.3621  0.2770 -1.0487
 2701SOL    HW219737   0.077   1.048  10.957  1.2663  0.3693 -2.3002
 2702SOL     OW19738   2.178   2.831   8.155  0.1416  0.6731 -0.0019
 2702SOL    HW119739   2.171   2.884   8.235 -0.5191 -0.9656  1.0332
 2702SOL    HW219740   2.103   2.863   8.104  0.0016 -1.1872 -0.9475
 2703SOL     OW19741   4.161   3.357   2.030  0.3687 -0.1676 -0.3965
 2703SOL    HW119742   4.081   3.408   2.019  0.1009 -0.7899 -1.3838
 2703SOL    HW219743   4.230   3.409   1.988 -0.2111  0.2352 -0.8414
 2704SOL     OW19744   0.861   3.481   8.526 -0.1951 -0.0090 -1.1760
 2704SOL    HW119745   0.895   3.481   8.616  2.6643 -2.9230 -2.2759
 2704SOL    HW219746   0.789   3.418   8.535  1.0078 -1.0863  1.0600
 2705SOL     OW19747   4.256   0.911  17.484 -0.0860  0.1708 -0.2636
 2705SOL    HW119748   4.322   0.856  17.441  2.1806  2.1527  0.7667
 2705SOL    HW219749   4.179   0.854  17.472  0.4795 -1.0143  1.8044
 2706SOL     OW19750   1.388   0.508   5.362 -0.6774 -0.4545 -0.3475
 2706SOL    HW119751   1.322   0.529   5.427 -1.0736 -2.3661 -0.1476
 2706SOL    HW219752   1.378   0.573   5.292 -0.4850 -1.2523 -1.1173
 2707SOL     OW19753   3.341   4.091   5.432 -0.1376 -0.7341  0.0003
 2707SOL    HW119754   3.299   4.174   5.456  0.5224 -0.1100 -0.9753
 2707SOL    HW219755   3.377   4.108   5.345 -0.7710 -3.0005 -0.7077
 2708SOL     OW19756   4.186   1.859   5.763 -0.6900  0.5398  0.5544
 2708SOL    HW119757   4.185   1.780   5.816 -0.6843 -0.7546 -1.3620
 2708SOL    HW219758   4.096   1.861   5.730  0.4940  1.1884 -2.7237
 2709SOL     OW19759   2.012   0.704   1.095 -0.1061  0.2140 -0.1186
 2709SOL    HW119760   2.039   0.721   1.185 -0.2221  1.7611 -0.3721
 2709SOL    HW219761   1.947   0.636   1.112 -1.4000  1.4600 -0.1117
 2710SOL     OW19762   4.710   1.420  10.008  0.6054 -0.2019 -0.0865
 2710SOL    HW119763   4.710   1.492  10.071 -2.2390 -2.6022  2.6474
 2710SOL    HW219764   0.063   1.398  10.007  1.1117  2.0938 -2.2083
 2711SOL     OW19765   2.502   0.187   0.836  0.3320 -0.1025 -0.1120
 2711SOL    HW119766   2.451   0.255   0.793  1.5765  0.4671 -0.6597
 2711SOL    HW219767   2.442   0.145   0.899 -0.2669 -0.1347 -0.7039
 2712SOL     OW19768   0.360   3.180   6.306 -0.6828  0.0526 -0.5130
 2712SOL    HW119769   0.291   3.190   6.241  1.6821  2.8073 -2.5716
 2712SOL    HW219770   0.422   3.251   6.286 -1.1685  0.2062 -1.4606
 2713SOL     OW19771   0.663   2.594   6.198 -0.3820  0.1018 -0.2331
 2713SOL    HW119772   0.653   2.599   6.293 -0.2983 -0.3813 -0.2012
 2713SOL    HW219773   0.730   2.657   6.171 -0.2104 -0.5869 -1.4181
 2714SOL     OW19774   2.575   2.519   4.959  0.0583  0.0979 -0.0725
 2714SOL    HW119775   2.508   2.582   4.987  0.9424  1.0292 -0.0732
 2714SOL    HW219776   2.644   2.583   4.942 -1.1436  0.9014 -1.9108
 2715SOL     OW19777   1.239   2.933   5.383  0.5391 -0.2644 -0.9520
 2715SOL    HW119778   1.179   2.964   5.451  0.8745 -2.4723  0.3670
 2715SOL    HW219779   1.312   2.929   5.445  0.8090  0.7841 -1.2084
 2716SOL     OW19780   1.324   1.017   4.263 -0.2965 -0.6894  0.6027
 2716SOL    HW119781   1.301   0.934   4.306  1.0128 -0.4972  1.6920
 2716SOL    HW219782   1.358   1.066   4.338  1.9890 -3.0892  1.1319
 2717SOL     OW19783   1.523   0.554   0.653  0.1456  0.1103  0.2770
 2717SOL    HW119784   1.538   0.467   0.691  0.1644  0.6275  1.4671
 2717SOL    HW219785   1.592   0.561   0.587 -0.5218  0.4144 -0.3791
 2718SOL     OW19786   1.906   2.544   3.979  0.0107 -0.2710 -0.2635
 2718SOL    HW119787   1.900   2.454   4.011 -2.4632 -0.8042 -2.1595
 2718SOL    HW219788   1.849   2.588   4.042 -0.2459 -0.3359 -0.4512
 2719SOL     OW19789   1.181   4.119  11.856  0.5022 -0.1495  0.7063
 2719SOL    HW119790   1.103   4.131  11.801  1.1041 -0.8812 -0.3172
 2719SOL    HW219791   1.223   4.041  11.818 -1.4126 -1.4364  1.2423
 2720SOL     OW19792   4.166   1.476   7.126 -0.3188  0.6801  0.2675
 2720SOL    HW119793   4.188   1.446   7.037 -1.0107  1.0435 -0.0215
 2720SOL    HW219794   4.246   1.456   7.175 -2.0042 -0.0775  2.7156
 2721SOL     OW19795   0.350   2.732   4.598  0.1771 -0.1457  0.2906
 2721SOL    HW119796   0.294   2.784   4.656 -0.4075  0.4864 -0.8572
 2721SOL    HW219797   0.380   2.652   4.642  1.3005  1.0103  1.6161
 2722SOL     OW19798   1.011   4.448   4.218 -0.3198 -0.5863  0.1152
 2722SOL    HW119799   0.961   4.529   4.219  1.6783  0.6488 -0.2352
 2722SOL    HW219800   0.992   4.431   4.125  0.7701 -0.1812 -0.1777
 2723SOL     OW19801   3.187   3.805   4.159 -0.0348 -0.0676  0.5242
 2723SOL    HW119802   3.110   3.756   4.129 -0.8971 -0.0716  2.7738
 2723SOL    HW219803   3.250   3.800   4.087 -1.8080  0.0319 -1.0352
 2724SOL     OW19804   4.621   0.469   3.182  0.2828 -0.0754 -0.1348
 2724SOL    HW119805   4.693   0.502   3.128  2.1639 -2.1912  1.1014
 2724SOL    HW219806   4.663   0.392   3.219  0.3794 -0.9971 -2.1536
 2725SOL     OW19807   2.597   0.150   7.820  0.0538 -0.0387 -0.4117
 2725SOL    HW119808   2.620   0.242   7.832  0.1888 -0.2048  0.6515
 2725SOL    HW219809   2.687   0.120   7.838 -0.1096 -0.9782 -1.1840
 2726SOL     OW19810   2.393   4.656   2.498  0.2151 -0.8233  0.0649
 2726SOL    HW119811   2.300   4.639   2.485 -0.1938 -0.0994  2.1712
 2726SOL    HW219812   2.405   4.625   2.587 -1.4847  3.5177  1.7995
 2727SOL     OW19813   2.657   4.430   7.731 -0.2256 -0.3757 -0.2081
 2727SOL    HW119814   2.671   4.357   7.670 -3.3622 -0.1701 -1.1861
 2727SOL    HW219815   2.563   4.447   7.724  0.0905 -0.0933 -3.7006
 2728SOL     OW19816   0.080   0.642  16.118 -0.2376  0.1184 -0.1414
 2728SOL    HW119817   0.078   0.558  16.164  0.9762  0.7581  1.0638
 2728SOL    HW219818   0.137   0.693  16.176  0.5536  1.0647 -1.7556
 2729SOL     OW19819   2.496   4.318   5.424 -0.1047  0.2585  0.2324
 2729SOL    HW119820   2.510   4.319   5.519 -2.7541  0.7557  0.5955
 2729SOL    HW219821   2.577   4.273   5.399  0.9869  2.2040  0.2764
 2730SOL     OW19822   0.362   0.896   7.807 -0.3590  0.0742 -0.1080
 2730SOL    HW119823   0.300   0.968   7.793 -0.5749  0.2453  1.8068
 2730SOL    HW219824   0.296   0.830   7.826 -1.3792  1.2533  0.4245
 2731SOL     OW19825   0.202   0.047  17.453 -0.2486  0.0684  0.1101
 2731SOL    HW119826   0.162   0.059  17.367  0.8681 -0.9671 -0.5431
 2731SOL    HW219827   0.132   0.085  17.506  1.3951  1.2209  1.4885
 2732SOL     OW19828   0.464   4.153   4.995  0.1373  0.0110 -0.3554
 2732SOL    HW119829   0.401   4.115   4.934 -1.2075 -0.4974  1.3158
 2732SOL    HW219830   0.466   4.240   4.957 -1.1229  0.4105  0.4907
 2733SOL     OW19831   2.205   2.625   3.918 -0.3100  0.7213 -0.0273
 2733SOL    HW119832   2.228   2.532   3.922  0.8264  1.0982  2.9255
 2733SOL    HW219833   2.169   2.638   4.006 -0.4429 -0.4158  0.0853
 2734SOL     OW19834   3.431   3.003   4.344 -0.7412  0.4611  0.6717
 2734SOL    HW119835   3.526   3.008   4.338 -0.9516  0.1386 -2.9444
 2734SOL    HW219836   3.410   2.916   4.377  1.3784 -1.0158 -1.9027
 2735SOL     OW19837   2.190   4.535  10.944  0.1939  0.3293 -0.0365
 2735SOL    HW119838   2.103   4.500  10.966  0.5475  1.5305  3.2113
 2735SOL    HW219839   2.234   4.450  10.944 -0.4499 -0.0085  0.1796
 2736SOL     OW19840   1.093   0.011  12.105  0.6032  0.2690 -0.0150
 2736SOL    HW119841   1.064   4.726  12.017 -0.3105  1.2295  0.0065
 2736SOL    HW219842   1.135   4.675  12.143 -0.4822 -0.6174 -0.6116
 2737SOL     OW19843   0.258   2.373   8.418 -0.0283 -0.4362  0.2782
 2737SOL    HW119844   0.259   2.468   8.430 -0.4879 -0.5089  0.8752
 2737SOL    HW219845   0.310   2.347   8.342 -0.2695  0.2015 -0.1042
 2738SOL     OW19846   4.267   4.641   1.976  0.4281 -0.2418 -0.2854
 2738SOL    HW119847   4.243   4.647   2.069 -1.1689  1.6213 -0.8046
 2738SOL    HW219848   4.362   4.628   1.970  0.7751  2.3952 -0.7578
 2739SOL     OW19849   2.339   2.656   8.609  0.0260 -0.3570 -0.5068
 2739SOL    HW119850   2.289   2.702   8.676  1.0540 -1.1283  0.7713
 2739SOL    HW219851   2.427   2.657   8.647  1.2975 -1.5271 -3.3809
 2740SOL     OW19852   2.925   1.442  12.916 -0.4722  0.5711  0.0230
 2740SOL    HW119853   3.020   1.433  12.910 -0.5101  0.5130 -0.4567
 2740SOL    HW219854   2.907   1.535  12.900 -1.3460  0.4611  0.3827
 2741SOL     OW19855   0.821   0.243   7.971  0.1359  0.6566  0.1229
 2741SOL    HW119856   0.867   0.203   7.898 -2.0868 -0.5971 -0.5730
 2741SOL    HW219857   0.894   0.252   8.033 -0.2992  4.3963  0.0901
 2742SOL     OW19858   2.565   3.497   3.139 -0.8117  0.3595 -0.1785
 2742SOL    HW119859   2.488   3.457   3.098 -1.0115 -0.4901  1.0633
 2742SOL    HW219860   2.521   3.546   3.208 -0.6850 -0.7167  0.6557
 2743SOL     OW19861   3.044   1.815   7.057 -0.0795 -0.0898 -0.0169
 2743SOL    HW119862   3.071   1.738   7.107 -0.1987  0.3679  0.7335
 2743SOL    HW219863   3.084   1.798   6.971 -0.4074 -2.1180  0.2217
 2744SOL     OW19864   3.960   3.709   2.609 -0.0900 -0.0133  0.0497
 2744SOL    HW119865   3.898   3.662   2.666 -1.4183  2.9942  1.0744
 2744SOL    HW219866   4.000   3.643   2.551  0.6511 -0.7424  1.3930
 2745SOL     OW19867   2.291   2.180  15.190 -0.1033 -0.1231  0.4653
 2745SOL    HW119868   2.304   2.126  15.268  1.1382  0.1193  0.4231
 2745SOL    HW219869   2.385   2.184  15.175 -0.7065  1.0179 -3.1168
 2746SOL     OW19870   1.339   0.215   4.253  0.3042 -0.0853 -0.4751
 2746SOL    HW119871   1.278   0.172   4.311  1.1060  0.0622  0.4859
 2746SOL    HW219872   1.424   0.177   4.275 -0.4935 -1.3938  0.3238
 2747SOL     OW19873   0.079   1.795   7.546 -0.0562  0.4799 -0.2547
 2747SOL    HW119874   0.112   1.868   7.493 -0.1408  0.2624 -0.6100
 2747SOL    HW219875   4.727   1.810   7.535 -0.1737 -0.0486  0.0381
 2748SOL     OW19876   1.093   0.278   8.063  0.1931  0.2311 -0.2171
 2748SOL    HW119877   1.049   0.342   8.119  1.5636 -0.0026  1.1063
 2748SOL    HW219878   1.182   0.314   8.064  0.4390 -0.3840 -0.1170
 2749SOL     OW19879   0.852   4.014   4.570 -0.1618 -0.4520 -0.5198
 2749SOL    HW119880   0.859   3.934   4.517 -0.5364 -1.4806  0.9515
 2749SOL    HW219881   0.897   4.082   4.521 -1.0247  0.0605 -0.5973
 2750SOL     OW19882   4.082   3.027   7.044  0.0734 -0.2675 -0.4706
 2750SOL    HW119883   4.139   2.966   6.997  0.9947 -0.3740  0.7742
 2750SOL    HW219884   4.073   3.100   6.982 -1.7300 -0.7280 -0.7480
 2751SOL     OW19885   1.306   4.501   1.039 -0.2265  0.2007  0.7687
 2751SOL    HW119886   1.288   4.587   1.076 -1.1095 -0.1799  1.2200
 2751SOL    HW219887   1.328   4.452   1.117 -0.0492 -0.9648 -0.0141
 2752SOL     OW19888   0.102   4.202  15.459  0.0733  0.6970  0.1605
 2752SOL    HW119889   0.007   4.203  15.449 -0.0812 -0.1172  1.4981
 2752SOL    HW219890   0.123   4.185  15.368  0.9124  0.2300  0.4398
 2753SOL     OW19891   3.825   4.225   5.628  0.0627 -0.2849 -0.3717
 2753SOL    HW119892   3.875   4.241   5.708 -1.3997  0.1803  0.4591
 2753SOL    HW219893   3.739   4.221   5.671 -1.0017  1.1214 -2.3586
 2754SOL     OW19894   4.667   0.226   9.035  0.1613  0.1846 -0.1279
 2754SOL    HW119895   4.682   0.153   9.096 -0.4555 -1.0751 -1.4682
 2754SOL    HW219896   4.586   0.269   9.062 -0.2843 -1.7499  1.6844
 2755SOL     OW19897   2.672   0.752   1.684  0.1469  0.3411  0.0330
 2755SOL    HW119898   2.714   0.838   1.682  0.2215  0.3273  1.1557
 2755SOL    HW219899   2.696   0.719   1.597  2.5626  0.1769  0.7747
 2756SOL     OW19900   1.503   0.308  17.713  0.0909  0.2898 -0.3591
 2756SOL    HW119901   1.446   0.256  17.657 -0.5065  0.5163  0.0398
 2756SOL    HW219902   1.431   0.341   0.006 -0.4178 -0.2528 -0.7060
 2757SOL     OW19903   1.762   3.262   5.643 -0.3611 -0.8474  0.0351
 2757SOL    HW119904   1.793   3.208   5.715 -1.5911 -1.1290  0.3432
 2757SOL    HW219905   1.825   3.236   5.576 -0.8574  0.5457 -0.9889
 2758SOL     OW19906   0.347   3.361   6.571 -0.0907  0.3115 -0.7546
 2758SOL    HW119907   0.395   3.281   6.592 -1.5861 -0.7188 -1.2273
 2758SOL    HW219908   0.365   3.360   6.477  0.2906  0.2258 -0.6788
 2759SOL     OW19909   3.696   3.832   8.625 -0.0011  0.2397 -0.0597
 2759SOL    HW119910   3.756   3.869   8.689  2.3486 -1.1021 -1.4679
 2759SOL    HW219911   3.699   3.898   8.556 -0.3469  0.2780 -0.0381
 2760SOL     OW19912   0.045   3.781   2.495  0.0392  0.3006 -0.2176
 2760SOL    HW119913   0.026   3.867   2.458 -1.6329 -0.6843 -1.6030
 2760SOL    HW219914   0.140   3.788   2.488 -0.1062  1.8465 -0.5766
 2761SOL     OW19915   4.418   0.252  11.716  0.0174 -0.5140  0.4282
 2761SOL    HW119916   4.494   0.293  11.757 -1.7023  0.1226  2.9175
 2761SOL    HW219917   4.344   0.291  11.762 -0.0051  0.9428 -0.8147
 2762SOL     OW19918   4.710   0.855   7.972 -0.2715 -0.3585  0.0578
 2762SOL    HW119919   0.027   0.808   7.911  0.8023  2.5128 -1.1467
 2762SOL    HW219920   4.662   0.780   8.007 -3.3609  2.2649  1.4090
 2763SOL     OW19921   2.395   2.738  17.025 -0.0867  0.9102 -0.0880
 2763SOL    HW119922   2.375   2.787  17.105 -0.2692 -0.8423  0.9431
 2763SOL    HW219923   2.484   2.702  17.030 -0.0216  0.7854 -2.0408
 2764SOL     OW19924   4.429   0.103  11.157 -0.3694  0.0549 -0.0488
 2764SOL    HW119925   4.486   0.117  11.081  0.2534 -0.6564  0.2904
 2764SOL    HW219926   4.479   0.036  11.203  0.2123  0.6040  0.1245
 2765SOL     OW19927   3.281   3.896   8.472  0.8907  0.5350 -0.2097
 2765SOL    HW119928   3.301   3.839   8.546 -0.9438 -1.7777 -1.5096
 2765SOL    HW219929   3.360   3.950   8.467  1.5492 -0.6003 -2.2460
 2766SOL     OW19930   0.672   1.839   9.820 -0.8428  0.2370  0.1858
 2766SOL    HW119931   0.688   1.782   9.896 -4.0767 -1.3607 -0.3307
 2766SOL    HW219932   0.719   1.790   9.752 -1.8632 -0.5463  0.0363
 2767SOL     OW19933   0.422   0.804   4.307  0.1168 -0.5485 -0.1403
 2767SOL    HW119934   0.342   0.844   4.339  0.8446  0.7014  0.1114
 2767SOL    HW219935   0.488   0.836   4.368  0.6773  1.1371 -1.6048
 2768SOL     OW19936   1.154   3.388   1.757  0.4307  0.1091  0.1238
 2768SOL    HW119937   1.222   3.321   1.750  0.3581  0.0324  0.1523
 2768SOL    HW219938   1.100   3.335   1.815  1.3288 -0.5675  0.3535
 2769SOL     OW19939   2.229   2.638  15.193  0.3862 -0.3014  0.0352
 2769SOL    HW119940   2.167   2.565  15.191  1.4908 -1.2670  0.4206
 2769SOL    HW219941   2.286   2.614  15.120 -0.7182  2.6324 -1.7408
 2770SOL     OW19942   1.823   0.007   1.754  0.3246 -0.3894 -0.3930
 2770SOL    HW119943   1.768   0.029   1.679  0.4837  1.8102  0.1526
 2770SOL    HW219944   1.774   4.684   1.805 -1.6320 -0.0883 -1.8919
 2771SOL     OW19945   3.568   0.723   7.226 -0.3723 -0.5936  0.2082
 2771SOL    HW119946   3.546   0.761   7.141  3.0848  1.5196  0.2667
 2771SOL    HW219947   3.629   0.651   7.206  0.8100  0.3413  0.4442
 2772SOL     OW19948   2.169   0.889   6.535 -0.1031  0.9930  0.2597
 2772SOL    HW119949   2.119   0.908   6.455  0.2586 -0.1317 -0.2276
 2772SOL    HW219950   2.227   0.965   6.530  1.1522  0.0548  0.6487
 2773SOL     OW19951   3.050   4.342  15.496  0.2986 -0.0698 -0.7584
 2773SOL    HW119952   2.968   4.390  15.486  0.2747 -0.3915 -2.0771
 2773SOL    HW219953   3.093   4.398  15.560 -1.1816 -0.3911  0.5291
 2774SOL     OW19954   1.089   2.453   9.045 -0.6151  0.3931  0.3397
 2774SOL    HW119955   1.181   2.462   9.024 -0.7769 -0.6418 -0.7599
 2774SOL    HW219956   1.071   2.534   9.092 -0.7907  3.1695 -4.5687
 2775SOL     OW19957   0.673   0.360   6.787 -0.1889 -0.5238 -0.3950
 2775SOL    HW119958   0.747   0.392   6.734  2.1023  0.8464  3.6088
 2775SOL    HW219959   0.703   0.390   6.873 -1.7189  0.8332 -0.3492
 2776SOL     OW19960   2.800   3.526   5.283 -0.0589 -0.3577  0.0428
 2776SOL    HW119961   2.849   3.510   5.202 -1.0130  0.2079 -0.6398
 2776SOL    HW219962   2.869   3.576   5.328 -1.5177  0.8245  0.9672
 2777SOL     OW19963   0.527   1.595  13.838 -0.6155  0.1704 -0.2917
 2777SOL    HW119964   0.463   1.528  13.865 -0.1129 -0.0831  0.2587
 2777SOL    HW219965   0.470   1.671  13.846 -0.6075  0.0903  0.5786
 2778SOL     OW19966   2.053   4.285   3.175 -0.3952 -0.4652  0.1903
 2778SOL    HW119967   2.100   4.338   3.240 -0.7144 -0.0468  0.0834
 2778SOL    HW219968   1.970   4.257   3.212  0.0778 -1.9809  0.1096
 2779SOL     OW19969   3.008   3.850   7.725  0.1766  0.8062 -0.6078
 2779SOL    HW119970   2.985   3.829   7.815  4.7961 -2.5391 -0.2057
 2779SOL    HW219971   2.934   3.904   7.696  0.4144  1.3671 -0.1774
 2780SOL     OW19972   3.634   1.133  10.335  0.5512  0.7542  0.3427
 2780SOL    HW119973   3.604   1.201  10.275  2.9892  1.1650 -0.3986
 2780SOL    HW219974   3.606   1.167  10.420 -2.3319 -0.4681 -0.1263
 2781SOL     OW19975   1.686   0.979   4.443 -0.6304  0.5922 -0.2610
 2781SOL    HW119976   1.651   1.061   4.409 -3.5564 -0.7419 -0.5012
 2781SOL    HW219977   1.619   0.945   4.503  0.8927 -1.2236  0.4141
 2782SOL     OW19978   4.104   0.530  10.019  0.6696  0.2070 -0.0834
 2782SOL    HW119979   4.197   0.509  10.030  0.0790 -2.1207  0.2723
 2782SOL    HW219980   4.090   0.573  10.104  0.4588 -0.5916  0.2855
 2783SOL     OW19981   3.124   4.580   1.784  0.4015  0.3082 -0.7313
 2783SOL    HW119982   3.056   4.641   1.755  0.7498  0.3225 -1.5081
 2783SOL    HW219983   3.138   4.629   1.865  1.1362  0.6850 -1.0831
 2784SOL     OW19984   2.370   4.217   7.420 -0.0582 -0.0298 -0.0305
 2784SOL    HW119985   2.288   4.240   7.465 -0.7816  0.1974 -1.4660
 2784SOL    HW219986   2.338   4.226   7.331  2.0298  0.7060 -0.6951
 2785SOL     OW19987   2.976   1.767  16.292 -0.2122  0.0380 -0.3229
 2785SOL    HW119988   2.903   1.828  16.295  0.7177  1.2320 -2.1437
 2785SOL    HW219989   3.024   1.805  16.219  2.0837 -0.0154  1.1744
 2786SOL     OW19990   0.031   0.264   3.306 -0.0073 -0.0186 -0.2990
 2786SOL    HW119991   0.037   0.186   3.361 -0.5087 -1.2958 -2.0656
 2786SOL    HW219992   0.079   0.333   3.351 -0.2238  0.4416 -0.7684
 2787SOL     OW19993   0.483   4.676   9.014  0.7146 -0.3096 -0.1818
 2787SOL    HW119994   0.401   4.675   9.062 -0.4204  1.2872 -2.0751
 2787SOL    HW219995   0.501   4.583   8.998 -0.1741 -0.4947 -0.0824
 2788SOL     OW19996   3.702   1.700   0.789  0.4961 -0.4892 -0.1418
 2788SOL    HW119997   3.730   1.609   0.780  0.4846 -0.7533  2.4988
 2788SOL    HW219998   3.668   1.716   0.700 -0.0882  0.5223  0.2643
 2789SOL     OW19999   0.210   4.567   9.071  0.4868  0.3767 -0.2208
 2789SOL    HW120000   0.214   4.472   9.055  3.1206  0.3964  0.3476
 2789SOL    HW220001   0.165   4.601   8.994 -3.3099  0.5681  2.0945
 2790SOL     OW20002   3.271   1.297  14.840 -0.4455 -0.3421 -0.2994
 2790SOL    HW120003   3.216   1.361  14.795 -1.7496 -1.4700 -0.3106
 2790SOL    HW220004   3.354   1.301  14.792 -0.2108  2.2006  0.2805
 2791SOL     OW20005   1.416   3.662   1.762  0.1073  0.0987 -0.8836
 2791SOL    HW120006   1.346   3.653   1.697 -1.6682 -1.8413  1.2673
 2791SOL    HW220007   1.445   3.572   1.778 -2.1687 -0.9880 -2.7397
 2792SOL     OW20008   1.558   4.280  10.822 -0.4188  0.1792 -0.2107
 2792SOL    HW120009   1.518   4.299  10.737 -0.4398  1.9007  0.1794
 2792SOL    HW220010   1.649   4.298  10.800  0.0135 -1.7150  0.0360
 2793SOL     OW20011   3.321   3.795   5.402 -0.1524 -0.7915  0.8390
 2793SOL    HW120012   3.404   3.843   5.397  0.1626 -1.2682  1.4107
 2793SOL    HW220013   3.267   3.853   5.456 -1.1354 -2.1340  1.3072
 2794SOL     OW20014   0.921   4.014   5.584 -0.1590  0.0801  0.0830
 2794SOL    HW120015   0.892   4.012   5.493  0.7495 -0.2794 -0.1987
 2794SOL    HW220016   0.835   3.999   5.623 -1.2602  0.5345 -2.2141
 2795SOL     OW20017   2.354   4.097   8.035  0.5504 -0.1415 -0.4953
 2795SOL    HW120018   2.341   4.030   8.102  1.7026  1.1343  0.9861
 2795SOL    HW220019   2.260   4.098   8.014  0.0255  0.9008  1.9273
 2796SOL     OW20020   2.232   0.946  14.026  0.1251 -0.0751  0.4920
 2796SOL    HW120021   2.287   1.005  14.076 -0.7939  0.4291  0.9093
 2796SOL    HW220022   2.222   0.866  14.077 -3.1213 -0.3744 -0.5946
 2797SOL     OW20023   3.600   0.451   6.047 -0.2509  0.9531  0.1095
 2797SOL    HW120024   3.524   0.509   6.045 -2.0333 -1.3378  0.3289
 2797SOL    HW220025   3.598   0.427   6.140 -0.8285 -1.4248 -0.5202
 2798SOL     OW20026   4.713   1.167  17.641  0.8174 -0.2865  0.0463
 2798SOL    HW120027   0.037   1.219  17.690 -0.9128  0.0452  1.9839
 2798SOL    HW220028   4.650   1.228  17.603  0.4784  0.7838  2.3116
 2799SOL     OW20029   0.874   0.860   5.231 -0.2100  0.0310  0.0278
 2799SOL    HW120030   0.787   0.883   5.264  0.4199  0.0586  1.6388
 2799SOL    HW220031   0.840   0.827   5.147  0.7214 -0.7728 -0.0437
 2800SOL     OW20032   4.390   0.576   3.028  0.4985 -0.7096  0.3310
 2800SOL    HW120033   4.459   0.513   3.048  3.3948  2.3786  0.2749
 2800SOL    HW220034   4.427   0.620   2.951  0.2085 -0.0855  0.5462
 2801SOL     OW20035   2.182   2.321   5.995 -0.3760 -0.0659 -0.3336
 2801SOL    HW120036   2.179   2.244   6.052 -0.3972 -0.1764 -0.4855
 2801SOL    HW220037   2.214   2.278   5.916 -1.0376  0.7012 -1.0147
 2802SOL     OW20038   3.450   4.410  12.668 -0.1490  0.3515  0.3093
 2802SOL    HW120039   3.533   4.431  12.712 -0.9598  1.6396  1.2139
 2802SOL    HW220040   3.467   4.428  12.575 -0.2266  0.5513  0.3334
 2803SOL     OW20041   0.526   0.658   4.767  0.1297  0.1339 -0.3309
 2803SOL    HW120042   0.494   0.588   4.710  0.8730  0.6687 -1.4102
 2803SOL    HW220043   0.560   0.709   4.694  0.2052 -0.8055 -0.9475
 2804SOL     OW20044   3.434   3.912   3.411 -0.2106 -0.3253 -0.2367
 2804SOL    HW120045   3.498   3.951   3.350  0.8267 -2.5982 -0.5846
 2804SOL    HW220046   3.399   3.990   3.455 -0.4305 -1.1627  1.0593
 2805SOL     OW20047   0.746   4.223  15.042  0.8246  0.0679  0.3201
 2805SOL    HW120048   0.734   4.242  14.949 -0.9142 -0.7352  0.3762
 2805SOL    HW220049   0.816   4.158  15.043  0.3553 -0.4560 -1.3842
 2806SOL     OW20050   3.195   0.613   8.244 -0.0583  0.2145  0.1778
 2806SOL    HW120051   3.170   0.660   8.164 -2.2196 -1.6128 -0.1946
 2806SOL    HW220052   3.112   0.582   8.280  0.3701 -0.2563  0.7538
 2807SOL     OW20053   0.118   3.027   2.052  0.1147  0.6138 -0.2587
 2807SOL    HW120054   0.111   2.932   2.040  2.3424  0.1435  2.1630
 2807SOL    HW220055   0.030   3.054   2.079  0.2138 -1.8142  2.5217
 2808SOL     OW20056   0.944   3.854   2.112 -0.5996 -0.1635 -0.5322
 2808SOL    HW120057   0.860   3.824   2.076 -1.0966 -1.4241  1.6149
 2808SOL    HW220058   0.948   3.948   2.095  0.6735 -0.0070  0.5897
 2809SOL     OW20059   1.156   3.599   3.110 -0.3242  0.3843  0.4864
 2809SOL    HW120060   1.198   3.548   3.040  1.9724  2.1796  0.5666
 2809SOL    HW220061   1.065   3.610   3.081 -0.3997 -0.2712  0.4737
 2810SOL     OW20062   3.750   2.668   9.750  0.0904 -0.3870 -0.1892
 2810SOL    HW120063   3.705   2.744   9.714 -0.6748 -1.1385 -0.8144
 2810SOL    HW220064   3.821   2.642   9.691  0.1200  3.5116 -1.8399
 2811SOL     OW20065   2.139   0.435  15.225 -0.1211 -0.1812 -0.1260
 2811SOL    HW120066   2.225   0.460  15.257 -1.5266  1.8417  2.0396
 2811SOL    HW220067   2.158   0.376  15.152  0.8803  1.2030 -0.9756
 2812SOL     OW20068   0.422   3.239   3.477  0.5826  0.6092  0.2196
 2812SOL    HW120069   0.497   3.260   3.533  0.1878  2.2150  0.1642
 2812SOL    HW220070   0.360   3.299   3.519  2.2571  1.0028  2.1113
 2813SOL     OW20071   4.017   3.749   3.308 -0.1024 -0.0663  0.4912
 2813SOL    HW120072   4.060   3.819   3.260 -0.6474 -0.2016 -0.2092
 2813SOL    HW220073   4.052   3.678   3.253  0.9670  1.1611 -0.3919
 2814SOL     OW20074   0.006   2.566  17.113  0.0229 -0.2914  0.2762
 2814SOL    HW120075   4.739   2.580  17.208 -0.3656  0.0674  0.1903
 2814SOL    HW220076   0.073   2.498  17.123  1.2368  0.6271 -1.6977
 2815SOL     OW20077   3.786   3.052   5.010 -0.3933 -0.4429 -0.4044
 2815SOL    HW120078   3.863   3.060   4.954 -0.1781 -1.1604 -0.2128
 2815SOL    HW220079   3.773   3.141   5.042 -0.2742 -0.8412  0.7667
 2816SOL     OW20080   2.839   2.662   9.668  0.1745  0.8480 -0.5680
 2816SOL    HW120081   2.748   2.632   9.670 -0.2303  2.1506  0.4386
 2816SOL    HW220082   2.820   2.752   9.693  1.2450  1.0972 -0.6414
 2817SOL     OW20083   2.753   3.239  16.821  0.0655 -0.4292 -0.2735
 2817SOL    HW120084   2.673   3.193  16.798 -1.1686  1.2515  0.6280
 2817SOL    HW220085   2.789   3.266  16.736 -3.2629 -0.0925 -1.5493
 2818SOL     OW20086   2.607   4.561   2.209 -0.1848 -0.2721 -0.5679
 2818SOL    HW120087   2.627   4.557   2.116 -1.8985  0.5821 -0.9638
 2818SOL    HW220088   2.524   4.607   2.210 -0.3391 -0.6035  1.5084
 2819SOL     OW20089   0.175   0.278   0.159  0.4649 -0.1725 -0.3300
 2819SOL    HW120090   0.102   0.339   0.175  0.9658  0.0622  1.0297
 2819SOL    HW220091   0.142   0.254   0.072 -0.2592 -0.5649  0.0517
 2820SOL     OW20092   4.573   3.749  12.478  0.1621  0.4365 -0.1876
 2820SOL    HW120093   4.564   3.657  12.501  1.3542 -0.2611 -2.5087
 2820SOL    HW220094   4.655   3.774  12.520  0.5766 -0.4440 -0.4702
 2821SOL     OW20095   1.254   2.187   8.923 -0.2387 -0.6290  0.4267
 2821SOL    HW120096   1.221   2.268   8.962 -0.7827 -1.3660  1.4741
 2821SOL    HW220097   1.298   2.226   8.848  0.1711  0.3036  1.1520
 2822SOL     OW20098   0.469   0.142   1.638 -0.4754  0.7089  0.0719
 2822SOL    HW120099   0.485   0.208   1.706  1.4079 -0.4644  0.7610
 2822SOL    HW220100   0.499   0.057   1.671 -1.3012 -0.5764 -2.5311
 2823SOL     OW20101   4.683   0.085   6.218  0.0848  0.4978  0.2866
 2823SOL    HW120102   4.601   0.042   6.241  0.3012  1.6251  3.1232
 2823SOL    HW220103   4.700   0.041   6.135 -1.3462  2.2151 -0.9171
 2824SOL     OW20104   2.057   3.378   3.351 -0.1129  0.1314 -0.0631
 2824SOL    HW120105   2.135   3.363   3.404 -0.8707 -1.1581  0.6893
 2824SOL    HW220106   2.105   3.371   3.268  0.4406 -0.5420  0.3119
 2825SOL     OW20107   2.776   4.476   0.850 -0.0810  0.3114  0.5612
 2825SOL    HW120108   2.721   4.448   0.924 -1.2287  2.7949  0.6321
 2825SOL    HW220109   2.781   4.568   0.877 -0.6469  0.4412  0.2234
 2826SOL     OW20110   3.559   3.162   5.705  0.0029 -0.3152 -0.6034
 2826SOL    HW120111   3.589   3.253   5.701 -1.8144  0.2430 -1.2540
 2826SOL    HW220112   3.642   3.116   5.720 -0.5312 -0.5924  1.4010
 2827SOL     OW20113   1.434   4.054   3.302  0.4505  0.0277 -0.0588
 2827SOL    HW120114   1.421   3.966   3.268  1.7925  0.3543 -1.4430
 2827SOL    HW220115   1.414   4.041   3.395  0.4685  0.7603  0.0532
 2828SOL     OW20116   3.646   1.998   6.778 -0.0395 -0.1569 -0.0508
 2828SOL    HW120117   3.698   2.078   6.777 -0.2435  0.0252  2.6117
 2828SOL    HW220118   3.574   2.029   6.723 -0.5181  0.6688  1.0357
 2829SOL     OW20119   0.648   3.243  12.847 -0.6613  0.1374 -0.1977
 2829SOL    HW120120   0.660   3.306  12.776 -2.6602  1.0482  0.2657
 2829SOL    HW220121   0.626   3.174  12.784  2.4911 -0.6426 -0.4330
 2830SOL     OW20122   0.497   0.396   1.764 -0.4924  0.2585 -0.2028
 2830SOL    HW120123   0.421   0.413   1.819  0.4346 -2.2431  1.8386
 2830SOL    HW220124   0.509   0.482   1.722 -0.3851  0.3909  0.0990
 2831SOL     OW20125   1.743   0.743  10.789  0.2944  0.1451  0.7036
 2831SOL    HW120126   1.744   0.784  10.702 -2.4073 -0.1490  0.5190
 2831SOL    HW220127   1.658   0.700  10.786 -0.0457  1.1411 -3.8726
 2832SOL     OW20128   2.758   3.882   1.444  0.2156  0.6418 -0.0573
 2832SOL    HW120129   2.740   3.789   1.461 -0.4242  0.8216  0.2329
 2832SOL    HW220130   2.695   3.926   1.501  0.5375  0.0377  0.7658
 2833SOL     OW20131   4.303   1.867  13.473  0.4976 -0.2981 -0.7228
 2833SOL    HW120132   4.374   1.804  13.460  1.3087  0.5979 -0.6035
 2833SOL    HW220133   4.303   1.920  13.394  2.5817 -0.5726 -0.9123
 2834SOL     OW20134   4.591   3.310  16.994 -0.0430  0.5792  0.0644
 2834SOL    HW120135   4.616   3.373  16.926  1.0970  0.9866  0.8617
 2834SOL    HW220136   4.675   3.269  17.012  0.4062  1.1521 -0.7092
 2835SOL     OW20137   2.665   0.788   4.065  0.1150  0.2631  0.4907
 2835SOL    HW120138   2.756   0.806   4.040  0.2193 -2.1816 -0.9658
 2835SOL    HW220139   2.671   0.698   4.097  3.9160  0.7090  1.0681
 2836SOL     OW20140   3.466   4.520   5.413 -0.0194  0.5922  0.0449
 2836SOL    HW120141   3.401   4.583   5.380 -0.3336  0.0311 -0.4171
 2836SOL    HW220142   3.404   4.451   5.440  0.0295  0.1797 -0.8980
 2837SOL     OW20143   4.326   2.193  10.107 -0.0507 -0.2534 -0.3231
 2837SOL    HW120144   4.302   2.277  10.069 -3.4015 -1.5923 -1.1803
 2837SOL    HW220145   4.282   2.127  10.053 -0.6721  0.0412 -0.1767
 2838SOL     OW20146   1.144   2.208   6.203  0.5650 -0.2957 -0.2541
 2838SOL    HW120147   1.109   2.125   6.233  0.2093  0.0061  0.1713
 2838SOL    HW220148   1.234   2.205   6.234  0.1587  0.9186  1.0385
 2839SOL     OW20149   1.615   1.439   7.516  0.1718  0.1380 -0.4992
 2839SOL    HW120150   1.572   1.417   7.598  0.8266 -0.5978 -0.3477
 2839SOL    HW220151   1.553   1.387   7.465  1.0394 -1.6885  0.2925
 2840SOL     OW20152   1.631   2.401   4.395 -0.1303  0.5679 -0.0661
 2840SOL    HW120153   1.600   2.440   4.313  0.5324  0.5247 -0.3314
 2840SOL    HW220154   1.712   2.359   4.368 -0.3811  1.2940 -1.9507
 2841SOL     OW20155   0.599   0.836   4.582  0.3064  0.1663  0.4744
 2841SOL    HW120156   0.666   0.869   4.521  0.3072 -1.6223 -0.4884
 2841SOL    HW220157   0.559   0.920   4.604  0.0392 -0.4855  2.5053
 2842SOL     OW20158   2.108   1.225   6.832  0.4163  0.0691 -0.5472
 2842SOL    HW120159   2.030   1.252   6.880 -0.0076  1.5214 -2.0268
 2842SOL    HW220160   2.145   1.160   6.891 -0.1950 -0.1145 -0.3675
 2843SOL     OW20161   0.655   2.604   3.766  0.0321  0.3456  0.6473
 2843SOL    HW120162   0.713   2.633   3.695  0.1659  0.5034  0.8206
 2843SOL    HW220163   0.713   2.623   3.839 -0.3302  0.0377  1.0136
 2844SOL     OW20164   4.617   2.069   3.147 -0.3232  0.1593 -0.2542
 2844SOL    HW120165   4.561   1.994   3.125  0.0015 -0.2321  0.2674
 2844SOL    HW220166   4.708   2.043   3.134  0.0738  1.9450 -0.9911
 2845SOL     OW20167   1.910   3.081   3.511 -0.0619 -0.1270 -0.1827
 2845SOL    HW120168   1.904   3.041   3.424 -0.5652  0.3307 -0.3578
 2845SOL    HW220169   2.004   3.094   3.519 -0.3444  0.5265  2.1307
 2846SOL     OW20170   0.526   0.083  16.164  0.0354  0.6268  0.1982
 2846SOL    HW120171   0.531   0.067  16.258 -1.7272  0.1420  0.2096
 2846SOL    HW220172   0.449   0.136  16.147  0.8033  1.3223 -1.1522
 2847SOL     OW20173   1.421   3.988   9.419 -0.3014  0.1733 -0.1772
 2847SOL    HW120174   1.483   3.922   9.452 -0.6884 -1.2027 -2.1912
 2847SOL    HW220175   1.465   4.070   9.439  0.8906 -0.2510 -1.0562
 2848SOL     OW20176   2.646   4.157  17.594  0.0816  0.1219  0.0149
 2848SOL    HW120177   2.614   4.168  17.505  1.2599 -0.6088 -0.5026
 2848SOL    HW220178   2.617   4.243  17.623  0.3549 -0.8960  3.3249
 2849SOL     OW20179   2.268   1.278  10.814 -0.1428  0.0557  0.6091
 2849SOL    HW120180   2.275   1.357  10.868 -0.0060 -0.0404  0.7295
 2849SOL    HW220181   2.242   1.319  10.731  0.0973 -1.7543 -0.3408
 2850SOL     OW20182   0.818   0.511   7.907 -1.1681  0.1972  0.0813
 2850SOL    HW120183   0.783   0.527   7.994  2.0339 -0.9801  1.5874
 2850SOL    HW220184   0.811   0.416   7.909 -1.2034  0.1633 -1.5093
 2851SOL     OW20185   2.141   1.201   5.570  0.0274 -0.0423 -0.0580
 2851SOL    HW120186   2.217   1.145   5.551 -0.2277 -0.1126 -0.8669
 2851SOL    HW220187   2.090   1.143   5.626  1.1727 -1.2474 -0.2552
 2852SOL     OW20188   0.310   4.442   3.277  0.1133  0.4032  0.3578
 2852SOL    HW120189   0.252   4.489   3.337 -1.4326 -0.4308 -0.4751
 2852SOL    HW220190   0.307   4.487   3.193 -0.9188 -0.3765 -0.0319
 2853SOL     OW20191   3.773   1.808   6.578  0.5592 -0.3346 -0.3035
 2853SOL    HW120192   3.733   1.724   6.599 -2.9929  1.1536 -1.0954
 2853SOL    HW220193   3.738   1.851   6.655  0.0199 -0.8880 -0.2386
 2854SOL     OW20194   3.011   3.779   7.425  0.2218 -0.3697 -0.3142
 2854SOL    HW120195   3.106   3.786   7.413  0.3668 -0.1443  0.9940
 2854SOL    HW220196   3.000   3.788   7.520  0.0065  1.9956 -0.5861
 2855SOL     OW20197   1.542   4.035   3.770 -0.2238 -0.1711 -0.0092
 2855SOL    HW120198   1.630   4.054   3.739  0.1392 -1.7584  0.0745
 2855SOL    HW220199   1.561   3.956   3.820 -1.3349 -0.3578  0.1318
 2856SOL     OW20200   1.983   1.687  11.584  0.0859  0.4633  0.0494
 2856SOL    HW120201   1.892   1.659  11.574 -0.8709  3.9730 -1.0482
 2856SOL    HW220202   2.022   1.639  11.657 -0.1708 -0.9613 -0.7529
 2857SOL     OW20203   0.885   0.932  16.739  0.2722 -0.2020  0.5855
 2857SOL    HW120204   0.807   0.896  16.697  0.4873 -1.6752  1.4270
 2857SOL    HW220205   0.861   1.025  16.742 -1.8487 -0.7461 -0.3678
 2858SOL     OW20206   1.466   1.508  13.485  0.4688  0.2354  0.1521
 2858SOL    HW120207   1.541   1.469  13.440  0.1923  0.3865 -0.4362
 2858SOL    HW220208   1.450   1.580  13.424  1.4740  0.7526  0.4943
 2859SOL     OW20209   2.670   0.713  12.033  0.4410 -0.0294 -1.0306
 2859SOL    HW120210   2.632   0.764  12.104  3.7263  1.0998 -0.0960
 2859SOL    HW220211   2.631   0.626  12.037 -0.0475  0.1677 -1.5072
 2860SOL     OW20212   2.405   3.806   8.701 -0.5051 -0.0748 -0.2599
 2860SOL    HW120213   2.459   3.810   8.622  2.0529 -1.8668  1.3701
 2860SOL    HW220214   2.431   3.730   8.754  0.7751  0.7058  0.2348
 2861SOL     OW20215   3.458   1.738   1.639  0.3364  0.2007  0.6319
 2861SOL    HW120216   3.528   1.802   1.628  0.1081  0.3381 -0.0082
 2861SOL    HW220217   3.455   1.695   1.554  2.7834 -1.0336  1.1540
 2862SOL     OW20218   3.271   1.325   1.592 -0.0137 -0.1537 -0.1879
 2862SOL    HW120219   3.175   1.328   1.599 -0.2722  0.8190 -3.7878
 2862SOL    HW220220   3.283   1.232   1.609 -1.4135 -0.0366  1.4300
 2863SOL     OW20221   0.700   0.579   2.330  0.5763 -0.6461 -0.8521
 2863SOL    HW120222   0.662   0.645   2.388 -2.0023 -1.7830 -1.2346
 2863SOL    HW220223   0.661   0.605   2.246  1.0009  2.7054  0.0060
 2864SOL     OW20224   0.589   1.720   8.430  0.3950 -0.2572  0.6531
 2864SOL    HW120225   0.595   1.705   8.524  3.9710 -1.6573  0.2113
 2864SOL    HW220226   0.540   1.642   8.406  0.4306 -0.2038  0.4097
 2865SOL     OW20227   3.748   3.266   2.881 -0.3903  0.0149 -0.1867
 2865SOL    HW120228   3.654   3.253   2.870 -0.2149 -0.6988 -0.7838
 2865SOL    HW220229   3.781   3.252   2.793  0.7964  1.0586  0.0901
 2866SOL     OW20230   0.316   3.836   6.149  0.4474  0.0250 -0.2066
 2866SOL    HW120231   0.392   3.871   6.194  1.2725 -0.4963 -1.2046
 2866SOL    HW220232   0.262   3.915   6.150  2.4396  1.3849 -1.5007
 2867SOL     OW20233   4.548   0.213  16.952 -0.1957  0.5605 -0.0761
 2867SOL    HW120234   4.556   0.163  17.034 -2.1386 -0.3263 -0.4208
 2867SOL    HW220235   4.570   0.300  16.984 -1.6397  1.0905 -0.5418
 2868SOL     OW20236   4.582   4.234   4.271 -0.8697 -0.3997 -0.2573
 2868SOL    HW120237   4.612   4.222   4.361 -1.0230  1.9749  0.1115
 2868SOL    HW220238   4.510   4.291   4.296  0.2547  1.1529 -0.5659
 2869SOL     OW20239   0.201   0.266   6.558 -0.2072 -0.9053 -0.1513
 2869SOL    HW120240   0.155   0.306   6.631  0.7408  1.1708 -0.6997
 2869SOL    HW220241   0.276   0.231   6.606 -0.9182  0.3998  1.8954
 2870SOL     OW20242   1.047   1.768  14.890  0.6734 -0.2837  0.4286
 2870SOL    HW120243   0.957   1.772  14.857 -0.0323  2.0938  2.5855
 2870SOL    HW220244   1.042   1.833  14.960  0.1130 -0.6251  0.7143
 2871SOL     OW20245   3.462   4.150   7.112 -0.6704  0.0835 -0.0514
 2871SOL    HW120246   3.372   4.119   7.120 -0.5083 -0.6885 -1.2484
 2871SOL    HW220247   3.459   4.238   7.149 -0.2963 -0.3157  0.9304
 2872SOL     OW20248   3.033   0.304  10.936 -0.0964  0.0013 -0.0803
 2872SOL    HW120249   3.001   0.323  10.848  0.7369  0.8389 -0.2022
 2872SOL    HW220250   3.071   0.389  10.959 -1.4392  0.1313  1.6329
 2873SOL     OW20251   0.738   4.220  10.464 -0.1577 -0.6251  0.0784
 2873SOL    HW120252   0.718   4.303  10.508 -0.3655  0.0254 -1.2494
 2873SOL    HW220253   0.731   4.252  10.374 -3.1427 -0.4214  0.3755
 2874SOL     OW20254   1.016   0.114   1.392  0.3639 -0.2983 -0.5266
 2874SOL    HW120255   0.961   0.175   1.343  0.5022 -0.9991 -1.5370
 2874SOL    HW220256   1.103   0.153   1.394  0.8963 -1.5052  0.1897
 2875SOL     OW20257   1.867   2.872   7.753  0.3202  0.0427  0.4625
 2875SOL    HW120258   1.870   2.780   7.780  2.2478 -0.3192 -1.0334
 2875SOL    HW220259   1.903   2.897   7.838  0.6671 -3.0673  1.2599
 2876SOL     OW20260   4.098   2.316   9.218 -0.3234  0.0703  0.3910
 2876SOL    HW120261   4.167   2.351   9.161 -0.5669 -1.9369 -1.1574
 2876SOL    HW220262   4.020   2.350   9.174 -1.1643  0.2298  2.0172
 2877SOL     OW20263   2.858   3.367   4.147  0.0930 -0.3518 -0.0220
 2877SOL    HW120264   2.857   3.331   4.235  1.6617 -3.3612 -1.2075
 2877SOL    HW220265   2.872   3.288   4.093  0.8336 -0.1133 -0.1842
 2878SOL     OW20266   1.883   0.401   5.288 -0.1760 -0.3488  0.4235
 2878SOL    HW120267   1.975   0.395   5.260 -0.2878 -1.9548  0.4416
 2878SOL    HW220268   1.867   0.495   5.296 -1.1994 -0.6682  2.2798
 2879SOL     OW20269   1.394   0.351   8.315  0.5837 -0.2491  0.1473
 2879SOL    HW120270   1.481   0.383   8.291  0.5084 -2.6189 -3.4393
 2879SOL    HW220271   1.377   0.306   8.232  2.0740 -0.5266 -0.0125
 2880SOL     OW20272   1.237   3.510   2.537 -0.6276 -0.0168 -0.6317
 2880SOL    HW120273   1.313   3.543   2.585 -2.3365  0.3752  1.8005
 2880SOL    HW220274   1.165   3.565   2.569 -0.8177 -0.1851 -0.7697
 2881SOL     OW20275   3.107   4.410   7.999 -0.6685  0.1220  0.2238
 2881SOL    HW120276   3.194   4.422   8.037 -1.0626  0.5465  1.0092
 2881SOL    HW220277   3.060   4.385   8.079 -2.7206 -1.8759 -1.5987
 2882SOL     OW20278   3.255   3.334   0.883  0.2179 -0.2250  0.0793
 2882SOL    HW120279   3.189   3.352   0.816  1.7972 -0.4239 -1.5163
 2882SOL    HW220280   3.323   3.302   0.824  0.8893 -1.0449  1.3099
 2883SOL     OW20281   3.839   0.706   1.517  0.5325  0.3254  0.3531
 2883SOL    HW120282   3.801   0.659   1.442 -3.5107  0.1068  2.5408
 2883SOL    HW220283   3.769   0.699   1.582 -0.7831  1.1740 -0.9802
 2884SOL     OW20284   4.563   0.271   3.853 -0.0036 -0.0782 -0.0327
 2884SOL    HW120285   4.510   0.346   3.826 -1.2486 -0.4555  1.3974
 2884SOL    HW220286   4.643   0.289   3.804  0.3319  2.4256  1.3945
 2885SOL     OW20287   1.580   4.369   0.634 -0.3127 -0.0421  0.0057
 2885SOL    HW120288   1.488   4.344   0.620 -0.9262  1.9211  0.4171
 2885SOL    HW220289   1.623   4.337   0.555 -1.1054 -0.3506 -0.2984
 2886SOL     OW20290   0.647   4.717   7.413 -0.0142 -0.1386 -0.1815
 2886SOL    HW120291   0.726   4.665   7.397 -0.0671 -0.7280  1.4788
 2886SOL    HW220292   0.587   4.661   7.364 -0.0592  1.1864 -1.6545
 2887SOL     OW20293   2.968   2.558  15.766 -0.3701 -0.1386  0.0949
 2887SOL    HW120294   2.942   2.590  15.680 -2.4617  0.9141  1.1282
 2887SOL    HW220295   3.059   2.588  15.766  0.0360 -1.3511  2.0672
 2888SOL     OW20296   0.937   1.355   2.124 -0.0792 -0.6002 -0.4356
 2888SOL    HW120297   0.975   1.270   2.105  3.1559  1.2583 -2.3346
 2888SOL    HW220298   0.956   1.394   2.038 -1.5777 -2.4191 -1.5933
 2889SOL     OW20299   1.691   0.571   3.531  0.6874 -0.3876  0.0165
 2889SOL    HW120300   1.646   0.517   3.596 -1.5270  1.1835 -0.2185
 2889SOL    HW220301   1.687   0.526   3.447  1.5662  2.6731 -1.6687
 2890SOL     OW20302   0.017   3.363   2.366 -0.1963 -0.5271  0.3850
 2890SOL    HW120303   0.020   3.383   2.272 -0.7802  1.2931  0.7471
 2890SOL    HW220304   0.103   3.393   2.395  0.1485 -1.6347  0.4910
 2891SOL     OW20305   2.633   4.643   1.325  0.2760 -0.8884  0.3368
 2891SOL    HW120306   2.694   4.659   1.253  1.2377 -3.2371  0.6422
 2891SOL    HW220307   2.551   4.671   1.284  0.0928 -1.0805  0.5749
 2892SOL     OW20308   3.380   4.239   7.665 -0.0716 -0.2455 -0.7673
 2892SOL    HW120309   3.425   4.228   7.748  0.4004  1.6801 -0.7597
 2892SOL    HW220310   3.308   4.294   7.698 -0.9382 -2.3335  0.7884
 2893SOL     OW20311   1.036   3.736   1.805  0.4857  0.3807  1.3037
 2893SOL    HW120312   1.080   3.743   1.721 -0.8319 -1.8031  0.4393
 2893SOL    HW220313   1.114   3.758   1.857  0.6025  1.3568  0.7191
 2894SOL     OW20314   0.425   0.113   4.712  0.0891 -0.5133  0.2742
 2894SOL    HW120315   0.394   0.090   4.625  2.0854  1.3520 -0.9405
 2894SOL    HW220316   0.380   0.196   4.729  1.6704  0.1784  1.0805
 2895SOL     OW20317   3.750   3.948   6.258 -0.0354 -0.4961 -0.4888
 2895SOL    HW120318   3.684   4.014   6.234 -0.6185 -1.7594 -2.3237
 2895SOL    HW220319   3.724   3.940   6.350  0.2128 -0.7461 -0.4413
 2896SOL     OW20320   0.312   2.191   7.173 -0.1512 -0.6047  0.1566
 2896SOL    HW120321   0.321   2.188   7.078  1.6238  0.8809  0.2679
 2896SOL    HW220322   0.218   2.205   7.183 -0.2594 -0.8792 -0.4643
 2897SOL     OW20323   0.139   4.435  10.368 -0.0802 -0.2645 -0.0931
 2897SOL    HW120324   0.065   4.402  10.420 -0.9842  0.7561 -0.7352
 2897SOL    HW220325   0.149   4.522  10.405  0.6099  0.4370 -1.9808
 2898SOL     OW20326   1.197   3.321   1.273  0.2450 -0.0024 -0.5547
 2898SOL    HW120327   1.260   3.373   1.323  2.0959 -1.0783 -1.7632
 2898SOL    HW220328   1.222   3.230   1.288 -3.3384 -0.7644  0.6252
 2899SOL     OW20329   2.340   4.501   6.818 -0.0432  0.4401 -0.3516
 2899SOL    HW120330   2.381   4.468   6.737 -0.1126  0.7677 -0.5199
 2899SOL    HW220331   2.419   4.512   6.870 -1.2343  1.5627  1.2045
 2900SOL     OW20332   2.854   3.118   4.016 -0.1620 -0.4630 -0.2894
 2900SOL    HW120333   2.798   3.116   3.938 -1.7313 -1.1570  0.8540
 2900SOL    HW220334   2.859   3.025   4.040  0.5362 -0.2897  0.2439
 2901SOL     OW20335   2.386   4.474   7.669 -0.2957  0.4025  0.5068
 2901SOL    HW120336   2.312   4.449   7.612 -0.9852 -1.1201  2.0713
 2901SOL    HW220337   2.349   4.455   7.755 -1.0503 -2.0149 -0.3368
 2902SOL     OW20338   0.222   0.101   3.007  0.4228  0.1524  0.1085
 2902SOL    HW120339   0.296   0.129   3.060 -2.1742  2.6264  2.4227
 2902SOL    HW220340   0.246   0.014   2.976  2.8021  0.3937  1.2520
 2903SOL     OW20341   1.041   0.707   1.291  0.2500  0.7561 -0.2062
 2903SOL    HW120342   1.030   0.640   1.223  1.3029 -0.0271  0.3881
 2903SOL    HW220343   0.952   0.722   1.323  0.4527  0.6419  0.4101
 2904SOL     OW20344   1.681   3.923   2.381  0.5120  0.1841 -0.4831
 2904SOL    HW120345   1.769   3.898   2.408  0.6421  0.0678 -1.0173
 2904SOL    HW220346   1.633   3.862   2.437 -0.8857  0.8555 -0.9616
 2905SOL     OW20347   4.171   2.355   6.805 -0.3015 -0.3663 -0.0532
 2905SOL    HW120348   4.254   2.401   6.788  0.3220 -1.1765  0.7831
 2905SOL    HW220349   4.140   2.340   6.716  0.2088  1.2330 -0.5079
 2906SOL     OW20350   0.938   2.965   3.682 -0.4188 -0.2595  0.0008
 2906SOL    HW120351   0.978   2.933   3.601 -1.5267  0.8611 -0.9986
 2906SOL    HW220352   0.867   3.016   3.644 -1.3249 -1.4487  0.0882
 2907SOL     OW20353   1.168   3.901   5.679  0.0286  0.6377 -0.3285
 2907SOL    HW120354   1.093   3.956   5.655 -1.3300 -0.0063  2.3974
 2907SOL    HW220355   1.205   3.948   5.753  1.0175  0.0896 -0.4802
 2908SOL     OW20356   2.487   2.281  15.868  0.4700  0.1329 -0.0381
 2908SOL    HW120357   2.558   2.259  15.927 -0.5230  1.2123  1.5534
 2908SOL    HW220358   2.428   2.226  15.919 -1.2498  1.2614 -0.8093
 2909SOL     OW20359   2.654   0.570   2.351 -0.4618 -0.0255 -0.0654
 2909SOL    HW120360   2.678   0.584   2.259  1.2393 -0.9276  0.2534
 2909SOL    HW220361   2.682   0.479   2.362  1.6136  0.4438 -1.3600
 2910SOL     OW20362   3.528   4.234   4.275  0.3205  0.4331 -0.0811
 2910SOL    HW120363   3.494   4.208   4.189  2.4841  0.6041 -0.9860
 2910SOL    HW220364   3.496   4.324   4.269 -1.1951 -0.0197  1.1495
 2911SOL     OW20365   0.672   4.054  15.315 -0.8442  0.2477  0.7544
 2911SOL    HW120366   0.744   4.115  15.324  1.0831 -2.1966  1.8882
 2911SOL    HW220367   0.649   4.059  15.222 -0.9034  2.6356  0.9079
 2912SOL     OW20368   1.538   1.954   3.471  0.0476 -0.2801 -0.0202
 2912SOL    HW120369   1.554   2.018   3.540  1.0942 -0.9015  0.2977
 2912SOL    HW220370   1.447   1.933   3.493 -0.2915  0.7426 -0.4761
 2913SOL     OW20371   0.248   2.103   2.886  0.1512  0.3341  0.5003
 2913SOL    HW120372   0.226   2.034   2.824 -1.0323  1.9515 -0.8720
 2913SOL    HW220373   0.184   2.080   2.954 -0.4684  0.1306 -0.1564
 2914SOL     OW20374   3.740   3.909  17.258 -0.1269 -0.0459 -0.1509
 2914SOL    HW120375   3.660   3.875  17.299 -0.8024  0.9580 -0.6351
 2914SOL    HW220376   3.710   3.981  17.202  1.3889 -0.9182 -2.0906
 2915SOL     OW20377   2.051   1.254   1.875  0.2019 -0.1143  0.2646
 2915SOL    HW120378   2.076   1.345   1.860 -0.4636  0.4509  2.6203
 2915SOL    HW220379   2.118   1.221   1.936  0.5106 -1.3721 -0.7396
 2916SOL     OW20380   0.513   0.014   1.906 -0.2659 -0.2273 -0.0765
 2916SOL    HW120381   0.608   0.022   1.896 -0.4431  1.8980 -0.1120
 2916SOL    HW220382   0.496   4.687   1.841  0.0672 -1.1131  0.7661
 2917SOL     OW20383   2.501   2.661   2.788 -0.0466 -0.0631 -0.5515
 2917SOL    HW120384   2.544   2.673   2.872  0.1986  0.5144 -0.7654
 2917SOL    HW220385   2.414   2.634   2.820  0.4598 -1.7842 -0.6213
 2918SOL     OW20386   4.222   2.767  13.814  0.5532  0.2663 -0.6507
 2918SOL    HW120387   4.280   2.741  13.743  0.9737 -0.1224 -0.1682
 2918SOL    HW220388   4.160   2.695  13.825  0.1298  0.6609 -0.4426
 2919SOL     OW20389   0.888   3.342   5.199 -0.1665  0.3363  0.5128
 2919SOL    HW120390   0.923   3.387   5.276  1.1039 -1.5674  1.0477
 2919SOL    HW220391   0.844   3.268   5.240  1.4270 -1.1573 -0.4475
 2920SOL     OW20392   4.124   0.202   2.366 -0.3399  0.2050  0.2443
 2920SOL    HW120393   4.043   0.228   2.323 -0.5746 -2.2479 -0.7953
 2920SOL    HW220394   4.161   0.150   2.294  0.1246 -0.5505  1.0169
 2921SOL     OW20395   2.010   2.272   7.562  0.1805 -0.1914  0.4310
 2921SOL    HW120396   2.094   2.311   7.540 -0.1672 -0.0000 -0.5569
 2921SOL    HW220397   2.034   2.190   7.518 -0.4432  0.2245 -0.6733
 2922SOL     OW20398   1.775   3.272  16.388  0.0776  0.1908  0.0441
 2922SOL    HW120399   1.748   3.286  16.297  0.1568  0.6073  0.0850
 2922SOL    HW220400   1.702   3.317  16.430 -0.0321 -0.8604  0.9746
 2923SOL     OW20401   1.062   2.368   5.567 -0.6038 -0.9901 -0.1188
 2923SOL    HW120402   1.016   2.439   5.612 -0.9117 -1.2671  0.0032
 2923SOL    HW220403   1.043   2.392   5.476 -0.5828  3.9950  1.1724
 2924SOL     OW20404   0.261   4.564   0.922  0.2258  0.3104 -0.1670
 2924SOL    HW120405   0.287   4.586   1.011  0.9522 -1.8452  0.1689
 2924SOL    HW220406   0.324   4.613   0.869  1.1285 -1.3321 -0.6250
 2925SOL     OW20407   4.338   2.748   1.341  0.3786  0.0096 -0.1342
 2925SOL    HW120408   4.271   2.680   1.334  0.2360  0.0214  1.2312
 2925SOL    HW220409   4.335   2.775   1.249  0.2635  0.9690  0.1502
 2926SOL     OW20410   4.590   0.056  17.208 -0.1134 -0.0079  0.3170
 2926SOL    HW120411   4.534   0.043  17.284 -0.2235 -1.7211 -0.0611
 2926SOL    HW220412   4.671   0.007  17.222  1.6930  3.6729  2.9153
 2927SOL     OW20413   2.122   2.587  12.632  0.1751  0.2190  0.5420
 2927SOL    HW120414   2.167   2.633  12.703  3.1580 -0.9948 -0.5718
 2927SOL    HW220415   2.182   2.513  12.628 -0.2318 -0.0682 -0.3296
 2928SOL     OW20416   3.761   4.015   5.449 -0.2534  0.2693  0.1642
 2928SOL    HW120417   3.783   4.088   5.507 -2.1632 -1.5569  3.2010
 2928SOL    HW220418   3.797   4.049   5.367  1.5232  1.1294  1.3160
 2929SOL     OW20419   3.620   0.535   3.287 -0.6115 -0.7615 -0.5038
 2929SOL    HW120420   3.637   0.459   3.232  0.0743 -0.7976 -0.2467
 2929SOL    HW220421   3.531   0.553   3.255 -0.7893  0.3187  0.5879
 2930SOL     OW20422   4.227   2.743  10.533 -0.0790 -0.2047 -0.7439
 2930SOL    HW120423   4.159   2.809  10.519  0.0987  0.1936  0.2413
 2930SOL    HW220424   4.280   2.744  10.454 -1.8046  1.8430 -1.8551
 2931SOL     OW20425   3.158   2.990  11.492 -0.0004  0.5029 -0.1869
 2931SOL    HW120426   3.185   2.912  11.444 -1.7344  0.6548 -1.3750
 2931SOL    HW220427   3.068   2.974  11.520 -0.1801  2.7089  0.4997
 2932SOL     OW20428   2.221   3.101  12.399 -0.1280 -0.1794 -0.5014
 2932SOL    HW120429   2.230   3.166  12.329 -1.2259 -0.1677 -0.6324
 2932SOL    HW220430   2.293   3.041  12.378 -1.2841 -1.7460 -0.0321
 2933SOL     OW20431   2.479   0.963   1.552  0.1930  0.4977  0.1711
 2933SOL    HW120432   2.451   0.989   1.640 -0.6361 -0.2581  0.1266
 2933SOL    HW220433   2.572   0.983   1.555 -0.0174  1.1664  2.1510
 2934SOL     OW20434   2.379   1.808   4.522 -0.5203  1.1259 -0.0041
 2934SOL    HW120435   2.422   1.750   4.458 -0.2002  0.1879  1.0646
 2934SOL    HW220436   2.397   1.891   4.477  0.1269  0.9332 -0.1058
 2935SOL     OW20437   0.458   0.107   3.188 -0.7234  0.2280 -0.4857
 2935SOL    HW120438   0.478   0.184   3.240 -0.0613 -2.5736  3.3899
 2935SOL    HW220439   0.477   0.037   3.251 -2.3412  0.6465  0.4490
 2936SOL     OW20440   2.715   0.252   7.194  0.1929 -0.7228  0.1208
 2936SOL    HW120441   2.728   0.165   7.158  2.3516 -0.3127 -0.0545
 2936SOL    HW220442   2.634   0.231   7.241  0.3427 -0.1655  0.6214
 2937SOL     OW20443   1.486   0.176  13.592  0.0830 -0.0154  0.2609
 2937SOL    HW120444   1.501   0.158  13.685 -4.8587  2.3205  1.4852
 2937SOL    HW220445   1.549   0.247  13.579 -1.7812  1.4653 -0.5315
 2938SOL     OW20446   1.366   3.442   7.205 -0.3069  0.1631  0.2012
 2938SOL    HW120447   1.304   3.428   7.134  1.9045 -0.5830 -1.6039
 2938SOL    HW220448   1.361   3.357   7.249  1.3450 -0.1084 -0.1202
 2939SOL     OW20449   1.132   4.032  13.458 -0.6599  0.4465 -0.2209
 2939SOL    HW120450   1.163   4.122  13.457  2.6830 -0.7350 -2.1889
 2939SOL    HW220451   1.098   4.036  13.368  1.5947  1.5848 -1.0039
 2940SOL     OW20452   3.930   0.182   5.082 -0.1492 -0.1333  0.0579
 2940SOL    HW120453   3.926   0.105   5.026 -2.9425  0.1022 -0.0859
 2940SOL    HW220454   3.917   0.240   5.007 -0.4326  0.3401  0.4712
 2941SOL     OW20455   2.940   4.349   5.948 -0.2357  0.5083  0.1839
 2941SOL    HW120456   2.976   4.369   6.034  3.4501 -1.0600 -1.0018
 2941SOL    HW220457   2.882   4.276   5.970 -0.0410 -0.0524 -1.1473
 2942SOL     OW20458   0.465   0.530   6.165 -0.3839  0.5372  0.0841
 2942SOL    HW120459   0.525   0.512   6.092  1.4577 -0.0375  1.7398
 2942SOL    HW220460   0.399   0.582   6.120  0.5163  1.3914 -0.2525
 2943SOL     OW20461   0.432   0.904  10.168  0.7325 -0.1583 -0.4330
 2943SOL    HW120462   0.523   0.934  10.167  0.9592 -0.7222  2.0065
 2943SOL    HW220463   0.428   0.857  10.251  0.1533  0.9957  0.1994
 2944SOL     OW20464   1.091   0.371   5.879  0.7931  0.4497  0.4477
 2944SOL    HW120465   1.180   0.338   5.877  0.3425 -0.8470  1.6659
 2944SOL    HW220466   1.067   0.378   5.786 -0.7324 -0.8233  0.7396
 2945SOL     OW20467   3.324   2.076   1.736 -0.1388 -0.1848  0.3932
 2945SOL    HW120468   3.345   2.046   1.648 -0.1537 -0.6561  0.5449
 2945SOL    HW220469   3.243   2.027   1.754 -1.4088  2.0599  0.8099
 2946SOL     OW20470   3.080   0.632  16.628  0.5481  0.1066 -0.0328
 2946SOL    HW120471   3.121   0.718  16.620 -1.9315  1.4198  1.2531
 2946SOL    HW220472   3.046   0.648  16.716  1.3689  0.9374  0.1343
 2947SOL     OW20473   4.636   0.080  12.527  0.0921  0.3637 -0.4208
 2947SOL    HW120474   4.644   0.148  12.460 -1.5625  1.9899  1.0545
 2947SOL    HW220475   4.600   0.125  12.603 -1.8203 -1.3473 -0.3290
 2948SOL     OW20476   0.354   2.065   8.576  0.5707 -0.1196  0.0498
 2948SOL    HW120477   0.391   2.033   8.658  1.4545  1.6811  0.3634
 2948SOL    HW220478   0.359   2.160   8.591 -2.0445 -0.3555  2.4015
 2949SOL     OW20479   4.398   0.402   1.645 -0.4149  0.1651 -0.4522
 2949SOL    HW120480   4.389   0.402   1.740  0.8357  1.6577 -0.3312
 2949SOL    HW220481   4.450   0.482   1.631 -0.8527 -0.1398 -3.7578
 2950SOL     OW20482   0.088   2.138   2.105 -0.4654 -0.2378 -0.2878
 2950SOL    HW120483   0.042   2.115   2.025 -1.1040  0.9939 -0.2662
 2950SOL    HW220484   0.014   2.173   2.155 -0.7911 -2.1771  0.6152
 2951SOL     OW20485   0.530   3.274   7.266  1.0903 -0.0324 -0.7781
 2951SOL    HW120486   0.528   3.191   7.218 -1.6820 -1.6725  2.1405
 2951SOL    HW220487   0.534   3.332   7.190 -0.3942  1.9699  0.6669
 2952SOL     OW20488   1.875   3.585  17.405  0.8243 -0.5758 -0.3852
 2952SOL    HW120489   1.921   3.644  17.346  1.7487  0.1960  1.1010
 2952SOL    HW220490   1.793   3.603  17.359  0.9975 -0.5441 -0.6824
 2953SOL     OW20491   0.456   1.170   8.345 -0.0836 -0.3174  0.4494
 2953SOL    HW120492   0.445   1.171   8.250  3.5724 -0.0032  0.0387
 2953SOL    HW220493   0.543   1.132   8.356 -0.5218 -1.0218  1.4936
 2954SOL     OW20494   4.648   2.587   8.386 -0.3181 -0.3740 -0.0539
 2954SOL    HW120495   4.561   2.594   8.347 -0.4934  1.1904  0.6140
 2954SOL    HW220496   4.644   2.495   8.413  0.0893 -0.2470  0.4363
 2955SOL     OW20497   4.543   3.482   3.449 -0.2146  0.3679  0.3568
 2955SOL    HW120498   4.526   3.562   3.398 -2.7095 -0.1025  0.4489
 2955SOL    HW220499   4.456   3.448   3.470 -0.7474  0.1957 -2.0831
 2956SOL     OW20500   3.463   2.276   8.657  0.7549  0.1343  0.0370
 2956SOL    HW120501   3.475   2.260   8.751  1.0049  0.8354  0.1231
 2956SOL    HW220502   3.539   2.240   8.612  1.1152  0.3537  0.4624
 2957SOL     OW20503   0.790   1.836   3.631  0.3753  0.2670 -0.1331
 2957SOL    HW120504   0.738   1.849   3.552  1.5808  1.2637 -0.7733
 2957SOL    HW220505   0.858   1.900   3.608  1.0375 -0.4882 -0.2991
 2958SOL     OW20506   1.360   0.170   6.995  0.5422  0.2316 -0.5786
 2958SOL    HW120507   1.336   0.240   6.934 -2.4823  0.2951  0.6911
 2958SOL    HW220508   1.374   0.100   6.931 -1.6435 -1.1457  0.4234
 2959SOL     OW20509   1.741   2.880   2.545 -0.4451  0.4047 -0.1796
 2959SOL    HW120510   1.682   2.877   2.470 -0.5980 -0.8467 -0.0133
 2959SOL    HW220511   1.726   2.792   2.581 -2.4892  0.0444 -1.9013
 2960SOL     OW20512   3.166   2.405  14.680 -0.2185 -0.8656  1.0130
 2960SOL    HW120513   3.215   2.324  14.693  1.0096 -0.1182  1.0214
 2960SOL    HW220514   3.147   2.390  14.588  0.0055  3.0512  0.2935
 2961SOL     OW20515   1.062   1.593  12.719 -0.2394 -0.3721  0.1225
 2961SOL    HW120516   1.043   1.685  12.735 -3.3712 -0.6074 -2.2450
 2961SOL    HW220517   1.143   1.585  12.668 -1.7652 -0.5741 -2.2511
 2962SOL     OW20518   0.330   1.179  13.400  0.1484 -0.1736  0.4148
 2962SOL    HW120519   0.289   1.251  13.448  0.2820 -0.4318  0.9166
 2962SOL    HW220520   0.257   1.120  13.381  0.7238 -0.7303 -0.0626
 2963SOL     OW20521   3.479   2.720  15.778  0.0950  0.4506  0.2669
 2963SOL    HW120522   3.537   2.796  15.780  1.6585 -0.7311 -1.0789
 2963SOL    HW220523   3.536   2.658  15.823 -0.9067 -0.7222 -0.0660
 2964SOL     OW20524   0.724   3.004   2.193  0.4243  0.2621  0.5480
 2964SOL    HW120525   0.713   3.002   2.097 -1.7450  1.0638  0.7678
 2964SOL    HW220526   0.786   2.934   2.211  1.3334  0.7522 -0.6496
 2965SOL     OW20527   3.576   1.905   4.494  0.2248  0.6700  0.0988
 2965SOL    HW120528   3.507   1.899   4.428  1.5468  3.1914 -1.5344
 2965SOL    HW220529   3.657   1.873   4.454  1.0094  1.5585  0.9818
 2966SOL     OW20530   1.880   3.768  17.016  1.3850  0.2537 -0.4119
 2966SOL    HW120531   1.874   3.826  16.941 -2.5790 -1.3791 -1.3697
 2966SOL    HW220532   1.862   3.681  16.981 -1.4446  1.1334 -1.1607
 2967SOL     OW20533   4.215   0.507   5.711 -0.5894  0.0482  0.4920
 2967SOL    HW120534   4.124   0.497   5.737 -0.9931  1.5850 -0.3394
 2967SOL    HW220535   4.215   0.427   5.659 -0.5295  1.5538 -1.8120
 2968SOL     OW20536   2.745   0.039  13.842  0.0774  0.4622 -0.1550
 2968SOL    HW120537   2.672   0.073  13.790 -0.1097  2.0430  1.1362
 2968SOL    HW220538   2.747   0.108  13.909  1.1398 -0.2958  0.5973
 2969SOL     OW20539   2.878   2.176   8.108 -0.5174 -0.1489 -0.2599
 2969SOL    HW120540   2.806   2.230   8.076 -0.6814 -1.2883 -1.8224
 2969SOL    HW220541   2.957   2.229   8.102 -1.4637  1.4905  1.8063
 2970SOL     OW20542   1.492   4.221   5.512  0.2886 -0.0544  0.7437
 2970SOL    HW120543   1.484   4.244   5.419  1.7682 -2.1893  0.0983
 2970SOL    HW220544   1.406   4.249   5.543 -0.2081 -1.0879  0.3017
 2971SOL     OW20545   0.977   4.053  14.804  0.8862 -0.3050  0.1287
 2971SOL    HW120546   1.041   4.098  14.749 -1.2006  0.5265 -1.6130
 2971SOL    HW220547   0.908   4.048  14.738 -0.1673  0.3493  1.1981
 2972SOL     OW20548   3.796   2.061  16.661 -0.0399 -0.3687 -0.0799
 2972SOL    HW120549   3.872   2.105  16.699  1.1574 -1.7144 -0.9252
 2972SOL    HW220550   3.733   2.133  16.669 -0.0649 -0.4192  0.1784
 2973SOL     OW20551   0.254   0.957   6.104 -0.0347  0.4008 -0.2883
 2973SOL    HW120552   0.173   0.942   6.056 -0.0488 -1.2944  0.2534
 2973SOL    HW220553   0.319   0.923   6.043 -1.3334 -2.0408 -0.3047
 2974SOL     OW20554   4.534   2.451   7.562 -0.2916  0.1456  0.2342
 2974SOL    HW120555   4.447   2.428   7.592 -0.3492 -0.8450 -0.7431
 2974SOL    HW220556   4.543   2.394   7.486 -0.4713 -0.9167  1.0210
 2975SOL     OW20557   1.057   1.239   3.074 -0.1113  0.1072  0.2601
 2975SOL    HW120558   1.047   1.144   3.066 -0.4870  0.2926 -1.3249
 2975SOL    HW220559   0.981   1.272   3.121 -0.7305 -1.1409  0.1211
 2976SOL     OW20560   2.767   3.638   5.957 -0.1549  0.0167 -0.2774
 2976SOL    HW120561   2.708   3.606   6.025  0.3023 -2.1029 -0.9029
 2976SOL    HW220562   2.732   3.589   5.883  0.2359  1.4634 -1.4305
 2977SOL     OW20563   2.731   0.818   8.583 -0.2341 -0.7085 -0.4495
 2977SOL    HW120564   2.806   0.764   8.559  0.1918 -1.0256  1.6601
 2977SOL    HW220565   2.678   0.762   8.639 -0.2723 -0.5002 -0.2800
 2978SOL     OW20566   0.854   0.477   6.606 -0.3314  0.3017  0.5291
 2978SOL    HW120567   0.837   0.472   6.512  0.8526 -0.5852  0.3621
 2978SOL    HW220568   0.858   0.572   6.615 -0.3073  0.5497 -1.9300
 2979SOL     OW20569   2.724   3.907  16.044  0.1141 -0.5191 -0.2140
 2979SOL    HW120570   2.762   3.829  16.004  2.6286 -0.7363  2.5465
 2979SOL    HW220571   2.721   3.958  15.963 -1.2170 -0.6390 -0.2471
 2980SOL     OW20572   2.601   3.564  14.381 -0.3119 -0.1475  0.3516
 2980SOL    HW120573   2.669   3.507  14.417  1.0571 -0.3899 -2.6284
 2980SOL    HW220574   2.610   3.557  14.286 -1.5735  1.2889  0.1155
 2981SOL     OW20575   2.959   2.673   8.475  0.7930  0.3909  0.0017
 2981SOL    HW120576   2.995   2.590   8.443 -1.0816 -0.6702  0.6126
 2981SOL    HW220577   2.867   2.662   8.448  0.7588  0.6764 -0.0016
 2982SOL     OW20578   4.529   0.714   2.566 -0.3661  0.0249  0.0446
 2982SOL    HW120579   4.512   0.621   2.556  0.8962 -0.4907  2.6552
 2982SOL    HW220580   4.625   0.712   2.561 -0.4788  0.8411 -2.4031
 2983SOL     OW20581   2.443   1.228   3.823 -0.0767  0.0984  0.1606
 2983SOL    HW120582   2.479   1.140   3.839 -0.0601 -0.4165 -2.5745
 2983SOL    HW220583   2.352   1.211   3.847  0.5713  0.2318  2.6649
 2984SOL     OW20584   1.212   2.862  17.319  0.7620  0.9561 -0.2036
 2984SOL    HW120585   1.161   2.912  17.382 -0.6344 -1.7552  0.8415
 2984SOL    HW220586   1.165   2.882  17.238 -1.1825  1.9089  1.1680
 2985SOL     OW20587   1.161   0.542   6.693  0.0214  0.4268  0.7247
 2985SOL    HW120588   1.107   0.551   6.772 -0.7248  0.6128  0.1898
 2985SOL    HW220589   1.181   0.633   6.674  0.0233  0.3979  0.5871
 2986SOL     OW20590   3.998   1.483   8.147 -0.0270  0.0515 -0.5745
 2986SOL    HW120591   3.907   1.463   8.125  0.3520 -4.1671  1.5394
 2986SOL    HW220592   4.027   1.400   8.187 -0.1778 -0.1961 -0.9753
 2987SOL     OW20593   0.378   2.192   6.022  0.1739 -0.1737  0.0985
 2987SOL    HW120594   0.410   2.258   5.960  2.2228 -0.4156  0.9171
 2987SOL    HW220595   0.461   2.181   6.069 -0.4848  0.1385  1.3243
 2988SOL     OW20596   0.225   0.187   3.868  0.8118 -0.4603  0.2947
 2988SOL    HW120597   0.281   0.260   3.844  0.7592 -0.3548  0.4908
 2988SOL    HW220598   0.156   0.204   3.804  0.8916 -1.9238 -0.1682
 2989SOL     OW20599   4.178   0.308   8.015  0.6070  0.0968 -0.0337
 2989SOL    HW120600   4.161   0.370   8.086 -3.4059 -0.8433 -0.1693
 2989SOL    HW220601   4.265   0.279   8.042 -0.1506 -2.0054  0.1579
 2990SOL     OW20602   1.827   1.035   0.665  0.1759  0.5137 -0.2678
 2990SOL    HW120603   1.885   1.110   0.655  0.5014  0.0796 -1.6839
 2990SOL    HW220604   1.740   1.074   0.670  1.2788  2.2350  5.2827
 2991SOL     OW20605   3.361   2.371  15.926 -0.4161 -0.3491 -0.0048
 2991SOL    HW120606   3.443   2.421  15.922 -0.3536 -0.5340 -1.1881
 2991SOL    HW220607   3.344   2.358  16.019 -0.6097 -0.9499 -0.1262
 2992SOL     OW20608   4.500   3.595   8.772 -0.1535 -0.0044 -0.5429
 2992SOL    HW120609   4.516   3.549   8.855  0.6292  0.0160 -0.6833
 2992SOL    HW220610   4.434   3.532   8.743  0.3042 -0.5820 -0.3431
 2993SOL     OW20611   4.533   0.957  10.888  0.1114  0.0972 -0.6648
 2993SOL    HW120612   4.526   1.009  10.808 -0.8753 -0.0820 -0.6930
 2993SOL    HW220613   4.476   0.994  10.956 -0.4701  0.4601 -1.3594
 2994SOL     OW20614   2.485   0.630   9.072 -0.3623 -0.1419 -0.4371
 2994SOL    HW120615   2.516   0.567   9.137 -0.5074 -0.0215 -0.2533
 2994SOL    HW220616   2.446   0.569   9.010  0.1409 -0.6671 -0.2371
 2995SOL     OW20617   2.584   2.426   4.440 -0.4543 -0.0439  0.4266
 2995SOL    HW120618   2.617   2.391   4.357  0.5425  0.8005  0.4494
 2995SOL    HW220619   2.534   2.350   4.468  1.8371 -2.6297 -2.4570
 2996SOL     OW20620   3.114   0.695  14.082 -0.3401  0.0967  0.2456
 2996SOL    HW120621   3.134   0.777  14.127  0.3704 -0.1052  0.2960
 2996SOL    HW220622   3.054   0.653  14.144  0.0610  0.1988  0.7035
 2997SOL     OW20623   1.928   0.998   1.036 -0.3058 -0.0194 -0.0034
 2997SOL    HW120624   1.980   0.918   1.040  1.1169  0.8425 -1.1901
 2997SOL    HW220625   1.871   0.988   1.113  1.9424 -3.4897  1.2057
 2998SOL     OW20626   4.103   1.746  10.524  0.3073  0.2492  0.3757
 2998SOL    HW120627   4.143   1.663  10.553 -1.0828  0.4926  2.9638
 2998SOL    HW220628   4.103   1.735  10.429  0.1160  1.7266  0.2172
 2999SOL     OW20629   3.466   1.600   2.480 -0.0118  0.1036 -0.1368
 2999SOL    HW120630   3.386   1.557   2.450 -0.1370 -0.7146  1.3551
 2999SOL    HW220631   3.533   1.549   2.435 -1.2166 -1.4490 -0.1945
 3000SOL     OW20632   1.827   4.479   5.829  0.0565 -0.4297  0.3842
 3000SOL    HW120633   1.827   4.534   5.750 -0.3750  0.5217  1.0398
 3000SOL    HW220634   1.770   4.407   5.801  0.8480 -0.9428  0.1157
 3001SOL     OW20635   3.685   0.012   0.395 -0.8428  0.7447 -0.5062
 3001SOL    HW120636   3.691   4.659   0.380  1.1975  1.1273 -2.0693
 3001SOL    HW220637   3.738   0.035   0.319 -3.3823  1.7441 -1.9485
 3002SOL     OW20638   2.639   2.493   3.184  0.1436 -0.1592  0.5538
 3002SOL    HW120639   2.562   2.541   3.215  0.4479  0.2498  0.6644
 3002SOL    HW220640   2.701   2.510   3.255  0.8861 -2.2793  0.4396
 3003SOL     OW20641   4.501   1.555  12.845  0.4395  0.2283 -0.4096
 3003SOL    HW120642   4.522   1.632  12.898 -0.3396  0.5328 -0.5423
 3003SOL    HW220643   4.543   1.487  12.899 -0.7819  1.5388  2.1876
 3004SOL     OW20644   1.035   3.185   8.644  0.7818  0.1239  0.1876
 3004SOL    HW120645   1.125   3.197   8.614  1.4435 -2.3259  1.2679
 3004SOL    HW220646   1.007   3.269   8.679 -0.0697  0.4063 -1.1350
 3005SOL     OW20647   1.170   2.929  15.448 -0.4436 -0.2487  0.5755
 3005SOL    HW120648   1.237   2.874  15.488  0.2793  0.4539  0.3257
 3005SOL    HW220649   1.170   3.012  15.496  3.1932  0.1750 -0.1837
 3006SOL     OW20650   0.367   2.762   5.107  0.7976  0.0238  0.2534
 3006SOL    HW120651   0.366   2.834   5.171  3.3669  1.5883 -1.4158
 3006SOL    HW220652   0.272   2.754   5.099  1.1868 -1.0924 -3.1706
 3007SOL     OW20653   4.181   1.780   4.760 -0.0914  0.4685  0.3209
 3007SOL    HW120654   4.251   1.817   4.707  0.4799 -0.6387  0.3006
 3007SOL    HW220655   4.183   1.840   4.834  1.5526 -0.5883  1.1557
 3008SOL     OW20656   2.984   2.805  11.304 -0.3652 -0.1460  0.2884
 3008SOL    HW120657   2.926   2.776  11.374 -0.8840 -0.8892 -0.4554
 3008SOL    HW220658   3.017   2.723  11.269 -1.4810 -0.9631  1.1858
 3009SOL     OW20659   2.427   3.235   7.863  0.1821 -0.0318  0.0590
 3009SOL    HW120660   2.478   3.161   7.897  4.3706  2.2942 -1.1405
 3009SOL    HW220661   2.362   3.218   7.931 -1.1376 -0.7953 -1.4208
 3010SOL     OW20662   4.016   0.137   5.594 -0.2039 -0.1674 -0.9662
 3010SOL    HW120663   4.058   0.216   5.558 -1.1032  0.7362 -0.0308
 3010SOL    HW220664   4.023   0.149   5.688 -0.0360 -0.3476 -0.9575
 3011SOL     OW20665   2.710   0.366   3.896 -0.4218 -0.0777 -0.0622
 3011SOL    HW120666   2.733   0.274   3.886 -1.4056 -0.3791  0.4757
 3011SOL    HW220667   2.640   0.377   3.831 -1.2503 -1.8051  0.5354
 3012SOL     OW20668   4.367   1.383   1.768  0.3728  0.0570 -0.3379
 3012SOL    HW120669   4.283   1.374   1.811  1.1335 -0.4865  1.0268
 3012SOL    HW220670   4.431   1.357   1.834  1.0938  0.7227 -0.7685
 3013SOL     OW20671   3.861   1.665   9.682 -0.2716 -0.1291  0.0586
 3013SOL    HW120672   3.872   1.671   9.587  0.5538 -1.3625  0.0680
 3013SOL    HW220673   3.887   1.573   9.695  0.7414  0.1359 -0.0303
 3014SOL     OW20674   3.509   1.389  17.130 -0.1019  0.0074 -0.4148
 3014SOL    HW120675   3.575   1.438  17.179  0.5863 -0.8574 -0.4795
 3014SOL    HW220676   3.429   1.428  17.166  1.0508  1.4367  0.6291
 3015SOL     OW20677   2.512   2.068   1.316 -0.0423  0.4164  0.6601
 3015SOL    HW120678   2.603   2.091   1.333  1.2296 -3.0064 -1.4183
 3015SOL    HW220679   2.519   1.972   1.323  1.4149  0.5755  1.2696
 3016SOL     OW20680   4.103   1.267   1.826  0.0427  0.3606  0.5999
 3016SOL    HW120681   4.018   1.309   1.836 -0.9864 -1.7993  0.7599
 3016SOL    HW220682   4.083   1.175   1.844 -1.3080  0.6473  0.5496
 3017SOL     OW20683   2.268   1.259   0.388  0.2700  0.0109  0.1706
 3017SOL    HW120684   2.214   1.284   0.313  1.0961  0.2106 -0.3457
 3017SOL    HW220685   2.204   1.207   0.438 -0.9644  0.3881 -1.0052
 3018SOL     OW20686   0.133   1.784  14.832 -0.2794  0.3895  0.6923
 3018SOL    HW120687   0.072   1.740  14.773  1.3887 -1.5828  0.4593
 3018SOL    HW220688   0.088   1.869  14.839 -3.5153 -1.2092 -0.9562
 3019SOL     OW20689   1.289   0.923  12.872 -0.2893  0.1442  0.4288
 3019SOL    HW120690   1.195   0.928  12.889  0.3846 -1.1402  4.5571
 3019SOL    HW220691   1.298   0.833  12.842  0.0630  0.7622 -1.2966
 3020SOL     OW20692   1.524   0.877   4.668 -0.2944 -0.0219 -0.8006
 3020SOL    HW120693   1.569   0.812   4.722 -0.7163 -0.5406 -1.0721
 3020SOL    HW220694   1.556   0.956   4.711  0.8786 -0.3310 -1.1040
 3021SOL     OW20695   0.496   1.648   8.679  0.0696  0.6758  0.0567
 3021SOL    HW120696   0.437   1.582   8.716  0.5762  0.1249 -0.1291
 3021SOL    HW220697   0.576   1.595   8.675 -0.2819  0.2916 -1.8948
 3022SOL     OW20698   2.133   4.128   6.961  0.0947  0.0148 -0.4760
 3022SOL    HW120699   2.079   4.122   7.040  0.0036  0.7912 -0.4734
 3022SOL    HW220700   2.073   4.146   6.889  1.5846 -0.4624 -1.8204
 3023SOL     OW20701   0.488   4.447  11.376 -0.1518  0.1182  0.1089
 3023SOL    HW120702   0.555   4.489  11.430  1.5468 -0.5646 -1.4966
 3023SOL    HW220703   0.500   4.483  11.289  2.0027 -0.8213  0.0198
 3024SOL     OW20704   4.402   4.673   8.863  0.4420  0.3276  0.2057
 3024SOL    HW120705   4.462   4.600   8.878  0.1024  0.4524  2.1177
 3024SOL    HW220706   4.319   4.633   8.891  0.5364  1.3724  1.9867
 3025SOL     OW20707   2.316   2.235   4.252 -0.0703  0.3202 -0.3791
 3025SOL    HW120708   2.400   2.265   4.217  0.5490  0.9896  1.6731
 3025SOL    HW220709   2.278   2.322   4.258  2.9929  1.4701  2.2525
 3026SOL     OW20710   1.225   2.479  16.238 -0.6824  0.1601  0.2327
 3026SOL    HW120711   1.309   2.505  16.201 -0.7819 -1.4857 -1.1410
 3026SOL    HW220712   1.238   2.532  16.317  1.0847  1.3072 -0.8449
 3027SOL     OW20713   2.731   3.064   0.624 -0.5064  0.3794  0.7157
 3027SOL    HW120714   2.778   3.036   0.545  3.1034 -1.0125  3.3794
 3027SOL    HW220715   2.802   3.063   0.688  0.2800  1.1422 -0.1366
 3028SOL     OW20716   4.594   2.653   2.637 -0.2223  0.7093 -0.3786
 3028SOL    HW120717   4.539   2.703   2.698 -0.0007  0.5478 -0.0425
 3028SOL    HW220718   4.671   2.708   2.631  0.1171  0.4389  1.2421
 3029SOL     OW20719   3.427   4.007  15.850 -0.1377  0.5658  0.0417
 3029SOL    HW120720   3.520   4.014  15.868  0.1991 -1.0752 -0.9996
 3029SOL    HW220721   3.399   4.098  15.841 -1.3126  0.3682  1.7965
 3030SOL     OW20722   3.657   4.308   3.194 -0.2416  0.1965  0.1229
 3030SOL    HW120723   3.736   4.359   3.207 -0.9112  1.6496 -1.4698
 3030SOL    HW220724   3.662   4.289   3.100  0.0521  1.1886 -0.0603
 3031SOL     OW20725   0.911   2.960   9.404 -0.0036  0.7018  0.2464
 3031SOL    HW120726   0.860   3.037   9.377  2.1623  1.2682 -2.2520
 3031SOL    HW220727   0.962   2.943   9.325  0.4339 -1.1277  0.9268
 3032SOL     OW20728   0.168   4.302   3.729  0.3829  0.3083 -0.3600
 3032SOL    HW120729   0.137   4.212   3.737 -1.6704  1.0928  0.4556
 3032SOL    HW220730   0.127   4.326   3.646  0.4786 -0.6071 -0.6735
 3033SOL     OW20731   1.404   3.289  15.565 -0.2045 -0.0937  0.0640
 3033SOL    HW120732   1.410   3.256  15.476 -0.3402  0.0772 -0.0079
 3033SOL    HW220733   1.324   3.245  15.595 -1.3638  0.3125 -2.4941
 3034SOL     OW20734   3.437   4.184   5.186  0.2006  0.2676 -0.0606
 3034SOL    HW120735   3.433   4.168   5.092 -1.5384 -2.0715  0.4111
 3034SOL    HW220736   3.505   4.250   5.174  2.5304 -2.2352 -0.7045
 3035SOL     OW20737   4.189   1.685   7.983  0.2394 -0.5710  0.4274
 3035SOL    HW120738   4.164   1.710   8.072  0.1883 -0.3396  0.3465
 3035SOL    HW220739   4.136   1.607   7.967  2.7934 -2.5461  1.5355
 3036SOL     OW20740   1.718   4.512  12.365 -0.5527  0.0596 -0.3421
 3036SOL    HW120741   1.778   4.473  12.300 -1.6734 -2.9718  0.4168
 3036SOL    HW220742   1.646   4.452  12.345  1.0617 -1.3708 -2.0330
 3037SOL     OW20743   2.684   0.910   8.326  0.3484  0.3769 -0.0835
 3037SOL    HW120744   2.745   0.837   8.314  0.2939  0.2270  0.5604
 3037SOL    HW220745   2.673   0.911   8.421 -0.6798  0.1582 -0.1993
 3038SOL     OW20746   0.196   4.067  15.197 -0.3497  0.0219  0.4249
 3038SOL    HW120747   0.258   4.100  15.132  0.1714  0.4095  1.1186
 3038SOL    HW220748   0.111   4.057  15.155 -0.4463  2.9272 -0.0561
 3039SOL     OW20749   0.143   3.070   6.641  0.2387 -0.1798 -0.0310
 3039SOL    HW120750   0.120   3.133   6.573 -0.2397  0.4581  0.7121
 3039SOL    HW220751   0.169   3.128   6.713  0.5423  1.2609 -1.3071
 3040SOL     OW20752   3.104   0.189   6.761  0.0932  0.1968  0.3838
 3040SOL    HW120753   3.024   0.206   6.810  0.7221 -0.7140  1.7179
 3040SOL    HW220754   3.115   0.097   6.786  1.3282  0.2032 -0.1068
 3041SOL     OW20755   1.564   2.018   4.498  0.6782 -0.1895  0.0220
 3041SOL    HW120756   1.496   1.997   4.435  2.0384 -3.4806 -0.3469
 3041SOL    HW220757   1.638   1.984   4.448  1.1563 -1.0700  1.3192
 3042SOL     OW20758   2.099   0.489   7.091  0.4467 -0.3026  0.2574
 3042SOL    HW120759   2.069   0.487   7.000  0.4871  0.2927  0.2359
 3042SOL    HW220760   2.172   0.427   7.094  2.2734  1.8703  0.1890
 3043SOL     OW20761   4.135   1.835  13.674 -0.1823  0.3679  0.1329
 3043SOL    HW120762   4.203   1.844  13.607 -0.8965 -1.5702 -0.8592
 3043SOL    HW220763   4.095   1.751  13.650 -0.6317  0.2603  1.2496
 3044SOL     OW20764   4.294   2.427  15.478 -0.2762 -0.3232  0.3652
 3044SOL    HW120765   4.238   2.476  15.540  0.9981  1.9143 -0.2696
 3044SOL    HW220766   4.378   2.464  15.504 -0.2883 -0.7376  1.0138
 3045SOL     OW20767   2.081   2.534   5.785  0.0878  0.0292 -0.3566
 3045SOL    HW120768   2.115   2.513   5.872  0.1726 -0.4625 -0.5058
 3045SOL    HW220769   2.157   2.543   5.727  0.3556  0.0832  0.0059
 3046SOL     OW20770   0.187   0.623   8.385 -0.6391  0.0761 -0.3199
 3046SOL    HW120771   0.107   0.600   8.431 -0.5456 -0.8057 -0.5974
 3046SOL    HW220772   0.173   0.589   8.296 -0.4257  1.8887 -1.0411
 3047SOL     OW20773   0.906   2.399  12.235 -0.0424  0.0092 -0.2270
 3047SOL    HW120774   0.821   2.436  12.213 -0.3352 -0.7703 -0.4222
 3047SOL    HW220775   0.967   2.470  12.215 -0.2038  0.2240  0.0526
 3048SOL     OW20776   2.957   1.947   9.223  0.2550 -0.3823  0.0317
 3048SOL    HW120777   2.951   1.994   9.139 -0.3713  0.1253  0.3594
 3048SOL    HW220778   2.888   1.880   9.216 -1.8566  1.7212  0.9444
 3049SOL     OW20779   0.913   0.398   4.690  0.4559  0.3280 -0.6280
 3049SOL    HW120780   0.902   0.356   4.776  0.8633 -0.1060 -0.7892
 3049SOL    HW220781   0.842   0.357   4.639  0.6510  1.1523 -1.5458
 3050SOL     OW20782   2.778   0.761   7.493  0.3176  0.6144 -0.2771
 3050SOL    HW120783   2.866   0.769   7.458 -0.4833 -1.2024 -2.7230
 3050SOL    HW220784   2.799   0.696   7.561 -0.0839 -1.5606 -2.2104
 3051SOL     OW20785   4.465   4.383   2.158 -0.3798  0.5860  0.5663
 3051SOL    HW120786   4.476   4.317   2.227  0.4369 -1.4885 -1.5573
 3051SOL    HW220787   4.398   4.358   2.095  2.0133  2.0683 -2.5895
 3052SOL     OW20788   1.263   2.857  10.476  0.7336 -0.1684 -0.1859
 3052SOL    HW120789   1.228   2.915  10.409  0.5519 -0.8470 -0.6765
 3052SOL    HW220790   1.334   2.908  10.516 -0.7080  1.2383  0.5789
 3053SOL     OW20791   0.453   1.230  12.469  0.0067  0.2279  0.1463
 3053SOL    HW120792   0.504   1.298  12.424  2.6777 -3.0245 -1.7912
 3053SOL    HW220793   0.466   1.157  12.408  0.6426 -0.7930  1.5188
 3054SOL     OW20794   0.592   0.338   2.570 -0.2464  0.4063 -0.4253
 3054SOL    HW120795   0.688   0.341   2.567 -0.1705  0.6077  1.9276
 3054SOL    HW220796   0.566   0.345   2.479 -0.1804 -1.2602 -0.5788
 3055SOL     OW20797   4.271   3.520   3.732 -0.1412 -0.3835 -0.2099
 3055SOL    HW120798   4.306   3.445   3.685  1.0125 -0.0775  0.1653
 3055SOL    HW220799   4.212   3.476   3.793  1.8567 -1.5685  0.8700
 3056SOL     OW20800   1.281   0.699   4.242  0.0797 -0.0800  0.0036
 3056SOL    HW120801   1.309   0.619   4.286  0.8435 -0.2857 -0.8317
 3056SOL    HW220802   1.195   0.708   4.281  0.8333  1.1601  1.3623
 3057SOL     OW20803   0.032   2.742   9.825  0.1139  0.2091 -0.1633
 3057SOL    HW120804   4.706   2.794   9.781  0.6165 -1.2017 -2.6179
 3057SOL    HW220805   4.710   2.699   9.881  0.8121 -0.2705  0.2537
 3058SOL     OW20806   4.065   2.381   5.062  0.6903  0.0740  0.3496
 3058SOL    HW120807   4.083   2.288   5.072  0.4059 -0.0340 -0.1477
 3058SOL    HW220808   3.993   2.377   4.999 -0.5868  1.0096  1.7296
 3059SOL     OW20809   1.435   4.290   2.210  0.1221  0.3787  0.0572
 3059SOL    HW120810   1.381   4.339   2.273 -1.2341  0.7138 -1.3485
 3059SOL    HW220811   1.520   4.284   2.252  0.1584 -2.8687 -0.4622
 3060SOL     OW20812   4.154   2.171   2.662  0.0169 -0.2117 -0.0653
 3060SOL    HW120813   4.100   2.240   2.702 -1.6207 -0.8192 -1.2435
 3060SOL    HW220814   4.229   2.223   2.633  0.1880  0.9075  2.3948
 3061SOL     OW20815   2.394   3.722  17.009  0.3080 -0.0268 -0.1971
 3061SOL    HW120816   2.482   3.688  16.994 -0.1758 -1.8229  1.1396
 3061SOL    HW220817   2.378   3.683  17.095  0.7171  1.0865  0.3788
 3062SOL     OW20818   2.040   3.735  15.158  0.6652 -0.2250 -0.1874
 3062SOL    HW120819   1.947   3.740  15.183  0.2836 -1.0515 -1.4417
 3062SOL    HW220820   2.021   3.769  15.071 -0.9945 -2.7150 -0.7951
 3063SOL     OW20821   0.214   1.137   6.514  0.2264 -0.0209 -0.6760
 3063SOL    HW120822   0.285   1.175   6.565  0.3846  0.3010 -1.1352
 3063SOL    HW220823   0.241   1.151   6.423  0.8571 -1.4528 -0.7086
 3064SOL     OW20824   0.750   0.172   8.250  0.6540  0.1356 -0.1823
 3064SOL    HW120825   0.762   0.077   8.250  0.7618  0.1442  2.1014
 3064SOL    HW220826   0.813   0.198   8.317 -0.3842 -1.9190  1.5661
 3065SOL     OW20827   0.804   4.427   8.487 -0.0897  0.2227 -0.1455
 3065SOL    HW120828   0.842   4.459   8.405 -0.3154 -0.4211 -0.4976
 3065SOL    HW220829   0.861   4.355   8.512  1.8974  1.6778 -0.4615
 3066SOL     OW20830   0.600   0.875   2.288  0.1281 -0.0185  0.0485
 3066SOL    HW120831   0.689   0.900   2.262 -0.2017  1.7366  0.6139
 3066SOL    HW220832   0.551   0.954   2.264 -0.1464  0.2805  1.5640
 3067SOL     OW20833   0.979   3.551   5.331 -0.0411  0.1492 -0.8090
 3067SOL    HW120834   0.928   3.589   5.260 -1.0043 -1.2440 -0.8706
 3067SOL    HW220835   1.068   3.562   5.297  0.4006 -0.1839  0.2163
 3068SOL     OW20836   1.667   4.266   9.877 -0.4048  0.7153  0.3253
 3068SOL    HW120837   1.578   4.302   9.885 -1.6012 -2.3558  0.7474
 3068SOL    HW220838   1.661   4.191   9.936  3.4540  0.5211  0.4895
 3069SOL     OW20839   2.209   4.711   3.010  0.3220 -0.0824 -0.1938
 3069SOL    HW120840   2.128   0.020   3.020  0.6140  0.8087 -2.1746
 3069SOL    HW220841   2.260   0.049   2.993 -0.9240  0.7060 -0.3157
 3070SOL     OW20842   4.381   0.728  15.007 -0.1294  0.0517 -0.0544
 3070SOL    HW120843   4.473   0.733  15.032 -0.1635  1.3774 -0.1526
 3070SOL    HW220844   4.350   0.816  15.031 -2.7078 -1.6030  2.6447
 3071SOL     OW20845   3.756   0.540   3.897 -0.6286 -0.2212  0.2462
 3071SOL    HW120846   3.725   0.463   3.850  1.6392 -0.7613 -0.3515
 3071SOL    HW220847   3.681   0.561   3.953  0.2806  1.1223  0.9757
 3072SOL     OW20848   3.454   0.955  11.892 -0.2396  0.8070  0.0267
 3072SOL    HW120849   3.450   1.047  11.866 -1.6289  1.0740  1.1341
 3072SOL    HW220850   3.393   0.919  11.827 -0.4106 -0.2509  0.7631
 3073SOL     OW20851   2.760   4.261   8.314  0.4663 -0.5823  0.4243
 3073SOL    HW120852   2.686   4.266   8.253 -0.5865 -0.3594  1.6948
 3073SOL    HW220853   2.716   4.241   8.397  0.0573  1.8459  0.7941
 3074SOL     OW20854   1.075   2.882   1.780  0.4238  0.1204 -0.5690
 3074SOL    HW120855   1.007   2.877   1.713  0.5357  0.0848 -0.6804
 3074SOL    HW220856   1.066   2.809   1.841  1.9631 -1.5528 -2.3493
 3075SOL     OW20857   1.143   0.634   3.690  0.4138  0.3263 -0.1168
 3075SOL    HW120858   1.185   0.674   3.767 -1.1296  0.6479  0.5440
 3075SOL    HW220859   1.114   0.712   3.643 -0.9728 -0.8760 -1.2551
 3076SOL     OW20860   2.719   2.601   8.032  0.1967  0.0246 -0.0658
 3076SOL    HW120861   2.740   2.536   8.099  2.0300  1.3744  0.6597
 3076SOL    HW220862   2.805   2.626   8.000 -0.2326  1.1684 -0.3447
 3077SOL     OW20863   4.063   3.152   4.123 -0.4966  0.0534 -0.5467
 3077SOL    HW120864   4.098   3.106   4.047  2.1160  1.7581 -0.3543
 3077SOL    HW220865   4.136   3.205   4.154  0.0841 -0.9090 -0.2855
 3078SOL     OW20866   3.015   1.798   3.979 -0.1746 -0.5843  0.0574
 3078SOL    HW120867   3.053   1.715   4.008 -0.8444 -1.3883 -1.3868
 3078SOL    HW220868   2.937   1.771   3.931 -1.5909  0.9113  1.5369
 3079SOL     OW20869   0.621   2.416   4.607  0.0552 -0.0273  0.1535
 3079SOL    HW120870   0.672   2.338   4.583 -1.4469 -1.4891  1.7841
 3079SOL    HW220871   0.539   2.370   4.623  0.7768 -1.6143 -0.6356
 3080SOL     OW20872   4.570   2.629   6.348  0.4604 -0.4624  0.0068
 3080SOL    HW120873   4.645   2.571   6.336  1.2236  0.3501  0.8747
 3080SOL    HW220874   4.532   2.637   6.261  0.8667  0.6188 -0.0622
 3081SOL     OW20875   1.463   4.436   5.327  0.6484 -0.0054  0.1343
 3081SOL    HW120876   1.444   4.505   5.391  1.4669  0.6684 -0.3440
 3081SOL    HW220877   1.550   4.464   5.300  0.3846 -0.1253 -0.8583
 3082SOL     OW20878   1.388   4.384   7.040 -0.2639 -0.6031 -0.3738
 3082SOL    HW120879   1.351   4.416   6.958 -2.3248  0.6918  1.0523
 3082SOL    HW220880   1.349   4.443   7.104  0.3896 -0.1260 -0.4159
 3083SOL     OW20881   0.497   2.152   6.697  0.3706 -0.3977  0.0363
 3083SOL    HW120882   0.405   2.176   6.685 -0.1339 -2.9449 -1.1911
 3083SOL    HW220883   0.518   2.099   6.619  1.5951 -0.2974  0.3008
 3084SOL     OW20884   2.165   1.311   2.130 -0.0677 -0.1655 -0.0989
 3084SOL    HW120885   2.085   1.363   2.126 -0.3147 -0.7797 -2.9966
 3084SOL    HW220886   2.222   1.388   2.128 -1.4235  0.8135 -0.5012
 3085SOL     OW20887   0.219   4.257   4.578 -0.3794 -0.3184  0.4754
 3085SOL    HW120888   0.167   4.183   4.546 -1.9575  1.1882 -0.3834
 3085SOL    HW220889   0.285   4.207   4.627  1.2699 -0.2504 -1.6456
 3086SOL     OW20890   0.955   0.983   2.456 -0.2276 -0.4454  0.0113
 3086SOL    HW120891   0.982   1.040   2.528  0.3194 -0.7423  0.0452
 3086SOL    HW220892   0.883   1.027   2.411  0.2826 -0.1936 -0.5672
 3087SOL     OW20893   0.581   1.035   6.112 -0.8961 -0.5000 -1.1409
 3087SOL    HW120894   0.644   0.977   6.154 -1.5987  0.5760  1.3867
 3087SOL    HW220895   0.541   1.057   6.196  0.5838  0.5180 -0.6939
 3088SOL     OW20896   4.660   2.785   7.073 -0.3037 -0.0293  0.2154
 3088SOL    HW120897   4.720   2.721   7.034 -0.3591  2.0616 -3.2730
 3088SOL    HW220898   4.676   2.847   7.002 -0.1319  1.9605  1.9856
 3089SOL     OW20899   4.603   1.583   7.735 -0.0837 -0.3263 -0.3017
 3089SOL    HW120900   4.593   1.674   7.707 -1.5322 -0.4974 -0.3452
 3089SOL    HW220901   4.525   1.568   7.790  1.2242 -0.8961  1.4037
 3090SOL     OW20902   4.639   1.500   4.571 -0.8849  0.5600 -0.1836
 3090SOL    HW120903   4.589   1.450   4.507  1.3193 -0.2265 -1.2866
 3090SOL    HW220904   4.699   1.435   4.608  0.3481  2.0253  0.3847
 3091SOL     OW20905   4.081   4.648   9.454  0.1716 -0.0719 -0.3602
 3091SOL    HW120906   3.986   4.638   9.452  0.0970  0.8317 -1.6327
 3091SOL    HW220907   4.098   4.569   9.505  1.4258  0.2382 -0.2972
 3092SOL     OW20908   3.866   2.086   6.477  0.3961 -0.5201 -0.0202
 3092SOL    HW120909   3.836   1.995   6.482 -0.0882 -0.4182 -1.0233
 3092SOL    HW220910   3.874   2.099   6.382 -1.4952 -0.4986 -0.1630
 3093SOL     OW20911   1.789   1.322   3.338  0.1021  0.6781  0.2386
 3093SOL    HW120912   1.737   1.372   3.400  0.8306  1.4881  0.1873
 3093SOL    HW220913   1.854   1.386   3.309  2.1608 -1.1102  0.8581
 3094SOL     OW20914   3.831   0.740  15.032 -0.1052  0.1043  0.1114
 3094SOL    HW120915   3.771   0.801  15.074 -0.5415 -0.9964  1.1025
 3094SOL    HW220916   3.915   0.780  15.053 -0.4815  1.6299 -1.3416
 3095SOL     OW20917   3.484   1.105   3.818  0.2464  1.0651  0.4396
 3095SOL    HW120918   3.437   1.032   3.859  0.7894  1.4007  1.6730
 3095SOL    HW220919   3.526   1.069   3.740 -0.0814 -0.5692  1.0243
 3096SOL     OW20920   1.315   3.813   3.188 -0.1877 -0.2656 -0.2438
 3096SOL    HW120921   1.277   3.833   3.273  3.4809 -3.4468  2.1280
 3096SOL    HW220922   1.262   3.736   3.166 -1.4557  0.9026 -1.2530
 3097SOL     OW20923   1.187   3.140   3.223 -0.3760 -0.4208  0.0971
 3097SOL    HW120924   1.143   3.056   3.209  3.3012 -2.2926 -0.0463
 3097SOL    HW220925   1.203   3.170   3.133 -0.6768 -1.4173 -0.2957
 3098SOL     OW20926   0.753   1.244  16.255 -0.3787 -0.2428 -0.0215
 3098SOL    HW120927   0.835   1.275  16.218 -0.4073 -0.1353  0.0075
 3098SOL    HW220928   0.687   1.291  16.204  0.6404 -0.1175 -1.2291
 3099SOL     OW20929   3.131   4.213   6.756  0.4941 -0.0834 -0.6764
 3099SOL    HW120930   3.194   4.265   6.806  0.5220  1.1538 -1.9786
 3099SOL    HW220931   3.181   4.140   6.721 -3.7913 -2.3627 -1.9800
 3100SOL     OW20932   2.080   1.258   1.025  0.3644 -0.6933  0.0513
 3100SOL    HW120933   2.050   1.168   1.038  0.3597 -0.9728 -1.9515
 3100SOL    HW220934   2.113   1.246   0.936  1.3287 -2.8082  0.6742
 3101SOL     OW20935   0.975   2.430   6.137  0.3914  0.4546 -0.3249
 3101SOL    HW120936   0.888   2.393   6.124  1.0915 -0.9511 -0.9580
 3101SOL    HW220937   1.034   2.356   6.149 -0.2371 -0.2596 -1.6702
 3102SOL     OW20938   0.796   4.335   4.621  0.1616  0.1013  0.2547
 3102SOL    HW120939   0.732   4.342   4.550  1.3917  0.5170 -0.8168
 3102SOL    HW220940   0.865   4.292   4.570 -0.2198 -1.9935  1.5086
 3103SOL     OW20941   0.708   4.485  10.566 -0.1463  0.2413  0.1737
 3103SOL    HW120942   0.631   4.512  10.616  1.6247 -1.4094  3.7970
 3103SOL    HW220943   0.737   4.575  10.550 -0.3139 -0.0783 -1.9347
 3104SOL     OW20944   0.733   3.960   6.699  0.5044  0.7953 -0.2258
 3104SOL    HW120945   0.783   3.949   6.781  0.7744 -0.8672 -0.6109
 3104SOL    HW220946   0.686   4.039   6.724 -1.4158 -0.2300 -0.5444
 3105SOL     OW20947   0.241   0.880   8.453  0.0617 -0.5286 -0.1779
 3105SOL    HW120948   0.207   0.798   8.418  0.9823 -2.0751  2.5501
 3105SOL    HW220949   0.167   0.940   8.448  1.0196  0.7371  0.8746
 3106SOL     OW20950   3.260   3.090  11.908 -0.3761  0.3941 -0.1038
 3106SOL    HW120951   3.282   3.079  11.816  2.2241 -0.6130  0.6336
 3106SOL    HW220952   3.290   3.007  11.945 -1.2378  0.7103  1.2968
 3107SOL     OW20953   3.797   2.938   3.878  0.1192 -0.0855 -0.1678
 3107SOL    HW120954   3.874   2.910   3.830  0.1245  0.4535 -0.4786
 3107SOL    HW220955   3.744   2.860   3.895  2.2247 -1.0691  1.7342
 3108SOL     OW20956   0.832   4.409  16.254  0.0443 -0.7343  0.1307
 3108SOL    HW120957   0.909   4.382  16.205 -0.1546  1.2544 -1.2739
 3108SOL    HW220958   0.861   4.471  16.321 -1.3428  1.9323 -1.7083
 3109SOL     OW20959   4.580   1.858   7.735  1.7306 -0.1204 -0.4437
 3109SOL    HW120960   4.622   1.926   7.683 -0.0775  1.7168  0.5105
 3109SOL    HW220961   4.581   1.901   7.820  0.0195  0.6094 -0.8014
 3110SOL     OW20962   0.904   2.686  12.602  0.4809 -0.0979 -0.1149
 3110SOL    HW120963   0.952   2.753  12.651 -0.8884  1.4397 -0.8384
 3110SOL    HW220964   0.974   2.632  12.565  0.6800 -0.1935  0.4038
 3111SOL     OW20965   1.693   0.186   0.158 -0.1674  0.4316 -0.1808
 3111SOL    HW120966   1.640   0.197   0.079  1.2380 -1.2479 -1.3489
 3111SOL    HW220967   1.780   0.179   0.119 -0.6857 -0.9933 -1.0875
 3112SOL     OW20968   3.921   4.508   4.074 -0.2376  0.1070  0.2287
 3112SOL    HW120969   3.834   4.544   4.091 -1.4368 -0.9428 -3.6351
 3112SOL    HW220970   3.898   4.447   4.004 -0.0104  0.3177 -0.0287
 3113SOL     OW20971   0.026   3.125   3.308  0.2198 -0.3328  0.3578
 3113SOL    HW120972   4.701   3.109   3.240  0.8188 -1.8778  0.1408
 3113SOL    HW220973   0.050   3.215   3.289  1.6314 -0.1595  3.0153
 3114SOL     OW20974   1.295   4.308   2.463 -0.0049 -0.1116 -0.1784
 3114SOL    HW120975   1.288   4.213   2.473 -0.1050 -0.2737 -1.8002
 3114SOL    HW220976   1.385   4.326   2.490 -0.0162  1.1931 -0.9960
 3115SOL     OW20977   0.050   2.507   4.798 -0.1112  0.5019 -0.3908
 3115SOL    HW120978   0.077   2.492   4.889 -2.1198  1.2846  0.3352
 3115SOL    HW220979   4.706   2.544   4.821 -1.0108 -0.8496 -1.5248
 3116SOL     OW20980   3.477   1.854   3.549  0.3765  0.3159 -0.3850
 3116SOL    HW120981   3.437   1.935   3.580  3.0393  0.9322  1.4601
 3116SOL    HW220982   3.508   1.882   3.463 -0.1282 -0.6601 -0.8797
 3117SOL     OW20983   4.113   2.524   2.047 -0.9039  0.0321  0.3257
 3117SOL    HW120984   4.047   2.485   1.990 -0.2549  0.3879 -0.6745
 3117SOL    HW220985   4.078   2.496   2.131  0.1965 -0.8868  0.4843
 3118SOL     OW20986   1.556   0.061  13.027 -0.2862 -0.3481  0.3458
 3118SOL    HW120987   1.599   0.140  12.995  0.7404 -0.4689  1.4362
 3118SOL    HW220988   1.612   4.740  12.980  1.0407 -0.4691  2.1028
 3119SOL     OW20989   2.566   0.426  15.503 -0.0681 -0.5690 -0.0107
 3119SOL    HW120990   2.518   0.400  15.424  1.5126  0.4933 -1.3358
 3119SOL    HW220991   2.491   0.459  15.551  0.6103 -0.5000  0.9944
 3120SOL     OW20992   1.792   2.585   2.431 -0.5983  0.4659  0.4803
 3120SOL    HW120993   1.825   2.501   2.463 -0.8966 -0.5998 -1.9788
 3120SOL    HW220994   1.737   2.606   2.506 -2.4220 -3.2127  0.1446
 3121SOL     OW20995   3.256   2.588   2.608 -0.4319 -0.1413 -0.1592
 3121SOL    HW120996   3.288   2.671   2.642 -0.8304  0.0521 -0.2567
 3121SOL    HW220997   3.271   2.590   2.513 -0.4144  2.1315 -0.1055
 3122SOL     OW20998   3.327   2.781  17.699  0.0891  0.5561 -0.3554
 3122SOL    HW120999   3.294   2.748  17.616  1.8295  0.6593 -1.0956
 3122SOL    HW221000   3.413   2.816  17.675  0.3688 -0.3530 -0.6709
 3123SOL     OW21001   1.201   0.535   6.286  0.5287  0.0720  0.1887
 3123SOL    HW121002   1.137   0.481   6.240  2.4055 -1.8136 -0.1921
 3123SOL    HW221003   1.146   0.614   6.279  2.6786  1.4094 -1.5056
 3124SOL     OW21004   4.292   0.146   1.123  0.3464 -0.3782 -0.2803
 3124SOL    HW121005   4.219   0.135   1.062  1.4805 -1.3463 -1.4575
 3124SOL    HW221006   4.247   0.164   1.205 -1.3765  1.4782 -1.6354
 3125SOL     OW21007   0.202   0.693   2.379  0.1438  0.7218 -0.0730
 3125SOL    HW121008   0.134   0.693   2.312  0.8038  2.8424 -0.7200
 3125SOL    HW221009   0.276   0.690   2.318  0.1027  0.8565 -0.1294
 3126SOL     OW21010   3.796   1.223   7.677  0.3542 -0.2620  0.2917
 3126SOL    HW121011   3.732   1.155   7.658 -0.4341  1.0912 -1.8926
 3126SOL    HW221012   3.831   1.192   7.761  0.0799 -1.4758 -0.0313
 3127SOL     OW21013   2.250   1.519  10.668  0.3925  0.1558  0.0888
 3127SOL    HW121014   2.222   1.560  10.749 -1.7756 -0.3090 -0.4173
 3127SOL    HW221015   2.341   1.508  10.693  0.4309 -2.8188 -1.2962
 3128SOL     OW21016   3.423   3.651   5.695  0.2268 -0.2103  0.1281
 3128SOL    HW121017   3.371   3.601   5.632  0.1996 -0.7526  0.5850
 3128SOL    HW221018   3.471   3.704   5.631 -0.4298  0.8425  0.5063
 3129SOL     OW21019   0.621   2.726   7.634  0.0584 -0.1063 -0.8872
 3129SOL    HW121020   0.686   2.770   7.688 -1.0926  1.1437 -0.5008
 3129SOL    HW221021   0.673   2.716   7.554  0.7016 -0.3469 -0.4376
 3130SOL     OW21022   0.616   3.480   3.069  0.0964 -0.3378  0.6452
 3130SOL    HW121023   0.636   3.394   3.033 -0.3253  0.4549 -1.4791
 3130SOL    HW221024   0.542   3.462   3.127 -0.2977  0.4849  0.3970
 3131SOL     OW21025   2.226   2.108  16.850 -0.3444 -0.1781  0.3273
 3131SOL    HW121026   2.251   2.019  16.825  1.7080  0.8167 -1.1400
 3131SOL    HW221027   2.178   2.143  16.775 -1.0540  2.1859  1.8788
 3132SOL     OW21028   1.526   0.492   7.270 -0.0132  1.0856  0.3558
 3132SOL    HW121029   1.468   0.498   7.194  0.8559 -1.9951 -0.5316
 3132SOL    HW221030   1.614   0.510   7.236  1.5283 -0.1863  3.6843
 3133SOL     OW21031   2.900   2.163   9.839  0.0516 -0.1889 -0.1834
 3133SOL    HW121032   2.911   2.097   9.770 -2.1744 -2.1099  1.2911
 3133SOL    HW221033   2.989   2.198   9.843  0.0203 -0.2352  0.9003
 3134SOL     OW21034   1.328   1.384   5.281 -0.0534 -0.0329 -0.0585
 3134SOL    HW121035   1.238   1.384   5.314 -0.5078 -0.2718 -1.3017
 3134SOL    HW221036   1.334   1.290   5.264  0.9869  0.3079 -1.6208
 3135SOL     OW21037   3.319   2.076  16.969 -0.1141 -0.4081 -0.2016
 3135SOL    HW121038   3.374   2.119  16.903  1.9504 -1.5138  0.7786
 3135SOL    HW221039   3.234   2.093  16.929 -1.1125 -1.2670  1.6053
 3136SOL     OW21040   3.795   1.807   8.092 -0.4484 -0.2646  0.2533
 3136SOL    HW121041   3.848   1.744   8.140  1.6881 -0.2304 -2.0818
 3136SOL    HW221042   3.806   1.787   7.999  0.0515  0.3991  0.1705
 3137SOL     OW21043   0.350   0.232  11.622  0.1023 -0.1936 -0.1615
 3137SOL    HW121044   0.298   0.154  11.604 -0.9214  0.6039 -0.6804
 3137SOL    HW221045   0.300   0.298  11.574  0.3474 -0.1487 -0.3553
 3138SOL     OW21046   3.865   4.720   0.196  0.1671 -0.4293 -0.0202
 3138SOL    HW121047   3.938   0.015   0.146 -1.9508  2.1651 -1.2625
 3138SOL    HW221048   3.912   4.646   0.235  1.5171  0.0086 -0.7959
 3139SOL     OW21049   3.694   1.168  14.091 -0.4268  0.1172 -0.4136
 3139SOL    HW121050   3.787   1.147  14.090 -0.8233 -1.6253 -1.0942
 3139SOL    HW221051   3.669   1.077  14.077 -0.3553 -0.4486  3.1098
 3140SOL     OW21052   1.844   4.138   9.724  0.2103 -0.7670 -0.1778
 3140SOL    HW121053   1.900   4.193   9.669 -0.4692  0.3408  0.2411
 3140SOL    HW221054   1.798   4.190   9.790  0.5884  0.2917 -0.7407
 3141SOL     OW21055   3.232   3.634  13.114  0.0906 -0.1874  0.1734
 3141SOL    HW121056   3.309   3.641  13.058 -1.5811  1.3121 -1.9535
 3141SOL    HW221057   3.252   3.702  13.178 -0.8153  0.0607  0.1956
 3142SOL     OW21058   3.961   2.693   8.282  0.3876 -0.2719  0.1169
 3142SOL    HW121059   3.990   2.663   8.196 -1.4524  1.9587 -1.2787
 3142SOL    HW221060   4.015   2.652   8.350 -2.2202 -0.9423  1.7907
 3143SOL     OW21061   2.198   2.975  15.775 -0.0883 -0.2134  0.1629
 3143SOL    HW121062   2.189   2.907  15.709 -1.2348  1.2755 -1.2267
 3143SOL    HW221063   2.113   2.962  15.817  0.4271 -0.8104  1.0167
 3144SOL     OW21064   4.671   1.772   4.613  0.0837 -0.1815  0.3089
 3144SOL    HW121065   4.725   1.773   4.692  1.9359 -0.4440 -0.9514
 3144SOL    HW221066   4.652   1.679   4.605  0.5135 -0.3375  1.1201
 3145SOL     OW21067   2.541   0.124   4.253 -0.5079  0.3304  0.0621
 3145SOL    HW121068   2.488   0.096   4.327  1.6774 -0.1583  1.4244
 3145SOL    HW221069   2.622   0.149   4.297 -0.7360  2.6756 -0.8247
 3146SOL     OW21070   1.881   0.863   1.509  0.7438  0.1520  0.2692
 3146SOL    HW121071   1.824   0.898   1.578  0.0887 -1.7542  0.6848
 3146SOL    HW221072   1.843   0.896   1.428  2.4881 -0.2726 -0.7265
 3147SOL     OW21073   2.882   2.650   6.522  0.3134  0.2350 -0.1646
 3147SOL    HW121074   2.956   2.595   6.497  1.2446  0.1067  2.9421
 3147SOL    HW221075   2.820   2.578   6.536 -0.7530  0.8745 -1.5544
 3148SOL     OW21076   1.045   2.894  17.102  0.1634  0.0523  0.0936
 3148SOL    HW121077   0.954   2.919  17.119  0.2358 -0.4269  1.1624
 3148SOL    HW221078   1.050   2.928  17.012 -1.4935 -0.2178 -0.1002
 3149SOL     OW21079   1.325   2.327   3.546  0.1898  0.4514 -0.4140
 3149SOL    HW121080   1.283   2.409   3.572  1.4854  0.4045  1.8921
 3149SOL    HW221081   1.405   2.370   3.516  0.5179  0.7259  0.8520
 3150SOL     OW21082   1.568   4.344  12.181 -0.0065  0.1506  0.4871
 3150SOL    HW121083   1.498   4.282  12.198 -1.4169  1.1773 -1.6145
 3150SOL    HW221084   1.594   4.325  12.091 -1.5813 -1.0367  0.2849
 3151SOL     OW21085   2.418   0.346   7.288 -0.2739 -0.3795  0.0611
 3151SOL    HW121086   2.485   0.386   7.342  0.9087 -0.4628 -1.3497
 3151SOL    HW221087   2.377   0.287   7.351 -0.5911 -0.2551 -0.0259
 3152SOL     OW21088   3.870   4.213   3.873 -0.2142  0.4434  0.5487
 3152SOL    HW121089   3.947   4.210   3.931  1.1627 -0.5513 -1.3372
 3152SOL    HW221090   3.852   4.119   3.865  0.1013  0.1916  2.7873
 3153SOL     OW21091   4.682   4.317   9.891 -0.6520  0.0440  0.0148
 3153SOL    HW121092   0.004   4.250   9.868  1.1365  0.1033  4.6433
 3153SOL    HW221093   4.728   4.364   9.961 -0.5023 -0.7208  0.4274
 3154SOL     OW21094   4.243   2.885   4.565  0.1556  0.4736  0.0009
 3154SOL    HW121095   4.227   2.807   4.511  1.0238 -0.1904  0.6928
 3154SOL    HW221096   4.169   2.869   4.623  0.8435  0.7943  0.9697
 3155SOL     OW21097   0.949   3.267  16.418 -0.5889  0.1746 -0.2023
 3155SOL    HW121098   0.882   3.301  16.359  1.6105  1.5606 -1.9024
 3155SOL    HW221099   0.966   3.355  16.453  0.0252 -0.9118  2.2314
 3156SOL     OW21100   3.625   2.948   3.330  0.3503  0.3489 -0.4096
 3156SOL    HW121101   3.635   3.033   3.373 -0.1023  1.4731 -2.4861
 3156SOL    HW221102   3.646   2.970   3.239  2.3492  1.6775  0.3825
 3157SOL     OW21103   3.018   0.358  13.397  0.5786 -0.0112  0.1170
 3157SOL    HW121104   3.062   0.299  13.335 -0.5687 -1.1980  0.4372
 3157SOL    HW221105   3.086   0.374  13.462  0.0540  1.4056  0.3077
 3158SOL     OW21106   2.783   1.853   8.452 -0.4528 -0.6017  0.6455
 3158SOL    HW121107   2.694   1.888   8.442  0.8334  2.2911 -0.6813
 3158SOL    HW221108   2.825   1.896   8.377 -1.6494 -1.9230 -0.7650
 3159SOL     OW21109   3.716   0.905   0.942 -0.3156 -0.5084  0.3996
 3159SOL    HW121110   3.626   0.894   0.974 -1.4733  0.7925 -2.4113
 3159SOL    HW221111   3.715   0.908   0.846  1.2217 -0.2172  0.3918
 3160SOL     OW21112   3.664   1.030   6.163 -0.7190 -0.5225 -0.6333
 3160SOL    HW121113   3.634   0.975   6.091 -2.2159 -1.7827  0.9564
 3160SOL    HW221114   3.701   1.110   6.124 -1.4353  0.1869  0.1370
 3161SOL     OW21115   0.538   1.299   9.850  0.6302 -0.0800 -0.0638
 3161SOL    HW121116   0.589   1.377   9.875 -2.4599  1.4320  1.5445
 3161SOL    HW221117   0.518   1.266   9.938  2.1988 -0.9092 -0.0314
 3162SOL     OW21118   2.460   1.910   0.453 -0.1319  0.0281  0.1951
 3162SOL    HW121119   2.446   1.988   0.506  0.4647  1.4710 -1.7984
 3162SOL    HW221120   2.376   1.896   0.409 -0.5474  0.0953  0.9663
 3163SOL     OW21121   2.918   2.105   2.300 -0.0548 -0.2234  0.2674
 3163SOL    HW121122   2.877   2.111   2.386 -0.1736  0.1848  0.1793
 3163SOL    HW221123   2.971   2.184   2.290 -2.6073  1.6563  1.5307
 3164SOL     OW21124   2.881   3.142   2.687 -0.6905  0.4761 -0.3396
 3164SOL    HW121125   2.829   3.085   2.744  2.7416 -1.0185  1.2950
 3164SOL    HW221126   2.837   3.128   2.603  1.1771 -1.7092 -0.9634
 3165SOL     OW21127   4.654   0.499  14.571  0.3412  0.3404  0.0131
 3165SOL    HW121128   4.728   0.541  14.615  2.3371 -3.0675 -0.1803
 3165SOL    HW221129   4.666   0.541  14.485  1.4582 -1.0212 -0.4953
 3166SOL     OW21130   0.712   1.875   3.885  0.0129 -0.8156  0.1084
 3166SOL    HW121131   0.731   1.855   3.793 -2.4182 -1.0959 -0.3594
 3166SOL    HW221132   0.664   1.958   3.880 -1.2149 -1.5707 -0.9201
 3167SOL     OW21133   2.418   1.711  15.951 -0.1060  0.4174 -0.2979
 3167SOL    HW121134   2.357   1.648  15.990  1.0498 -1.5646 -1.6518
 3167SOL    HW221135   2.444   1.670  15.868  0.2653  2.7173 -1.3066
 3168SOL     OW21136   1.341   2.109  16.457  0.1290 -0.1236  0.1011
 3168SOL    HW121137   1.248   2.102  16.480  0.3281 -0.7138  0.6977
 3168SOL    HW221138   1.374   2.166  16.527 -1.8674  0.9771  0.1615
 3169SOL     OW21139   3.541   2.598   6.709  0.3266 -0.0873 -0.1614
 3169SOL    HW121140   3.486   2.595   6.631 -0.3089 -0.5816  0.3008
 3169SOL    HW221141   3.617   2.649   6.680  2.6231 -2.0361  2.3291
 3170SOL     OW21142   0.843   4.207  13.370 -0.1969  0.5657 -0.0409
 3170SOL    HW121143   0.897   4.174  13.298 -1.3617 -2.5428  0.5250
 3170SOL    HW221144   0.763   4.158  13.349  0.1670 -1.0895  2.3370
 3171SOL     OW21145   0.838   2.998  16.348 -0.2989  0.0275  0.0975
 3171SOL    HW121146   0.865   3.085  16.378  2.0974 -0.3354 -1.0744
 3171SOL    HW221147   0.744   3.004  16.366 -0.0668  1.3617  0.8569
 3172SOL     OW21148   2.313   3.055   1.877  0.1771 -0.1043  0.1981
 3172SOL    HW121149   2.396   3.079   1.836 -0.3327 -0.7710 -1.2360
 3172SOL    HW221150   2.250   3.076   1.808 -0.2935 -2.5964 -0.1064
 3173SOL     OW21151   2.860   0.629   7.729  0.1320 -0.0532  0.3088
 3173SOL    HW121152   2.946   0.587   7.733 -0.4690 -1.3454 -0.2050
 3173SOL    HW221153   2.801   0.555   7.711 -0.3271  0.8566 -1.9109
 3174SOL     OW21154   2.640   1.502  13.997 -0.8062 -0.0625  0.0551
 3174SOL    HW121155   2.604   1.584  13.964  0.2125  0.6893  0.8172
 3174SOL    HW221156   2.693   1.483  13.919 -1.4589 -0.6144 -0.2614
 3175SOL     OW21157   4.503   2.471   0.663  0.0998  0.1571 -0.3224
 3175SOL    HW121158   4.492   2.392   0.717 -0.4177  1.2749  1.2072
 3175SOL    HW221159   4.598   2.484   0.672  0.2195  1.1158 -2.9505
 3176SOL     OW21160   3.092   4.627   3.265  0.5140  0.0540 -0.1812
 3176SOL    HW121161   3.055   4.598   3.348 -2.2199 -2.1835 -2.1741
 3176SOL    HW221162   3.094   4.549   3.209  0.6875  1.1588 -1.7090
 3177SOL     OW21163   4.715   1.509   1.763 -0.1669  0.2984  0.0242
 3177SOL    HW121164   4.661   1.585   1.740 -0.7816  0.0713  0.7246
 3177SOL    HW221165   4.645   1.464   1.811  0.1900  0.1312  0.3830
 3178SOL     OW21166   1.095   0.931   3.244 -0.1070 -0.3476 -0.5823
 3178SOL    HW121167   1.168   0.962   3.190  0.6954 -0.8947  0.2061
 3178SOL    HW221168   1.020   0.949   3.187  0.2476  0.6682 -0.7328
 3179SOL     OW21169   3.530   3.383   0.782 -0.0460 -0.4354  0.1476
 3179SOL    HW121170   3.603   3.375   0.842  0.1650 -1.5925 -0.2740
 3179SOL    HW221171   3.507   3.474   0.804 -0.5241  0.0164 -2.2056
 3180SOL     OW21172   2.728   0.058   4.567 -0.3421  0.4453  0.4311
 3180SOL    HW121173   2.687   4.719   4.534 -1.7617  1.4616 -0.2700
 3180SOL    HW221174   2.722   0.042   4.661  0.4683  1.3986  0.6376
 3181SOL     OW21175   1.255   4.502   0.601  0.1994  0.0708  0.3268
 3181SOL    HW121176   1.267   4.408   0.583  1.3084  0.6617 -1.9731
 3181SOL    HW221177   1.209   4.494   0.684 -0.7017 -0.4602 -0.2146
 3182SOL     OW21178   4.152   1.820   9.608  0.3034 -0.1468 -0.2430
 3182SOL    HW121179   4.164   1.789   9.698 -1.2231  2.1755  0.7645
 3182SOL    HW221180   4.086   1.759   9.576 -0.1061  0.4818 -0.5944
 3183SOL     OW21181   2.378   1.386   9.000  0.1225  0.8563 -0.4876
 3183SOL    HW121182   2.417   1.337   8.928 -1.1631  1.0928 -1.3444
 3183SOL    HW221183   2.301   1.414   8.950  1.2311  1.7684 -1.6563
 3184SOL     OW21184   1.150   0.483  17.241  0.0781 -0.0602 -0.5595
 3184SOL    HW121185   1.064   0.476  17.200  0.7527 -1.4948 -1.7369
 3184SOL    HW221186   1.182   0.397  17.214  1.2526  0.2275 -0.0680
 3185SOL     OW21187   4.189   0.428  10.732  0.0894 -0.3075  0.1201
 3185SOL    HW121188   4.250   0.379  10.787 -3.0477  0.0022  3.9523
 3185SOL    HW221189   4.128   0.450  10.803 -1.6946  0.0428 -1.5353
 3186SOL     OW21190   3.080   3.585   7.844  0.0881  0.0355  0.1091
 3186SOL    HW121191   3.008   3.630   7.889  0.7186  2.1487 -0.9725
 3186SOL    HW221192   3.028   3.526   7.789  0.1062 -1.5460  1.7958
 3187SOL     OW21193   1.611   3.421   1.760  0.2379  0.1936  0.0892
 3187SOL    HW121194   1.628   3.419   1.854 -1.1003 -1.5729  0.2828
 3187SOL    HW221195   1.679   3.358   1.735 -1.0668 -0.7204 -1.1296
 3188SOL     OW21196   0.196   0.270  14.558  0.4546  0.1574  0.3532
 3188SOL    HW121197   0.223   0.308  14.641 -1.1201 -0.0657  0.9711
 3188SOL    HW221198   0.252   0.192  14.552 -0.3691 -0.1208 -3.9175
 3189SOL     OW21199   3.916   1.036   4.370 -0.0465  0.1362  0.1555
 3189SOL    HW121200   3.879   0.948   4.371  0.8554 -0.2492 -0.5176
 3189SOL    HW221201   3.982   1.028   4.439  0.4202  1.1361 -0.1721
 3190SOL     OW21202   0.483   0.834   3.848 -0.4448 -0.1380 -0.1983
 3190SOL    HW121203   0.399   0.835   3.802 -0.2993 -0.8812 -0.4826
 3190SOL    HW221204   0.518   0.918   3.817 -0.4684 -0.0333  0.0530
 3191SOL     OW21205   0.108   0.811   4.396 -0.1195 -0.1622  0.5088
 3191SOL    HW121206   0.113   0.720   4.425  2.7715 -1.0888 -2.8469
 3191SOL    HW221207   0.014   0.822   4.387 -0.4240 -3.2059 -0.0833
 3192SOL     OW21208   3.864   0.994  10.366  0.7886  0.2425 -0.2400
 3192SOL    HW121209   3.864   0.931  10.437  1.2937  1.1252  0.5517
 3192SOL    HW221210   3.783   1.045  10.372  0.4380 -0.6448  2.3219
 3193SOL     OW21211   2.321   1.757   4.784 -0.0151 -0.8189 -0.0372
 3193SOL    HW121212   2.367   1.747   4.701 -2.6185 -0.3927 -1.5469
 3193SOL    HW221213   2.344   1.845   4.812 -1.1096 -0.4792 -0.1811
 3194SOL     OW21214   2.657   1.730   5.484  0.0242 -0.1775  0.1142
 3194SOL    HW121215   2.593   1.758   5.419  0.0191 -1.6872 -0.5275
 3194SOL    HW221216   2.741   1.739   5.439 -0.0091  1.0533  0.3148
 3195SOL     OW21217   2.092   2.288   8.202  0.7076 -0.0219  0.2280
 3195SOL    HW121218   2.169   2.343   8.209  0.1135  0.9217 -0.6089
 3195SOL    HW221219   2.047   2.351   8.145  1.1539 -0.9577 -1.1766
 3196SOL     OW21220   2.994   2.611   1.012  0.1300 -0.4145 -0.3465
 3196SOL    HW121221   3.070   2.665   0.990 -1.1650  1.2820 -0.6212
 3196SOL    HW221222   3.011   2.587   1.103 -0.7818 -0.3224 -0.1491
 3197SOL     OW21223   1.658   1.377  10.135  0.4647  0.3240 -0.2295
 3197SOL    HW121224   1.621   1.423  10.059  0.4602  0.4907 -0.1250
 3197SOL    HW221225   1.709   1.447  10.176 -2.1195  1.7157  0.6230
 3198SOL     OW21226   4.334   3.733   6.487 -0.6167 -0.1066  0.0777
 3198SOL    HW121227   4.346   3.779   6.570 -3.6000  0.2311  0.3111
 3198SOL    HW221228   4.362   3.803   6.427  1.7496 -1.0811  0.0473
 3199SOL     OW21229   2.639   4.343   3.798  0.6132  0.1953 -0.0289
 3199SOL    HW121230   2.711   4.377   3.852  0.5125 -2.1040  1.5567
 3199SOL    HW221231   2.664   4.250   3.801 -1.4364 -0.3263  0.8308
 3200SOL     OW21232   1.770   2.748   4.150  0.3647 -0.2990  0.2466
 3200SOL    HW121233   1.762   2.843   4.161  2.0077 -0.1970  0.6984
 3200SOL    HW221234   1.804   2.720   4.235 -1.5677 -2.0876  0.4022
 3201SOL     OW21235   1.242   4.465   6.507 -0.4078 -0.4351 -0.0672
 3201SOL    HW121236   1.151   4.436   6.501 -0.5969  0.1197  0.0720
 3201SOL    HW221237   1.227   4.544   6.455 -0.1631 -0.2697  0.1146
 3202SOL     OW21238   1.033   3.914   2.555 -0.0459 -0.0281  0.3336
 3202SOL    HW121239   1.090   3.917   2.478  2.1640 -0.3762  1.9525
 3202SOL    HW221240   1.026   4.007   2.576 -1.4849 -0.6181  2.4455
 3203SOL     OW21241   4.369   0.032  16.417 -0.2830 -0.0273 -0.1651
 3203SOL    HW121242   4.425   0.005  16.489  1.0832 -1.9442 -1.9729
 3203SOL    HW221243   4.437   0.085  16.376 -0.5504  0.9691  0.6869
 3204SOL     OW21244   2.901   2.480   2.152 -0.9094 -0.4359 -0.7872
 3204SOL    HW121245   2.971   2.427   2.190 -0.1209 -0.7866 -2.7228
 3204SOL    HW221246   2.847   2.477   2.231  0.7756 -0.1606  0.3766
 3205SOL     OW21247   0.118   1.614   9.296 -0.1330 -0.1469  0.0439
 3205SOL    HW121248   0.179   1.550   9.260 -1.5302 -1.6518  0.3626
 3205SOL    HW221249   0.076   1.642   9.215  1.8165 -0.9278 -1.2457
 3206SOL     OW21250   3.069   1.648   7.597  0.0900  0.5817  0.1300
 3206SOL    HW121251   3.143   1.614   7.547  0.7240  1.1075  0.7102
 3206SOL    HW221252   3.050   1.731   7.554 -1.5117  0.4354  0.5494
 3207SOL     OW21253   0.422   3.867   5.569 -0.8892  0.5256 -0.2687
 3207SOL    HW121254   0.409   3.785   5.521  1.2984 -0.4664  0.7918
 3207SOL    HW221255   0.417   3.934   5.501  0.9819  1.3215  0.3719
 3208SOL     OW21256   2.862   2.519   6.938 -0.2286  0.3015  0.0520
 3208SOL    HW121257   2.920   2.569   6.881  0.4560  0.4741  0.8957
 3208SOL    HW221258   2.912   2.445   6.971  0.1711  0.5486 -0.0025
 3209SOL     OW21259   0.104   4.527  11.648 -0.0955  0.1305 -0.3854
 3209SOL    HW121260   0.164   4.471  11.598 -1.3547 -0.7945 -0.8596
 3209SOL    HW221261   0.050   4.545  11.571  2.2878 -1.0186 -2.2892
 3210SOL     OW21262   1.789   3.706  15.208  0.1515  0.2458 -0.6983
 3210SOL    HW121263   1.731   3.632  15.227 -0.3083  0.7160 -0.2626
 3210SOL    HW221264   1.722   3.774  15.212 -1.3997 -1.4485  1.7622
 3211SOL     OW21265   4.710   0.156   7.221  0.6240 -0.6536 -0.4059
 3211SOL    HW121266   4.616   0.171   7.227  1.0843  2.7064 -1.6082
 3211SOL    HW221267   4.735   0.180   7.310 -0.5979 -1.1169  0.0698
 3212SOL     OW21268   2.350   1.834   1.933 -0.0827  0.0358 -0.0684
 3212SOL    HW121269   2.324   1.827   2.025  1.1382 -0.7018  0.2169
 3212SOL    HW221270   2.413   1.905   1.946  1.7723 -1.1837 -2.4925
 3213SOL     OW21271   0.582   1.060  11.742  0.0590  0.6522  0.1540
 3213SOL    HW121272   0.592   1.102  11.657 -0.7316 -1.3518 -0.9244
 3213SOL    HW221273   0.583   1.138  11.797  0.3267  1.7410 -1.3866
 3214SOL     OW21274   2.492   4.695   3.068  0.6438  0.0514  0.0562
 3214SOL    HW121275   2.526   4.658   2.987 -0.6511 -2.1267  0.5018
 3214SOL    HW221276   2.398   4.700   3.051  0.6058  1.2942  0.6422
 3215SOL     OW21277   4.496   2.861   1.698  0.3914 -0.1304 -0.4341
 3215SOL    HW121278   4.559   2.928   1.672 -0.3349  1.0993  1.0048
 3215SOL    HW221279   4.427   2.924   1.719  1.0819  1.1121 -1.9330
 3216SOL     OW21280   4.170   0.773   3.868  0.4193 -0.3266  0.6425
 3216SOL    HW121281   4.211   0.710   3.808  2.4327  1.7108 -0.1778
 3216SOL    HW221282   4.108   0.712   3.907 -1.6022  0.7609 -0.8808
 3217SOL     OW21283   2.234   4.581   5.177 -0.2193  0.0892 -0.1709
 3217SOL    HW121284   2.207   4.654   5.121 -0.2399 -1.1169 -1.7353
 3217SOL    HW221285   2.328   4.591   5.189 -0.2104 -0.0696 -0.1049
 3218SOL     OW21286   3.062   3.057   1.674  0.1098  0.2601 -0.4267
 3218SOL    HW121287   3.020   3.108   1.743 -1.2832 -0.6679 -0.5970
 3218SOL    HW221288   3.025   2.970   1.688  0.3656  0.4175  1.1542
 3219SOL     OW21289   2.383   4.534   8.073 -0.4264  0.2027 -0.3571
 3219SOL    HW121290   2.360   4.485   7.994 -0.5442  1.2044 -0.9314
 3219SOL    HW221291   2.473   4.561   8.055 -0.4694  1.1735  0.8547
 3220SOL     OW21292   3.170   3.412  11.106 -1.1624 -0.2803  0.0565
 3220SOL    HW121293   3.137   3.325  11.128  1.1856 -1.5228 -1.3107
 3220SOL    HW221294   3.261   3.396  11.130 -1.0957  1.6574  1.0710
 3221SOL     OW21295   3.956   2.035   2.548 -0.0654  0.5433  0.0491
 3221SOL    HW121296   4.009   2.089   2.489  0.1308 -0.0059 -0.2694
 3221SOL    HW221297   3.986   2.060   2.636 -0.7473  2.5769 -0.2890
 3222SOL     OW21298   0.992   4.228   8.819  0.0784  0.1265 -0.1915
 3222SOL    HW121299   0.990   4.235   8.724 -0.8256  0.7907 -0.1269
 3222SOL    HW221300   1.084   4.226   8.844 -0.2172  0.3791  0.9218
 3223SOL     OW21301   4.072   3.201   9.320  0.1363  0.9794 -0.0787
 3223SOL    HW121302   4.004   3.205   9.388 -0.4671  0.3654 -0.6455
 3223SOL    HW221303   4.078   3.106   9.306 -0.1223  0.7294  1.5310
 3224SOL     OW21304   2.428   4.627  16.743  0.3197  0.4922  0.2389
 3224SOL    HW121305   2.503   4.570  16.721 -0.2177 -0.0646 -0.1463
 3224SOL    HW221306   2.372   4.558  16.779  2.6366  0.3677  3.6438
 3225SOL     OW21307   0.475   2.638   5.585  0.5142 -0.4094  0.3408
 3225SOL    HW121308   0.399   2.584   5.606  0.7145  0.0487  2.2507
 3225SOL    HW221309   0.499   2.584   5.510 -1.5664  0.8560 -1.2617
 3226SOL     OW21310   3.194   2.660   4.668  0.1896 -0.2214  0.0612
 3226SOL    HW121311   3.117   2.668   4.724 -0.1453 -1.0047 -0.2800
 3226SOL    HW221312   3.153   2.607   4.600  0.0539  1.2627 -1.0060
 3227SOL     OW21313   2.201   4.064   8.361 -0.4592  0.4311 -0.2704
 3227SOL    HW121314   2.133   4.127   8.337 -0.0096  0.8929 -0.3459
 3227SOL    HW221315   2.186   3.984   8.310  2.3511  0.0273 -0.4419
 3228SOL     OW21316   2.317   2.662   6.698 -0.1448 -0.0439  0.3393
 3228SOL    HW121317   2.352   2.747   6.726  1.9432 -0.1278 -1.9928
 3228SOL    HW221318   2.395   2.625   6.657  0.0468 -0.4140  1.0366
 3229SOL     OW21319   2.471   1.457  10.811 -0.0663 -0.9524  0.5470
 3229SOL    HW121320   2.540   1.442  10.876  1.0217 -0.7056 -0.5518
 3229SOL    HW221321   2.519   1.443  10.729  0.9626 -2.6527  1.4372
 3230SOL     OW21322   3.974   2.953   2.560  0.2400  0.4521  0.7802
 3230SOL    HW121323   4.050   2.918   2.513 -3.0618 -1.3416 -3.1557
 3230SOL    HW221324   3.941   2.874   2.601 -0.3257 -0.5665 -1.6274
 3231SOL     OW21325   4.141   3.200   2.940  0.3035  0.1439 -0.2335
 3231SOL    HW121326   4.217   3.144   2.923 -1.2903 -2.0342 -0.1073
 3231SOL    HW221327   4.095   3.133   2.990 -1.5816  1.1279 -0.6674
 3232SOL     OW21328   3.173   1.560   9.869  0.2690 -0.9585 -0.4763
 3232SOL    HW121329   3.139   1.625   9.808  1.9143 -0.8187 -1.2380
 3232SOL    HW221330   3.266   1.555   9.846  0.4051  0.0768 -0.1721
 3233SOL     OW21331   3.841   3.251   3.807  0.0516  0.5593 -0.4633
 3233SOL    HW121332   3.771   3.287   3.862 -0.1851  0.6869 -0.8535
 3233SOL    HW221333   3.849   3.160   3.836 -0.4188  0.4491 -0.6808
 3234SOL     OW21334   4.011   0.423   7.588 -0.9400  0.2252  0.2098
 3234SOL    HW121335   4.010   0.327   7.581  0.1140  0.1625  0.8342
 3234SOL    HW221336   4.066   0.416   7.667 -2.8715  0.1403  1.5485
 3235SOL     OW21337   2.164   2.213   2.294 -0.5329 -0.1429 -0.4328
 3235SOL    HW121338   2.227   2.164   2.242 -1.2038 -0.2283 -1.1613
 3235SOL    HW221339   2.165   2.298   2.250 -0.6238  0.5262  0.8497
 3236SOL     OW21340   0.858   0.726   7.139  0.1225 -0.0106  0.5391
 3236SOL    HW121341   0.853   0.820   7.123  0.3897 -0.2043 -0.6757
 3236SOL    HW221342   0.827   0.721   7.229  2.4743  0.3483  1.3766
 3237SOL     OW21343   1.884   3.345   1.628  0.7773 -0.2903  0.3042
 3237SOL    HW121344   1.961   3.395   1.657  0.5998 -1.4893  2.8837
 3237SOL    HW221345   1.866   3.371   1.538 -1.0761 -0.8838  0.5145
 3238SOL     OW21346   2.184   2.073  17.173  0.3202 -0.1375 -0.8649
 3238SOL    HW121347   2.167   2.002  17.235 -1.7891  0.6918 -0.4717
 3238SOL    HW221348   2.119   2.070  17.103 -0.5239 -0.7536 -0.0524
 3239SOL     OW21349   1.208   1.926  14.264  0.0645 -0.1610  0.2735
 3239SOL    HW121350   1.272   1.986  14.304  0.2389  0.4113 -0.8329
 3239SOL    HW221351   1.129   1.979  14.256  0.5578  0.3668 -1.3269
 3240SOL     OW21352   3.812   2.281   4.350 -0.8144  0.1529 -0.1421
 3240SOL    HW121353   3.733   2.277   4.297 -0.0993  0.3567 -1.2107
 3240SOL    HW221354   3.876   2.257   4.284  0.6576 -0.0480  1.3588
 3241SOL     OW21355   3.088   2.514   4.484  0.2727  0.0435  0.0397
 3241SOL    HW121356   3.116   2.430   4.521  0.3389 -0.2270 -0.6061
 3241SOL    HW221357   3.072   2.482   4.395  1.9524 -0.8399  0.0566
 3242SOL     OW21358   2.649   2.983   9.984  0.0362 -0.7142 -0.4639
 3242SOL    HW121359   2.654   2.917  10.054 -1.6262 -0.9711 -0.5802
 3242SOL    HW221360   2.582   3.047  10.009 -1.3327 -2.4592  0.3744
 3243SOL     OW21361   3.568   3.649  12.236  0.6680  0.3920  0.0642
 3243SOL    HW121362   3.560   3.590  12.311  0.7785  0.1475 -0.1181
 3243SOL    HW221363   3.598   3.731  12.274  2.3189 -1.8454  3.5823
 3244SOL     OW21364   0.414   3.821   2.163  0.5949  0.3282 -0.1760
 3244SOL    HW121365   0.499   3.822   2.118  1.4601  0.1334  1.4748
 3244SOL    HW221366   0.430   3.857   2.250  0.2739 -0.5864  0.2552
 3245SOL     OW21367   3.373   0.024   6.357  0.1994  0.8669  0.5061
 3245SOL    HW121368   3.462   0.060   6.362  0.7102 -0.4511  0.9756
 3245SOL    HW221369   3.385   4.703   6.284 -1.7357  1.0392  0.0383
 3246SOL     OW21370   0.901   4.284  14.645 -0.0147 -0.2189 -0.3478
 3246SOL    HW121371   0.907   4.336  14.565 -0.5589  1.7490  0.9147
 3246SOL    HW221372   0.859   4.204  14.613  2.3472 -1.2825 -0.7394
 3247SOL     OW21373   4.329   2.182   8.546 -0.1475 -0.5212 -0.3004
 3247SOL    HW121374   4.237   2.188   8.519 -0.1273 -0.1805 -0.2980
 3247SOL    HW221375   4.328   2.162   8.639 -2.3801 -0.1404 -0.2488
 3248SOL     OW21376   4.658   2.700   2.982  0.1694  0.0192  0.0888
 3248SOL    HW121377   4.581   2.697   3.038 -1.1187  0.8566 -1.6133
 3248SOL    HW221378   4.731   2.681   3.040  0.5288  3.0649  0.6547
 3249SOL     OW21379   0.535   2.533   4.362  0.1544 -0.2456  0.0819
 3249SOL    HW121380   0.535   2.460   4.301 -1.2686  0.1558 -0.4063
 3249SOL    HW221381   0.603   2.509   4.425  1.9617  0.9578 -1.4333
 3250SOL     OW21382   0.143   0.825   5.305  0.3167  0.1315 -0.2330
 3250SOL    HW121383   0.196   0.900   5.334  0.1929  0.7117 -1.5037
 3250SOL    HW221384   0.068   0.864   5.261 -1.4109  0.7736  3.2200
 3251SOL     OW21385   3.716   2.419   5.744 -0.1190 -0.7745 -0.0688
 3251SOL    HW121386   3.806   2.435   5.771 -0.9757  1.8359  1.2005
 3251SOL    HW221387   3.699   2.486   5.678  2.0660 -0.7644 -0.6260
 3252SOL     OW21388   2.555   0.088   2.347  0.3504 -0.5343  0.4967
 3252SOL    HW121389   2.491   0.062   2.280  1.5498 -1.0607 -0.4418
 3252SOL    HW221390   2.530   0.042   2.426 -0.0102 -0.9408  0.1457
 3253SOL     OW21391   2.375   0.833   4.739  0.3136 -0.2491  0.0045
 3253SOL    HW121392   2.441   0.854   4.673 -0.2669 -1.5224 -0.9841
 3253SOL    HW221393   2.422   0.770   4.794 -0.1257  0.6708  1.4338
 3254SOL     OW21394   0.811   1.652   6.274  0.2185 -0.5478  0.4815
 3254SOL    HW121395   0.808   1.630   6.367  0.1911 -2.0336  0.1290
 3254SOL    HW221396   0.897   1.691   6.262 -0.6653  1.3143  0.0787
 3255SOL     OW21397   1.939   1.186  12.713 -0.3255  0.5412  0.2815
 3255SOL    HW121398   1.998   1.232  12.653 -0.2677 -0.1336 -0.1801
 3255SOL    HW221399   1.858   1.184  12.663 -0.1243  2.4097 -0.1355
 3256SOL     OW21400   3.469   4.695   2.604 -0.4728  0.0948 -0.4306
 3256SOL    HW121401   3.414   4.726   2.677  2.7075  1.7015  1.2617
 3256SOL    HW221402   3.413   4.731   2.535 -1.0541 -0.5795 -0.3182
 3257SOL     OW21403   3.039   3.041   9.649 -0.4575 -0.0029 -0.6489
 3257SOL    HW121404   3.088   3.108   9.697 -1.4018 -1.1858  1.9705
 3257SOL    HW221405   3.094   2.965   9.664 -1.8920 -0.8715  0.2122
 3258SOL     OW21406   3.593   2.108   4.066  0.4344 -0.1607  0.1269
 3258SOL    HW121407   3.646   2.187   4.063  1.6505 -1.0843 -2.8958
 3258SOL    HW221408   3.661   2.044   4.049  1.1042  0.7315 -0.5761
 3259SOL     OW21409   2.871   4.341   3.963  0.4170 -0.2137  0.7929
 3259SOL    HW121410   2.835   4.254   3.951  1.0277 -0.2610 -0.8121
 3259SOL    HW221411   2.962   4.324   3.989  0.3105  0.0726  1.3565
 3260SOL     OW21412   0.436   0.737   5.209 -0.1606  0.2761 -0.7866
 3260SOL    HW121413   0.418   0.685   5.131  0.1504 -0.6595 -0.2378
 3260SOL    HW221414   0.351   0.730   5.250 -0.2450  1.6985 -0.7023
 3261SOL     OW21415   4.493   4.108   3.822  0.4135  0.2426  0.0067
 3261SOL    HW121416   4.502   4.176   3.889  2.1676  1.7282 -1.7146
 3261SOL    HW221417   4.402   4.083   3.837 -0.1453  1.8461 -0.7028
 3262SOL     OW21418   0.845   0.349  11.567 -0.6626 -0.0040  0.8494
 3262SOL    HW121419   0.754   0.321  11.567 -0.1232 -1.7709 -0.3351
 3262SOL    HW221420   0.850   0.408  11.643 -1.3394 -0.6603  1.4119
 3263SOL     OW21421   4.322   3.613   4.122  0.0279  0.8678  0.2746
 3263SOL    HW121422   4.417   3.612   4.108  0.2012 -1.9933  1.8227
 3263SOL    HW221423   4.311   3.691   4.177 -0.2607  1.7372 -0.9956
 3264SOL     OW21424   2.884   1.945   7.219 -0.3207 -0.1209 -0.0092
 3264SOL    HW121425   2.926   1.905   7.143 -1.9196 -0.6877 -0.6107
 3264SOL    HW221426   2.866   2.035   7.193  1.0278  0.5779  1.4611
 3265SOL     OW21427   1.095   0.335  10.082 -0.2669  0.3282 -0.1065
 3265SOL    HW121428   1.098   0.290   9.998  3.3052  1.5972 -0.6558
 3265SOL    HW221429   1.019   0.304  10.131 -0.2594  0.3215 -0.0992
 3266SOL     OW21430   2.041   1.365  12.516  0.1437  0.1033 -0.3540
 3266SOL    HW121431   2.088   1.306  12.457  0.1064  0.5062 -0.7807
 3266SOL    HW221432   2.108   1.359  12.585  0.1583 -0.0767 -0.3853
 3267SOL     OW21433   3.178   3.507   9.896 -0.1671  0.1772  0.5013
 3267SOL    HW121434   3.151   3.594   9.867  1.7667  1.2228  1.8572
 3267SOL    HW221435   3.099   3.491   9.948  0.5655 -0.4203  1.4228
 3268SOL     OW21436   0.766   1.279   5.874 -1.1812 -0.5224  0.4893
 3268SOL    HW121437   0.673   1.265   5.890 -1.0704 -1.9517 -0.1472
 3268SOL    HW221438   0.795   1.267   5.965  5.1413  2.5884 -1.1223
 3269SOL     OW21439   3.468   0.787   6.970 -0.3882  0.5234 -0.0206
 3269SOL    HW121440   3.488   0.839   6.892 -1.3088 -1.2356 -1.4288
 3269SOL    HW221441   3.374   0.772   6.976 -0.3251  0.9511  2.2626
 3270SOL     OW21442   0.758   2.886  11.929 -0.2749  0.1026 -0.1020
 3270SOL    HW121443   0.803   2.918  12.007 -4.9210  0.2722  2.5507
 3270SOL    HW221444   0.745   2.794  11.953 -0.5424  0.1223 -0.1719
 3271SOL     OW21445   1.143   2.218   3.722 -0.2838 -0.3345  0.0840
 3271SOL    HW121446   1.143   2.309   3.691 -0.4623 -0.3391  0.0704
 3271SOL    HW221447   1.222   2.205   3.669 -0.1848  1.5978 -0.2387
 3272SOL     OW21448   4.660   1.861   1.768  0.1052 -0.8317  0.1179
 3272SOL    HW121449   0.004   1.848   1.810 -0.8727  1.7155  2.8953
 3272SOL    HW221450   4.683   1.913   1.691  2.3865 -0.2431  1.2026
 3273SOL     OW21451   1.181   2.625   4.246 -0.4020 -0.1477  0.4439
 3273SOL    HW121452   1.113   2.582   4.298  0.9186 -0.0434  2.2909
 3273SOL    HW221453   1.136   2.694   4.198  0.4000  0.5853  0.7373
 3274SOL     OW21454   2.892   1.568   6.416  0.6962  0.2751  0.5337
 3274SOL    HW121455   2.860   1.635   6.356 -0.8131 -2.4179 -1.6820
 3274SOL    HW221456   2.987   1.564   6.404  0.7030 -3.2980  1.7903
 3275SOL     OW21457   1.273   3.828   2.005  0.0320 -0.0818  0.6943
 3275SOL    HW121458   1.251   3.904   2.059  1.2700 -2.4529  4.5645
 3275SOL    HW221459   1.326   3.775   2.066  0.9394 -0.0921 -0.1011
 3276SOL     OW21460   1.913   4.550  15.701  0.0605  0.0690 -0.5418
 3276SOL    HW121461   1.879   4.564  15.613  0.3618 -3.2661 -1.2130
 3276SOL    HW221462   1.877   4.618  15.757  1.1484  0.0202  0.2158
 3277SOL     OW21463   3.089   0.334   0.703  0.4981 -0.3891  0.1538
 3277SOL    HW121464   3.151   0.299   0.767 -0.6979  2.2755  2.7853
 3277SOL    HW221465   3.012   0.278   0.715  1.1522 -0.6096  3.3441
 3278SOL     OW21466   1.432   2.819  13.473  0.0306 -0.4411  0.3481
 3278SOL    HW121467   1.348   2.822  13.519  0.9707  1.3955  1.9406
 3278SOL    HW221468   1.401   2.754  13.410  0.0609 -0.1987  0.0844
 3279SOL     OW21469   4.555   0.203  12.065 -0.2461  0.6251 -0.0303
 3279SOL    HW121470   4.516   0.130  12.017 -1.7617 -0.1348  2.3595
 3279SOL    HW221471   4.646   0.193  12.037 -0.6143 -1.3411 -0.5082
 3280SOL     OW21472   2.295   0.595  12.957  0.2049 -0.0716  0.2198
 3280SOL    HW121473   2.304   0.518  13.014 -0.4305  1.1410  1.9252
 3280SOL    HW221474   2.214   0.628  12.994  0.1062 -0.1409  0.0672
 3281SOL     OW21475   2.767   3.736  10.368 -0.4979 -0.1953 -0.0853
 3281SOL    HW121476   2.690   3.680  10.379 -1.0114  0.5074 -0.1152
 3281SOL    HW221477   2.828   3.676  10.411  1.3122  1.5268 -0.2811
 3282SOL     OW21478   2.876   1.055  12.882 -0.2064  0.0693 -0.5279
 3282SOL    HW121479   2.811   1.027  12.817 -0.6355 -0.3855  0.0949
 3282SOL    HW221480   2.961   1.030  12.845  0.3458  1.7788 -0.4172
 3283SOL     OW21481   3.707   3.443   6.779 -0.1070 -0.2580  0.3844
 3283SOL    HW121482   3.641   3.512   6.775  0.7881  0.5372 -0.8076
 3283SOL    HW221483   3.691   3.407   6.866  2.4651  0.2981  1.1128
 3284SOL     OW21484   3.471   0.322   7.147 -0.0309 -0.0784  0.6103
 3284SOL    HW121485   3.548   0.288   7.192 -0.6271 -2.2499 -0.0034
 3284SOL    HW221486   3.514   0.382   7.087 -0.3538 -1.9504 -1.4788
 3285SOL     OW21487   1.094   1.851   7.045 -0.6016  0.0946 -0.3599
 3285SOL    HW121488   1.044   1.931   7.029  3.9641  3.0550  0.0989
 3285SOL    HW221489   1.067   1.841   7.136 -0.3015 -0.4783 -0.3333
 3286SOL     OW21490   0.656   0.192   0.369  0.7461 -0.1186 -0.1367
 3286SOL    HW121491   0.590   0.176   0.303 -0.2939  0.9246  0.6472
 3286SOL    HW221492   0.707   0.111   0.366  0.3424 -0.2881 -2.2539
 3287SOL     OW21493   3.589   3.256   8.455  0.2785 -0.4241  0.3504
 3287SOL    HW121494   3.515   3.208   8.417 -1.5268  0.5488  2.6688
 3287SOL    HW221495   3.638   3.289   8.379 -2.4803 -0.7369 -1.5887
 3288SOL     OW21496   4.418   0.951  13.668 -0.1189 -0.4171 -0.2586
 3288SOL    HW121497   4.328   0.934  13.697 -0.1479  1.5474  0.8825
 3288SOL    HW221498   4.431   1.038  13.706  1.1052  0.2457 -2.2477
 3289SOL     OW21499   0.450   1.772   9.041  0.2207 -0.3690 -0.4225
 3289SOL    HW121500   0.409   1.688   9.021 -1.1382  0.1997 -0.0250
 3289SOL    HW221501   0.387   1.802   9.106  0.4058 -0.3470 -0.2520
 3290SOL     OW21502   0.565   2.090   9.002  0.3517  0.0796  0.1660
 3290SOL    HW121503   0.558   2.089   9.098  2.2736  0.7787  0.3022
 3290SOL    HW221504   0.585   1.997   8.995 -0.4274 -0.0817  0.0104
 3291SOL     OW21505   0.471   2.445   1.707  0.3768 -0.4769  0.6270
 3291SOL    HW121506   0.459   2.417   1.616 -0.5302  0.0432  0.5820
 3291SOL    HW221507   0.517   2.528   1.704  1.4225 -1.0618  0.7080
 3292SOL     OW21508   4.375   0.988  14.276  0.0039  0.1106 -0.3885
 3292SOL    HW121509   4.387   1.036  14.195 -2.5018 -1.3572 -1.6297
 3292SOL    HW221510   4.437   0.922  14.246  1.8438  0.9143  1.6574
 3293SOL     OW21511   2.870   4.175   9.666  0.5879 -0.0771 -0.0425
 3293SOL    HW121512   2.803   4.203   9.729  2.5754  0.7952  1.6656
 3293SOL    HW221513   2.850   4.081   9.673  2.4588 -0.4284  0.6106
 3294SOL     OW21514   0.946   1.886   9.139  0.0868  0.1081 -0.3680
 3294SOL    HW121515   0.974   1.930   9.059 -2.1358 -1.3851 -1.9376
 3294SOL    HW221516   0.920   1.961   9.193  1.1271  0.0402  0.2410
 3295SOL     OW21517   4.719   3.393   3.651  0.2421 -0.4372 -0.0227
 3295SOL    HW121518   4.680   3.395   3.564 -0.9792  0.6262  0.5471
 3295SOL    HW221519   0.060   3.434   3.625  0.0550  0.5647  0.9460
 3296SOL     OW21520   4.458   0.752   7.733 -0.0576  0.9722  0.4769
 3296SOL    HW121521   4.396   0.741   7.805  1.3832 -0.0967  1.5805
 3296SOL    HW221522   4.475   0.662   7.705 -0.4949  0.8572  0.5937
 3297SOL     OW21523   2.296   4.409   8.325  0.2969 -0.6781 -0.0635
 3297SOL    HW121524   2.315   4.440   8.236 -2.1634 -0.2001 -0.4166
 3297SOL    HW221525   2.215   4.361   8.305 -0.4413  1.1517 -1.5094
 3298SOL     OW21526   4.521   4.344  17.122  0.3581 -0.5921  0.1621
 3298SOL    HW121527   4.452   4.411  17.128 -0.0792 -1.0232 -0.1055
 3298SOL    HW221528   4.492   4.287  17.193  0.7765  0.5676  1.2759
 3299SOL     OW21529   0.362   3.590   5.423  0.5748 -0.2246 -0.6272
 3299SOL    HW121530   0.340   3.497   5.427  0.6076 -0.2307 -0.5875
 3299SOL    HW221531   0.364   3.604   5.329  1.4879  0.3301 -0.5259
 3300SOL     OW21532   3.152   2.499  14.216 -0.3280  0.0067  0.0589
 3300SOL    HW121533   3.148   2.509  14.121 -1.5153  0.5639  0.1696
 3300SOL    HW221534   3.061   2.507  14.243 -0.3207 -0.1062  0.1163
 3301SOL     OW21535   3.429   3.571   5.207 -0.1223 -0.2192  0.1772
 3301SOL    HW121536   3.509   3.624   5.214 -0.5280  0.5556 -0.9379
 3301SOL    HW221537   3.390   3.595   5.291 -0.1857 -0.9315  0.3505
 3302SOL     OW21538   1.475   4.054   6.610 -0.4298 -0.3948 -0.1490
 3302SOL    HW121539   1.381   4.045   6.628 -0.6547  1.8028 -0.2585
 3302SOL    HW221540   1.501   3.962   6.605 -0.0664 -0.3994  2.1460
 3303SOL     OW21541   0.827   1.160   9.382 -0.2353 -0.4762  0.1228
 3303SOL    HW121542   0.859   1.245   9.412 -0.3406  0.2182 -1.7171
 3303SOL    HW221543   0.817   1.113   9.464 -0.7704 -1.6463 -0.6087
 3304SOL     OW21544   0.426   0.456   4.614 -0.2792 -0.0720 -0.4710
 3304SOL    HW121545   0.360   0.427   4.677 -1.8583  0.7983 -1.7336
 3304SOL    HW221546   0.395   0.403   4.541 -1.1052  1.0852 -0.9733
 3305SOL     OW21547   0.463   0.720  11.903  0.8590  0.4528  0.2570
 3305SOL    HW121548   0.544   0.754  11.864 -0.7594  1.3675 -2.3432
 3305SOL    HW221549   0.433   0.809  11.925  0.7183  0.1165  1.3971
 3306SOL     OW21550   1.776   0.694  13.042 -0.3930 -0.1442  0.9612
 3306SOL    HW121551   1.762   0.783  13.011 -2.5589 -0.3601  1.3176
 3306SOL    HW221552   1.687   0.681  13.073 -1.3511  0.1182 -1.6486
 3307SOL     OW21553   2.458   3.452   3.647 -0.0135 -0.6240 -0.8044
 3307SOL    HW121554   2.446   3.539   3.686  1.1274 -0.3430 -1.0909
 3307SOL    HW221555   2.554   3.455   3.644 -0.0253  0.4362 -0.3951
 3308SOL     OW21556   0.290   2.609   3.454 -0.0960  0.0231  0.3869
 3308SOL    HW121557   0.344   2.683   3.426  0.2640 -0.4688 -0.2090
 3308SOL    HW221558   0.228   2.650   3.514 -1.0869 -1.1722  0.1835
 3309SOL     OW21559   0.351   1.174   6.261 -0.7458  0.2097  0.1037
 3309SOL    HW121560   0.321   1.089   6.226 -0.5222 -0.1917  0.8842
 3309SOL    HW221561   0.321   1.229   6.188  0.2018  1.6035  0.7837
 3310SOL     OW21562   1.468   2.735   9.692  0.1889  0.7104 -0.3710
 3310SOL    HW121563   1.493   2.714   9.602 -0.1918 -0.4710 -0.1930
 3310SOL    HW221564   1.375   2.727   9.674  0.1521  1.3285 -0.4648
 3311SOL     OW21565   2.633   2.776   6.242 -0.9457  0.4788 -0.2828
 3311SOL    HW121566   2.668   2.687   6.253 -4.2138 -0.9072 -1.0781
 3311SOL    HW221567   2.578   2.748   6.169 -0.7284  2.3095 -1.1478
 3312SOL     OW21568   1.471   3.577   4.741 -0.4853  0.1347  0.2496
 3312SOL    HW121569   1.473   3.569   4.836  1.2840  1.1236  0.2952
 3312SOL    HW221570   1.502   3.492   4.709 -2.5253 -0.8724  0.9068
 3313SOL     OW21571   0.137   3.776   7.458 -0.1549  0.0299 -0.3750
 3313SOL    HW121572   0.046   3.747   7.450  0.3388 -1.0516 -2.1484
 3313SOL    HW221573   0.181   3.701   7.418 -0.2151 -0.5646  0.6785
 3314SOL     OW21574   1.580   1.313   5.098 -0.3926 -0.2339  0.2273
 3314SOL    HW121575   1.617   1.333   5.184  2.0051  4.3828 -1.8516
 3314SOL    HW221576   1.489   1.334   5.116  0.0529 -0.5384  2.8276
 3315SOL     OW21577   3.659   1.024   9.772 -0.2374  0.4240  0.7357
 3315SOL    HW121578   3.593   1.077   9.817 -0.4003  0.8774 -0.0157
 3315SOL    HW221579   3.724   1.011   9.841 -1.1895  1.6551  1.8744
 3316SOL     OW21580   3.697   0.113   6.112 -0.7266 -0.1136  0.4921
 3316SOL    HW121581   3.762   0.044   6.129 -2.1427 -0.9598  2.5279
 3316SOL    HW221582   3.675   0.122   6.205 -2.4871 -0.7402  0.1437
 3317SOL     OW21583   4.726   4.344  13.725  0.2774  0.5687 -0.2978
 3317SOL    HW121584   0.044   4.409  13.687 -0.4630  0.9903 -0.7155
 3317SOL    HW221585   4.642   4.385  13.708 -0.1712 -0.3242 -0.2438
 3318SOL     OW21586   4.181   2.481   2.411  0.1196  0.8388  0.2354
 3318SOL    HW121587   4.097   2.443   2.386  0.1887  0.4030  0.6525
 3318SOL    HW221588   4.182   2.457   2.504 -1.0591 -0.5530 -0.1144
 3319SOL     OW21589   3.743   1.642   4.396  0.0582  0.3349 -1.2790
 3319SOL    HW121590   3.688   1.578   4.441  0.4057  0.3672 -0.8122
 3319SOL    HW221591   3.810   1.665   4.461  0.1683  1.0995 -1.6684
 3320SOL     OW21592   4.084   4.249   5.210  0.4289 -0.0793 -0.8118
 3320SOL    HW121593   4.052   4.318   5.268  1.0324 -0.1088 -0.4299
 3320SOL    HW221594   4.177   4.259   5.232 -0.1669  2.1833  0.6846
 3321SOL     OW21595   4.475   0.246   7.647  0.1499  0.6423 -0.2860
 3321SOL    HW121596   4.564   0.280   7.657  0.9473 -1.0779 -1.5746
 3321SOL    HW221597   4.448   0.323   7.598  0.3358 -2.6033 -5.4093
 3322SOL     OW21598   1.483   1.279   3.940 -0.2957 -0.2826  0.0514
 3322SOL    HW121599   1.419   1.209   3.930 -1.5118  0.1114  4.7956
 3322SOL    HW221600   1.424   1.354   3.953  1.4918  1.3243 -1.0905
 3323SOL     OW21601   0.397   3.293   7.502  0.3131 -0.1785  0.0106
 3323SOL    HW121602   0.425   3.278   7.411  1.6823  2.1869  0.0452
 3323SOL    HW221603   0.306   3.315   7.481  0.1859  1.1632  1.9309
 3324SOL     OW21604   0.829   3.496   4.817 -0.0684  0.4422 -0.5720
 3324SOL    HW121605   0.914   3.472   4.853  1.5375  2.8164 -2.7831
 3324SOL    HW221606   0.811   3.570   4.875 -0.9026 -1.5409  1.7006
 3325SOL     OW21607   0.367   2.794   8.578 -0.8138 -0.4978 -0.0632
 3325SOL    HW121608   0.297   2.753   8.526 -0.9508 -0.6486  0.2380
 3325SOL    HW221609   0.407   2.714   8.612 -0.4081  0.1185  0.8792
 3326SOL     OW21610   2.601   2.035   7.170  0.7118  0.1501  0.3621
 3326SOL    HW121611   2.579   1.944   7.189  2.1686 -0.0359  1.1866
 3326SOL    HW221612   2.534   2.087   7.214  1.0719  1.5946 -0.7792
 3327SOL     OW21613   0.364   3.962   7.826  0.3719 -0.3869 -0.5486
 3327SOL    HW121614   0.395   3.921   7.906  0.0999 -0.0030 -0.2453
 3327SOL    HW221615   0.270   3.971   7.839  0.4442 -0.1674 -0.1892
 3328SOL     OW21616   3.743   1.557   3.312 -0.1558 -0.1369 -0.1722
 3328SOL    HW121617   3.822   1.543   3.260 -0.6724  0.9466 -1.2595
 3328SOL    HW221618   3.718   1.465   3.315  1.1908 -0.4224  2.2532
 3329SOL     OW21619   2.039   3.818   4.007  0.2856  0.3747  0.6969
 3329SOL    HW121620   2.076   3.871   3.936 -0.7389 -0.5333 -0.5307
 3329SOL    HW221621   2.038   3.879   4.081  1.7756  0.6779  0.4643
 3330SOL     OW21622   0.400   2.975  12.208 -0.2445 -0.6247 -0.0564
 3330SOL    HW121623   0.348   3.049  12.238  0.5285  0.7295 -2.0203
 3330SOL    HW221624   0.384   2.912  12.278  0.7356  0.8280  1.5005
 3331SOL     OW21625   0.525   3.185   3.768  0.4055 -0.0496 -0.1168
 3331SOL    HW121626   0.592   3.217   3.709 -0.3556  1.3190 -0.2366
 3331SOL    HW221627   0.538   3.090   3.765 -0.6082 -0.1974  0.2111
 3332SOL     OW21628   3.260   2.127   5.126 -0.1399 -0.4212 -0.0704
 3332SOL    HW121629   3.180   2.113   5.075 -1.3470 -1.3530  2.0489
 3332SOL    HW221630   3.334   2.121   5.066  0.0413 -4.1367  0.4940
 3333SOL     OW21631   0.247   0.024   7.634 -0.0994 -0.3564  0.1511
 3333SOL    HW121632   0.176   0.073   7.593  0.7452  0.1682 -0.6742
 3333SOL    HW221633   0.317   0.074   7.591  0.0324  0.8392  1.7359
 3334SOL     OW21634   0.701   3.444  11.475 -0.1893  0.8221  0.2712
 3334SOL    HW121635   0.701   3.434  11.570  4.0238 -1.9953  0.0195
 3334SOL    HW221636   0.639   3.373  11.459  0.3991  0.1836  0.7767
 3335SOL     OW21637   3.446   1.495   3.902  0.1718  0.0980  0.1229
 3335SOL    HW121638   3.520   1.435   3.905 -0.6377 -0.8004  1.6813
 3335SOL    HW221639   3.454   1.526   3.812  1.4131 -1.1786 -0.1953
 3336SOL     OW21640   1.471   3.158   3.244  0.2282  0.0429 -0.1916
 3336SOL    HW121641   1.391   3.205   3.220 -1.2410 -1.2917  2.0779
 3336SOL    HW221642   1.521   3.204   3.176  1.0457  0.6418  0.8166
 3337SOL     OW21643   3.111   2.063   8.444  0.4716 -0.0429  0.1183
 3337SOL    HW121644   3.086   1.992   8.385 -3.3450  2.3463 -1.1576
 3337SOL    HW221645   3.040   2.118   8.410 -0.9209 -0.6951  2.0147
 3338SOL     OW21646   2.933   3.704  15.539 -0.0634 -0.3746  0.3352
 3338SOL    HW121647   2.972   3.635  15.591  0.2084  0.6622  1.5121
 3338SOL    HW221648   2.854   3.655  15.518  0.3951 -0.6865 -0.6706
 3339SOL     OW21649   1.583   0.219   2.698  0.6655 -0.1602  0.2210
 3339SOL    HW121650   1.604   0.302   2.656 -0.1542  0.7123  1.5585
 3339SOL    HW221651   1.512   0.232   2.760  0.2767  1.0755 -0.4726
 3340SOL     OW21652   2.097   2.978   6.904  0.1497 -0.0481  0.7907
 3340SOL    HW121653   2.136   2.943   6.984  0.7574 -1.3822 -0.0829
 3340SOL    HW221654   2.013   2.936   6.922 -0.6380  0.4517 -1.7383
 3341SOL     OW21655   2.657   0.340   0.230  0.3703 -0.0504 -0.0378
 3341SOL    HW121656   2.632   0.432   0.219 -0.5145 -0.0602  1.8420
 3341SOL    HW221657   2.678   0.350   0.323 -0.6274 -0.8632  0.2841
 3342SOL     OW21658   0.581   0.312  11.516  0.3458 -0.3249 -0.7285
 3342SOL    HW121659   0.539   0.395  11.538  0.0519 -0.9687  1.1599
 3342SOL    HW221660   0.516   0.249  11.547  0.8004  0.3210  1.5189
 3343SOL     OW21661   4.740   3.982   9.251  0.1845  0.4938 -0.2845
 3343SOL    HW121662   0.082   4.020   9.222  1.0088 -1.2021 -0.1448
 3343SOL    HW221663   4.706   3.941   9.172  0.6539 -0.2555 -0.0851
 3344SOL     OW21664   3.954   1.656   4.594  0.1053  0.1952 -0.0483
 3344SOL    HW121665   4.018   1.710   4.641 -0.4395 -0.8794  1.9220
 3344SOL    HW221666   3.933   1.596   4.666  1.2187 -0.8603 -0.6058
 3345SOL     OW21667   0.634   1.272   5.120 -0.2083  0.7694 -0.5759
 3345SOL    HW121668   0.682   1.353   5.099 -1.2010  0.8904 -2.4076
 3345SOL    HW221669   0.704   1.210   5.101  0.4190  1.7609 -1.4884
 3346SOL     OW21670   3.291   4.436   2.116 -0.8239 -0.0322 -0.2305
 3346SOL    HW121671   3.206   4.427   2.159  0.5583  1.8593  2.9125
 3346SOL    HW221672   3.326   4.347   2.122  1.1093  0.8737  2.0321
 3347SOL     OW21673   3.234   0.146   5.930  0.2748 -0.1085  0.0872
 3347SOL    HW121674   3.194   0.064   5.958  1.7687 -0.9220 -0.1691
 3347SOL    HW221675   3.219   0.207   6.002 -0.5431  1.4552 -1.4151
 3348SOL     OW21676   3.290   1.620   4.072 -0.0613 -0.4121  0.2517
 3348SOL    HW121677   3.330   1.706   4.056 -0.8361 -0.1876 -0.4454
 3348SOL    HW221678   3.346   1.567   4.015 -1.6476 -1.4865 -0.2917
 3349SOL     OW21679   0.680   1.454   4.246  0.0883  0.9302  0.3770
 3349SOL    HW121680   0.649   1.437   4.335  1.8085 -0.3713  0.7216
 3349SOL    HW221681   0.601   1.474   4.195 -1.5246 -3.0411  1.3657
 3350SOL     OW21682   4.376   2.741   8.449 -0.2591 -0.1344  0.1373
 3350SOL    HW121683   4.340   2.685   8.518  1.0578  0.2913  1.1693
 3350SOL    HW221684   4.347   2.694   8.371  0.9008 -2.4282  1.0794
 3351SOL     OW21685   3.581   2.846  11.975  0.1028  0.3757 -0.7958
 3351SOL    HW121686   3.490   2.858  12.003 -0.6557 -0.5992 -2.8638
 3351SOL    HW221687   3.622   2.925  12.011 -1.1851  0.9780 -0.6444
 3352SOL     OW21688   1.822   3.588   6.386 -0.5668 -0.6577  0.4061
 3352SOL    HW121689   1.884   3.548   6.325 -0.2060  1.3129 -0.5160
 3352SOL    HW221690   1.865   3.577   6.471 -0.3056  1.3341  0.5199
 3353SOL     OW21691   2.036   0.526  12.665  0.2158 -0.1940  0.2392
 3353SOL    HW121692   2.036   0.532  12.570 -0.0861 -0.1165  0.2453
 3353SOL    HW221693   1.960   0.582  12.680 -1.2720 -1.5240 -2.3259
 3354SOL     OW21694   2.637   0.858  17.293  0.3722  0.1639  0.1576
 3354SOL    HW121695   2.627   0.853  17.198  0.6513 -0.3036  0.1533
 3354SOL    HW221696   2.625   0.766  17.315  1.8544 -0.6146 -2.2308
 3355SOL     OW21697   0.527   3.138   5.349 -0.0493  0.8135 -0.6308
 3355SOL    HW121698   0.452   3.081   5.333  1.0478 -0.9987  0.6295
 3355SOL    HW221699   0.491   3.211   5.399 -1.6003 -0.5830  0.2742
 3356SOL     OW21700   2.516   1.519  17.320  0.3536  0.0903 -0.4122
 3356SOL    HW121701   2.448   1.475  17.269 -0.1063 -1.3786  1.4526
 3356SOL    HW221702   2.470   1.590  17.365 -0.0785 -1.4894  1.6473
 3357SOL     OW21703   1.854   4.399   7.079  0.0251 -0.1941  0.4391
 3357SOL    HW121704   1.927   4.410   7.018 -1.5508  1.7296 -1.1372
 3357SOL    HW221705   1.780   4.402   7.018 -0.9721  1.8777  1.7415
 3358SOL     OW21706   0.929   2.631   5.532  0.3670  0.1368 -0.5334
 3358SOL    HW121707   1.007   2.668   5.574  0.4341 -0.7890  0.1649
 3358SOL    HW221708   0.964   2.641   5.444  0.2992  0.4121 -0.5307
 3359SOL     OW21709   1.790   0.399   6.751  0.4978  0.3662  0.6953
 3359SOL    HW121710   1.748   0.387   6.836  2.3070 -0.1538  1.5231
 3359SOL    HW221711   1.768   0.317   6.708 -0.3682  1.2221 -0.4872
 3360SOL     OW21712   4.569   3.792   8.310 -0.3435  0.0154 -0.2239
 3360SOL    HW121713   4.640   3.736   8.341 -0.8811 -0.8747 -0.5959
 3360SOL    HW221714   4.610   3.879   8.313 -0.8806  0.3127 -1.3010
 3361SOL     OW21715   3.559   2.171   2.385 -0.0999 -0.8372 -0.1816
 3361SOL    HW121716   3.639   2.122   2.402  0.6334 -0.3491 -2.2021
 3361SOL    HW221717   3.490   2.106   2.399 -1.0631 -0.0749 -1.4191
 3362SOL     OW21718   1.064   2.158   5.755  0.3216 -0.0636 -0.3251
 3362SOL    HW121719   1.037   2.220   5.823  1.6360  2.2285 -1.9101
 3362SOL    HW221720   1.081   2.224   5.687  1.7059 -0.3308 -0.2403
 3363SOL     OW21721   4.369   2.528   8.236  0.1802  0.7811  0.2056
 3363SOL    HW121722   4.289   2.536   8.183  1.5284 -2.6020 -2.3413
 3363SOL    HW221723   4.382   2.434   8.236 -0.5206  0.6836 -0.4104
 3364SOL     OW21724   3.293   0.729   0.849 -0.1841  0.4664 -0.4828
 3364SOL    HW121725   3.353   0.794   0.885  1.6091 -0.6316 -1.4868
 3364SOL    HW221726   3.351   0.658   0.823 -1.2098 -0.5222 -0.0504
 3365SOL     OW21727   1.252   4.146   4.843 -0.2745 -0.6682  0.3841
 3365SOL    HW121728   1.303   4.140   4.924 -0.1625 -1.1686  0.2800
 3365SOL    HW221729   1.295   4.212   4.790 -1.9545  1.0183  1.1245
 3366SOL     OW21730   1.178   1.779   7.419  0.3504  0.0649 -0.6196
 3366SOL    HW121731   1.161   1.855   7.474  1.3593  0.0222 -0.2348
 3366SOL    HW221732   1.108   1.792   7.355  0.2396 -0.2277 -0.5564
 3367SOL     OW21733   3.092   1.176   1.867  0.0533  0.5852  0.0865
 3367SOL    HW121734   3.011   1.201   1.823 -0.5055 -1.0422  0.1742
 3367SOL    HW221735   3.078   1.198   1.959 -0.1438 -0.6935  0.3713
 3368SOL     OW21736   4.620   1.725  13.068 -0.5206 -0.1272 -0.0023
 3368SOL    HW121737   4.682   1.657  13.093 -2.0582 -0.3921  3.0622
 3368SOL    HW221738   4.664   1.783  13.005  0.6838 -1.8224 -0.7200
 3369SOL     OW21739   0.603   2.823   6.852 -0.1239  0.0476 -0.2993
 3369SOL    HW121740   0.659   2.899   6.833 -0.3312  0.9508  2.8106
 3369SOL    HW221741   0.521   2.844   6.808  0.0450 -1.6021 -1.3995
 3370SOL     OW21742   1.955   1.480   2.122  0.2897  0.2774  0.0287
 3370SOL    HW121743   1.986   1.567   2.147 -0.5557  0.7226 -0.4573
 3370SOL    HW221744   1.887   1.459   2.185  0.2549  1.1190  0.2799
 3371SOL     OW21745   1.335   0.273  14.204  0.2573 -0.1574 -0.1079
 3371SOL    HW121746   1.369   0.349  14.157 -0.8289  0.9388  0.8577
 3371SOL    HW221747   1.402   0.205  14.195  1.9524  1.2913  1.5155
 3372SOL     OW21748   3.073   4.358   4.982  0.8879  0.5193 -0.0762
 3372SOL    HW121749   3.065   4.270   4.946  1.2574  0.0109  1.0682
 3372SOL    HW221750   3.136   4.352   5.054  0.4068  2.8938  0.5438
 3373SOL     OW21751   1.109   0.275   1.993 -0.1411 -0.1674  0.5374
 3373SOL    HW121752   1.061   0.247   2.072 -1.2835  0.9879  0.2600
 3373SOL    HW221753   1.099   0.206   1.928 -0.6358 -1.3548  1.8500
 3374SOL     OW21754   1.197   0.978  11.937  0.1920  0.5958  0.3262
 3374SOL    HW121755   1.177   0.950  11.848  1.0395 -1.3145  0.7398
 3374SOL    HW221756   1.291   0.997  11.932  0.4305 -0.3129  1.2284
 3375SOL     OW21757   4.386   1.167  17.712 -0.6245  0.9779 -0.4644
 3375SOL    HW121758   4.342   1.177  17.628 -0.5762 -1.1901 -0.7522
 3375SOL    HW221759   4.404   1.261  17.718 -0.2639  0.9984 -2.0329
 3376SOL     OW21760   4.547   1.784   3.312  0.1396  0.3832  0.4569
 3376SOL    HW121761   4.452   1.778   3.323  0.1096  0.3029  0.1556
 3376SOL    HW221762   4.575   1.853   3.373 -0.9454  1.8088 -0.6473
 3377SOL     OW21763   2.705   3.596   3.568  0.4731 -0.0160  0.0677
 3377SOL    HW121764   2.780   3.616   3.511  0.4844  0.3869  0.2240
 3377SOL    HW221765   2.687   3.687   3.589  2.2825  0.2510  0.4698
 3378SOL     OW21766   1.734   3.546  16.648  0.5758 -0.0892 -0.3659
 3378SOL    HW121767   1.669   3.486  16.612 -0.8366  1.5376 -0.5405
 3378SOL    HW221768   1.785   3.574  16.572 -0.2232 -1.3061 -1.3523
 3379SOL     OW21769   4.274   0.703   4.829 -0.4043 -0.2545 -0.2761
 3379SOL    HW121770   4.343   0.755   4.789 -1.1612  0.1601 -1.0530
 3379SOL    HW221771   4.306   0.618   4.798 -1.3100 -0.4054 -0.7902
 3380SOL     OW21772   2.981   2.112   7.547 -0.2455 -1.1511 -0.3516
 3380SOL    HW121773   2.933   2.126   7.629 -1.0466  2.1015 -1.3924
 3380SOL    HW221774   3.065   2.075   7.573  0.5320  0.1366 -1.0657
 3381SOL     OW21775   0.828   2.455   5.279  0.1214 -0.9712  0.0113
 3381SOL    HW121776   0.829   2.433   5.186 -0.0819  0.6568 -0.3823
 3381SOL    HW221777   0.876   2.538   5.273 -1.2102 -0.0849  1.3709
 3382SOL     OW21778   3.672   1.168  11.152  0.3683  0.1343  0.2310
 3382SOL    HW121779   3.602   1.145  11.090  1.0889  0.8539 -0.8491
 3382SOL    HW221780   3.718   1.085  11.144  0.0956  0.0731 -0.7452
 3383SOL     OW21781   3.319   0.266   1.207  0.2962 -0.1851  0.4109
 3383SOL    HW121782   3.260   0.198   1.238 -1.5536  1.9871  1.6811
 3383SOL    HW221783   3.404   0.231   1.231  0.2116 -1.0477 -0.5717
 3384SOL     OW21784   4.310   2.407   7.089  0.5974 -0.2595 -0.8446
 3384SOL    HW121785   4.369   2.479   7.065  0.7826  0.4676  1.7748
 3384SOL    HW221786   4.290   2.371   7.003 -1.8255 -0.0231 -0.3846
 3385SOL     OW21787   4.201   3.310  14.923  0.6050 -0.1053 -0.1653
 3385SOL    HW121788   4.263   3.374  14.889 -1.7253  1.0968 -2.1425
 3385SOL    HW221789   4.181   3.355  15.005  0.9268  0.8889 -0.6335
 3386SOL     OW21790   2.628   4.545   4.553  0.1587  0.3036  1.0486
 3386SOL    HW121791   2.657   4.470   4.604 -0.6076 -1.1901 -0.7321
 3386SOL    HW221792   2.550   4.517   4.505  0.2405  1.7073  0.0909
 3387SOL     OW21793   1.171   3.086   1.555 -0.2058  0.1468 -0.1107
 3387SOL    HW121794   1.223   3.130   1.622  0.0412 -1.7811  0.9670
 3387SOL    HW221795   1.225   3.097   1.476  0.7136  2.3040  0.8368
 3388SOL     OW21796   1.637   2.882   1.937 -0.3143  0.4549  0.6946
 3388SOL    HW121797   1.719   2.836   1.919 -0.6451  0.4789 -0.9114
 3388SOL    HW221798   1.583   2.804   1.926  1.0022 -0.2959 -0.4000
 3389SOL     OW21799   0.761   3.775   0.927  0.0118 -0.5344  0.2151
 3389SOL    HW121800   0.732   3.866   0.933  0.5347 -0.4189  0.9181
 3389SOL    HW221801   0.782   3.763   1.020 -1.0482  3.8635  1.0167
 3390SOL     OW21802   1.502   0.039  14.198 -0.2424  0.7647  0.4515
 3390SOL    HW121803   1.525   4.708  14.256 -0.8972 -1.4936 -2.0955
 3390SOL    HW221804   1.446   0.004  14.128 -2.1351 -0.0602  2.3667
 3391SOL     OW21805   0.430   2.422   1.436 -0.0411 -0.3533 -0.2199
 3391SOL    HW121806   0.405   2.340   1.394 -2.2011 -0.9763  2.2243
 3391SOL    HW221807   0.422   2.485   1.365  1.7822  2.7389  2.3331
 3392SOL     OW21808   0.227   3.477  17.431  0.0387  0.1469  0.2660
 3392SOL    HW121809   0.293   3.542  17.408  0.2745  0.1783  1.0486
 3392SOL    HW221810   0.148   3.520  17.401  0.9112  0.7371 -1.2155
 3393SOL     OW21811   1.991   0.857   7.260 -0.6747 -0.2697  0.0482
 3393SOL    HW121812   1.973   0.765   7.236  0.3232 -0.1218 -1.3059
 3393SOL    HW221813   1.907   0.893   7.288 -0.0116  0.7638  0.6812
 3394SOL     OW21814   1.362   4.206   8.519  0.3464  0.7313  0.2055
 3394SOL    HW121815   1.328   4.295   8.512  0.5654  0.7391 -0.7379
 3394SOL    HW221816   1.446   4.218   8.565  0.2432 -2.8374  1.3626
 3395SOL     OW21817   2.599   3.757   4.561  0.2797 -0.0331 -0.2373
 3395SOL    HW121818   2.606   3.714   4.476 -1.0955  0.4629 -0.5992
 3395SOL    HW221819   2.516   3.806   4.558 -0.7040 -1.6400  0.8912
 3396SOL     OW21820   3.425   1.010   2.599  0.0956 -0.3696 -0.0015
 3396SOL    HW121821   3.348   0.953   2.598  0.0167 -0.2254 -1.7819
 3396SOL    HW221822   3.378   1.087   2.566  0.2769 -0.3742 -0.2681
 3397SOL     OW21823   2.297   1.784  13.581  0.3920  0.5948  0.6090
 3397SOL    HW121824   2.293   1.781  13.486 -1.0844 -0.2246  0.6964
 3397SOL    HW221825   2.217   1.834  13.598 -0.1910  0.6422 -2.3447
 3398SOL     OW21826   2.782   1.007   1.631 -0.0198 -0.2540 -0.5393
 3398SOL    HW121827   2.777   1.061   1.709  1.9707 -0.5873 -0.1876
 3398SOL    HW221828   2.873   1.015   1.601  0.9148 -0.7363  2.2007
 3399SOL     OW21829   4.653   1.162   3.475  0.9484  0.0174 -0.6184
 3399SOL    HW121830   4.714   1.227   3.509  0.3876 -1.1017  2.5827
 3399SOL    HW221831   4.716   1.125   3.413  0.4362 -0.6082 -0.7704
 3400SOL     OW21832   0.696   4.671  11.554  0.3781 -0.3368  0.5087
 3400SOL    HW121833   0.754   4.713  11.617  2.2749 -1.1356 -0.7134
 3400SOL    HW221834   0.748   4.682  11.474 -0.6547 -0.3289 -0.1684
 3401SOL     OW21835   2.992   1.477  11.747 -0.2877 -0.4480  0.3391
 3401SOL    HW121836   2.978   1.565  11.783  0.1645  0.4185 -1.5999
 3401SOL    HW221837   3.046   1.502  11.672 -0.5086 -0.2537  0.2461
 3402SOL     OW21838   1.262   0.263   1.428 -0.3647 -0.2606  0.1383
 3402SOL    HW121839   1.227   0.344   1.464 -1.1864 -1.6624  2.5319
 3402SOL    HW221840   1.320   0.294   1.359 -1.4188  2.9136  0.6671
 3403SOL     OW21841   0.010   0.140  11.704 -0.4945 -0.4375  0.2249
 3403SOL    HW121842   0.044   0.075  11.765 -1.5100 -1.4900 -0.3139
 3403SOL    HW221843   0.020   0.214  11.763 -1.1188  1.7167 -2.3408
 3404SOL     OW21844   2.154   4.665   5.771  0.0645 -0.0747  0.4259
 3404SOL    HW121845   2.208   4.621   5.705  0.1601 -3.5470  2.8160
 3404SOL    HW221846   2.131   4.592   5.829  0.5718 -0.1888  0.4833
 3405SOL     OW21847   0.400   1.911   8.796 -0.2262 -0.4511 -0.0367
 3405SOL    HW121848   0.408   1.819   8.771  0.4118 -0.7683  1.3194
 3405SOL    HW221849   0.422   1.923   8.888  0.3907  2.0853 -0.5289
 3406SOL     OW21850   1.096   1.110   5.227  0.3583  0.2950 -0.7017
 3406SOL    HW121851   1.178   1.060   5.228  1.6077  2.3138 -2.2024
 3406SOL    HW221852   1.042   1.035   5.252  0.3549  0.5638  0.1189
 3407SOL     OW21853   0.417   2.883   7.553  0.1048  0.2670 -0.3263
 3407SOL    HW121854   0.397   2.958   7.608 -0.6844  1.2541 -1.9647
 3407SOL    HW221855   0.471   2.826   7.608  0.5037  0.8538 -0.1148
 3408SOL     OW21856   2.733   0.394   7.660 -0.3704 -0.0347 -0.3866
 3408SOL    HW121857   2.687   0.432   7.585 -2.8403 -2.9803 -0.3565
 3408SOL    HW221858   2.756   0.310   7.620 -0.1940 -0.5684  0.8169
 3409SOL     OW21859   1.333   2.430   8.399  0.4972  0.1978  0.6721
 3409SOL    HW121860   1.243   2.439   8.432  0.4590 -1.5540  1.0106
 3409SOL    HW221861   1.311   2.480   8.320 -0.4737 -3.6269 -1.4842
 3410SOL     OW21862   0.830   3.042   3.407  0.0083  0.3509 -0.5244
 3410SOL    HW121863   0.921   3.070   3.414  0.5137 -1.3525 -0.3363
 3410SOL    HW221864   0.789   3.127   3.392 -1.3437 -0.0684  0.6784
 3411SOL     OW21865   2.257   2.608   2.898 -0.5521 -0.4514  0.0805
 3411SOL    HW121866   2.244   2.594   2.992 -1.8150  3.5634  0.4912
 3411SOL    HW221867   2.218   2.694   2.883 -1.2056 -0.8334 -0.3940
 3412SOL     OW21868   0.623   2.729  12.562  0.5074 -0.0415 -0.0841
 3412SOL    HW121869   0.611   2.708  12.469 -0.1975 -2.7631  0.6396
 3412SOL    HW221870   0.714   2.709  12.580 -0.1810 -1.3258  2.0091
 3413SOL     OW21871   0.340   2.874   6.752 -0.2990  0.4113  0.7257
 3413SOL    HW121872   0.280   2.825   6.696 -1.5751  1.8600  0.8248
 3413SOL    HW221873   0.312   2.962   6.725  0.8137  0.4216 -0.3869
 3414SOL     OW21874   0.530   1.715  17.754  0.5957 -0.5724 -0.3948
 3414SOL    HW121875   0.476   1.742   0.067 -4.4433  0.0124 -4.2816
 3414SOL    HW221876   0.471   1.710  17.679 -0.5515 -0.4135  0.5002
 3415SOL     OW21877   2.104   0.615   7.704  0.2419 -0.2450  0.1522
 3415SOL    HW121878   2.008   0.623   7.707  0.1187 -1.7337  0.2073
 3415SOL    HW221879   2.118   0.533   7.750  1.6090 -0.3304 -0.4318
 3416SOL     OW21880   3.860   2.079   5.820  0.2158  0.2210  0.4729
 3416SOL    HW121881   3.925   2.131   5.868  1.8733  0.5894 -2.2014
 3416SOL    HW221882   3.857   2.004   5.879  0.5517  0.9182  1.3866
 3417SOL     OW21883   0.687   2.120  16.175  0.0179 -0.6090  0.2411
 3417SOL    HW121884   0.781   2.105  16.181  0.0758 -1.0000 -1.5078
 3417SOL    HW221885   0.700   2.208  16.142 -2.2887 -0.0264  0.8370
 3418SOL     OW21886   2.151   2.381  14.466  0.6066 -0.4790  0.2163
 3418SOL    HW121887   2.064   2.352  14.437  1.2357  0.1703 -2.2964
 3418SOL    HW221888   2.130   2.473  14.480  0.9086  0.0002 -2.6688
 3419SOL     OW21889   0.304   2.675   7.222 -0.3979 -0.4829 -0.5631
 3419SOL    HW121890   0.235   2.613   7.246  0.9289 -1.7718 -0.0792
 3419SOL    HW221891   0.251   2.740   7.175  1.0532  2.0271  1.2870
 3420SOL     OW21892   2.373   4.707   4.884 -0.1218  0.6488  0.1942
 3420SOL    HW121893   2.385   0.034   4.817 -0.4718 -1.0266 -1.5636
 3420SOL    HW221894   2.413   0.002   4.963 -3.8992  0.7859  1.9906
 3421SOL     OW21895   1.025   2.602   0.309  0.8092  0.2135 -0.3289
 3421SOL    HW121896   0.981   2.528   0.350  2.5334  0.3842  1.8560
 3421SOL    HW221897   1.113   2.565   0.310  0.7163  0.0322  1.0889
 3422SOL     OW21898   1.928   0.543  15.072  0.6807 -0.3139  0.3688
 3422SOL    HW121899   1.993   0.481  15.106  0.5321 -0.8745 -0.3626
 3422SOL    HW221900   1.926   0.513  14.981 -0.0848 -2.6998  1.1821
 3423SOL     OW21901   0.125   4.679   6.397  0.4026 -0.0909 -0.3079
 3423SOL    HW121902   0.220   4.688   6.397  0.5174 -1.4707  2.5180
 3423SOL    HW221903   0.106   0.020   6.352  2.3322 -0.0094 -0.9771
 3424SOL     OW21904   1.969   0.901   3.689  0.0143 -0.4922  0.0733
 3424SOL    HW121905   1.990   0.915   3.781 -1.5079  0.1697  0.3260
 3424SOL    HW221906   2.033   0.960   3.649  1.7951 -2.8797 -0.6514
 3425SOL     OW21907   2.170   0.353   3.518 -0.2420  0.4810  0.3515
 3425SOL    HW121908   2.085   0.310   3.526  0.4622 -0.6591  1.7783
 3425SOL    HW221909   2.159   0.432   3.571 -0.9227  1.2203 -0.9107
 3426SOL     OW21910   3.893   1.653  13.726 -0.2734 -0.1023  0.0389
 3426SOL    HW121911   3.918   1.612  13.643 -1.4522  1.8201 -1.2421
 3426SOL    HW221912   3.841   1.722  13.684  0.7431 -0.2390 -1.4390
 3427SOL     OW21913   1.742   3.674   3.450  0.3407  0.3611 -0.1820
 3427SOL    HW121914   1.678   3.612   3.414 -0.7280  1.3143  0.0737
 3427SOL    HW221915   1.766   3.638   3.535  2.2152 -1.5112 -1.4948
 3428SOL     OW21916   0.350   1.662  10.455 -0.2177 -0.3627 -0.1293
 3428SOL    HW121917   0.318   1.738  10.406 -2.8980 -1.0341  0.5820
 3428SOL    HW221918   0.383   1.718  10.526 -0.8859  1.4547 -1.2533
 3429SOL     OW21919   2.406   4.032  12.388  0.7544  0.1296  0.0140
 3429SOL    HW121920   2.448   3.990  12.463 -1.7755  0.2072  1.4577
 3429SOL    HW221921   2.424   4.118  12.425  0.4154 -0.0667  0.6299
 3430SOL     OW21922   1.058   1.413   5.889  0.0463  0.4628 -0.5006
 3430SOL    HW121923   1.050   1.386   5.980 -1.1056 -1.5231 -1.1975
 3430SOL    HW221924   1.052   1.507   5.907  1.4742 -0.0109  2.3114
 3431SOL     OW21925   4.662   3.096   3.559 -0.0136 -0.2018 -0.1202
 3431SOL    HW121926   4.650   3.183   3.598 -1.3517  0.2729 -1.5765
 3431SOL    HW221927   4.697   3.107   3.471  0.2815 -0.4759 -0.0348
 3432SOL     OW21928   1.353   2.358   8.719  0.1922 -0.5732  0.1205
 3432SOL    HW121929   1.399   2.435   8.685 -0.1552  0.5037  2.0568
 3432SOL    HW221930   1.341   2.302   8.643 -0.7136 -2.6137  1.7468
 3433SOL     OW21931   2.893   2.021  11.724  0.3407 -0.5092 -0.8818
 3433SOL    HW121932   2.945   1.941  11.724 -0.1107 -0.8013 -1.0168
 3433SOL    HW221933   2.955   2.080  11.768 -0.1203  0.2697 -1.2864
 3434SOL     OW21934   1.303   4.374   9.476 -0.4709 -1.1933  0.0434
 3434SOL    HW121935   1.330   4.440   9.539  0.6727  0.5706 -2.2907
 3434SOL    HW221936   1.264   4.314   9.540 -2.0389  1.5179  1.6231
 3435SOL     OW21937   0.691   3.952   9.775  0.1707  0.2222  0.8048
 3435SOL    HW121938   0.620   3.897   9.807 -0.0559  0.4488  0.6892
 3435SOL    HW221939   0.722   3.986   9.859  0.5491 -0.0124  0.7593
 3436SOL     OW21940   0.478   3.676   0.701 -0.4946  0.2783  0.3772
 3436SOL    HW121941   0.445   3.586   0.697  0.3087 -0.0904  2.4871
 3436SOL    HW221942   0.395   3.724   0.712 -1.1541 -0.4715 -1.2186
 3437SOL     OW21943   1.574   3.608   3.218  0.3867 -0.0427 -0.1937
 3437SOL    HW121944   1.543   3.522   3.246 -1.5855  0.6827 -0.1186
 3437SOL    HW221945   1.532   3.661   3.285  0.0845  0.2057 -0.5764
 3438SOL     OW21946   0.713   1.655   7.537  0.3309  0.4861  0.7156
 3438SOL    HW121947   0.694   1.748   7.522 -0.5023 -0.0523 -1.6562
 3438SOL    HW221948   0.620   1.632   7.544  0.3325  0.3273  0.2247
 3439SOL     OW21949   4.013   3.226   6.888 -0.7312 -0.2846  0.1230
 3439SOL    HW121950   4.069   3.277   6.829 -1.3030  1.2105  0.8587
 3439SOL    HW221951   3.968   3.297   6.933  0.8600  1.4277 -0.9729
 3440SOL     OW21952   4.466   3.258  10.610  0.0813 -0.1265 -0.5315
 3440SOL    HW121953   4.481   3.330  10.548  0.6241  0.0434 -0.2089
 3440SOL    HW221954   4.446   3.313  10.686  0.9351 -2.1668  1.1582
 3441SOL     OW21955   4.206   4.635   0.100  0.2314  0.2589  0.0775
 3441SOL    HW121956   4.212   4.592   0.185 -1.7050  1.3916  0.7980
 3441SOL    HW221957   4.157   4.570   0.050  0.1594  0.6814 -0.4088
 3442SOL     OW21958   0.873   3.443   6.217 -0.7155  0.5833 -0.5593
 3442SOL    HW121959   0.863   3.348   6.217 -0.0069  0.5052 -1.8034
 3442SOL    HW221960   0.804   3.459   6.282 -1.5856  0.4045 -1.4426
 3443SOL     OW21961   1.767   2.451  13.451  0.1039 -0.0189 -0.1244
 3443SOL    HW121962   1.777   2.542  13.480  1.4796 -0.5809  1.1849
 3443SOL    HW221963   1.816   2.409  13.522  0.1292  0.1076 -0.0678
 3444SOL     OW21964   1.525   2.888   2.890  0.2006  0.3248 -0.3864
 3444SOL    HW121965   1.518   2.948   2.816  1.9287  1.7659  0.6246
 3444SOL    HW221966   1.434   2.882   2.917  0.5271  0.6066  0.7566
 3445SOL     OW21967   1.386   1.901   4.326 -0.0261 -0.4049 -0.6715
 3445SOL    HW121968   1.432   1.901   4.242  0.7722  0.8013 -0.2387
 3445SOL    HW221969   1.406   1.814   4.361 -0.9093 -0.3283  0.0009
 3446SOL     OW21970   1.192   3.949   6.675 -0.0826  0.3394  0.0573
 3446SOL    HW121971   1.207   3.855   6.669 -2.6373  0.0750 -2.2098
 3446SOL    HW221972   1.172   3.972   6.584 -0.8059 -0.7527 -0.0661
 3447SOL     OW21973   3.107   2.855   1.968  0.2428  0.4544  0.0320
 3447SOL    HW121974   3.066   2.919   2.026 -0.1417  2.3067 -2.2956
 3447SOL    HW221975   3.052   2.857   1.890  1.3555 -3.0566 -0.8365
 3448SOL     OW21976   4.645   3.790   4.427 -0.4351  0.2868  0.0537
 3448SOL    HW121977   4.651   3.862   4.364  0.1552 -0.6267 -0.9121
 3448SOL    HW221978   4.695   3.722   4.384 -0.2575 -0.5551  1.5916
 3449SOL     OW21979   0.876   3.656  16.999  0.1119  0.4437  0.3353
 3449SOL    HW121980   0.969   3.664  16.978  0.1224  0.9679  0.5975
 3449SOL    HW221981   0.843   3.638  16.911 -0.4333  1.2539  0.3758
 3450SOL     OW21982   4.546   0.555   6.996 -0.1750  0.2112  0.0669
 3450SOL    HW121983   4.468   0.601   6.965  0.2360  0.8911  0.0443
 3450SOL    HW221984   4.547   0.484   6.932  1.3607 -0.5390  0.9368
 3451SOL     OW21985   1.219   2.494   7.940 -0.0812  0.3876 -0.3222
 3451SOL    HW121986   1.197   2.563   7.877  1.4768  0.2739 -1.0091
 3451SOL    HW221987   1.217   2.424   7.875  0.3322  0.8215 -0.8140
 3452SOL     OW21988   0.799   4.666   8.157 -0.0421  0.6468  0.7544
 3452SOL    HW121989   0.841   4.583   8.181  1.3683  1.0179 -0.4738
 3452SOL    HW221990   0.862   4.691   8.090  0.3555  0.3052  1.0009
 3453SOL     OW21991   3.355   0.644   3.143  0.0872  0.2205  0.6407
 3453SOL    HW121992   3.265   0.618   3.165  0.0447  0.1251  0.3521
 3453SOL    HW221993   3.361   0.727   3.190 -0.2140 -1.1544  3.1181
 3454SOL     OW21994   1.179   0.114  14.383 -0.4073 -0.2739 -0.2122
 3454SOL    HW121995   1.211   0.141  14.297  3.1181 -0.5319  1.0011
 3454SOL    HW221996   1.099   0.166  14.384 -0.0049  0.4102 -2.4190
 3455SOL     OW21997   4.182   2.630  16.566  0.0417  0.1672  0.7805
 3455SOL    HW121998   4.196   2.723  16.549 -0.7354  0.1102 -0.1684
 3455SOL    HW221999   4.120   2.604  16.498 -0.1033 -1.9719  1.7053
 3456SOL     OW22000   1.086   1.234   6.429  0.4376 -0.0777 -0.1635
 3456SOL    HW122001   1.134   1.159   6.393  2.9565  0.7324  1.5203
 3456SOL    HW222002   1.026   1.184   6.485 -0.0784  0.3500 -0.3302
 3457SOL     OW22003   4.114   2.620   3.580  0.4454  0.0985 -0.6686
 3457SOL    HW122004   4.148   2.579   3.500 -1.8103 -1.3752 -0.8730
 3457SOL    HW222005   4.165   2.576   3.648 -0.9527 -1.6631 -0.7621
 3458SOL     OW22006   4.374   3.100   9.265 -0.5017  0.5663 -0.5025
 3458SOL    HW122007   4.453   3.133   9.306 -1.5592  0.7394  1.3849
 3458SOL    HW222008   4.315   3.176   9.265  1.0192  1.7580 -0.3264
 3459SOL     OW22009   3.995   0.375   2.535 -0.6072 -0.3788 -0.1725
 3459SOL    HW122010   4.048   0.321   2.476  1.8249 -0.0036  1.6758
 3459SOL    HW222011   3.915   0.323   2.544 -0.1871 -0.5105  2.6373
 3460SOL     OW22012   0.152   0.916   7.190 -0.2385  0.0756 -0.1674
 3460SOL    HW122013   0.063   0.904   7.155 -0.3029  1.7110 -0.5730
 3460SOL    HW222014   0.141   1.011   7.191 -2.0766 -0.1359 -0.0893
 3461SOL     OW22015   0.153   0.725   3.481 -0.4893 -0.1206 -0.3226
 3461SOL    HW122016   0.122   0.772   3.403 -2.3529 -1.1767 -0.2224
 3461SOL    HW222017   0.198   0.651   3.439  1.6828  0.7258  0.5065
 3462SOL     OW22018   3.311   1.562  17.165  0.5494  0.3532  0.1816
 3462SOL    HW122019   3.358   1.617  17.228 -0.0141  0.8158  0.2025
 3462SOL    HW222020   3.229   1.608  17.145  2.4485  2.2364 -3.3046
 3463SOL     OW22021   0.798   1.943   5.601  0.3111  0.3510 -0.3106
 3463SOL    HW122022   0.855   1.925   5.675 -0.2495  0.0707  0.0508
 3463SOL    HW222023   0.789   2.036   5.617  0.1460  0.0777  1.1637
 3464SOL     OW22024   0.718   3.618   3.816  0.1427  0.6504 -0.4548
 3464SOL    HW122025   0.785   3.684   3.829  1.0366 -0.2741 -0.3664
 3464SOL    HW222026   0.777   3.543   3.825 -1.9649 -1.2756 -2.5059
 3465SOL     OW22027   1.279   1.748   8.219  0.0879 -0.6536 -0.7851
 3465SOL    HW122028   1.353   1.803   8.242  0.2235 -1.6250  1.1285
 3465SOL    HW222029   1.205   1.804   8.241  2.7761  1.5304  2.6487
 3466SOL     OW22030   0.844   0.845   8.950 -0.0055  0.0080 -0.6274
 3466SOL    HW122031   0.774   0.849   9.016 -0.0153  2.8671 -0.7962
 3466SOL    HW222032   0.897   0.773   8.984  0.6047  0.7658  0.0236
 3467SOL     OW22033   4.500   1.573  15.900 -0.4526  0.2176  0.1952
 3467SOL    HW122034   4.543   1.556  15.984 -1.4012 -0.3426  0.5729
 3467SOL    HW222035   4.569   1.603  15.841  0.1616  0.3750  0.9946
 3468SOL     OW22036   1.737   3.180   6.846  0.1175 -0.2227  0.2844
 3468SOL    HW122037   1.767   3.121   6.916  0.9419  0.0106  0.1247
 3468SOL    HW222038   1.788   3.148   6.772 -0.7112  0.4310 -0.5541
 3469SOL     OW22039   0.620   2.975  12.739 -0.6614  0.1578  0.0297
 3469SOL    HW122040   0.602   2.897  12.687  0.5493 -0.4358  0.4754
 3469SOL    HW222041   0.676   2.942  12.810 -1.2788 -0.1960  0.3504
 3470SOL     OW22042   2.785   1.947  16.232 -0.4459 -0.2084  0.3664
 3470SOL    HW122043   2.760   1.972  16.143  1.2468  0.0891 -0.0211
 3470SOL    HW222044   2.727   2.001  16.286  1.6085  3.7101 -1.3594
 3471SOL     OW22045   3.763   3.531  12.049  0.6167  0.1588  0.5276
 3471SOL    HW122046   3.789   3.502  12.137  2.6287  1.1883  0.2888
 3471SOL    HW222047   3.700   3.596  12.080  1.7859  1.4254  0.2605
 3472SOL     OW22048   3.274   0.888  15.102  0.3151  0.4219 -0.2720
 3472SOL    HW122049   3.347   0.837  15.138 -1.3292 -1.6580  0.0701
 3472SOL    HW222050   3.310   0.907  15.015  0.0820 -0.3408 -0.5335
 3473SOL     OW22051   3.111   1.559   8.629  0.5778  0.2229  0.4192
 3473SOL    HW122052   3.075   1.511   8.703  0.4597 -0.3079  0.0199
 3473SOL    HW222053   3.129   1.488   8.567  0.0287 -0.8459  1.4844
 3474SOL     OW22054   1.425   4.080   4.629 -0.2168  0.4808 -0.1816
 3474SOL    HW122055   1.485   4.006   4.619 -0.5079  0.3841 -1.1586
 3474SOL    HW222056   1.427   4.111   4.720 -0.6426 -3.3734  1.1193
 3475SOL     OW22057   3.697   0.771   1.804 -0.3446  0.4115  0.0847
 3475SOL    HW122058   3.730   0.848   1.759 -0.8800  0.6573  0.1029
 3475SOL    HW222059   3.653   0.805   1.882  1.5387 -0.0170  1.3430
 3476SOL     OW22060   3.395   3.354   8.236 -0.8887  0.4153  0.0825
 3476SOL    HW122061   3.360   3.443   8.241  1.1861  1.3447 -2.1703
 3476SOL    HW222062   3.441   3.362   8.153 -1.0975  0.6437 -0.0117
 3477SOL     OW22063   0.238   3.634   2.200 -0.5548 -0.2749 -0.2436
 3477SOL    HW122064   0.258   3.608   2.290  0.3495  0.3070 -0.2818
 3477SOL    HW222065   0.297   3.708   2.189 -1.2867  0.3082 -0.2462
 3478SOL     OW22066   1.168   0.051   6.467  0.3254 -0.0409 -0.3036
 3478SOL    HW122067   1.138   0.101   6.543 -1.0452  0.3635 -1.1243
 3478SOL    HW222068   1.258   0.084   6.462  0.2423  0.6411  2.5953
 3479SOL     OW22069   0.559   0.387  17.153  0.5735 -0.2255  0.1196
 3479SOL    HW122070   0.584   0.351  17.238  0.4959  0.1693  0.3107
 3479SOL    HW222071   0.557   0.312  17.093  0.6170  1.5657 -2.0989
 3480SOL     OW22072   0.134   1.025   9.726  0.1136 -0.2470 -0.2719
 3480SOL    HW122073   0.061   1.080   9.754  0.8588  0.1298  0.9367
 3480SOL    HW222074   0.196   1.042   9.797  0.7448 -2.8963 -0.2023
 3481SOL     OW22075   3.340   0.925  10.345 -0.2340 -0.2917  0.0068
 3481SOL    HW122076   3.256   0.935  10.302 -0.4916  1.0930  0.8444
 3481SOL    HW222077   3.394   0.995  10.309 -2.3171  1.0309 -0.4908
 3482SOL     OW22078   3.317   2.839  14.774 -0.6707  0.3195 -0.0784
 3482SOL    HW122079   3.231   2.867  14.744 -0.4848  0.3384 -0.5782
 3482SOL    HW222080   3.330   2.757  14.727  0.7867 -1.0309  2.6843
 3483SOL     OW22081   1.133   0.200   9.868  0.0007  0.1480 -0.8479
 3483SOL    HW122082   1.089   0.267   9.815  0.2266  1.0178  0.0624
 3483SOL    HW222083   1.120   0.121   9.816 -1.8623  1.3660 -2.2515
 3484SOL     OW22084   0.813   1.397   7.219  0.1264  0.4726 -0.4066
 3484SOL    HW122085   0.850   1.416   7.305  3.1391 -0.8536 -1.3735
 3484SOL    HW222086   0.766   1.315   7.234 -4.8001  3.1142 -1.4420
 3485SOL     OW22087   3.506   2.473   9.743 -0.5285  0.0096 -0.1072
 3485SOL    HW122088   3.555   2.544   9.785  0.7098 -1.1944  0.4769
 3485SOL    HW222089   3.416   2.508   9.742 -0.2221  0.7245 -2.4467
 3486SOL     OW22090   1.820   4.280   7.416  0.2672  0.0871 -0.4721
 3486SOL    HW122091   1.739   4.289   7.366 -2.2539  1.2442  3.8077
 3486SOL    HW222092   1.790   4.202   7.462  0.4074  0.2522 -0.0948
 3487SOL     OW22093   1.868   3.140   4.937  0.7815 -0.0769  0.0971
 3487SOL    HW122094   1.914   3.222   4.955  0.9623  0.0559 -0.9399
 3487SOL    HW222095   1.804   3.139   5.008  0.7203  0.2106  0.0459
 3488SOL     OW22096   2.831   0.932   3.607  0.2495  0.0315  0.1387
 3488SOL    HW122097   2.808   0.839   3.604 -1.9173  0.5079  1.9795
 3488SOL    HW222098   2.752   0.969   3.568  0.1614  0.0817  0.3638
 3489SOL     OW22099   0.902   4.038   0.542 -0.6916  0.1584  0.6385
 3489SOL    HW122100   0.973   4.050   0.605 -0.5503 -1.3118  0.7587
 3489SOL    HW222101   0.950   4.034   0.459  1.6408 -1.5529  2.0733
 3490SOL     OW22102   3.102   4.161  16.893  0.1720  0.0982 -0.3371
 3490SOL    HW122103   3.039   4.231  16.876 -0.6518 -0.2929  1.0848
 3490SOL    HW222104   3.053   4.082  16.870 -0.1512  0.4114 -0.7416
 3491SOL     OW22105   3.708   2.329   4.589 -0.3908  0.8498  1.0340
 3491SOL    HW122106   3.671   2.417   4.596  0.9555  1.3710  1.6026
 3491SOL    HW222107   3.742   2.336   4.500 -0.4867 -1.6980  0.7779
 3492SOL     OW22108   3.638   0.566   8.064 -0.2419 -0.5342  0.2979
 3492SOL    HW122109   3.717   0.615   8.088  0.8531 -2.3826  0.4257
 3492SOL    HW222110   3.573   0.627   8.099  1.9383  2.5056 -0.9433
 3493SOL     OW22111   3.681   2.973   4.596 -0.0357  0.1034  0.0241
 3493SOL    HW122112   3.685   3.021   4.514  0.8708 -0.1658 -0.0925
 3493SOL    HW222113   3.698   3.042   4.660  2.4296 -1.1748  0.7550
 3494SOL     OW22114   0.348   3.704   3.648  0.4769  0.3949  0.0309
 3494SOL    HW122115   0.356   3.799   3.634 -0.8536  0.3608 -1.0538
 3494SOL    HW222116   0.407   3.667   3.583 -1.5035  0.6307 -1.9032
 3495SOL     OW22117   2.894   1.484   8.007 -0.1156  0.1935 -0.7859
 3495SOL    HW122118   2.898   1.394   8.040  0.9769  1.3555  2.2943
 3495SOL    HW222119   2.902   1.468   7.913  1.1874  1.6983 -0.9360
 3496SOL     OW22120   0.443   0.138   4.037  0.0108  0.2834 -0.0188
 3496SOL    HW122121   0.371   0.162   3.978  0.7006  1.2114 -0.4862
 3496SOL    HW222122   0.401   0.122   4.122  0.7599  1.9777  0.6736
 3497SOL     OW22123   0.596   1.498  13.600  0.3527 -0.3068 -0.1372
 3497SOL    HW122124   0.573   1.556  13.672 -2.2207  0.7162 -1.7775
 3497SOL    HW222125   0.675   1.464  13.641  0.6940 -1.0878 -1.4483
 3498SOL     OW22126   3.837   2.535   2.227  0.1789  0.0888  0.6875
 3498SOL    HW122127   3.798   2.622   2.227  0.6222  0.3055 -1.5678
 3498SOL    HW222128   3.804   2.502   2.143  1.2525  0.7181  0.0036
 3499SOL     OW22129   0.169   1.441   8.442 -0.6124 -0.5889 -1.0593
 3499SOL    HW122130   0.140   1.434   8.351 -0.0277  1.0655 -1.3757
 3499SOL    HW222131   0.186   1.348   8.458 -1.8143 -0.5284  0.5386
 3500SOL     OW22132   1.149   1.179   4.576 -0.6717 -0.3728 -0.4348
 3500SOL    HW122133   1.146   1.229   4.658 -1.9509  0.8032 -1.2023
 3500SOL    HW222134   1.079   1.117   4.599 -1.6034  0.9837  0.3920
 3501SOL     OW22135   0.944   4.421   3.632  0.3877  0.1484  0.0885
 3501SOL    HW122136   0.912   4.331   3.620  1.6590 -0.1100 -1.4714
 3501SOL    HW222137   0.865   4.465   3.601  0.7963  1.0955  0.4086
 3502SOL     OW22138   3.809   1.274   2.545 -0.0595 -0.8165  0.3094
 3502SOL    HW122139   3.768   1.210   2.603  0.1959  0.1175  1.5096
 3502SOL    HW222140   3.820   1.216   2.470 -0.4165 -0.4483 -0.0288
 3503SOL     OW22141   1.095   3.802   7.226  0.3688 -0.2361  0.4089
 3503SOL    HW122142   1.025   3.839   7.280 -1.1439 -0.0630 -1.6715
 3503SOL    HW222143   1.050   3.735   7.176 -0.2762  0.8259 -0.4297
 3504SOL     OW22144   1.478   4.374   6.089  0.2794  0.0136  0.5089
 3504SOL    HW122145   1.540   4.447   6.080 -0.8062  0.5963 -2.0644
 3504SOL    HW222146   1.403   4.426   6.119  0.3025  0.2120  0.2136
 3505SOL     OW22147   3.308   4.708   4.699  0.1092  0.6182  0.7896
 3505SOL    HW122148   3.382   0.005   4.746  0.3985 -0.3494  1.1281
 3505SOL    HW222149   3.310   4.629   4.753  1.1660 -1.5308 -2.3686
 3506SOL     OW22150   4.196   4.483   2.399 -0.2105 -0.0829  0.9675
 3506SOL    HW122151   4.207   4.450   2.488 -1.7909 -0.2796  1.0881
 3506SOL    HW222152   4.210   4.402   2.349 -0.3667  1.1046 -1.0092
 3507SOL     OW22153   2.231   1.244   0.779  0.0637  0.0276 -0.0531
 3507SOL    HW122154   2.252   1.167   0.831 -1.2677 -1.1515 -1.2461
 3507SOL    HW222155   2.283   1.319   0.807 -0.3097 -0.1255  1.0351
 3508SOL     OW22156   0.689   4.589   6.976  0.1015  0.2076 -0.3249
 3508SOL    HW122157   0.720   4.665   6.926  1.9880  0.4524  1.1974
 3508SOL    HW222158   0.596   4.585   6.954  0.3434  1.6831 -1.6528
 3509SOL     OW22159   2.331   1.130  15.434 -0.0613  0.3474 -0.0095
 3509SOL    HW122160   2.416   1.096  15.461 -0.1336 -0.8791 -1.3648
 3509SOL    HW222161   2.354   1.184  15.358  1.3286  1.0496  0.9186
 3510SOL     OW22162   0.370   4.141   9.934 -0.0841 -0.0251  0.0116
 3510SOL    HW122163   0.378   4.046   9.930 -3.4978 -0.3686  1.3198
 3510SOL    HW222164   0.438   4.160   9.999  1.2136  0.7277 -1.5555
 3511SOL     OW22165   2.005   3.486  10.413 -0.1162  0.2629 -0.1161
 3511SOL    HW122166   1.951   3.562  10.391  1.5302  1.5203  0.2477
 3511SOL    HW222167   2.050   3.513  10.493  0.5977 -2.1478  0.2808
 3512SOL     OW22168   4.000   1.172   8.251 -0.4270 -0.3573 -0.5461
 3512SOL    HW122169   3.931   1.105   8.242 -0.8258  0.3236 -2.5406
 3512SOL    HW222170   4.013   1.173   8.346 -0.0640  1.8865 -0.6255
 3513SOL     OW22171   4.338   3.956   9.646 -0.4030  0.3127 -0.2025
 3513SOL    HW122172   4.266   3.912   9.691  0.3661 -0.7169  0.0129
 3513SOL    HW222173   4.411   3.895   9.635 -1.0080 -0.3666 -0.4236
 3514SOL     OW22174   1.357   0.981   7.765  0.6555  0.0830 -0.6374
 3514SOL    HW122175   1.323   0.903   7.723  3.0626 -0.2505 -1.9536
 3514SOL    HW222176   1.300   0.989   7.841  1.2077 -2.3698  0.0466
 3515SOL     OW22177   0.986   4.596   5.350  0.1405 -0.7555  0.4537
 3515SOL    HW122178   1.008   4.548   5.270  0.3559  0.1141 -0.0147
 3515SOL    HW222179   0.911   4.542   5.374 -0.4918 -0.1717 -0.2101
 3516SOL     OW22180   1.530   1.892  12.613  0.1221  0.4723 -0.3680
 3516SOL    HW122181   1.614   1.850  12.595  0.9060  2.3540 -1.0643
 3516SOL    HW222182   1.560   1.978  12.640 -0.3778  0.8005 -0.8476
 3517SOL     OW22183   4.473   1.533   5.297 -0.2256 -0.2098 -0.6866
 3517SOL    HW122184   4.449   1.597   5.364 -1.0654 -1.4635  0.2087
 3517SOL    HW222185   4.455   1.579   5.215 -0.0588  1.4258  0.2135
 3518SOL     OW22186   2.032   2.956   2.014  0.1424 -0.5993 -0.3419
 3518SOL    HW122187   1.951   2.926   1.972 -0.6078  1.2028 -0.1851
 3518SOL    HW222188   2.043   3.045   1.983  1.1874 -1.0704 -1.3147
 3519SOL     OW22189   1.132   0.728   5.931  0.3989  0.2802 -0.3058
 3519SOL    HW122190   1.153   0.675   5.854 -0.7628 -1.3418  0.5172
 3519SOL    HW222191   1.084   0.791   5.878  2.0602  0.5866 -1.4727
 3520SOL     OW22192   3.045   0.723  16.882  0.0308 -0.6842  0.3491
 3520SOL    HW122193   3.106   0.712  16.954  0.5704  1.5516  0.2364
 3520SOL    HW222194   3.078   0.806  16.847 -0.4981 -0.5446  0.1794
 3521SOL     OW22195   0.721   0.077   2.394  0.1299 -0.1118 -0.4285
 3521SOL    HW122196   0.672   0.159   2.393  2.0155  1.0157 -0.3315
 3521SOL    HW222197   0.660   0.026   2.341  0.3715 -0.5156 -0.3125
 3522SOL     OW22198   4.183   3.609   4.393 -0.2601  0.9286  0.3764
 3522SOL    HW122199   4.164   3.611   4.487  0.3987 -0.1840  0.5292
 3522SOL    HW222200   4.247   3.680   4.386 -1.2183  1.8672  1.0131
 3523SOL     OW22201   4.422   3.949   6.318 -0.3094 -0.4817 -0.2537
 3523SOL    HW122202   4.476   3.966   6.241 -0.3691  0.9837  0.0332
 3523SOL    HW222203   4.482   3.983   6.384  1.9395 -0.3194 -2.3617
 3524SOL     OW22204   4.728   3.421   8.902 -0.0301  0.3199  0.2716
 3524SOL    HW122205   4.692   3.371   8.975  0.5052 -0.8328 -0.2490
 3524SOL    HW222206   0.002   3.358   8.831  0.8463  1.1199 -0.2608
 3525SOL     OW22207   3.370   1.569   8.226  0.1165 -0.2245 -0.2142
 3525SOL    HW122208   3.299   1.509   8.206  0.9856 -0.6087 -2.1847
 3525SOL    HW222209   3.394   1.554   8.317  0.2856  0.4437 -0.1459
 3526SOL     OW22210   0.290   1.731   1.777 -0.3303 -0.4093  0.2896
 3526SOL    HW122211   0.251   1.650   1.743  0.3027 -0.8618  0.6515
 3526SOL    HW222212   0.368   1.696   1.818  0.1900  2.1487  1.5031
 3527SOL     OW22213   2.985   3.541   8.185  0.1657 -0.2492  0.1187
 3527SOL    HW122214   2.946   3.606   8.242 -0.4314 -0.4807 -0.0256
 3527SOL    HW222215   2.907   3.504   8.143  1.5711 -0.7250 -2.1026
 3528SOL     OW22216   2.203   2.793   2.680 -0.0307  0.1883  0.7088
 3528SOL    HW122217   2.290   2.794   2.639 -1.0163 -1.6748 -1.4318
 3528SOL    HW222218   2.161   2.768   2.598  2.5855 -0.6910 -0.3620
 3529SOL     OW22219   3.199   2.170  16.641 -1.0247 -0.1643  0.0474
 3529SOL    HW122220   3.141   2.149  16.568 -1.0829 -0.1670  0.0948
 3529SOL    HW222221   3.205   2.085  16.685  1.8468  0.8193  1.5741
 3530SOL     OW22222   2.992   2.329  13.892 -0.2652  0.0857  0.4651
 3530SOL    HW122223   2.921   2.394  13.896 -0.6102 -0.2706  0.1130
 3530SOL    HW222224   3.008   2.329  13.798 -2.6761  1.1187  0.0304
 3531SOL     OW22225   4.275   0.201  15.931  0.2283 -0.0534 -0.5173
 3531SOL    HW122226   4.244   0.144  15.861 -1.0641 -0.4302  0.3631
 3531SOL    HW222227   4.309   0.281  15.890 -0.3645  0.3786 -0.1644
 3532SOL     OW22228   3.584   0.289   4.257 -0.5288 -0.2189  0.5389
 3532SOL    HW122229   3.546   0.251   4.336 -0.5460 -0.5992  0.3501
 3532SOL    HW222230   3.633   0.211   4.231  0.5343  0.3116  0.9598
 3533SOL     OW22231   0.232   3.433   7.927 -0.3112 -0.1843 -0.1204
 3533SOL    HW122232   0.312   3.398   7.888  0.4027 -2.5764  3.5130
 3533SOL    HW222233   0.176   3.357   7.937 -3.1871  2.0544  0.6293
 3534SOL     OW22234   1.152   3.189  15.594  0.1446 -0.0420  0.0835
 3534SOL    HW122235   1.090   3.253  15.559  0.6814 -0.5981 -1.9160
 3534SOL    HW222236   1.145   3.204  15.688 -1.2067 -1.0373  0.1512
 3535SOL     OW22237   1.812   1.294   2.475 -0.0634  0.5855  0.5564
 3535SOL    HW122238   1.789   1.323   2.563 -1.2786 -2.4835  1.2497
 3535SOL    HW222239   1.904   1.321   2.473 -0.2335  1.0057 -1.6107
 3536SOL     OW22240   1.362   3.178   7.369  0.7904 -0.2096  0.1477
 3536SOL    HW122241   1.361   3.180   7.464 -0.5418  0.3100  0.1200
 3536SOL    HW222242   1.269   3.163   7.351  0.8345 -1.3547  0.9190
 3537SOL     OW22243   2.376   0.387   9.019 -0.0563  0.7600 -0.2218
 3537SOL    HW122244   2.328   0.380   8.936 -1.4816 -0.7632  0.7401
 3537SOL    HW222245   2.342   0.314   9.071 -0.6255  0.1862 -1.3917
 3538SOL     OW22246   3.145   3.383  15.011 -0.5355  0.0828  0.4507
 3538SOL    HW122247   3.147   3.292  15.039 -1.4730 -0.2555 -0.5605
 3538SOL    HW222248   3.195   3.424  15.081 -2.1359  1.5826  0.7292
 3539SOL     OW22249   3.171   0.527  10.958  0.0827  0.1024 -0.5920
 3539SOL    HW122250   3.104   0.586  10.993  1.2139 -0.0768  1.8929
 3539SOL    HW222251   3.184   0.550  10.866  1.5894  1.5898  0.0070
 3540SOL     OW22252   2.382   1.222  15.876  0.0469 -0.0248  0.0999
 3540SOL    HW122253   2.323   1.231  15.801  0.3309  1.0166  0.0018
 3540SOL    HW222254   2.403   1.129  15.863  1.5518  0.1064  1.6475
 3541SOL     OW22255   3.254   1.684   5.139  0.0612  0.0080  0.2739
 3541SOL    HW122256   3.253   1.738   5.218 -0.0729 -0.8417  0.8529
 3541SOL    HW222257   3.329   1.709   5.086  0.8813 -2.7919  0.1328
 3542SOL     OW22258   1.174   0.454   4.607  0.0660 -0.2026 -0.2930
 3542SOL    HW122259   1.224   0.472   4.687  0.8151  2.1625 -1.3022
 3542SOL    HW222260   1.090   0.427   4.645  0.4585 -0.2361  0.5607
 3543SOL     OW22261   2.247   0.586  14.065  0.2521 -0.2731  1.1401
 3543SOL    HW122262   2.181   0.641  14.108  0.2696  0.7260 -0.1081
 3543SOL    HW222263   2.303   0.564  14.139  0.0054 -0.5781  1.2365
 3544SOL     OW22264   1.481   2.684   1.862  0.3297  0.0972 -0.0707
 3544SOL    HW122265   1.425   2.749   1.820 -2.0711 -0.3731  2.3678
 3544SOL    HW222266   1.514   2.634   1.788 -2.3063  2.0177 -2.5177
 3545SOL     OW22267   0.923   3.320   2.728  0.0655  0.1020  0.4922
 3545SOL    HW122268   0.877   3.239   2.750  0.3408 -0.2715 -0.3201
 3545SOL    HW222269   0.954   3.309   2.639  0.7048 -0.7841  0.8218
 3546SOL     OW22270   4.037   0.636   2.555  0.1096  0.4233  0.4849
 3546SOL    HW122271   4.004   0.547   2.541 -1.4363  0.7042  2.2850
 3546SOL    HW222272   4.125   0.612   2.585  0.0999 -1.6747 -1.2000
 3547SOL     OW22273   1.615   0.189  11.062 -0.0850 -1.4524 -0.6861
 3547SOL    HW122274   1.567   0.220  11.138  0.7429  0.3168 -0.8859
 3547SOL    HW222275   1.688   0.143  11.104 -0.5932 -1.8942 -0.2828
 3548SOL     OW22276   1.279   0.676  12.762 -0.1127  0.0700 -0.5559
 3548SOL    HW122277   1.291   0.698  12.669  0.1530  0.1037 -0.5142
 3548SOL    HW222278   1.184   0.673  12.771 -0.2194  1.4219 -1.1827
 3549SOL     OW22279   2.317   0.248   6.264  0.1220 -0.1862  0.0042
 3549SOL    HW122280   2.228   0.282   6.250  0.5970  1.3407  0.6502
 3549SOL    HW222281   2.353   0.320   6.316  0.4636 -0.3960  0.0546
 3550SOL     OW22282   0.200   1.003  16.443  0.4161 -0.6085 -0.2554
 3550SOL    HW122283   0.120   0.957  16.467 -0.6652  2.5786  2.2233
 3550SOL    HW222284   0.226   0.959  16.362  1.5251  0.1808 -0.3256
 3551SOL     OW22285   2.523   1.179   6.303  0.2746  0.1532 -0.2377
 3551SOL    HW122286   2.550   1.147   6.217 -2.0319 -2.1604 -0.0875
 3551SOL    HW222287   2.565   1.266   6.304  0.6502 -0.0424  0.7568
 3552SOL     OW22288   0.999   3.033   3.937 -0.6462 -0.2103 -0.5513
 3552SOL    HW122289   0.973   3.018   3.846  0.9305 -2.4792 -0.6172
 3552SOL    HW222290   1.009   3.126   3.919 -0.7953  0.0670  0.8264
 3553SOL     OW22291   3.755   4.272  14.900 -0.2324 -0.3229  0.0365
 3553SOL    HW122292   3.707   4.228  14.830 -0.6311 -0.7316  0.5644
 3553SOL    HW222293   3.744   4.362  14.866 -1.5844  0.4204  2.4429
 3554SOL     OW22294   4.069   2.363   7.529  0.2029 -0.0419 -0.0328
 3554SOL    HW122295   4.148   2.376   7.581  0.4895 -2.8760  0.2492
 3554SOL    HW222296   4.118   2.352   7.447  0.4638  0.9645 -0.0085
 3555SOL     OW22297   4.090   2.743   8.926 -0.1151  0.1754  0.5891
 3555SOL    HW122298   4.070   2.651   8.914 -1.4147  0.4322  0.8195
 3555SOL    HW222299   4.136   2.764   8.845 -0.6132 -2.5543 -0.3636
 3556SOL     OW22300   3.782   1.315   0.232  0.6522  0.1054 -0.2385
 3556SOL    HW122301   3.803   1.317   0.325 -0.1285 -1.2333 -0.0384
 3556SOL    HW222302   3.724   1.390   0.224  0.5458  0.0904  0.4604
 3557SOL     OW22303   3.783   3.334   5.071 -0.1340  0.4003  0.2488
 3557SOL    HW122304   3.746   3.408   5.118 -0.3273  1.5638 -1.7387
 3557SOL    HW222305   3.869   3.325   5.113 -0.7047  0.2697  1.4096
 3558SOL     OW22306   0.562   2.104   9.530  0.4846 -0.2948 -0.4763
 3558SOL    HW122307   0.539   2.014   9.552  2.4380 -0.3966  1.0990
 3558SOL    HW222308   0.652   2.108   9.564  0.5094 -1.3193 -0.4265
 3559SOL     OW22309   3.779   4.046   4.574 -0.0020 -0.0368 -0.2300
 3559SOL    HW122310   3.833   4.042   4.495  0.2118  0.2697 -0.0973
 3559SOL    HW222311   3.694   4.065   4.534  0.0934  2.7432  0.9097
 3560SOL     OW22312   2.723   3.230   9.093  0.3344 -0.8343 -0.7540
 3560SOL    HW122313   2.691   3.297   9.154  0.6727 -1.1089 -0.2691
 3560SOL    HW222314   2.641   3.197   9.056 -0.0456  0.2806 -0.9003
 3561SOL     OW22315   3.406   0.403   1.620 -0.4773  0.2195 -0.4988
 3561SOL    HW122316   3.471   0.336   1.643  0.9666  0.8597 -2.7204
 3561SOL    HW222317   3.323   0.360   1.600 -0.3030 -0.2162 -0.2844
 3562SOL     OW22318   1.721   0.249   5.471 -0.5942  0.2017 -0.4537
 3562SOL    HW122319   1.760   0.300   5.400 -0.1918 -1.0520 -1.1291
 3562SOL    HW222320   1.769   0.167   5.467 -0.8972 -0.0441  1.0509
 3563SOL     OW22321   0.360   2.870   2.494 -0.4589  0.0559 -0.1823
 3563SOL    HW122322   0.295   2.869   2.424 -2.5913 -1.5025  1.8171
 3563SOL    HW222323   0.399   2.957   2.480 -0.4295  0.0812  0.0576
 3564SOL     OW22324   1.218   3.187   6.628  0.2519 -0.0520  0.7092
 3564SOL    HW122325   1.133   3.196   6.671  0.6764  2.3520  1.0845
 3564SOL    HW222326   1.212   3.266   6.574 -0.9660 -0.7040 -0.1096
 3565SOL     OW22327   3.619   3.446   5.734  0.5569 -0.0441  0.2033
 3565SOL    HW122328   3.581   3.533   5.720  0.4147  0.2556  2.5583
 3565SOL    HW222329   3.703   3.468   5.773  0.1422 -1.1097  1.7100
 3566SOL     OW22330   2.726   3.494   2.435  0.2430  0.8925 -0.0864
 3566SOL    HW122331   2.750   3.461   2.522 -1.4213 -1.6608 -0.6026
 3566SOL    HW222332   2.633   3.511   2.446 -0.0405 -0.5238 -0.2666
 3567SOL     OW22333   0.887   4.432   6.037  0.2667 -0.3406  0.3442
 3567SOL    HW122334   0.851   4.401   6.121 -0.0963  1.4596  0.8474
 3567SOL    HW222335   0.819   4.410   5.973 -1.3947  0.1794  1.8977
 3568SOL     OW22336   4.607   0.916   9.580 -0.2442  0.2350  0.1775
 3568SOL    HW122337   4.701   0.906   9.564 -0.2429  2.4209 -1.1135
 3568SOL    HW222338   4.608   0.987   9.645  1.6101  0.8967 -0.5737
 3569SOL     OW22339   3.754   0.976   6.402  0.0920  0.5042  0.5362
 3569SOL    HW122340   3.690   1.025   6.454 -0.0308 -2.1840  2.9743
 3569SOL    HW222341   3.740   1.004   6.312  1.3208 -2.0953 -0.4684
 3570SOL     OW22342   0.194   1.249  15.350 -0.5630  0.5761 -0.4526
 3570SOL    HW122343   0.162   1.184  15.413  0.4078  1.5191  1.0064
 3570SOL    HW222344   0.137   1.325  15.353 -1.1559  0.1782 -1.4875
 3571SOL     OW22345   0.116   0.761  14.852 -0.2004  0.2260 -0.3557
 3571SOL    HW122346   0.079   0.839  14.811  0.4597  1.2867  1.0899
 3571SOL    HW222347   0.209   0.777  14.832 -0.4175  0.9587 -0.7840
 3572SOL     OW22348   0.208   4.415  14.372 -0.0040  0.0626 -0.2303
 3572SOL    HW122349   0.178   4.352  14.438 -0.1967  1.2110  0.7928
 3572SOL    HW222350   0.259   4.359  14.314  0.8036  0.9257 -0.3546
 3573SOL     OW22351   2.931   1.050   6.321 -0.2237  0.1427 -0.1616
 3573SOL    HW122352   2.938   1.071   6.414  1.2249 -1.3302  0.0759
 3573SOL    HW222353   2.974   1.125   6.280 -1.2850  0.8763  0.0779
 3574SOL     OW22354   0.468   0.477   3.137  0.3445 -0.1004 -0.6460
 3574SOL    HW122355   0.489   0.562   3.100  1.1849 -0.2618 -0.5260
 3574SOL    HW222356   0.482   0.413   3.067 -0.1583  0.6190 -1.4073
 3575SOL     OW22357   3.993   1.650   8.659 -0.0205  0.1694 -0.3635
 3575SOL    HW122358   4.077   1.696   8.656  0.4638 -0.7940 -1.3648
 3575SOL    HW222359   4.014   1.568   8.705 -1.1075 -0.6374 -1.3179
 3576SOL     OW22360   1.640   3.649   7.921  0.6174 -0.5543  0.4343
 3576SOL    HW122361   1.597   3.705   7.857  0.4887  0.5353  1.4924
 3576SOL    HW222362   1.600   3.686   7.999  2.2950  1.7048  0.1955
 3577SOL     OW22363   2.558   2.898  10.684 -0.0869  0.0238 -0.3397
 3577SOL    HW122364   2.511   2.901  10.600 -0.4745  0.1587 -0.1141
 3577SOL    HW222365   2.530   2.811  10.712 -0.4544  1.1464  2.7725
 3578SOL     OW22366   1.541   3.247   9.568  0.0491 -0.0679 -0.0147
 3578SOL    HW122367   1.589   3.223   9.489  0.8046 -1.2260  0.7969
 3578SOL    HW222368   1.574   3.183   9.631 -1.5142  1.8655  2.7615
 3579SOL     OW22369   4.171   4.138   2.836 -0.3397 -0.1655 -0.4643
 3579SOL    HW122370   4.154   4.059   2.785  1.2556 -1.7562  1.4900
 3579SOL    HW222371   4.166   4.205   2.767  0.8731  1.4047  0.9836
 3580SOL     OW22372   0.996   1.120   7.478 -0.3528  0.3474 -0.3310
 3580SOL    HW122373   1.069   1.169   7.439 -0.3732  1.2578  0.7755
 3580SOL    HW222374   1.011   1.152   7.567  2.1522 -0.3021 -0.5247
 3581SOL     OW22375   0.919   4.424   3.939  0.0346 -0.4391  0.1378
 3581SOL    HW122376   0.968   4.420   3.856  0.1002 -0.4525  0.1769
 3581SOL    HW222377   0.928   4.518   3.955 -4.7912  0.0399  0.0000
 3582SOL     OW22378   1.670   1.658   8.385 -0.6143 -0.0786 -0.2641
 3582SOL    HW122379   1.643   1.595   8.318 -2.8255  1.8411 -1.2021
 3582SOL    HW222380   1.730   1.712   8.333 -1.8893  1.1601 -0.4423
 3583SOL     OW22381   2.058   2.434   2.800 -0.0918 -0.3135  0.5161
 3583SOL    HW122382   2.032   2.397   2.884  0.8792 -2.3310 -0.0675
 3583SOL    HW222383   2.113   2.510   2.820 -1.8492  1.7618 -2.4845
 3584SOL     OW22384   0.552   2.080   7.200  0.0325 -0.2479  0.7874
 3584SOL    HW122385   0.614   2.147   7.231  1.5444 -1.7226  0.9612
 3584SOL    HW222386   0.469   2.128   7.201 -1.1103 -2.2048 -1.0428
 3585SOL     OW22387   0.198   1.776   4.422 -0.6871 -1.3504  0.0438
 3585SOL    HW122388   0.115   1.750   4.464  0.6302 -0.9433  2.9003
 3585SOL    HW222389   0.173   1.816   4.339 -0.7455  1.6002  1.4926
 3586SOL     OW22390   1.174   2.486   3.715  0.0394  0.2575 -0.2962
 3586SOL    HW122391   1.242   2.525   3.769 -1.0004  0.9232  0.5114
 3586SOL    HW222392   1.093   2.527   3.744 -0.3640 -1.0877  0.4564
 3587SOL     OW22393   1.091   2.446   4.724  0.5843 -0.6370  0.3716
 3587SOL    HW122394   1.093   2.532   4.766 -0.3903 -1.3006  1.7861
 3587SOL    HW222395   1.150   2.396   4.781 -1.6316 -0.8391  2.5196
 3588SOL     OW22396   3.327   1.756   1.878  0.3588 -0.4677  0.5064
 3588SOL    HW122397   3.382   1.773   1.801  0.5103 -1.7661  0.3383
 3588SOL    HW222398   3.275   1.681   1.852  0.5312 -0.3935 -0.0564
 3589SOL     OW22399   1.870   1.807   8.663 -0.6825 -0.3296 -0.1091
 3589SOL    HW122400   1.836   1.884   8.616  1.5319 -0.3741 -1.8154
 3589SOL    HW222401   1.788   1.764   8.685 -0.5456 -0.6823 -0.2885
 3590SOL     OW22402   0.921   1.303   1.445  0.0193 -0.5120 -0.3405
 3590SOL    HW122403   0.991   1.241   1.426  0.3565 -0.2079 -0.1045
 3590SOL    HW222404   0.974   1.381   1.462  0.5287 -1.0896  0.6717
 3591SOL     OW22405   2.562   2.169   4.891 -0.4113 -0.0810 -0.3125
 3591SOL    HW122406   2.543   2.238   4.954 -1.7735  1.7297 -2.7384
 3591SOL    HW222407   2.650   2.191   4.860  0.1911 -0.4935  1.0957
 3592SOL     OW22408   0.243   0.143   4.494 -0.1530  0.1415  0.6660
 3592SOL    HW122409   0.266   0.073   4.434  0.8434  2.1418 -1.2943
 3592SOL    HW222410   0.303   0.211   4.462 -0.1055 -0.2328 -0.0330
 3593SOL     OW22411   2.585   4.146  12.140 -0.0346 -0.2933 -0.7499
 3593SOL    HW122412   2.647   4.215  12.116  1.0098 -0.6988  0.8165
 3593SOL    HW222413   2.642   4.090  12.193 -2.2023  0.7559  2.6952
 3594SOL     OW22414   0.104   3.988   4.561  0.0981  0.3980 -0.3813
 3594SOL    HW122415   0.155   3.991   4.480  1.6395 -0.5479  0.5495
 3594SOL    HW222416   0.066   3.901   4.559  0.9455  0.0362 -0.9089
 3595SOL     OW22417   2.037   4.297   4.270 -0.4182 -0.3899 -0.1835
 3595SOL    HW122418   2.012   4.389   4.260 -3.7679 -1.2292  0.5682
 3595SOL    HW222419   2.020   4.288   4.364 -1.0118 -0.1281 -0.2666
 3596SOL     OW22420   4.451   0.324   6.473  0.4042  0.4882 -0.0843
 3596SOL    HW122421   4.528   0.336   6.417 -0.1691 -1.1157 -1.1766
 3596SOL    HW222422   4.473   0.391   6.538 -1.2844  1.0970 -0.1562
 3597SOL     OW22423   1.665   0.425  17.202  0.6319  0.2169 -0.2597
 3597SOL    HW122424   1.689   0.484  17.131  0.3651 -0.1163 -0.6280
 3597SOL    HW222425   1.725   0.459  17.268  1.9868 -1.3850 -0.6792
 3598SOL     OW22426   2.962   1.381   4.524  0.0581 -0.5834 -0.2050
 3598SOL    HW122427   2.922   1.302   4.562  1.4523 -0.8571  0.6931
 3598SOL    HW222428   3.012   1.350   4.449 -0.8446 -0.2590 -0.9377
 3599SOL     OW22429   0.477   4.037   6.838 -0.4277  0.3271 -0.8499
 3599SOL    HW122430   0.512   3.955   6.803  1.9608  1.7827 -1.8688
 3599SOL    HW222431   0.399   4.053   6.785 -1.0489 -0.8451 -0.2885
 3600SOL     OW22432   0.814   3.472   7.771  0.3506 -0.2937 -0.2185
 3600SOL    HW122433   0.881   3.477   7.839 -0.0108  1.7161 -0.0045
 3600SOL    HW222434   0.734   3.509   7.808  0.3484 -1.8567  1.3336
 3601SOL     OW22435   1.068   3.828   1.390  0.2337  0.4240 -0.1420
 3601SOL    HW122436   1.010   3.851   1.462  0.3903 -1.5553  0.6039
 3601SOL    HW222437   1.130   3.782   1.448  0.3812  1.6389  0.6597
 3602SOL     OW22438   2.792   2.276   5.856 -0.0012 -0.1283  0.3774
 3602SOL    HW122439   2.792   2.278   5.952 -0.7033  1.7125  0.3317
 3602SOL    HW222440   2.726   2.210   5.832  1.0044 -0.9992  0.0406
 3603SOL     OW22441   1.729   3.010   7.267  0.1436  0.0762  0.3769
 3603SOL    HW122442   1.772   2.936   7.311 -1.0873 -0.0429  1.3661
 3603SOL    HW222443   1.729   3.070   7.342  3.5131  0.0401  0.4155
 3604SOL     OW22444   2.803   0.161   8.731 -0.2257  1.0770  0.1327
 3604SOL    HW122445   2.731   0.205   8.775 -0.9848  2.1877 -2.2042
 3604SOL    HW222446   2.837   0.102   8.799 -1.4735  2.5143  1.9806
 3605SOL     OW22447   4.067   3.494   2.457 -0.5385 -0.6781 -0.1741
 3605SOL    HW122448   4.104   3.435   2.523 -0.6702 -0.1770  0.3456
 3605SOL    HW222449   4.145   3.507   2.402 -0.3467  0.1874  0.3161
 3606SOL     OW22450   3.123   4.298   3.593  0.3801 -0.2912  0.4059
 3606SOL    HW122451   3.036   4.274   3.626 -0.6802  1.4574 -1.0571
 3606SOL    HW222452   3.132   4.230   3.527 -0.3081  1.6392 -1.6819
 3607SOL     OW22453   0.115   3.961  11.241 -0.0606  0.1613  0.7952
 3607SOL    HW122454   0.162   3.881  11.266  0.9976 -0.0896 -1.9593
 3607SOL    HW222455   0.023   3.934  11.237  0.6385 -2.2449  0.6390
 3608SOL     OW22456   3.191   4.106  15.618  0.3636 -0.0461 -0.3245
 3608SOL    HW122457   3.237   4.129  15.698  0.3780  1.3002 -0.7190
 3608SOL    HW222458   3.135   4.180  15.594  1.6377  1.2756  0.7923
 3609SOL     OW22459   2.841   3.625   3.144 -0.0819 -0.4337 -0.3378
 3609SOL    HW122460   2.866   3.616   3.052 -0.3165  0.1600 -0.4623
 3609SOL    HW222461   2.751   3.593   3.135  0.3033 -1.6934  0.3667
 3610SOL     OW22462   3.515   1.236   9.856  0.3670 -0.5630  0.1245
 3610SOL    HW122463   3.442   1.185   9.821 -0.5023 -2.0066  4.1115
 3610SOL    HW222464   3.458   1.279   9.920  0.7772  0.4799 -0.2017
 3611SOL     OW22465   0.731   1.162   8.318  0.1064  0.2408 -0.1025
 3611SOL    HW122466   0.715   1.073   8.288  0.8093 -0.0339  0.3373
 3611SOL    HW222467   0.816   1.158   8.362  0.1748 -1.0592 -0.3646
 3612SOL     OW22468   0.667   4.328   5.875  0.2711  0.2598  0.1902
 3612SOL    HW122469   0.751   4.297   5.841 -0.7585 -3.3377  0.9328
 3612SOL    HW222470   0.610   4.278   5.816  1.4253 -2.9241  1.7745
 3613SOL     OW22471   4.450   0.298   6.133 -0.5254  0.0318  0.2125
 3613SOL    HW122472   4.477   0.217   6.177  1.9133  0.9123  0.3342
 3613SOL    HW222473   4.361   0.272   6.107  0.2482 -0.3347 -2.0510
 3614SOL     OW22474   0.452   1.920   5.794 -0.0920 -0.0659 -0.1121
 3614SOL    HW122475   0.467   1.985   5.725 -2.3557  2.2014  1.5354
 3614SOL    HW222476   0.543   1.890   5.800 -0.0280 -0.0984 -1.1534
 3615SOL     OW22477   4.326   2.037   3.168 -0.1518 -0.5295 -0.5943
 3615SOL    HW122478   4.351   2.125   3.197 -0.7305  0.2737 -2.5270
 3615SOL    HW222479   4.320   1.984   3.248  1.8023 -2.5630 -1.8304
 3616SOL     OW22480   1.613   0.341   6.987 -0.0842  0.2627 -0.1311
 3616SOL    HW122481   1.648   0.252   6.988 -1.0659 -0.1332 -0.7148
 3616SOL    HW222482   1.521   0.313   6.984 -0.3631  1.1265  0.4466
 3617SOL     OW22483   4.655   4.237   6.976 -0.6387  0.5295 -0.1673
 3617SOL    HW122484   0.006   4.217   6.995 -0.7173  2.6422  2.5025
 3617SOL    HW222485   4.660   4.333   6.967  0.4437  0.4008 -0.9229
 3618SOL     OW22486   2.182   0.645   6.176 -0.5214 -0.0196  0.1138
 3618SOL    HW122487   2.173   0.562   6.223  1.1023 -0.7066 -0.7707
 3618SOL    HW222488   2.122   0.634   6.103 -0.1350  0.6115 -0.3026
 3619SOL     OW22489   2.691   4.059   3.200 -0.1838  0.1421 -0.6229
 3619SOL    HW122490   2.659   4.148   3.212  0.5472  0.6094 -2.0812
 3619SOL    HW222491   2.771   4.057   3.253 -1.5077  1.0947  1.4171
 3620SOL     OW22492   1.489   2.610   8.687 -0.7315  0.4496  0.0019
 3620SOL    HW122493   1.537   2.603   8.770 -0.5248 -1.0337 -0.2490
 3620SOL    HW222494   1.495   2.703   8.666  1.3491 -0.0359 -1.5413
 3621SOL     OW22495   1.594   2.800   6.758  0.1271  0.1370 -0.7655
 3621SOL    HW122496   1.579   2.889   6.727 -2.3059  0.1493  0.4400
 3621SOL    HW222497   1.510   2.774   6.797  0.6029  0.6204  0.5791
 3622SOL     OW22498   1.656   3.905   1.105  0.3335 -0.2142 -0.2344
 3622SOL    HW122499   1.591   3.955   1.057 -1.3212 -3.0058 -0.9186
 3622SOL    HW222500   1.596   3.845   1.149  1.2086  1.0680  2.7166
 3623SOL     OW22501   4.467   0.405  14.803 -0.1900 -0.4456 -0.1529
 3623SOL    HW122502   4.509   0.427  14.720 -0.3887  1.0009  0.1402
 3623SOL    HW222503   4.530   0.441  14.865  1.7151 -0.9949 -1.7610
 3624SOL     OW22504   3.811   3.285  16.633  0.1491  0.0484  0.0986
 3624SOL    HW122505   3.775   3.322  16.714  1.1626  2.2229 -0.4335
 3624SOL    HW222506   3.765   3.347  16.576  1.9855 -0.7037 -2.1554
 3625SOL     OW22507   4.476   2.252  10.337  0.4493 -0.1004 -0.3819
 3625SOL    HW122508   4.425   2.260  10.256 -0.4315  1.0468  0.2910
 3625SOL    HW222509   4.561   2.236  10.296  0.6153  0.5759 -0.3006
 3626SOL     OW22510   0.408   1.559  16.914 -0.0823 -0.0522 -0.6563
 3626SOL    HW122511   0.326   1.576  16.960  0.0592  1.4764 -0.9428
 3626SOL    HW222512   0.442   1.649  16.906 -0.0741 -0.0478 -0.5718
 3627SOL     OW22513   0.074   2.430   3.029  0.1306 -0.4092  0.8121
 3627SOL    HW122514   0.083   2.500   3.094 -0.7869  0.1819  0.3092
 3627SOL    HW222515   4.725   2.402   3.046 -0.2455 -0.0964 -0.6978
 3628SOL     OW22516   1.057   0.454  16.980  0.5744  0.1398 -0.2326
 3628SOL    HW122517   1.123   0.386  16.994  1.0703  0.3967 -1.2970
 3628SOL    HW222518   0.991   0.397  16.939 -0.0943  0.1435  0.8310
 3629SOL     OW22519   3.588   1.716   7.395 -0.4178 -0.4643  0.4776
 3629SOL    HW122520   3.555   1.626   7.389 -1.1568 -0.2087  0.7065
 3629SOL    HW222521   3.633   1.723   7.310  0.3311 -1.8543  0.7540
 3630SOL     OW22522   0.538   0.673   2.962 -0.5303  0.2357 -0.4506
 3630SOL    HW122523   0.527   0.767   2.946 -1.2074  0.5087  1.5713
 3630SOL    HW222524   0.506   0.649   2.875  0.6528 -1.3464 -0.4436
 3631SOL     OW22525   2.463   4.201   4.798 -0.1394 -0.1852 -0.1605
 3631SOL    HW122526   2.430   4.159   4.878  1.9904  1.3535  1.5109
 3631SOL    HW222527   2.449   4.293   4.820  1.8973  0.0718  0.0230
 3632SOL     OW22528   2.285   3.970   3.609  0.0426 -0.3932  0.0953
 3632SOL    HW122529   2.234   4.015   3.541 -0.5391  0.3107  1.0039
 3632SOL    HW222530   2.326   3.898   3.561 -0.3595  0.7887 -2.0190
 3633SOL     OW22531   0.677   0.523   8.453  0.1609 -0.6346  0.4334
 3633SOL    HW122532   0.592   0.498   8.488 -0.1380  3.0857  2.2941
 3633SOL    HW222533   0.732   0.533   8.530  1.1909 -0.0303 -0.3844
 3634SOL     OW22534   0.977   1.788   2.684 -0.3810  0.0529  0.4202
 3634SOL    HW122535   1.016   1.866   2.722 -0.9570  0.3422  0.4236
 3634SOL    HW222536   0.986   1.724   2.754 -3.4621 -0.7850  0.0549
 3635SOL     OW22537   3.427   2.770  13.730  0.0118 -0.1105  0.1490
 3635SOL    HW122538   3.356   2.730  13.780 -0.2325 -2.0809 -1.7514
 3635SOL    HW222539   3.387   2.844  13.684  0.6296  1.2555  1.7956
 3636SOL     OW22540   0.541   4.578   8.066  0.5277 -0.0599  0.6132
 3636SOL    HW122541   0.630   4.613   8.056  0.2948  0.7205  1.3202
 3636SOL    HW222542   0.552   4.495   8.020  1.0575 -0.4207  1.4032
 3637SOL     OW22543   3.523   0.759   4.777  0.4510 -0.3465  0.0260
 3637SOL    HW122544   3.497   0.708   4.854 -1.6835 -0.8035 -0.9934
 3637SOL    HW222545   3.476   0.841   4.793 -0.2688 -0.8356  0.4205
 3638SOL     OW22546   3.126   4.056   2.533  0.0826 -0.7788 -0.5160
 3638SOL    HW122547   3.060   3.987   2.538  0.7050 -1.3933 -0.7346
 3638SOL    HW222548   3.105   4.088   2.445 -0.7554  0.0941  0.0019
 3639SOL     OW22549   2.107   3.232   2.555 -0.2008  0.1321  0.0959
 3639SOL    HW122550   2.131   3.196   2.470  0.2461 -1.9904  1.1029
 3639SOL    HW222551   2.184   3.208   2.607 -0.3284 -1.5757 -0.5078
 3640SOL     OW22552   1.584   1.564   9.920 -0.1804 -0.2043 -0.0673
 3640SOL    HW122553   1.600   1.650   9.881 -1.2575 -1.0846 -2.4824
 3640SOL    HW222554   1.568   1.513   9.840  0.0070 -0.7321  0.2333
 3641SOL     OW22555   0.381   3.421   0.596  0.0866 -0.2133  0.0666
 3641SOL    HW122556   0.307   3.478   0.574  0.4198 -0.2857 -1.2519
 3641SOL    HW222557   0.427   3.417   0.512 -1.1111 -0.6427 -0.5669
 3642SOL     OW22558   4.247   2.986  14.410  0.3162 -0.1779 -0.0444
 3642SOL    HW122559   4.323   2.975  14.353 -1.1864 -2.2002 -1.6603
 3642SOL    HW222560   4.279   3.045  14.478  0.6724 -2.0367  1.4177
 3643SOL     OW22561   1.826   2.885   3.669  0.3658  0.4725  0.8000
 3643SOL    HW122562   1.868   2.964   3.635 -2.6188  1.4545 -0.6196
 3643SOL    HW222563   1.900   2.834   3.701 -0.4300 -0.3656  1.3041
 3644SOL     OW22564   4.229   0.440   3.365  0.1903  0.1912  0.2844
 3644SOL    HW122565   4.223   0.393   3.282 -0.7836  3.4086 -1.4854
 3644SOL    HW222566   4.144   0.484   3.370  0.6971  1.1189  0.7119
 3645SOL     OW22567   1.593   3.432   7.053 -0.5084  0.3690  0.4964
 3645SOL    HW122568   1.614   3.339   7.045 -0.7037  0.2388  1.5600
 3645SOL    HW222569   1.509   3.442   7.097  1.3720  1.0762  3.9183
 3646SOL     OW22570   3.972   2.177   7.713  0.0225  0.0464  0.2356
 3646SOL    HW122571   3.999   2.210   7.627  2.4268 -1.0611  0.5582
 3646SOL    HW222572   3.877   2.172   7.707 -0.0216  1.0889 -0.0486
 3647SOL     OW22573   1.429   2.826   0.665  0.5874 -0.3634 -0.1896
 3647SOL    HW122574   1.344   2.790   0.690 -0.2658  1.2014 -0.8822
 3647SOL    HW222575   1.397   2.915   0.653  1.0988 -0.1685 -0.0971
 3648SOL     OW22576   2.775   4.479   6.471  0.3836 -0.6240 -0.5246
 3648SOL    HW122577   2.715   4.458   6.542 -0.0530  0.7906 -0.4801
 3648SOL    HW222578   2.850   4.421   6.485  1.5121  1.4703  2.0579
 3649SOL     OW22579   1.086   0.876   7.569  0.0576  0.3344  0.3021
 3649SOL    HW122580   1.066   0.949   7.510 -0.0692 -0.9859 -1.2546
 3649SOL    HW222581   0.998   0.866   7.608  0.6532 -0.3961  1.4546
 3650SOL     OW22582   3.620   1.336   4.655  0.0637 -0.5140  0.3318
 3650SOL    HW122583   3.546   1.393   4.637  0.6940 -0.5214 -2.2390
 3650SOL    HW222584   3.655   1.314   4.569  1.1132 -1.9794  1.1232
 3651SOL     OW22585   0.381   3.913   7.531 -0.2495 -0.0266  0.2281
 3651SOL    HW122586   0.373   3.946   7.621  0.3484  0.5404  0.0758
 3651SOL    HW222587   0.300   3.862   7.522 -1.9863  2.5423  1.2997
 3652SOL     OW22588   3.594   3.033   2.593 -0.0749 -0.0972  0.2587
 3652SOL    HW122589   3.612   3.034   2.687  0.5970  1.0677  0.1131
 3652SOL    HW222590   3.585   3.127   2.578 -1.6489 -0.2462  0.2155
 3653SOL     OW22591   3.575   1.803   8.659  0.3645  0.1077  0.2175
 3653SOL    HW122592   3.659   1.834   8.692  0.1990 -0.9657  1.6223
 3653SOL    HW222593   3.541   1.872   8.602  1.9768  0.2650 -0.5589
 3654SOL     OW22594   0.647   0.599   2.047  0.3688  0.3344 -0.9402
 3654SOL    HW122595   0.623   0.522   1.996  0.9968 -0.2982 -0.2742
 3654SOL    HW222596   0.624   0.669   1.986  0.6829 -0.8073 -2.3797
 3655SOL     OW22597   2.436   0.811  10.011 -0.1556  0.3069 -0.7223
 3655SOL    HW122598   2.446   0.874  10.082 -1.7177 -0.2734  0.0148
 3655SOL    HW222599   2.523   0.773  10.023 -1.1562 -1.3454  1.2482
 3656SOL     OW22600   4.344   1.128   3.906 -0.1602 -0.6346  0.5050
 3656SOL    HW122601   4.386   1.207   3.874 -1.8807  1.0289  2.3129
 3656SOL    HW222602   4.399   1.063   3.864  1.9925  0.9054  0.9653
 3657SOL     OW22603   4.500   0.846   8.996  0.0185  0.4908  0.0353
 3657SOL    HW122604   4.518   0.924   8.945  0.5399  0.3548  0.0131
 3657SOL    HW222605   4.571   0.827   9.057  0.4772  0.4554 -0.5152
 3658SOL     OW22606   1.833   4.640   5.601 -0.7543 -0.3339  0.4170
 3658SOL    HW122607   1.797   4.659   5.515 -1.2925  1.0956  0.9466
 3658SOL    HW222608   1.915   4.688   5.598 -1.3835  0.6580 -0.4945
 3659SOL     OW22609   0.834   3.943   0.259 -0.2370 -0.1067  0.0671
 3659SOL    HW122610   0.832   4.038   0.245 -2.0697 -0.0587  0.5724
 3659SOL    HW222611   0.757   3.926   0.313 -0.0458 -0.4051  0.2427
 3660SOL     OW22612   3.227   2.339  14.423  0.1900 -0.1283 -0.2418
 3660SOL    HW122613   3.321   2.360  14.423  0.0550  0.4641 -0.5068
 3660SOL    HW222614   3.204   2.398  14.352 -1.1522 -1.7376 -1.1602
 3661SOL     OW22615   3.027   1.606  17.098  0.3927  0.4369  0.2926
 3661SOL    HW122616   2.932   1.614  17.114  0.7055 -0.7246  2.7602
 3661SOL    HW222617   3.048   1.536  17.160 -1.1130 -1.0482 -0.8770
 3662SOL     OW22618   3.854   0.049  11.407 -0.3078  0.7179 -0.2514
 3662SOL    HW122619   3.792   0.016  11.471 -2.1934 -0.0372 -2.4543
 3662SOL    HW222620   3.937   0.041  11.454  0.1630  0.1540 -1.1538
 3663SOL     OW22621   2.033   3.265  16.539  0.1964 -0.5687  0.6312
 3663SOL    HW122622   2.065   3.326  16.472  2.3476 -2.7135 -0.2876
 3663SOL    HW222623   1.954   3.235  16.494  1.0533 -1.9865  0.0581
 3664SOL     OW22624   4.520   0.421  17.607 -0.3114  0.5127 -0.4493
 3664SOL    HW122625   4.489   0.510  17.624  1.4269  0.8517  1.0097
 3664SOL    HW222626   4.438   0.379  17.580 -1.0273  1.3462  0.3872
 3665SOL     OW22627   1.130   4.304  11.564 -0.4337 -0.9952 -0.5484
 3665SOL    HW122628   1.157   4.265  11.481 -0.5964  1.0628 -1.5604
 3665SOL    HW222629   1.075   4.238  11.607 -1.1384  0.2831  0.5239
 3666SOL     OW22630   1.587   0.015  12.614 -0.0918 -0.2056  0.1384
 3666SOL    HW122631   1.588   0.077  12.687  2.2061  2.9580 -2.5822
 3666SOL    HW222632   1.668   0.037  12.568 -1.6012  1.2928 -1.8058
 3667SOL     OW22633   2.745   2.146   2.534 -0.3695 -0.1739  0.4349
 3667SOL    HW122634   2.679   2.214   2.528 -0.4396 -0.1425  1.6248
 3667SOL    HW222635   2.810   2.195   2.584 -0.1988  0.7012 -0.6559
 3668SOL     OW22636   2.541   0.087   7.341 -0.0151 -0.0074  0.2649
 3668SOL    HW122637   2.598   0.013   7.359 -1.0849 -1.5757 -2.8460
 3668SOL    HW222638   2.471   0.069   7.404 -0.0855  1.6478  0.6559
 3669SOL     OW22639   2.982   2.611   7.951  0.1685 -0.2227  0.5598
 3669SOL    HW122640   2.990   2.694   7.996 -2.1369  0.4334 -0.2363
 3669SOL    HW222641   3.008   2.631   7.861 -0.3512  1.9488  0.8895
 3670SOL     OW22642   3.908   4.580   6.644  0.1627  0.2563 -1.0271
 3670SOL    HW122643   3.997   4.552   6.665 -0.5274  0.5446  2.2915
 3670SOL    HW222644   3.873   4.551   6.728  0.2534  0.2582 -0.9895
 3671SOL     OW22645   2.935   3.379   2.324 -0.0835  0.0224  0.1104
 3671SOL    HW122646   2.987   3.367   2.404  0.7702 -1.2686 -0.6411
 3671SOL    HW222647   2.861   3.428   2.358  0.9768 -0.2107  2.7577
 3672SOL     OW22648   3.270   4.342   5.767  0.1928 -0.7750  0.2257
 3672SOL    HW122649   3.264   4.328   5.861 -0.6449 -1.0369  0.1307
 3672SOL    HW222650   3.330   4.417   5.769  0.3179 -0.8251 -1.5329
 3673SOL     OW22651   3.663   1.456   9.828 -0.2853  0.3510 -0.7707
 3673SOL    HW122652   3.648   1.363   9.842  1.2267  0.1878 -0.1474
 3673SOL    HW222653   3.739   1.457   9.770  1.0665 -0.2517  0.9636
 3674SOL     OW22654   1.939   3.078   9.657  0.3146 -0.5952  0.0843
 3674SOL    HW122655   1.992   3.054   9.581  0.9868 -0.0288  0.3716
 3674SOL    HW222656   1.886   2.998   9.657 -1.1100  0.3564 -0.6805
 3675SOL     OW22657   1.958   2.191  12.082  0.0804 -0.3650  1.0614
 3675SOL    HW122658   1.974   2.097  12.075  0.5316 -0.1748 -0.3532
 3675SOL    HW222659   2.047   2.226  12.083  0.6266 -1.7612  1.7561
 3676SOL     OW22660   1.720   2.574   8.453 -0.0796  0.4348 -0.0647
 3676SOL    HW122661   1.646   2.589   8.513 -2.8500 -0.0720 -3.3679
 3676SOL    HW222662   1.696   2.488   8.418  0.3129  0.9495 -1.5628
 3677SOL     OW22663   4.221   0.218   4.843  0.2428  0.5850  0.2664
 3677SOL    HW122664   4.232   0.172   4.759  1.4941 -0.0072  0.7519
 3677SOL    HW222665   4.263   0.151   4.896 -2.6100 -1.2531  0.2285
 3678SOL     OW22666   3.135   4.679   6.847 -0.0758  0.1189  0.0962
 3678SOL    HW122667   3.179   4.656   6.929  0.1182 -1.4166 -0.4264
 3678SOL    HW222668   3.094   4.596   6.821 -0.7872  0.2727  0.7167
 3679SOL     OW22669   3.529   0.317   3.061 -0.5575  0.0791 -0.2487
 3679SOL    HW122670   3.461   0.279   3.117 -1.3232  1.5125 -0.2032
 3679SOL    HW222671   3.481   0.325   2.978  1.4850  1.1687 -1.3247
 3680SOL     OW22672   0.701   4.642   5.347 -0.2705 -0.1952 -0.0091
 3680SOL    HW122673   0.692   4.606   5.258 -1.1062  0.8761 -0.3687
 3680SOL    HW222674   0.640   4.588   5.396  0.8676 -1.2207  0.2737
 3681SOL     OW22675   2.804   1.209   2.367  0.2777  0.0082 -0.0701
 3681SOL    HW122676   2.715   1.228   2.337 -1.1249 -1.6348  3.0606
 3681SOL    HW222677   2.804   1.163   2.451 -0.1805  0.9760  0.4506
 3682SOL     OW22678   3.190   2.838   8.471 -0.2619  0.5481 -0.1295
 3682SOL    HW122679   3.109   2.788   8.481 -1.1828  1.7673 -1.4524
 3682SOL    HW222680   3.249   2.774   8.511 -0.3506  0.8565  0.4833
 3683SOL     OW22681   1.669   3.328   0.323 -0.5327  0.3481 -1.0810
 3683SOL    HW122682   1.661   3.379   0.242 -0.0683  1.8329 -0.2003
 3683SOL    HW222683   1.684   3.398   0.387  0.3438  0.5543 -1.5179
 3684SOL     OW22684   2.408   2.565   2.093 -0.2648 -0.1592  0.0970
 3684SOL    HW122685   2.472   2.538   2.026 -1.4805 -0.0652 -1.0916
 3684SOL    HW222686   2.363   2.629   2.038  0.6691  0.1460 -0.3165
 3685SOL     OW22687   0.993   0.959   9.798 -0.2730 -0.2594  0.5873
 3685SOL    HW122688   1.087   0.968   9.784 -0.5729  0.9303 -0.6820
 3685SOL    HW222689   0.994   0.940   9.892 -0.2825  1.6183  0.9540
 3686SOL     OW22690   3.942   0.762   5.065 -0.4545 -0.3197  0.1300
 3686SOL    HW122691   4.035   0.751   5.083 -1.0144 -1.9831  1.9745
 3686SOL    HW222692   3.948   0.779   4.971 -0.2995  1.6382  0.5016
 3687SOL     OW22693   0.767   1.152   7.326  0.0713  0.3127 -0.0716
 3687SOL    HW122694   0.813   1.098   7.262  0.5251 -0.0043  0.5231
 3687SOL    HW222695   0.838   1.154   7.390 -0.0097 -1.2739  0.0646
 3688SOL     OW22696   3.167   1.421   5.120  0.0188  0.0957 -0.6427
 3688SOL    HW122697   3.198   1.511   5.111  0.4551 -0.1010 -1.1389
 3688SOL    HW222698   3.135   1.409   5.210  1.2306  1.3211 -0.0486
 3689SOL     OW22699   3.824   1.694  15.637  0.3334 -0.2204 -0.5157
 3689SOL    HW122700   3.821   1.696  15.542 -2.3669  2.3699 -0.3674
 3689SOL    HW222701   3.744   1.649  15.665  0.5734 -0.9554 -1.0088
 3690SOL     OW22702   2.501   2.537   5.794  0.4674  0.1860 -0.1720
 3690SOL    HW122703   2.480   2.448   5.823  0.0640  0.5069  0.5239
 3690SOL    HW222704   2.430   2.552   5.731  1.0772  0.9646 -0.6703
 3691SOL     OW22705   1.152   1.013   7.959 -0.4621 -0.6468  0.0804
 3691SOL    HW122706   1.058   0.994   7.958 -0.1892 -2.0115 -0.4813
 3691SOL    HW222707   1.161   1.046   8.048  3.0045  1.3351 -1.0287
 3692SOL     OW22708   3.892   1.615  17.098 -0.3743  0.6399 -0.3265
 3692SOL    HW122709   3.880   1.638  17.190 -1.8502 -2.7285  0.3178
 3692SOL    HW222710   3.811   1.648  17.060 -0.9072 -0.4197 -0.1093
 3693SOL     OW22711   1.261   1.946   5.372 -0.0826 -0.5088 -0.6379
 3693SOL    HW122712   1.268   2.016   5.437  0.8034 -0.6933 -0.5402
 3693SOL    HW222713   1.171   1.964   5.345 -0.3473 -0.0921  0.5389
 3694SOL     OW22714   4.315   0.342  17.163  0.5230 -0.4714 -0.5064
 3694SOL    HW122715   4.410   0.335  17.166  0.3498 -1.2446  3.0201
 3694SOL    HW222716   4.308   0.403  17.089 -0.6755  0.1920  0.1622
 3695SOL     OW22717   0.410   0.716   2.188 -0.1153 -0.4823 -0.1480
 3695SOL    HW122718   0.487   0.751   2.233 -1.5055 -0.5002  2.2370
 3695SOL    HW222719   0.458   0.646   2.144 -2.5639 -1.3734 -1.4256
 3696SOL     OW22720   0.945   0.020   8.609 -0.1001 -0.3559 -0.4920
 3696SOL    HW122721   0.930   4.678   8.563 -0.2217 -0.4668 -0.2535
 3696SOL    HW222722   0.963   4.731   8.698 -0.8036 -0.2899 -0.3276
 3697SOL     OW22723   0.519   0.156   8.400 -0.0798 -0.0508  0.0404
 3697SOL    HW122724   0.594   0.171   8.342  0.4875  1.6740  1.1997
 3697SOL    HW222725   0.562   0.141   8.485 -0.6160  1.3792  0.5626
 3698SOL     OW22726   3.835   1.911   6.987  0.0227  0.0610  0.5457
 3698SOL    HW122727   3.880   1.995   6.994 -1.2011  0.7844 -0.3277
 3698SOL    HW222728   3.754   1.936   6.943 -0.2492 -1.5936  0.0975
 3699SOL     OW22729   4.645   0.488   6.619  0.2633  0.3485 -0.0241
 3699SOL    HW122730   4.671   0.550   6.551 -3.0043  1.6160 -0.0968
 3699SOL    HW222731   4.726   0.468   6.666 -0.7436 -1.1462  1.0641
 3700SOL     OW22732   2.060   2.098   4.248 -0.1759 -0.1365  0.1481
 3700SOL    HW122733   2.067   2.018   4.300  1.6044 -0.4686 -0.6027
 3700SOL    HW222734   2.149   2.134   4.253 -0.6439  1.3130 -2.0970
 3701SOL     OW22735   0.957   0.943   5.814 -0.6869  0.4390  0.1503
 3701SOL    HW122736   0.962   1.034   5.785  1.3970  0.1480 -0.3734
 3701SOL    HW222737   0.966   0.895   5.732  0.8215 -0.7153  1.0042
 3702SOL     OW22738   3.478   1.060   5.420  0.3155 -0.5079 -0.5226
 3702SOL    HW122739   3.448   0.975   5.388  0.1922 -0.7065  0.1295
 3702SOL    HW222740   3.530   1.090   5.345 -0.0943  1.4565 -0.0331
 3703SOL     OW22741   2.852   2.789   0.852 -0.4658  0.8397 -0.5409
 3703SOL    HW122742   2.848   2.735   0.931 -2.5547 -0.7533 -1.7547
 3703SOL    HW222743   2.885   2.728   0.786  0.7536  1.1114 -0.1892
 3704SOL     OW22744   2.709   0.939  10.143  0.0670 -0.5136  0.3162
 3704SOL    HW122745   2.759   1.017  10.123 -0.6477 -0.0099  0.4733
 3704SOL    HW222746   2.772   0.888  10.193  1.4373  0.7600 -0.1430
 3705SOL     OW22747   1.766   1.330  14.906  0.4565 -0.0908 -0.3535
 3705SOL    HW122748   1.684   1.332  14.855 -0.4157 -0.5558  1.0271
 3705SOL    HW222749   1.767   1.413  14.953  1.2073 -0.2660 -0.0638
 3706SOL     OW22750   1.198   1.531   7.545  0.0901 -0.0130  0.6085
 3706SOL    HW122751   1.246   1.544   7.627 -0.2786  1.3822  0.5982
 3706SOL    HW222752   1.201   1.611   7.491 -1.8613 -1.1093 -1.1258
 3707SOL     OW22753   0.646   3.011   4.725 -1.2024 -0.0205  0.4270
 3707SOL    HW122754   0.631   2.947   4.795 -0.3270 -1.0570 -0.3300
 3707SOL    HW222755   0.679   3.080   4.782 -0.2261 -0.0366 -0.1168
 3708SOL     OW22756   1.195   1.543  12.976  0.1450 -0.0944 -0.4129
 3708SOL    HW122757   1.181   1.588  13.059 -2.1792 -0.7070 -0.4904
 3708SOL    HW222758   1.110   1.537  12.934 -0.9788  2.8477  1.4104
 3709SOL     OW22759   0.730   2.987  15.327  0.0189  0.0684 -0.5866
 3709SOL    HW122760   0.744   3.061  15.386  1.8966  0.4217 -1.4898
 3709SOL    HW222761   0.817   2.966  15.292  1.2819  3.3017  0.6292
 3710SOL     OW22762   4.417   3.431  10.829  0.2035  0.8896  0.0871
 3710SOL    HW122763   4.493   3.481  10.860  1.9467 -2.2849  0.9499
 3710SOL    HW222764   4.406   3.380  10.909  1.1321 -0.7052 -0.8100
 3711SOL     OW22765   2.566   0.136  11.411 -0.2385  0.0244  0.0751
 3711SOL    HW122766   2.505   0.209  11.418 -1.0781 -0.6342 -0.4833
 3711SOL    HW222767   2.557   0.126  11.316  0.7026 -1.4431  0.1499
 3712SOL     OW22768   4.644   0.731  15.636  0.2342  0.5165 -0.1282
 3712SOL    HW122769   4.620   0.785  15.712 -0.4072  0.2395 -0.1376
 3712SOL    HW222770   4.678   0.661  15.692  1.0185  0.1998 -0.9983
 3713SOL     OW22771   1.556   2.928   8.488 -0.1544 -0.2550 -0.7307
 3713SOL    HW122772   1.500   2.903   8.415 -0.7662  0.0386 -0.3646
 3713SOL    HW222773   1.595   3.003   8.443  0.2845  0.3499  0.6596
 3714SOL     OW22774   2.977   0.676   8.573  0.8397  0.0071  0.1521
 3714SOL    HW122775   2.960   0.584   8.594 -1.8082  0.7493  1.2055
 3714SOL    HW222776   2.967   0.716   8.659 -0.4642 -0.4169  0.1899
 3715SOL     OW22777   3.407   1.284  10.480  0.2114  0.4014  0.6929
 3715SOL    HW122778   3.363   1.276  10.565 -0.8040  2.1020  0.3291
 3715SOL    HW222779   3.341   1.253  10.418  2.8838 -0.7975 -1.5646
 3716SOL     OW22780   4.687   2.439  16.320 -0.5215  0.0806  0.1263
 3716SOL    HW122781   4.711   2.413  16.409  0.7663  1.5902  0.2244
 3716SOL    HW222782   0.009   2.509  16.298  1.0096 -1.0718  0.8357
 3717SOL     OW22783   0.295   3.060   4.388 -0.4614  0.7350 -0.0374
 3717SOL    HW122784   0.389   3.057   4.409 -0.4350  0.1987 -0.2326
 3717SOL    HW222785   0.260   3.119   4.455 -1.8152  2.5896 -2.3672
 3718SOL     OW22786   0.558   1.864   7.395 -0.0636 -0.2308 -0.2273
 3718SOL    HW122787   0.495   1.903   7.456  2.2050  0.2955  1.7919
 3718SOL    HW222788   0.558   1.925   7.321  2.0250 -0.7366 -0.6531
 3719SOL     OW22789   3.473   1.725   0.604  0.2118 -0.5595  0.0586
 3719SOL    HW122790   3.455   1.776   0.525  1.9604 -1.3198 -0.8397
 3719SOL    HW222791   3.528   1.656   0.567  1.1709  0.4735 -0.4292
 3720SOL     OW22792   0.968   2.343   0.437  0.2388  0.3112 -0.3146
 3720SOL    HW122793   0.989   2.332   0.530  0.1455  0.7892 -0.2374
 3720SOL    HW222794   1.044   2.298   0.399  0.6812 -0.7916  1.8629
 3721SOL     OW22795   3.521   4.642   5.058  0.3214 -0.0215 -0.2585
 3721SOL    HW122796   3.511   4.698   4.981  2.7402  0.6099 -0.1039
 3721SOL    HW222797   3.549   4.706   5.124 -2.8596  0.5253  0.5673
 3722SOL     OW22798   1.653   1.252  12.666  0.1857  0.2128  0.0171
 3722SOL    HW122799   1.594   1.193  12.713  2.4778 -1.1988  1.1508
 3722SOL    HW222800   1.592   1.288  12.602  1.0628 -1.5754 -1.7971
 3723SOL     OW22801   3.680   1.745  15.389 -0.3362  0.0897 -0.0492
 3723SOL    HW122802   3.615   1.689  15.346 -2.0397  3.1244 -1.4273
 3723SOL    HW222803   3.728   1.781  15.314 -0.8033 -2.4968 -1.5878
 3724SOL     OW22804   1.205   0.768   8.306 -0.4628 -1.1020  0.4498
 3724SOL    HW122805   1.283   0.729   8.268  0.0476  1.1532 -0.8349
 3724SOL    HW222806   1.202   0.737   8.397  1.1016  1.2308  1.2909
 3725SOL     OW22807   0.058   3.898  12.624 -0.2002 -0.3441 -0.3992
 3725SOL    HW122808   0.123   3.908  12.554 -0.4120  1.0218 -0.3957
 3725SOL    HW222809   0.003   3.976  12.622  0.7586  0.2845 -2.5241
 3726SOL     OW22810   3.753   0.329  14.255 -0.4220  0.5176  0.0258
 3726SOL    HW122811   3.768   0.238  14.232 -1.9327 -0.2350  2.1117
 3726SOL    HW222812   3.810   0.340  14.331 -0.6190  2.0797 -0.0405
 3727SOL     OW22813   4.669   4.433  15.100 -0.0550  0.3814 -0.0557
 3727SOL    HW122814   4.657   4.521  15.062 -0.3458  0.6393  0.6470
 3727SOL    HW222815   4.702   4.466  15.183 -0.6306 -2.3566  1.2364
 3728SOL     OW22816   0.068   3.046   9.393 -0.1357 -0.2608  0.1488
 3728SOL    HW122817   0.107   3.068   9.478 -0.2758  1.5875 -0.2555
 3728SOL    HW222818   0.138   3.061   9.330 -0.0169  2.1538  0.8432
 3729SOL     OW22819   2.430   0.382  15.274  0.1296  0.2932  0.1118
 3729SOL    HW122820   2.490   0.400  15.202  0.5389  2.8325  1.0780
 3729SOL    HW222821   2.390   0.298  15.254 -0.8606  0.0601  3.0155
 3730SOL     OW22822   0.330   0.023  16.467  0.4346 -0.8246  0.1514
 3730SOL    HW122823   0.236   0.032  16.453  0.1017 -3.1527  0.9152
 3730SOL    HW222824   0.357   0.115  16.472 -0.6345 -0.5433  0.6242
 3731SOL     OW22825   2.294   0.480   5.442  0.4607  0.0289 -0.4480
 3731SOL    HW122826   2.259   0.544   5.379  1.3006  1.0626  0.1260
 3731SOL    HW222827   2.335   0.423   5.377  0.2443  1.2831 -1.7013
 3732SOL     OW22828   2.773   1.383   9.080 -0.5053  0.5064  0.3411
 3732SOL    HW122829   2.753   1.448   9.013  0.9960  0.5685 -0.0455
 3732SOL    HW222830   2.807   1.446   9.143  1.8681  2.6737 -3.0959
 3733SOL     OW22831   2.339   3.544  10.249  0.5258  0.1357 -0.0307
 3733SOL    HW122832   2.401   3.562  10.320 -0.9817  0.6456  1.1632
 3733SOL    HW222833   2.267   3.505  10.299 -0.9042  2.6269 -0.1330
 3734SOL     OW22834   3.173   3.520   0.252  0.0952 -0.0060 -0.2109
 3734SOL    HW122835   3.247   3.481   0.300  0.9088  1.4564 -0.2845
 3734SOL    HW222836   3.107   3.535   0.320 -0.9845  1.2996 -1.5685
 3735SOL     OW22837   2.110   1.390  12.919 -0.1676  0.3620  0.5496
 3735SOL    HW122838   2.205   1.378  12.919 -0.4056 -1.3972 -3.0965
 3735SOL    HW222839   2.084   1.299  12.908  1.0854  0.2905 -1.8094
 3736SOL     OW22840   1.897   2.346   4.254  0.0122  0.1405  0.2800
 3736SOL    HW122841   1.956   2.274   4.275 -0.5350 -0.7004 -1.0641
 3736SOL    HW222842   1.902   2.331   4.160  1.6409 -1.2920  0.6075
 3737SOL     OW22843   0.589   2.895   9.170 -0.0357  0.7900  0.5870
 3737SOL    HW122844   0.531   2.968   9.190 -0.5349  0.1704  1.4197
 3737SOL    HW222845   0.601   2.861   9.258  1.8667 -0.2417 -0.0631
 3738SOL     OW22846   3.228   2.348   5.302 -0.3876  0.4518  0.5960
 3738SOL    HW122847   3.168   2.362   5.228 -1.8339  0.0879  1.7009
 3738SOL    HW222848   3.265   2.265   5.271 -1.6230 -0.4399  1.4972
 3739SOL     OW22849   2.757   3.325   1.211  0.9265 -0.0153 -0.7656
 3739SOL    HW122850   2.674   3.350   1.170  1.4945  1.0790 -1.2420
 3739SOL    HW222851   2.771   3.240   1.170  2.0359  0.8114 -2.0789
 3740SOL     OW22852   3.845   3.157  16.386 -0.2370 -0.1978  0.3701
 3740SOL    HW122853   3.825   3.198  16.470 -0.6064 -2.4515  1.3755
 3740SOL    HW222854   3.939   3.139  16.389  0.0129  0.9457 -0.7864
 3741SOL     OW22855   0.099   1.556  13.141  0.4975 -0.3919 -0.0645
 3741SOL    HW122856   0.071   1.478  13.092 -2.6219  0.0037  1.1654
 3741SOL    HW222857   0.122   1.534  13.231  0.9902 -1.5967 -0.4794
 3742SOL     OW22858   0.556   0.640   5.461 -0.0711 -0.3824  0.1554
 3742SOL    HW122859   0.620   0.599   5.520  1.9725  2.1387 -0.2652
 3742SOL    HW222860   0.592   0.729   5.454 -1.2896  0.1087  0.1065
 3743SOL     OW22861   4.573   3.969   6.102  0.2348  0.2201  0.5024
 3743SOL    HW122862   4.635   4.041   6.091 -0.0643  0.1567 -1.7338
 3743SOL    HW222863   4.540   3.941   6.016  1.0395  1.0612 -0.0827
 3744SOL     OW22864   3.025   3.730  10.179 -0.3214 -0.0996  0.3005
 3744SOL    HW122865   3.008   3.654  10.123  0.1528  0.2380 -0.2940
 3744SOL    HW222866   2.946   3.730  10.233 -0.4400 -0.6501  0.1297
 3745SOL     OW22867   2.603   4.365   6.771  0.2646 -0.4204 -0.2539
 3745SOL    HW122868   2.608   4.288   6.829 -0.0107 -0.0723  0.2423
 3745SOL    HW222869   2.545   4.342   6.698 -1.8284 -1.0600  1.5806
 3746SOL     OW22870   0.385   0.146   0.269 -0.2640  0.0362  0.3272
 3746SOL    HW122871   0.427   0.117   0.188  0.5398 -0.3947  0.9006
 3746SOL    HW222872   0.319   0.208   0.237 -0.4298 -0.6913 -0.7552
 3747SOL     OW22873   0.604   1.938  15.993  0.5624  0.7122  0.0313
 3747SOL    HW122874   0.698   1.920  15.994  0.6566  1.0186 -3.0003
 3747SOL    HW222875   0.600   2.007  16.059  0.1183  0.6129  0.1074
 3748SOL     OW22876   4.401   0.075  17.394  0.2400 -0.6065 -0.0524
 3748SOL    HW122877   4.346   0.140  17.438  3.0365  0.1838  2.2159
 3748SOL    HW222878   4.381   0.001  17.451 -3.5087 -1.3707 -2.3280
 3749SOL     OW22879   0.023   4.516  15.356  0.3090 -0.1970  0.1132
 3749SOL    HW122880   0.076   4.595  15.345 -0.4134  0.1009 -1.2537
 3749SOL    HW222881   0.092   4.460  15.391 -1.0299 -0.4300  2.3837
 3750SOL     OW22882   3.739   1.496   9.425 -0.5206 -0.1116  0.2315
 3750SOL    HW122883   3.753   1.407   9.460  1.8651  0.1673  0.0081
 3750SOL    HW222884   3.672   1.483   9.358 -1.3848 -2.9726  1.6147
 3751SOL     OW22885   0.733   2.691   9.962  0.1774 -0.3923  0.2248
 3751SOL    HW122886   0.654   2.707  10.014  0.7906 -0.6920  1.2531
 3751SOL    HW222887   0.778   2.774   9.979  0.3986 -0.2036 -1.3376
 3752SOL     OW22888   1.246   2.138   7.213  0.0464 -0.3644 -0.2788
 3752SOL    HW122889   1.322   2.132   7.270 -0.6118 -3.1378  0.3169
 3752SOL    HW222890   1.196   2.192   7.274  0.5643 -0.0813 -0.1063
 3753SOL     OW22891   3.157   4.265   0.234 -0.0818 -0.7303 -0.3173
 3753SOL    HW122892   3.129   4.262   0.325  1.3349  0.5587  0.1694
 3753SOL    HW222893   3.150   4.359   0.217  1.3843 -0.2165  1.8015
 3754SOL     OW22894   4.003   0.583   3.971 -0.4433 -0.3601 -0.1051
 3754SOL    HW122895   3.914   0.584   3.935 -0.8163 -1.9684  0.7408
 3754SOL    HW222896   3.986   0.556   4.062 -0.9482 -0.6179 -0.2735
 3755SOL     OW22897   1.555   3.566   2.261 -0.0354  0.2942 -1.0006
 3755SOL    HW122898   1.572   3.561   2.355  1.1673  1.5428 -1.1597
 3755SOL    HW222899   1.645   3.560   2.231  0.0282 -1.8080 -0.3460
 3756SOL     OW22900   1.723   4.096   4.415 -0.0538  0.7269 -0.3364
 3756SOL    HW122901   1.762   4.035   4.351 -0.5572 -0.9153  0.9176
 3756SOL    HW222902   1.756   4.056   4.495  1.6600  1.6059 -0.5925
 3757SOL     OW22903   3.878   3.768   7.085 -0.1720 -0.1483  0.2977
 3757SOL    HW122904   3.903   3.713   7.160 -1.1355 -0.3782  0.4500
 3757SOL    HW222905   3.901   3.857   7.109 -1.9839 -0.0699  1.7776
 3758SOL     OW22906   4.002   0.369   1.267 -0.0648  0.7293  0.6209
 3758SOL    HW122907   4.054   0.362   1.347 -0.6898 -1.6841  0.8172
 3758SOL    HW222908   3.966   0.280   1.260 -0.4357  1.1132 -2.1929
 3759SOL     OW22909   2.802   0.676  11.573 -0.1979 -0.6950 -0.0792
 3759SOL    HW122910   2.874   0.660  11.634 -0.3277 -1.3300 -0.0998
 3759SOL    HW222911   2.743   0.729  11.626  4.4768  1.2523  3.2140
 3760SOL     OW22912   1.775   0.570   5.665  0.0075  0.3463 -0.0539
 3760SOL    HW122913   1.762   0.566   5.570  1.1693  0.1683 -0.2059
 3760SOL    HW222914   1.824   0.651   5.677 -1.0720  0.7843  1.3940
 3761SOL     OW22915   2.674   2.069   5.529  0.1980  0.5289 -0.7213
 3761SOL    HW122916   2.632   2.088   5.613  1.2132 -1.4102  0.2231
 3761SOL    HW222917   2.614   2.015   5.478 -1.0296 -0.1716  1.4543
 3762SOL     OW22918   0.808   1.683   4.161 -0.4834  0.0431 -0.4399
 3762SOL    HW122919   0.775   1.595   4.176  0.0968  0.1176  1.3124
 3762SOL    HW222920   0.766   1.731   4.232  1.1036  0.7205  0.0588
 3763SOL     OW22921   0.417   0.205   7.140  0.3207 -1.0251  0.4387
 3763SOL    HW122922   0.427   0.152   7.219  0.2404 -0.4035  0.8685
 3763SOL    HW222923   0.397   0.144   7.068  1.6766  0.0843 -0.8893
 3764SOL     OW22924   0.278   4.328  11.517  0.3922  0.4865 -0.2496
 3764SOL    HW122925   0.253   4.275  11.442 -1.9382 -0.2973  1.1024
 3764SOL    HW222926   0.344   4.390  11.484 -2.4234  1.5710 -3.8399
 3765SOL     OW22927   0.933   4.330   9.372  0.2478 -0.0376  0.2445
 3765SOL    HW122928   1.010   4.330   9.429  0.9402  0.5703 -0.6728
 3765SOL    HW222929   0.964   4.264   9.311 -1.0669 -0.1104 -0.3425
 3766SOL     OW22930   0.506   1.830   3.199  0.0432 -0.1200  0.3139
 3766SOL    HW122931   0.574   1.855   3.136 -1.9394  2.6117 -0.7682
 3766SOL    HW222932   0.432   1.800   3.146  0.2687  1.5188 -0.9299
 3767SOL     OW22933   2.286   1.524   2.749  0.4625 -0.0185 -0.0600
 3767SOL    HW122934   2.324   1.546   2.834 -2.4565  0.9557  0.9746
 3767SOL    HW222935   2.331   1.439   2.753 -0.9196 -0.8113 -1.2682
 3768SOL     OW22936   0.785   0.206  10.100  0.1438  0.0459 -0.0311
 3768SOL    HW122937   0.764   0.281  10.155  0.2733  1.0574 -1.3697
 3768SOL    HW222938   0.817   0.147  10.169  0.2799 -0.8330 -0.8483
 3769SOL     OW22939   1.912   0.389   7.346 -0.3134 -0.5280 -0.0926
 3769SOL    HW122940   1.844   0.398   7.280 -1.0188 -0.3845  0.6502
 3769SOL    HW222941   1.992   0.418   7.301 -0.8165  1.8600  0.5327
 3770SOL     OW22942   3.284   0.341  10.730 -0.2460  0.0135 -0.3799
 3770SOL    HW122943   3.230   0.276  10.687  2.6286 -1.9382 -1.0588
 3770SOL    HW222944   3.243   0.423  10.704  0.9284  0.5230 -0.6356
 3771SOL     OW22945   4.246   2.933   9.727 -0.3494  0.2315 -0.4477
 3771SOL    HW122946   4.186   2.891   9.788  0.2180  1.0589  0.6696
 3771SOL    HW222947   4.259   3.018   9.768 -2.0055  0.9960 -1.4890
 3772SOL     OW22948   4.608   4.610   2.189  0.1102 -0.0661 -0.0434
 3772SOL    HW122949   4.555   4.531   2.178  1.1415 -0.8702  0.6285
 3772SOL    HW222950   4.596   4.659   2.108 -2.8421  1.1630  1.1643
 3773SOL     OW22951   3.827   3.256   8.168 -0.0563 -0.0323  0.4613
 3773SOL    HW122952   3.907   3.228   8.212  0.1966 -2.3018 -1.4491
 3773SOL    HW222953   3.801   3.178   8.118  0.0792 -1.0297  1.9558
 3774SOL     OW22954   3.500   2.963   1.090  0.0017 -0.3722  0.2990
 3774SOL    HW122955   3.410   2.983   1.064  0.1307 -0.8159 -0.5043
 3774SOL    HW222956   3.489   2.914   1.171 -0.7171  1.8613  1.5548
 3775SOL     OW22957   2.832   4.695   3.071  0.0398 -0.7864  0.4061
 3775SOL    HW122958   2.762   4.664   3.127 -0.1361 -0.8330  0.1623
 3775SOL    HW222959   2.904   4.640   3.102  0.7023 -1.3015 -2.0022
 3776SOL     OW22960   2.941   2.150   6.323  0.1787  0.1308 -0.1381
 3776SOL    HW122961   2.906   2.087   6.386  2.2794 -0.7523  0.1413
 3776SOL    HW222962   2.980   2.093   6.257 -1.3511  0.2710 -1.1635
 3777SOL     OW22963   0.170   1.189   7.233 -0.3930 -0.3419 -0.3247
 3777SOL    HW122964   0.264   1.181   7.248 -0.5146  1.8366  1.6331
 3777SOL    HW222965   0.154   1.267   7.180  1.1833  0.6351  0.6402
 3778SOL     OW22966   0.239   2.014   6.151 -0.2149 -0.3508  0.3649
 3778SOL    HW122967   0.258   1.937   6.097 -0.4272 -1.8818  2.5016
 3778SOL    HW222968   0.277   2.086   6.100 -0.9891  0.9235  1.5961
 3779SOL     OW22969   2.813   2.780   3.356  0.0602  0.0621 -0.2695
 3779SOL    HW122970   2.734   2.744   3.398  1.1429 -0.9957  0.8428
 3779SOL    HW222971   2.878   2.727   3.402  1.4135  1.0743 -1.0253
 3780SOL     OW22972   2.417   0.406   5.168  0.0229  0.5341  0.7200
 3780SOL    HW122973   2.410   0.502   5.176  0.5599  0.6908 -0.7437
 3780SOL    HW222974   2.508   0.385   5.148 -0.0916  1.4619 -0.7505
 3781SOL     OW22975   0.663   2.355   9.884 -0.8326 -0.0146 -0.0711
 3781SOL    HW122976   0.625   2.383   9.967 -0.2076  2.6436 -0.6739
 3781SOL    HW222977   0.748   2.399   9.888  0.0297 -1.7704  0.8539
 3782SOL     OW22978   1.790   1.974   4.348 -0.2077 -0.2891 -0.3010
 3782SOL    HW122979   1.815   1.932   4.265  3.0520  0.5826  0.2663
 3782SOL    HW222980   1.832   1.915   4.411  0.5562 -1.1474 -1.6076
 3783SOL     OW22981   3.493   1.865   6.429 -0.8845  0.0581 -0.1538
 3783SOL    HW122982   3.450   1.912   6.501 -0.0453 -0.7417  0.8655
 3783SOL    HW222983   3.537   1.941   6.391  0.4338 -0.8778 -0.5129
 3784SOL     OW22984   1.138   3.414  13.757 -0.5118  0.5935 -0.2567
 3784SOL    HW122985   1.111   3.420  13.665 -0.0739  1.3728 -0.3265
 3784SOL    HW222986   1.231   3.390  13.753 -1.0024 -1.3361 -0.0536
 3785SOL     OW22987   0.689   3.451   1.777  0.2650  0.4712 -0.1853
 3785SOL    HW122988   0.731   3.394   1.841 -1.1941 -1.6024 -1.0687
 3785SOL    HW222989   0.668   3.394   1.702  0.8619  0.6795 -0.5035
 3786SOL     OW22990   2.554   2.274  11.162  0.4204  0.1101  0.1995
 3786SOL    HW122991   2.597   2.288  11.077  0.4984  0.1884  0.2520
 3786SOL    HW222992   2.606   2.206  11.204 -0.5652 -1.9139 -1.8919
 3787SOL     OW22993   2.123   3.452   3.663 -0.6270 -0.5871  0.2575
 3787SOL    HW122994   2.075   3.463   3.745 -0.8848 -0.5387  0.0993
 3787SOL    HW222995   2.154   3.362   3.671 -3.4708 -1.7132 -1.6672
 3788SOL     OW22996   2.785   4.368   5.685 -0.3637 -0.4969  0.8855
 3788SOL    HW122997   2.710   4.316   5.658 -1.4877  1.9934 -0.7509
 3788SOL    HW222998   2.779   4.366   5.780  2.5847 -2.8831  1.0257
 3789SOL     OW22999   0.520   3.943   6.302  0.3074 -0.9480 -0.0308
 3789SOL    HW123000   0.473   3.989   6.371  0.7817 -0.1858 -0.2066
 3789SOL    HW223001   0.599   3.915   6.348  0.0758 -1.1587  0.2388
 3790SOL     OW23002   2.981   0.493   8.976 -0.1554 -0.2420  0.6118
 3790SOL    HW123003   2.943   0.520   9.060 -2.1760 -1.5303  0.1167
 3790SOL    HW223004   3.046   0.431   9.008  0.7979 -0.5206 -1.8667
 3791SOL     OW23005   1.025   1.671   0.826  0.1354 -0.6295 -0.8188
 3791SOL    HW123006   1.059   1.672   0.915  0.0982  1.0583 -0.8263
 3791SOL    HW223007   1.016   1.576   0.812  1.0641 -0.9790  0.9985
 3792SOL     OW23008   1.654   1.178  17.604  0.4101 -0.1973  0.0066
 3792SOL    HW123009   1.584   1.214  17.550  1.1905  2.5136  0.7920
 3792SOL    HW223010   1.710   1.164  17.528 -1.3054 -3.1262 -0.6821
 3793SOL     OW23011   3.837   2.183   6.724  0.3647  0.2547  0.3887
 3793SOL    HW123012   3.853   2.139   6.640  0.8251  0.6227  0.2888
 3793SOL    HW223013   3.915   2.178   6.778  0.6349 -0.6431 -0.0771
 3794SOL     OW23014   4.618   3.850   3.297  0.2108 -0.0525  0.6129
 3794SOL    HW123015   4.542   3.794   3.313 -0.4671  0.3277 -1.2545
 3794SOL    HW223016   4.641   3.878   3.385 -0.3090  0.5357  0.5644
 3795SOL     OW23017   1.685   4.550   2.503 -0.7643 -0.0297 -0.0597
 3795SOL    HW123018   1.736   4.531   2.424  1.4696  1.7517  0.9367
 3795SOL    HW223019   1.757   4.599   2.543 -1.0776 -0.6073  1.2006
 3796SOL     OW23020   0.710   3.092   6.485 -0.0291  0.2118  0.3258
 3796SOL    HW123021   0.625   3.068   6.446  0.9186 -0.2825 -1.4714
 3796SOL    HW223022   0.771   3.034   6.440 -0.7302 -0.9744  0.9038
 3797SOL     OW23023   2.387   4.146   3.167 -0.0351  0.3298 -0.3642
 3797SOL    HW123024   2.442   4.148   3.089  0.9558  1.8163  0.3721
 3797SOL    HW223025   2.310   4.195   3.138 -0.4444  1.1448  2.1361
 3798SOL     OW23026   1.854   3.962   8.992 -0.6644 -0.7138 -0.6531
 3798SOL    HW123027   1.807   3.886   9.025 -1.0210  0.4111  1.4034
 3798SOL    HW223028   1.796   4.032   9.021  0.8194  0.0288  0.5368
 3799SOL     OW23029   0.146   0.476   5.137 -0.1936  0.0269  0.5124
 3799SOL    HW123030   0.080   0.487   5.068 -0.9252  0.4679  1.2746
 3799SOL    HW223031   0.198   0.556   5.126  2.0981 -1.0572  3.6769
 3800SOL     OW23032   4.531   2.262   6.266  0.4702 -0.1723 -0.5709
 3800SOL    HW123033   4.614   2.220   6.243 -0.0840 -0.6295 -1.7294
 3800SOL    HW223034   4.487   2.190   6.311  1.4497  1.3080  2.7770
 3801SOL     OW23035   0.546   1.909  10.232  0.3537  0.2146  0.2616
 3801SOL    HW123036   0.465   1.938  10.275  1.4428 -0.9861  3.0623
 3801SOL    HW223037   0.593   1.988  10.208  1.5209 -1.2810 -2.4039
 3802SOL     OW23038   2.423   4.363   4.125 -0.5771  0.0901 -0.2268
 3802SOL    HW123039   2.406   4.275   4.157  2.6809 -0.2686  0.5531
 3802SOL    HW223040   2.384   4.352   4.038 -0.5943 -0.8667 -0.0975
 3803SOL     OW23041   0.340   2.079  17.550  0.1608 -0.3226  0.6812
 3803SOL    HW123042   0.339   1.994  17.504 -2.5842  0.1506 -0.1073
 3803SOL    HW223043   0.353   2.049  17.640 -1.6471 -1.1175  0.6709
 3804SOL     OW23044   4.542   2.604   8.012 -0.2187 -0.3940  0.7422
 3804SOL    HW123045   4.568   2.516   7.986 -1.1830 -0.7127  0.8291
 3804SOL    HW223046   4.486   2.581   8.087 -1.2036 -1.8155 -0.4323
 3805SOL     OW23047   2.850   0.006   6.693 -0.1083  0.4447  0.3759
 3805SOL    HW123048   2.881   4.690   6.623  1.5111  0.9220  0.6811
 3805SOL    HW223049   2.916   0.075   6.695 -1.7470  2.0162 -0.0417
 3806SOL     OW23050   4.256   2.300   5.901 -0.6179  0.4992  0.4280
 3806SOL    HW123051   4.312   2.261   5.968 -0.7977  0.6225  0.6510
 3806SOL    HW223052   4.301   2.276   5.820 -0.1920  0.2372  0.7400
 3807SOL     OW23053   3.535   2.702   0.118 -0.1615 -0.0188 -0.2195
 3807SOL    HW123054   3.459   2.747   0.080 -0.0270 -0.2831 -0.7984
 3807SOL    HW223055   3.529   2.625   0.062  0.7933 -0.0124 -0.3227
 3808SOL     OW23056   2.565   3.829  14.430 -0.1941  0.4075  0.6005
 3808SOL    HW123057   2.554   3.737  14.403  1.7415  0.2467  0.3162
 3808SOL    HW223058   2.582   3.825  14.524  1.1483 -0.8502  0.3091
 3809SOL     OW23059   1.550   2.828   8.994  0.1974  0.1285 -0.1714
 3809SOL    HW123060   1.599   2.822   8.912  0.7076 -1.4223  0.2574
 3809SOL    HW223061   1.537   2.734   9.005 -0.5644  0.4270  1.5549
 3810SOL     OW23062   3.597   2.088   1.835 -0.0426  0.1774 -0.1527
 3810SOL    HW123063   3.592   2.097   1.930 -2.7874  1.0521 -0.3954
 3810SOL    HW223064   3.503   2.091   1.820  0.0670  0.1203 -0.8977
 3811SOL     OW23065   2.263   2.490   6.194 -0.2478  0.4237 -0.0775
 3811SOL    HW123066   2.270   2.574   6.149  0.8429  0.7388  0.6885
 3811SOL    HW223067   2.222   2.435   6.127 -0.1308 -0.3634  0.4922
 3812SOL     OW23068   2.027   3.685   2.061 -0.3505  0.0252  0.1515
 3812SOL    HW123069   2.064   3.709   1.977  0.0436 -0.7434  0.0962
 3812SOL    HW223070   1.986   3.769   2.079  1.5626  1.1096 -0.4999
 3813SOL     OW23071   4.301   3.235   0.198 -0.3869  0.1008 -0.0676
 3813SOL    HW123072   4.277   3.161   0.255 -0.3939  0.9575  1.0541
 3813SOL    HW223073   4.248   3.214   0.122 -0.5939 -1.0793  0.3906
 3814SOL     OW23074   2.272   2.129   7.770 -0.6071  0.6074 -0.5094
 3814SOL    HW123075   2.185   2.166   7.790 -2.5631 -3.8258 -0.9148
 3814SOL    HW223076   2.301   2.197   7.709  2.2148  1.6573  2.0238
 3815SOL     OW23077   4.058   4.408  14.830  0.5710 -0.3567 -0.6849
 3815SOL    HW123078   4.011   4.408  14.747  0.3577  1.1628 -0.5733
 3815SOL    HW223079   4.014   4.484  14.869  0.5729  0.0269 -1.4326
 3816SOL     OW23080   3.890   3.948   3.845 -0.5151  0.4531  0.4688
 3816SOL    HW123081   3.888   3.864   3.890  0.2695 -1.4568 -3.0761
 3816SOL    HW223082   3.876   3.921   3.754  1.2722 -2.4329  1.0750
 3817SOL     OW23083   1.744   2.816   1.535 -0.0387 -0.4212  0.1303
 3817SOL    HW123084   1.764   2.781   1.622  0.8780 -1.1315 -0.3720
 3817SOL    HW223085   1.775   2.907   1.540 -0.6387 -0.1799 -0.6224
 3818SOL     OW23086   1.013   0.283   3.243 -0.8321  0.1564 -0.0817
 3818SOL    HW123087   0.977   0.207   3.198  2.6550 -2.7573  2.0652
 3818SOL    HW223088   0.939   0.343   3.236  1.6779  3.4078  0.7365
 3819SOL     OW23089   0.153   4.342   7.323  0.1269 -0.0084  0.4159
 3819SOL    HW123090   0.059   4.349   7.340  0.0791 -0.6941  0.4246
 3819SOL    HW223091   0.178   4.289   7.398 -0.5234 -0.1495  0.5343
 3820SOL     OW23092   3.001   3.812   8.494 -0.0464  0.0425 -0.2017
 3820SOL    HW123093   2.970   3.900   8.514 -3.2479 -0.8263 -1.4400
 3820SOL    HW223094   3.085   3.838   8.456  0.3600 -3.1561 -1.5143
 3821SOL     OW23095   2.512   1.431   9.805 -0.5131  0.6626 -0.1557
 3821SOL    HW123096   2.494   1.420   9.899 -0.9539 -0.5157 -0.3692
 3821SOL    HW223097   2.421   1.432   9.777 -1.6262 -0.2725  3.3580
 3822SOL     OW23098   2.355   4.731   7.072 -0.4661  0.1775 -0.0345
 3822SOL    HW123099   2.339   0.058   7.006  1.1552  1.4302  0.8725
 3822SOL    HW223100   2.394   0.049   7.137 -3.9192 -0.5184  2.7202
 3823SOL     OW23101   4.152   1.300   2.196  0.2766 -0.0325 -0.0191
 3823SOL    HW123102   4.158   1.333   2.106  1.6604  0.3691  0.2312
 3823SOL    HW223103   4.094   1.368   2.231  1.5393  0.1111  1.7879
 3824SOL     OW23104   4.529   4.325   8.584 -0.2610  0.0454 -0.7087
 3824SOL    HW123105   4.599   4.386   8.602 -0.7351 -0.0998  1.6576
 3824SOL    HW223106   4.450   4.367   8.620 -0.4007  0.4313 -1.4712
 3825SOL     OW23107   4.253   4.297   4.613  0.1157 -0.8437  0.5222
 3825SOL    HW123108   4.282   4.388   4.605 -1.8693 -0.2747 -0.1383
 3825SOL    HW223109   4.174   4.316   4.562  1.5372 -0.6691 -1.6097
 3826SOL     OW23110   3.806   0.325   6.689  0.3466  0.0810  0.8577
 3826SOL    HW123111   3.722   0.370   6.675  0.6196  0.4865  0.5324
 3826SOL    HW223112   3.860   0.399   6.662 -0.6149 -0.1653 -1.7214
 3827SOL     OW23113   0.780   2.145   9.682  0.2260  0.1285  0.1952
 3827SOL    HW123114   0.867   2.127   9.719  0.3103 -1.4458 -0.7998
 3827SOL    HW223115   0.744   2.209   9.744  0.0575 -0.2784  0.5153
 3828SOL     OW23116   4.661   3.549   7.515  0.4780 -0.3082  0.8417
 3828SOL    HW123117   4.687   3.554   7.607 -0.0632 -1.1088  1.0352
 3828SOL    HW223118   4.615   3.632   7.505  0.3726 -0.5281 -0.4074
 3829SOL     OW23119   0.814   2.124   3.291 -0.5343 -0.8054  0.1603
 3829SOL    HW123120   0.895   2.176   3.287  0.6098 -2.3673  2.5467
 3829SOL    HW223121   0.776   2.147   3.206  3.1118  1.1123 -0.9592
 3830SOL     OW23122   2.036   0.774   9.808  0.5222 -0.5352 -0.1061
 3830SOL    HW123123   1.960   0.729   9.847 -0.7057  1.3384 -0.3423
 3830SOL    HW223124   2.080   0.786   9.892  2.7309  0.5972 -1.4333
 3831SOL     OW23125   4.487   4.698   3.958  0.3654  0.1196 -0.1691
 3831SOL    HW123126   4.438   4.631   4.006  0.9580 -0.7909 -0.8237
 3831SOL    HW223127   4.414   0.009   3.924 -0.4040 -1.2965 -0.7234
 3832SOL     OW23128   3.192   2.277   4.484 -0.2629  0.0095  0.5504
 3832SOL    HW123129   3.216   2.197   4.436  0.6391  0.5752  0.0598
 3832SOL    HW223130   3.179   2.239   4.571  2.0353  0.7273  1.1914
 3833SOL     OW23131   0.274   1.256   7.689  0.0190 -0.6162  0.3200
 3833SOL    HW123132   0.275   1.306   7.770  0.1333 -0.9058  0.4931
 3833SOL    HW223133   0.362   1.221   7.682 -0.2413 -0.6763 -2.8268
 3834SOL     OW23134   3.735   1.386   6.929  0.0023 -0.1524 -0.4806
 3834SOL    HW123135   3.808   1.371   6.869 -0.4505 -1.3858 -0.7266
 3834SOL    HW223136   3.663   1.349   6.878 -1.1853 -3.1291  3.3620
 3835SOL     OW23137   3.525   1.995   3.282 -0.5978  0.0191  0.0324
 3835SOL    HW123138   3.503   2.032   3.197 -2.7866  0.0871  0.6475
 3835SOL    HW223139   3.518   1.902   3.263 -0.9622  0.0636 -0.0477
 3836SOL     OW23140   0.424   1.894   9.710  0.1500  0.2687 -0.1525
 3836SOL    HW123141   0.407   1.804   9.736 -1.3444  0.9724  1.2556
 3836SOL    HW223142   0.509   1.903   9.753 -0.3508  0.7073  0.7316
 3837SOL     OW23143   3.780   1.537   6.343 -0.8691  0.2680 -0.5767
 3837SOL    HW123144   3.712   1.502   6.285 -1.1472  0.4394 -0.3523
 3837SOL    HW223145   3.746   1.507   6.427  0.6924 -0.8111 -0.3214
 3838SOL     OW23146   0.599   3.749   2.799 -0.5714 -0.1254  0.0392
 3838SOL    HW123147   0.623   3.657   2.810 -1.8697 -0.3357  1.1217
 3838SOL    HW223148   0.508   3.743   2.770 -0.7083 -0.1440  0.4636
 3839SOL     OW23149   4.494   0.442   2.260  0.1369 -0.1260 -0.6545
 3839SOL    HW123150   4.583   0.422   2.233  0.3054 -2.8583  1.9322
 3839SOL    HW223151   4.438   0.382   2.210 -2.5932  1.1944  0.8040
 3840SOL     OW23152   4.700   0.305   7.988 -0.2231  0.1783  0.0282
 3840SOL    HW123153   4.701   0.209   7.991 -0.7254  0.1424 -1.1928
 3840SOL    HW223154   0.015   0.327   8.063  1.8139 -1.8534 -0.9026
 3841SOL     OW23155   4.350   3.353  17.315 -0.5000 -0.5066  0.4554
 3841SOL    HW123156   4.266   3.394  17.333 -1.1415 -1.5305 -0.1838
 3841SOL    HW223157   4.334   3.265  17.349 -1.1798 -0.4771  0.2138
 3842SOL     OW23158   1.753   2.755   6.974  0.4378 -0.2093  0.0450
 3842SOL    HW123159   1.693   2.778   6.904  0.6214 -1.1139 -0.4028
 3842SOL    HW223160   1.701   2.697   7.029  0.9431 -1.0975 -0.4135
 3843SOL     OW23161   4.466   0.323   9.205 -0.1624  0.3955  0.1840
 3843SOL    HW123162   4.505   0.346   9.289 -1.2484  1.7817  0.3018
 3843SOL    HW223163   4.463   0.228   9.216  0.6677  0.2144 -1.1414
 3844SOL     OW23164   0.846   4.733  10.588  0.5262  0.0921 -0.2370
 3844SOL    HW123165   0.915   4.737  10.654  0.6354  1.4159 -0.4349
 3844SOL    HW223166   0.787   0.062  10.613 -0.8546 -0.0207 -3.1831
 3845SOL     OW23167   3.300   4.531   6.552  0.7666 -0.4764 -0.0040
 3845SOL    HW123168   3.367   4.529   6.620 -0.1853  2.6599  1.0095
 3845SOL    HW223169   3.334   4.611   6.511 -0.6184 -1.0174 -2.1975
 3846SOL     OW23170   1.083   4.619   1.640 -0.2992  0.2491 -0.1788
 3846SOL    HW123171   1.125   4.681   1.581  1.0984 -2.6012 -2.1510
 3846SOL    HW223172   1.109   4.535   1.604 -1.2269  0.4901 -1.3788
 3847SOL     OW23173   1.843   0.125   9.738 -0.2610 -0.0975  0.1113
 3847SOL    HW123174   1.865   0.217   9.748  0.8479 -0.2646 -0.8770
 3847SOL    HW223175   1.748   0.118   9.747 -0.1921 -0.6237  0.4561
 3848SOL     OW23176   1.170   0.775   2.512 -0.7459  0.2540 -0.0747
 3848SOL    HW123177   1.132   0.863   2.518 -0.4585  0.3045  1.0063
 3848SOL    HW223178   1.254   0.789   2.555 -1.2986  1.6132  0.5845
 3849SOL     OW23179   0.313   3.103   7.646 -0.5653 -0.6356 -0.2027
 3849SOL    HW123180   0.218   3.116   7.651 -0.6170 -0.7289 -0.9988
 3849SOL    HW223181   0.341   3.179   7.595  0.4873  1.1908  3.1100
 3850SOL     OW23182   3.561   1.345   8.878 -0.0149 -0.2840 -0.3096
 3850SOL    HW123183   3.555   1.401   8.801  1.2505 -0.0500 -0.2311
 3850SOL    HW223184   3.467   1.350   8.895  0.3451  0.2694  1.4989
 3851SOL     OW23185   4.281   0.560   9.585 -0.1731 -0.3736  0.1596
 3851SOL    HW123186   4.239   0.527   9.506  0.2612  0.1641 -0.2972
 3851SOL    HW223187   4.204   0.579   9.638 -2.4454 -0.7034 -3.0264
 3852SOL     OW23188   1.148   0.474  17.546  0.2343 -0.4367 -0.3121
 3852SOL    HW123189   1.162   0.556  17.593  1.4953 -2.1261  2.2608
 3852SOL    HW223190   1.161   0.507  17.457  0.2476  0.7711  0.1385
 3853SOL     OW23191   1.551   1.961   3.832  0.0737  0.1099 -0.5787
 3853SOL    HW123192   1.482   1.907   3.794 -0.2487 -0.0945  0.2917
 3853SOL    HW223193   1.610   1.889   3.854  1.0745  1.0256 -0.2267
 3854SOL     OW23194   1.066   2.957   9.186 -0.3345 -0.0154  0.8857
 3854SOL    HW123195   1.023   2.974   9.102 -0.2730  0.0931  0.8757
 3854SOL    HW223196   1.159   2.971   9.171 -0.2844 -2.4779 -1.1254
 3855SOL     OW23197   1.862   0.584   2.552  0.0819 -0.1686 -0.3888
 3855SOL    HW123198   1.824   0.595   2.639  0.5893  0.8482 -0.2957
 3855SOL    HW223199   1.934   0.528   2.582 -1.2053 -0.1527  2.7329
 3856SOL     OW23200   3.004   3.752   8.759 -0.4431 -0.3543 -0.2145
 3856SOL    HW123201   3.030   3.778   8.671 -0.5690  1.2012  0.2170
 3856SOL    HW223202   3.056   3.802   8.821 -0.0472  0.3455 -1.1141
 3857SOL     OW23203   0.790   1.803  10.651  0.1573 -0.2084 -0.1198
 3857SOL    HW123204   0.826   1.761  10.729 -0.5477 -0.6733 -0.0498
 3857SOL    HW223205   0.789   1.723  10.599  2.0167 -1.0043  1.0732
 3858SOL     OW23206   1.235   4.000   2.983 -0.1435  0.0286  0.2003
 3858SOL    HW123207   1.264   4.070   3.042  3.3682  0.7973 -2.4141
 3858SOL    HW223208   1.267   3.928   3.037  1.5521  0.4637 -0.2079
 3859SOL     OW23209   4.211   0.365   5.233 -0.2437 -0.5328  0.0711
 3859SOL    HW123210   4.278   0.385   5.168  1.7150  1.2283  2.6418
 3859SOL    HW223211   4.147   0.436   5.226  0.0706 -0.3916 -1.2869
 3860SOL     OW23212   3.842   0.837   9.086 -0.3618 -0.0851  0.0741
 3860SOL    HW123213   3.854   0.929   9.062 -0.9259  0.1948  0.8838
 3860SOL    HW223214   3.900   0.836   9.162 -0.1394  2.6143 -0.0491
 3861SOL     OW23215   3.691   3.502  13.420  0.1894  0.1329  0.0000
 3861SOL    HW123216   3.761   3.567  13.432  2.5631 -2.1721 -1.4521
 3861SOL    HW223217   3.734   3.439  13.363  0.1238 -0.2117  0.3356
 3862SOL     OW23218   3.744   3.523   9.017  0.1711  0.3211 -0.1297
 3862SOL    HW123219   3.813   3.540   8.953  0.3249 -0.3733 -0.1425
 3862SOL    HW223220   3.732   3.428   9.012 -0.0285  0.3469 -0.1470
 3863SOL     OW23221   2.429   3.466   1.791 -0.0965  0.7447  0.0905
 3863SOL    HW123222   2.452   3.537   1.850 -1.8026 -0.3518  2.0694
 3863SOL    HW223223   2.420   3.513   1.708 -2.7898  0.7422  0.3787
 3864SOL     OW23224   4.385   3.080   2.405  0.7971  0.2206  0.0817
 3864SOL    HW123225   4.369   3.006   2.346  0.5845  1.1847 -1.0826
 3864SOL    HW223226   4.328   3.137   2.354 -0.5271 -0.7388  0.4876
 3865SOL     OW23227   0.441   4.657   8.629 -0.0885 -0.3352 -0.0475
 3865SOL    HW123228   0.512   4.593   8.640 -0.6931 -0.9222  0.4023
 3865SOL    HW223229   0.498   4.729   8.658  1.0233  0.0077 -3.0680
 3866SOL     OW23230   4.571   1.042  14.769 -0.4708 -0.2886  0.5216
 3866SOL    HW123231   4.554   1.005  14.856  0.9864  1.5794  1.5971
 3866SOL    HW223232   4.649   1.092  14.790  0.2747 -1.0153 -0.5366
 3867SOL     OW23233   3.990   4.587   7.985  0.0081 -0.1830  0.1844
 3867SOL    HW123234   4.049   4.514   8.004  1.4158  0.0016 -3.5538
 3867SOL    HW223235   4.048   4.661   7.970  1.7335 -1.0672  2.4275
 3868SOL     OW23236   3.287   4.469   6.255 -0.2960  0.1758 -0.1654
 3868SOL    HW123237   3.304   4.453   6.348 -1.3925  3.2865  0.5606
 3868SOL    HW223238   3.244   4.389   6.224  2.6483 -0.4034 -2.7475
 3869SOL     OW23239   1.858   3.949   7.050  0.1149  0.2470 -0.0474
 3869SOL    HW123240   1.873   3.974   7.142 -0.9054 -0.7919  0.4051
 3869SOL    HW223241   1.765   3.972   7.055  0.1739  0.7186 -1.3101
 3870SOL     OW23242   2.270   0.731   2.248  0.3106 -0.5068  0.0759
 3870SOL    HW123243   2.176   0.720   2.257  0.1301  0.5555 -0.5378
 3870SOL    HW223244   2.275   0.780   2.166 -0.5051  0.5421  0.6568
 3871SOL     OW23245   4.602   2.529  16.613  0.2058 -0.2976 -0.1618
 3871SOL    HW123246   4.633   2.600  16.557 -1.8610  2.8352  2.6865
 3871SOL    HW223247   4.687   2.495  16.644  0.3947 -0.1818 -0.5570
 3872SOL     OW23248   0.871   0.272  16.878  0.2113 -0.1897  0.0937
 3872SOL    HW123249   0.913   0.187  16.865  2.0144  0.6162  0.5598
 3872SOL    HW223250   0.785   0.232  16.889  0.3598 -0.2709  0.9490
 3873SOL     OW23251   2.316   1.964   5.962 -0.4147 -0.1117 -0.0029
 3873SOL    HW123252   2.262   1.995   6.034  1.0759  1.5223  0.4014
 3873SOL    HW223253   2.272   2.002   5.885  2.5499 -2.5162 -2.9022
 3874SOL     OW23254   1.917   0.255   1.224 -0.4031 -0.0769 -0.2968
 3874SOL    HW123255   1.891   0.245   1.132  2.3808 -0.1529 -1.0750
 3874SOL    HW223256   1.895   0.349   1.226 -0.0322  0.0034 -0.0906
 3875SOL     OW23257   3.094   2.073   9.407  0.2160 -0.2562 -0.1888
 3875SOL    HW123258   3.179   2.029   9.415 -0.0612 -0.7902 -0.1841
 3875SOL    HW223259   3.046   2.024   9.339 -1.4653 -1.8004  2.1273
 3876SOL     OW23260   3.551   1.920   9.149  0.0844  0.2944  0.3387
 3876SOL    HW123261   3.584   1.831   9.143 -0.1439  0.2049  0.4079
 3876SOL    HW223262   3.459   1.908   9.173  0.0214 -1.3415 -0.6794
 3877SOL     OW23263   0.999   3.793   9.559  0.6194  0.0359  0.0804
 3877SOL    HW123264   0.992   3.881   9.521  0.5400  0.5950  1.3691
 3877SOL    HW223265   1.092   3.775   9.548  0.2074 -2.2608  0.4258
 3878SOL     OW23266   3.876   3.695  13.474  0.8135  0.3266  0.2287
 3878SOL    HW123267   3.842   3.784  13.471 -0.3848 -0.1404 -0.2266
 3878SOL    HW223268   3.913   3.684  13.561  2.1470 -0.9363 -0.4939
 3879SOL     OW23269   0.989   4.011   6.859 -0.0863  0.4105 -0.1818
 3879SOL    HW123270   0.999   3.939   6.922 -1.1874 -1.0544 -1.6712
 3879SOL    HW223271   1.072   4.003   6.812  0.9185 -0.7316  1.7609
 3880SOL     OW23272   2.386   0.383   8.162 -0.3523 -0.4891  0.0615
 3880SOL    HW123273   2.389   0.340   8.076 -0.4333  0.9967 -0.6793
 3880SOL    HW223274   2.470   0.430   8.159 -1.5920  1.6721 -0.5279
 3881SOL     OW23275   1.767   0.175   5.154 -0.6462  0.1861  0.1811
 3881SOL    HW123276   1.788   0.262   5.186  1.5374 -0.4090  0.3603
 3881SOL    HW223277   1.756   0.118   5.231 -2.1299 -1.6424 -1.3900
 3882SOL     OW23278   2.246   2.073   2.551 -0.3792  0.6855 -0.4317
 3882SOL    HW123279   2.263   2.089   2.458 -0.5864  1.4341 -0.3445
 3882SOL    HW223280   2.226   2.159   2.588 -2.4627  0.0672 -0.0833
 3883SOL     OW23281   0.817   0.692   7.403 -0.0277 -0.3340 -0.1655
 3883SOL    HW123282   0.738   0.638   7.399  1.2321 -2.1515 -0.6307
 3883SOL    HW223283   0.776   0.752   7.464  0.6512  0.2653 -0.2964
 3884SOL     OW23284   4.274   4.581   8.541 -0.3318 -0.1030  0.0546
 3884SOL    HW123285   4.266   4.505   8.599 -1.1858 -0.7790 -0.9500
 3884SOL    HW223286   4.364   4.601   8.567 -0.4980  1.8022 -0.8560
 3885SOL     OW23287   3.198   2.165   4.761 -0.3537  0.5311 -0.8655
 3885SOL    HW123288   3.120   2.150   4.814  0.4462 -0.6934 -0.0346
 3885SOL    HW223289   3.272   2.131   4.811 -2.0955 -0.1045  1.2893
 3886SOL     OW23290   0.316   4.687   2.078  0.1866  0.3302  0.8921
 3886SOL    HW123291   0.379   0.009   2.042  3.0018 -2.1081  1.4575
 3886SOL    HW223292   0.375   4.640   2.137 -2.1479 -2.4917  0.9840
 3887SOL     OW23293   4.625   0.427   3.496 -0.2795  0.8796  0.0251
 3887SOL    HW123294   4.545   0.407   3.545  0.1334  1.4230  0.8999
 3887SOL    HW223295   4.610   0.519   3.476 -1.3298  0.0331 -3.1887
 3888SOL     OW23296   3.460   4.252  13.227 -0.0200  0.3778  0.5298
 3888SOL    HW123297   3.494   4.233  13.314 -1.1474 -0.3388  0.8090
 3888SOL    HW223298   3.548   4.262  13.190  0.0279 -0.6535  0.3606
 3889SOL     OW23299   2.657   2.221   3.856  0.2573  0.2023 -0.3251
 3889SOL    HW123300   2.648   2.253   3.766  2.8337  0.6223 -0.4162
 3889SOL    HW223301   2.750   2.216   3.876  0.2356 -0.2308 -0.3388
 3890SOL     OW23302   2.300   3.169   2.737  0.2342  0.1795 -0.2841
 3890SOL    HW123303   2.385   3.125   2.737  0.1619  0.0557 -1.4771
 3890SOL    HW223304   2.250   3.113   2.797  0.9205  0.2084  0.3211
 3891SOL     OW23305   1.474   3.558   9.352  0.1228 -0.2961 -0.2221
 3891SOL    HW123306   1.497   3.637   9.402 -0.7963 -0.0060 -0.2524
 3891SOL    HW223307   1.446   3.499   9.422 -2.0493  1.7717  0.6560
 3892SOL     OW23308   1.060   2.173  16.544  0.1366 -0.0891 -0.2703
 3892SOL    HW123309   1.019   2.259  16.537  1.2696  0.5304  1.0005
 3892SOL    HW223310   0.983   2.116  16.530 -1.4902  1.5841  1.9575
 3893SOL     OW23311   2.848   0.539   1.183  0.2011  0.1426 -0.3091
 3893SOL    HW123312   2.810   0.511   1.267  0.8986 -2.0365 -0.7352
 3893SOL    HW223313   2.933   0.577   1.205  0.3622 -0.4086  0.0110
 3894SOL     OW23314   1.475   1.026   7.523  0.3407 -0.1230  0.0874
 3894SOL    HW123315   1.414   1.048   7.593  2.8841  0.8723  1.9979
 3894SOL    HW223316   1.500   0.935   7.538 -2.7149 -0.6456  1.8662
 3895SOL     OW23317   2.334   0.157   4.669  0.0270  0.2129  0.2456
 3895SOL    HW123318   2.346   0.245   4.632  0.6529  0.1274  0.2458
 3895SOL    HW223319   2.350   0.111   4.586 -0.1041 -0.5708  0.6595
 3896SOL     OW23320   2.549   2.848   5.308  0.2246 -0.2442 -0.1180
 3896SOL    HW123321   2.628   2.799   5.286  2.8068  3.2862  1.3749
 3896SOL    HW223322   2.494   2.772   5.325  0.5277  0.1953  2.7778
 3897SOL     OW23323   0.329   2.186  12.493 -0.1079 -0.0190  0.0203
 3897SOL    HW123324   0.237   2.166  12.479  0.5037 -2.8636  0.1687
 3897SOL    HW223325   0.370   2.128  12.429  1.9679  1.7656 -0.2919
 3898SOL     OW23326   3.751   0.275  11.850  0.1822 -0.1028 -0.4263
 3898SOL    HW123327   3.675   0.301  11.902 -0.5624 -2.0157 -0.5726
 3898SOL    HW223328   3.710   0.211  11.792 -0.3054  1.2777 -1.5945
 3899SOL     OW23329   4.236   3.993   0.027  0.5746 -0.6578  0.3120
 3899SOL    HW123330   4.322   3.952   0.036  0.5884 -0.4701  0.9769
 3899SOL    HW223331   4.229   4.067   0.086  0.0054 -1.9170  1.8256
 3900SOL     OW23332   2.285   0.674   3.405 -0.0361  0.2486  0.3525
 3900SOL    HW123333   2.200   0.680   3.450 -0.1149 -2.8127  0.6248
 3900SOL    HW223334   2.266   0.673   3.311  0.8323  0.7500  0.1748
 3901SOL     OW23335   1.420   0.821  13.615  0.3307 -0.2409 -0.4085
 3901SOL    HW123336   1.414   0.776  13.700 -0.6970  1.1587  0.2647
 3901SOL    HW223337   1.335   0.787  13.587 -0.8611  3.2579 -1.0099
 3902SOL     OW23338   4.729   1.488   0.965 -0.1922  0.2969  0.4105
 3902SOL    HW123339   0.027   1.412   1.007  1.1128  1.0881  0.6244
 3902SOL    HW223340   4.716   1.463   0.873  0.6293 -0.4466  0.4986
 3903SOL     OW23341   3.092   1.829   7.391 -0.7390 -0.1621  0.2561
 3903SOL    HW123342   3.101   1.771   7.316  1.0357 -0.1741  0.4849
 3903SOL    HW223343   3.011   1.869   7.359 -0.0022  1.2449  0.1737
 3904SOL     OW23344   3.546   2.547   3.654 -0.4523  0.5536  0.3282
 3904SOL    HW123345   3.542   2.593   3.570 -0.0250  1.1200  0.6144
 3904SOL    HW223346   3.486   2.604   3.702  0.3338  1.2930  0.4208
 3905SOL     OW23347   2.793   4.386  13.526  0.4618 -0.8040  0.3304
 3905SOL    HW123348   2.707   4.394  13.484  0.4865 -0.7166  0.2956
 3905SOL    HW223349   2.769   4.389  13.619  1.0021 -0.7647  0.4659
 3906SOL     OW23350   2.005   2.362  11.353  0.3058 -0.2946 -0.0451
 3906SOL    HW123351   2.031   2.428  11.418 -0.0302  0.8538 -1.0754
 3906SOL    HW223352   2.071   2.293  11.351  0.2124 -0.4130  1.0600
 3907SOL     OW23353   3.921   2.993   6.748 -0.2224  0.2585 -0.6379
 3907SOL    HW123354   3.832   3.011   6.778  0.9667  0.3899  2.7940
 3907SOL    HW223355   3.953   3.075   6.786  1.0401 -0.7249  0.4218
 3908SOL     OW23356   0.676   0.306  14.386 -0.3264  0.0523 -0.2675
 3908SOL    HW123357   0.733   0.383  14.378 -0.2087 -0.0506 -0.4177
 3908SOL    HW223358   0.599   0.362  14.384 -1.0848 -0.9493  1.0541
 3909SOL     OW23359   2.388   2.379  13.830 -0.1037  0.0688  0.5603
 3909SOL    HW123360   2.454   2.445  13.854 -2.4594  3.0630 -1.3596
 3909SOL    HW223361   2.309   2.432  13.827  0.7126  1.0655 -2.8488
 3910SOL     OW23362   2.238   2.256  14.937  0.7250 -0.3663 -0.2377
 3910SOL    HW123363   2.257   2.261  15.031 -0.7990 -0.6386  0.0962
 3910SOL    HW223364   2.323   2.283  14.903  0.2854 -0.6295 -1.5677
 3911SOL     OW23365   3.947   1.292  10.627 -0.4989 -0.1535  0.4188
 3911SOL    HW123366   3.932   1.318  10.718 -0.0044 -0.0738  0.4743
 3911SOL    HW223367   3.898   1.210  10.619 -1.9090  0.7512 -0.2803
 3912SOL     OW23368   2.097   1.914   8.101 -0.5896  0.3017 -0.5265
 3912SOL    HW123369   2.119   1.821   8.100  2.3942  0.9796  0.7874
 3912SOL    HW223370   2.072   1.922   8.009 -0.4530 -0.3316 -0.6216
 3913SOL     OW23371   0.239   0.440  14.824 -0.2732 -0.1045 -0.0128
 3913SOL    HW123372   0.275   0.499  14.890  1.3499 -0.6319 -0.4367
 3913SOL    HW223373   0.163   0.403  14.869 -0.6347 -0.8082 -1.1727
 3914SOL     OW23374   3.696   1.396  16.924  0.0657 -0.3565  0.2105
 3914SOL    HW123375   3.704   1.480  16.971 -0.2919  1.3160 -2.6850
 3914SOL    HW223376   3.645   1.359  16.996 -1.2709 -0.8503 -0.9712
 3915SOL     OW23377   4.073   0.815  15.086 -0.2106  0.0965  0.2176
 3915SOL    HW123378   4.094   0.849  14.999 -1.9661 -1.4436 -0.8077
 3915SOL    HW223379   4.160   0.792  15.120  0.5011  1.1577 -0.9187
 3916SOL     OW23380   3.676   0.688  11.017 -0.0680 -0.5921  0.4519
 3916SOL    HW123381   3.599   0.655  10.970 -0.5694  0.6932  0.3475
 3916SOL    HW223382   3.666   0.633  11.094 -0.4325  1.2364  1.7217
 3917SOL     OW23383   0.071   3.303   8.213  0.1001  0.2657  0.1239
 3917SOL    HW123384   0.064   3.283   8.120 -0.4415  1.2464 -0.0457
 3917SOL    HW223385   0.070   3.214   8.248  0.6475  0.2966  0.2076
 3918SOL     OW23386   4.518   0.050  10.896  0.0754 -0.1822 -0.0254
 3918SOL    HW123387   4.520   4.702  10.930 -0.7455 -0.4065 -0.5568
 3918SOL    HW223388   4.592   0.050  10.835  0.0197  1.1652 -0.0988
 3919SOL     OW23389   1.955   2.157   4.881 -0.5751  0.2089  0.1873
 3919SOL    HW123390   2.026   2.214   4.853 -0.3971  1.0176  2.2585
 3919SOL    HW223391   1.881   2.205   4.843  0.5315  2.4511  0.8567
 3920SOL     OW23392   3.416   4.054   5.691  0.0748 -0.1925 -0.6426
 3920SOL    HW123393   3.397   4.023   5.603  0.2731 -0.2283 -0.6726
 3920SOL    HW223394   3.417   4.149   5.680 -1.7178 -0.1382 -0.2454
 3921SOL     OW23395   0.123   0.026   2.277 -0.2319 -0.1625 -0.0126
 3921SOL    HW123396   0.183   0.008   2.206  0.7798 -2.7042  1.4981
 3921SOL    HW223397   0.049   4.713   2.249  0.1273  0.2802 -1.7725
 3922SOL     OW23398   3.075   1.872   7.795  0.0530  0.4099 -0.2531
 3922SOL    HW123399   2.997   1.926   7.797  0.1182  0.4938 -0.0325
 3922SOL    HW223400   3.028   1.789   7.806  0.3260  0.2087 -0.5805
 3923SOL     OW23401   1.197   3.367   2.281 -0.1627  0.7460  0.3869
 3923SOL    HW123402   1.173   3.444   2.229 -0.6121  0.4179  0.1018
 3923SOL    HW223403   1.228   3.417   2.357 -1.5217 -0.7480  1.9171
 3924SOL     OW23404   0.786   2.989   7.405 -0.1168 -0.3377  0.2172
 3924SOL    HW123405   0.812   3.056   7.341  1.7238 -0.7055  0.5987
 3924SOL    HW223406   0.726   3.038   7.461 -0.4084  1.1843 -1.4096
 3925SOL     OW23407   3.810   3.791   8.306  0.1843  0.3438 -0.0611
 3925SOL    HW123408   3.832   3.716   8.251  1.3950  0.1234  0.7539
 3925SOL    HW223409   3.745   3.740   8.354 -1.0386 -0.4597 -2.5374
 3926SOL     OW23410   0.156   2.291   5.837  0.1489 -0.3287 -0.1133
 3926SOL    HW123411   0.144   2.349   5.912 -1.1740  0.9982 -1.3792
 3926SOL    HW223412   0.200   2.219   5.883 -0.6731  0.2967  1.6552
 3927SOL     OW23413   0.076   1.505   7.055 -0.5792  0.0316 -0.2863
 3927SOL    HW123414   0.053   1.444   6.985  0.3474  0.1875 -0.7099
 3927SOL    HW223415   0.171   1.502   7.058 -0.6064  0.4663  1.0966
 3928SOL     OW23416   1.614   1.763  14.031  0.4087 -0.0270 -0.1776
 3928SOL    HW123417   1.593   1.716  14.112  1.8599 -1.1372 -0.4301
 3928SOL    HW223418   1.579   1.852  14.036  2.7900  0.9834 -1.5603
 3929SOL     OW23419   1.914   1.601   5.062  0.2255  0.0409 -0.0497
 3929SOL    HW123420   1.996   1.551   5.066 -0.1340 -0.5631 -0.3516
 3929SOL    HW223421   1.946   1.685   5.096  2.5464 -1.8387  2.3781
 3930SOL     OW23422   1.493   2.225  16.012 -0.6323 -0.8040  0.5517
 3930SOL    HW123423   1.488   2.166  16.087 -0.2188  1.0586  2.0511
 3930SOL    HW223424   1.577   2.201  15.971  1.1533  2.6507  2.2067
 3931SOL     OW23425   2.239   1.836   7.593 -0.2398  0.1230  0.7968
 3931SOL    HW123426   2.334   1.837   7.593 -0.2391 -0.0408  0.5749
 3931SOL    HW223427   2.218   1.743   7.596 -1.4884  0.4086  1.1761
 3932SOL     OW23428   2.647   2.336  10.917 -0.5712 -0.5737 -0.0708
 3932SOL    HW123429   2.693   2.418  10.901  0.0863 -0.8422  0.4347
 3932SOL    HW223430   2.589   2.332  10.841 -1.3023  0.1269  0.4500
 3933SOL     OW23431   3.074   0.529  16.255 -0.1191  0.0240 -0.1891
 3933SOL    HW123432   2.987   0.492  16.266  0.6138 -1.4763  0.4373
 3933SOL    HW223433   3.114   0.496  16.335 -1.6424  0.8503  0.9014
 3934SOL     OW23434   2.673   1.103   3.455 -1.0270  0.6220  0.0089
 3934SOL    HW123435   2.617   1.173   3.489  0.6745  1.2553  1.5570
 3934SOL    HW223436   2.608   1.035   3.435 -1.1301  0.2370  1.6115
 3935SOL     OW23437   4.353   4.713   0.798  0.2380 -0.8411  0.5582
 3935SOL    HW123438   4.375   4.620   0.811 -1.6768 -1.1003  1.9143
 3935SOL    HW223439   4.404   0.019   0.864 -0.1308 -2.9438  2.3376
 3936SOL     OW23440   3.924   3.921   4.778  0.3825 -0.3283  0.8028
 3936SOL    HW123441   3.993   3.984   4.801 -0.1284  0.1346  1.0646
 3936SOL    HW223442   3.871   3.968   4.714  0.4351  0.0949  1.0693
 3937SOL     OW23443   2.745   4.605   7.409 -0.3773 -0.3142  0.6322
 3937SOL    HW123444   2.818   4.611   7.347 -0.8858 -0.9845 -0.0311
 3937SOL    HW223445   2.693   4.531   7.381  1.6855 -0.9338 -1.6255
 3938SOL     OW23446   2.324   0.528  13.627  0.6926  0.0632  0.1451
 3938SOL    HW123447   2.339   0.606  13.680  1.3917 -0.7825  1.1879
 3938SOL    HW223448   2.330   0.456  13.689  1.7284 -0.8406 -0.9921
 3939SOL     OW23449   0.300   0.516   1.933  0.2783  0.9872  0.7224
 3939SOL    HW123450   0.220   0.568   1.923  0.2077  0.6397 -0.5645
 3939SOL    HW223451   0.277   0.456   2.004 -0.6700  0.0143 -0.4204
 3940SOL     OW23452   0.221   2.344   5.271  0.5080  0.4992  0.1038
 3940SOL    HW123453   0.260   2.270   5.317 -1.3535 -0.4950  0.1036
 3940SOL    HW223454   0.294   2.402   5.251 -0.8266  1.4205 -2.1947
 3941SOL     OW23455   1.829   3.208   2.916  0.8492 -0.1738  0.5678
 3941SOL    HW123456   1.863   3.120   2.901 -0.0105 -0.2401 -1.0338
 3941SOL    HW223457   1.906   3.251   2.952  1.6313  0.1566 -1.4770
 3942SOL     OW23458   0.783   3.557   2.631 -0.1302 -0.2877 -0.2570
 3942SOL    HW123459   0.819   3.513   2.708 -2.0692 -0.2625  0.6432
 3942SOL    HW223460   0.788   3.488   2.565  1.2340 -0.0875 -0.3654
 3943SOL     OW23461   2.269   1.567   2.130 -0.2898 -0.1699 -0.1303
 3943SOL    HW123462   2.365   1.569   2.119 -0.2090 -1.0381  0.3913
 3943SOL    HW223463   2.263   1.606   2.217  0.2628 -1.1808  0.3537
 3944SOL     OW23464   3.938   2.059   2.044 -0.0407  0.1191  0.2944
 3944SOL    HW123465   3.995   2.110   2.102  1.1261 -0.9764  0.1262
 3944SOL    HW223466   3.945   1.972   2.084  1.5002  1.4567  2.8979
 3945SOL     OW23467   0.631   0.947   8.787 -0.4102 -0.2470 -0.4681
 3945SOL    HW123468   0.599   0.881   8.726  1.2236 -1.5978  0.1329
 3945SOL    HW223469   0.710   0.901   8.816 -1.4018 -1.1468  0.8169
 3946SOL     OW23470   3.075   4.284   2.353  0.0466 -0.1220  0.1696
 3946SOL    HW123471   2.984   4.303   2.376  0.4266  0.2793  1.3528
 3946SOL    HW223472   3.060   4.240   2.270  1.1841  0.1811 -0.1920
 3947SOL     OW23473   4.287   2.271  13.171  0.0053 -0.2158  0.5377
 3947SOL    HW123474   4.210   2.310  13.213 -0.5754 -2.8221  1.9003
 3947SOL    HW223475   4.351   2.334  13.205  1.4867 -0.6472 -1.4390
 3948SOL     OW23476   1.317   0.082   8.182  0.3038 -0.1075  0.3706
 3948SOL    HW123477   1.304   0.068   8.275 -1.9592  2.5995  0.4475
 3948SOL    HW223478   1.230   0.116   8.163 -0.2979 -1.6871  0.3079
 3949SOL     OW23479   1.315   2.058   2.980  0.5426 -0.1408  0.1377
 3949SOL    HW123480   1.315   2.057   3.076  1.1115 -0.8211  0.1360
 3949SOL    HW223481   1.389   2.118   2.971 -0.0314  0.9564  2.7348
 3950SOL     OW23482   3.851   3.299  14.663  0.4216 -0.1615 -0.2821
 3950SOL    HW123483   3.929   3.353  14.648 -0.3972  1.0702 -0.0848
 3950SOL    HW223484   3.867   3.247  14.742 -1.2841  0.2390  0.3168
 3951SOL     OW23485   3.684   1.452   2.364  0.4630 -0.8597 -0.2289
 3951SOL    HW123486   3.757   1.512   2.348 -1.4285  1.1245 -1.2647
 3951SOL    HW223487   3.712   1.388   2.430  0.5514  1.0894  1.6052
 3952SOL     OW23488   3.930   4.160  16.162  0.4395 -0.0843 -0.0376
 3952SOL    HW123489   3.889   4.245  16.145  0.5629 -0.2932 -1.3074
 3952SOL    HW223490   3.863   4.095  16.140 -0.1237  0.8030 -0.9603
 3953SOL     OW23491   4.106   2.906  10.134 -0.4550 -0.2425  0.8382
 3953SOL    HW123492   4.097   2.864  10.048 -0.8576  1.5903 -0.0194
 3953SOL    HW223493   4.172   2.853  10.179 -0.2826 -0.6985  0.0512
 3954SOL     OW23494   2.305   4.408  16.845  0.4983  0.2250  0.4330
 3954SOL    HW123495   2.254   4.353  16.904 -3.3454 -0.1355 -3.2200
 3954SOL    HW223496   2.388   4.366  16.826  0.9280  0.9925  0.5992
 3955SOL     OW23497   3.904   3.461  12.729 -0.7498 -0.8289 -0.6590
 3955SOL    HW123498   3.817   3.434  12.698 -1.8747  0.3987  1.4005
 3955SOL    HW223499   3.906   3.409  12.810 -0.8659  1.1868  0.6176
 3956SOL     OW23500   3.532   3.298  16.479  0.4193 -0.9402 -0.0105
 3956SOL    HW123501   3.588   3.356  16.426  1.3322 -1.9254 -0.1394
 3956SOL    HW223502   3.485   3.244  16.416  0.8943 -1.5177  0.1261
 3957SOL     OW23503   3.280   2.612   8.604 -0.1429 -0.2640  0.0984
 3957SOL    HW123504   3.263   2.544   8.539  0.6489 -1.3811  1.0625
 3957SOL    HW223505   3.216   2.579   8.667 -0.2081 -1.0671 -0.3931
 3958SOL     OW23506   1.356   0.213   4.557  0.3660  0.1884  0.0267
 3958SOL    HW123507   1.291   0.163   4.507  1.6586 -1.5400  0.0910
 3958SOL    HW223508   1.325   0.194   4.646  1.5885  1.4268  0.7205
 3959SOL     OW23509   3.053   1.112   3.134  1.0469  0.3719 -0.9156
 3959SOL    HW123510   3.066   1.123   3.228  1.4551 -0.4719 -0.8755
 3959SOL    HW223511   2.973   1.060   3.131  1.4324 -0.3386  1.5782
 3960SOL     OW23512   2.075   0.139   0.620  0.1491 -0.3222  0.0342
 3960SOL    HW123513   2.077   0.047   0.593 -1.7292  0.1219 -1.6487
 3960SOL    HW223514   2.130   0.180   0.554 -0.5295 -1.4502 -1.2217
 3961SOL     OW23515   1.212   0.135   8.638 -0.3614 -0.2407 -0.5057
 3961SOL    HW123516   1.159   0.095   8.707 -0.8050  0.5956 -0.3552
 3961SOL    HW223517   1.173   0.222   8.624  1.3166  0.7358  0.8803
 3962SOL     OW23518   3.440   1.542   4.531 -0.5162  0.4016  0.0699
 3962SOL    HW123519   3.413   1.632   4.516 -1.8037 -0.1999 -1.2810
 3962SOL    HW223520   3.386   1.493   4.469  0.4842  0.9016 -1.1830
 3963SOL     OW23521   2.483   3.023   8.441  0.7699  0.4283 -0.0310
 3963SOL    HW123522   2.499   2.942   8.393 -1.6041  0.6003 -1.1019
 3963SOL    HW223523   2.575   3.045   8.458  0.9684 -0.5035  0.1318
 3964SOL     OW23524   4.416   0.037   9.231  0.3635 -0.1987  0.0713
 3964SOL    HW123525   4.328   4.741   9.223  0.6977 -0.6625 -1.3607
 3964SOL    HW223526   4.467   4.698   9.218 -0.9588 -1.2976  1.6375
 3965SOL     OW23527   3.423   3.157   4.575 -0.1816 -0.1840 -0.8006
 3965SOL    HW123528   3.507   3.120   4.603  0.0523  2.2353  1.7105
 3965SOL    HW223529   3.417   3.153   4.480 -1.3470  1.3871 -0.7842
 3966SOL     OW23530   1.179   4.671   5.509  0.0382  0.3038  0.4276
 3966SOL    HW123531   1.112   4.657   5.443 -1.8842 -1.5460  2.7931
 3966SOL    HW223532   1.138   4.727   5.575 -1.0402 -1.2084  1.0426
 3967SOL     OW23533   2.139   1.120   3.564  0.4528 -0.2526 -0.3309
 3967SOL    HW123534   2.141   1.167   3.648 -2.3893  1.7403 -1.4025
 3967SOL    HW223535   2.049   1.141   3.541 -0.3476 -1.8372  1.3663
 3968SOL     OW23536   1.605   0.979   3.982  0.3012 -0.5333  0.3826
 3968SOL    HW123537   1.643   0.908   3.930  0.3884 -1.0236  1.1035
 3968SOL    HW223538   1.536   0.939   4.034 -0.0155 -0.1519  0.2536
 3969SOL     OW23539   1.610   1.834   6.190  0.4056 -0.1920 -0.1721
 3969SOL    HW123540   1.523   1.858   6.156 -0.5545 -1.8181  1.1325
 3969SOL    HW223541   1.622   1.755   6.138 -2.0921 -0.0277 -1.0316
 3970SOL     OW23542   0.829   0.495  12.902  0.4411  0.0447  0.4961
 3970SOL    HW123543   0.865   0.495  12.991  1.1515  1.8659  0.2225
 3970SOL    HW223544   0.765   0.564  12.920  0.1087  0.1192 -0.9805
 3971SOL     OW23545   0.905   1.595  12.413  0.4304  0.0678 -0.7720
 3971SOL    HW123546   0.979   1.634  12.459 -1.1679  0.3181  1.5785
 3971SOL    HW223547   0.928   1.504  12.431  0.1472 -0.1202 -1.3428
 3972SOL     OW23548   2.500   1.162   7.795  0.1167 -0.5907  0.2127
 3972SOL    HW123549   2.532   1.228   7.734 -0.7150  2.8371  3.4012
 3972SOL    HW223550   2.433   1.126   7.737 -1.3366  1.9985  0.2427
 3973SOL     OW23551   4.652   1.800  13.365 -0.3240  0.6427 -0.1322
 3973SOL    HW123552   0.001   1.784  13.337  0.1842  1.3427  1.1061
 3973SOL    HW223553   4.662   1.894  13.376 -2.7151  0.8587  0.0359
 3974SOL     OW23554   1.434   2.452   2.567 -0.5109  0.2205 -0.2542
 3974SOL    HW123555   1.520   2.422   2.537 -0.9865 -1.3194 -0.0786
 3974SOL    HW223556   1.391   2.367   2.574 -0.0575  0.1389  1.4047
 3975SOL     OW23557   1.292   0.689   1.758  0.0931  0.0150  0.6832
 3975SOL    HW123558   1.317   0.597   1.747  1.2852  0.7216 -2.3129
 3975SOL    HW223559   1.340   0.709   1.839 -0.7520  3.6339  0.2784
 3976SOL     OW23560   1.449   0.090   6.507 -0.1279  0.4617 -0.6272
 3976SOL    HW123561   1.530   0.133   6.535 -0.3315 -0.3015  1.1267
 3976SOL    HW223562   1.446   0.115   6.415 -1.1783 -0.1445 -0.7608
 3977SOL     OW23563   2.485   1.463   4.592 -0.9734  0.4359  0.4947
 3977SOL    HW123564   2.398   1.442   4.557 -1.4840 -0.0652  2.0980
 3977SOL    HW223565   2.523   1.379   4.619 -0.7147  0.0951 -0.9052
 3978SOL     OW23566   2.468   3.593  10.472  0.3723 -0.0885 -0.6449
 3978SOL    HW123567   2.537   3.570  10.534 -0.3646 -0.1569  0.1404
 3978SOL    HW223568   2.424   3.662  10.521  0.6964 -1.1859  1.1875
 3979SOL     OW23569   2.068   4.270   6.205 -0.0149  0.2367  0.1017
 3979SOL    HW123570   1.985   4.236   6.239  1.7532 -2.8910  1.3055
 3979SOL    HW223571   2.071   4.352   6.254 -0.5097  0.3146  0.0082
 3980SOL     OW23572   1.653   4.245  12.952 -0.1864 -0.4946  1.0105
 3980SOL    HW123573   1.719   4.306  12.987 -0.0921 -0.1482  0.2239
 3980SOL    HW223574   1.642   4.275  12.862 -3.4697 -2.1548  0.8910
 3981SOL     OW23575   3.528   2.309   4.824  0.3132  0.4735  0.1272
 3981SOL    HW123576   3.466   2.382   4.823  0.4134  0.6014  2.7827
 3981SOL    HW223577   3.556   2.318   4.733 -0.2355  1.8919  0.1000
 3982SOL     OW23578   3.466   2.730   9.046  0.0603  0.0309 -0.2464
 3982SOL    HW123579   3.552   2.772   9.037 -1.0365  1.5508 -3.4949
 3982SOL    HW223580   3.471   2.687   8.961 -1.7378 -1.9211  0.6216
 3983SOL     OW23581   2.440   1.070  11.495  0.3861 -0.4830  0.4402
 3983SOL    HW123582   2.456   1.124  11.572 -1.9034 -0.4323  0.8879
 3983SOL    HW223583   2.529   1.070  11.461 -0.4311  0.7280 -1.6938
 3984SOL     OW23584   2.083   2.816   7.541  0.2809 -0.1372 -0.0645
 3984SOL    HW123585   1.999   2.815   7.495  0.3069 -3.4406 -0.0579
 3984SOL    HW223586   2.064   2.876   7.614 -1.1264 -1.8254  0.9699
 3985SOL     OW23587   3.842   0.466   9.850  0.1201 -0.3038  0.0129
 3985SOL    HW123588   3.773   0.403   9.831  0.6956 -0.8190 -0.4011
 3985SOL    HW223589   3.919   0.413   9.829  0.9247  1.1839 -0.7635
 3986SOL     OW23590   1.783   1.456   4.525  0.1286 -0.2483  0.1283
 3986SOL    HW123591   1.738   1.499   4.598 -1.4599  0.7976 -1.4440
 3986SOL    HW223592   1.870   1.471   4.562 -0.1490 -0.7567  0.9667
 3987SOL     OW23593   3.265   3.120   8.232  0.1952  0.2175  0.1493
 3987SOL    HW123594   3.206   3.147   8.302  0.0973 -0.5297  0.3560
 3987SOL    HW223595   3.317   3.200   8.225 -1.4780  1.3543  0.7609
 3988SOL     OW23596   4.159   0.374   1.492  0.5505 -0.5469 -0.2173
 3988SOL    HW123597   4.121   0.444   1.546 -0.1259 -0.5855 -0.6569
 3988SOL    HW223598   4.236   0.356   1.546 -0.4338 -0.7592  1.1208
 3989SOL     OW23599   0.535   1.552   7.007 -0.6166  0.3100 -0.3534
 3989SOL    HW123600   0.467   1.522   7.068  0.1741  2.0085  1.3244
 3989SOL    HW223601   0.607   1.584   7.060 -0.2097  0.4082 -0.9726
 3990SOL     OW23602   0.008   2.421  11.423  0.4356 -0.0119 -0.4155
 3990SOL    HW123603   0.071   2.359  11.459  0.0113 -0.8229 -1.0771
 3990SOL    HW223604   0.015   2.498  11.480  2.1315  0.5529 -1.3804
 3991SOL     OW23605   1.423   3.250   2.440  0.0143  0.0445  0.1953
 3991SOL    HW123606   1.393   3.172   2.394  0.8523  0.1058 -0.4700
 3991SOL    HW223607   1.366   3.270   2.515 -0.4326 -0.3140 -0.0536
 3992SOL     OW23608   2.127   2.669   0.738  0.3850  0.4572  0.2185
 3992SOL    HW123609   2.043   2.685   0.695  1.1779  0.7477 -1.2291
 3992SOL    HW223610   2.086   2.684   0.823  0.4127  1.9019 -0.0224
 3993SOL     OW23611   1.510   2.296   5.891 -0.1156  0.2004  0.5803
 3993SOL    HW123612   1.537   2.384   5.918 -0.3920  0.1031  1.1721
 3993SOL    HW223613   1.446   2.313   5.823 -1.4104  1.9515  2.2704
 3994SOL     OW23614   3.668   1.391  11.290  0.0626 -0.5088  0.2432
 3994SOL    HW123615   3.718   1.468  11.262  0.0042 -1.1313 -1.5964
 3994SOL    HW223616   3.708   1.314  11.249  0.5691  0.3659 -0.8907
 3995SOL     OW23617   2.120   1.838   3.436 -0.2462  1.0253  0.4500
 3995SOL    HW123618   2.124   1.887   3.519 -0.4517  1.0848  0.4248
 3995SOL    HW223619   2.201   1.866   3.394  1.0819 -0.0747  2.2665
 3996SOL     OW23620   0.315   3.396   1.398  0.4546  0.0261 -0.0097
 3996SOL    HW123621   0.371   3.396   1.476  0.4516 -1.9584  0.0052
 3996SOL    HW223622   0.281   3.309   1.378  0.1498  0.1801 -0.1552
 3997SOL     OW23623   0.091   3.811   5.963  0.0479  0.5092  0.1988
 3997SOL    HW123624   0.100   3.884   6.025  0.1330  0.2167  0.5340
 3997SOL    HW223625   0.169   3.817   5.908  0.7002 -1.7406  0.8756
 3998SOL     OW23626   2.254   2.763   6.077 -0.2036 -0.1277 -0.7874
 3998SOL    HW123627   2.345   2.745   6.053 -0.6463 -1.3347 -1.5461
 3998SOL    HW223628   2.263   2.837   6.137 -1.7843  0.1143 -0.8624
 3999SOL     OW23629   0.918   4.116   6.401 -0.4496  0.4745 -0.2783
 3999SOL    HW123630   1.013   4.104   6.392 -0.1564 -0.3566  3.8713
 3999SOL    HW223631   0.920   4.204   6.439 -0.2405 -0.4684  1.9134
 4000SOL     OW23632   2.750   1.774   4.153  0.3535  0.2428 -0.2814
 4000SOL    HW123633   2.796   1.699   4.191 -1.0461 -0.8169 -0.6438
 4000SOL    HW223634   2.725   1.727   4.073  0.7066 -0.4989  0.0461
 4001SOL     OW23635   3.539   2.572   7.616 -0.1038 -0.1290  0.3396
 4001SOL    HW123636   3.473   2.503   7.615 -0.2369 -0.0199  1.9190
 4001SOL    HW223637   3.623   2.528   7.633  0.0660  0.2430  0.4576
 4002SOL     OW23638   0.503   2.074  16.429  0.5885 -0.0880 -0.2443
 4002SOL    HW123639   0.493   2.169  16.433  3.3733  0.1646  0.1516
 4002SOL    HW223640   0.493   2.056  16.335 -0.6020 -0.2667 -0.0894
 4003SOL     OW23641   1.409   1.507   8.797  0.4895 -0.1010 -0.6606
 4003SOL    HW123642   1.393   1.562   8.873 -1.5515 -0.9867 -0.4431
 4003SOL    HW223643   1.321   1.498   8.761  0.3276  2.3303 -0.8430
 4004SOL     OW23644   1.013   1.864   4.693 -0.3889 -0.1811 -0.5270
 4004SOL    HW123645   1.016   1.770   4.710 -0.5843  0.3214  2.2318
 4004SOL    HW223646   1.061   1.897   4.768  0.0251  0.0792 -0.9081
 4005SOL     OW23647   3.759   3.814   3.380  0.2284  0.1969  0.0003
 4005SOL    HW123648   3.850   3.787   3.391  0.4576 -0.0826 -2.6064
 4005SOL    HW223649   3.759   3.889   3.321  0.6871  0.0830 -0.1422
 4006SOL     OW23650   1.616   1.518  15.576 -0.0533  0.1683  0.4188
 4006SOL    HW123651   1.547   1.585  15.578  0.7774  0.9852  2.2338
 4006SOL    HW223652   1.577   1.432  15.562 -0.1252 -0.1451  2.5359
 4007SOL     OW23653   3.817   2.241   8.291  0.7391  0.2275 -0.1521
 4007SOL    HW123654   3.845   2.153   8.269  1.4301 -0.0486  1.8364
 4007SOL    HW223655   3.901   2.287   8.295  1.1324 -0.5454  0.4189
 4008SOL     OW23656   3.957   0.913  13.549 -0.3129  0.1292  0.3744
 4008SOL    HW123657   3.990   0.883  13.634  1.2920 -2.1390 -1.0332
 4008SOL    HW223658   3.972   0.832  13.499  1.3738  0.8020 -0.2230
 4009SOL     OW23659   2.364   3.299   5.737  0.2204 -0.4633 -0.4010
 4009SOL    HW123660   2.387   3.208   5.757 -2.7311 -1.0946  0.1309
 4009SOL    HW223661   2.454   3.328   5.752  0.4815 -0.4578 -2.0213
 4010SOL     OW23662   4.675   2.060   7.008  0.1498 -0.9786 -0.1922
 4010SOL    HW123663   4.664   1.999   7.081 -1.9499  0.2747  0.5392
 4010SOL    HW223664   4.709   1.993   6.949 -1.7080 -1.3357 -0.8616
 4011SOL     OW23665   1.392   2.206   4.231  0.0826 -0.5089 -0.0927
 4011SOL    HW123666   1.448   2.153   4.175 -0.1262 -1.0671  0.2319
 4011SOL    HW223667   1.460   2.235   4.292  0.7170  0.8205 -1.4037
 4012SOL     OW23668   2.585   2.296   5.132  0.3718  0.4802  0.0186
 4012SOL    HW123669   2.629   2.338   5.206  2.0605  0.6910 -1.1028
 4012SOL    HW223670   2.595   2.372   5.076  0.5982 -0.4217 -1.1493
 4013SOL     OW23671   4.428   0.449  14.166 -0.3153  0.4567 -0.2903
 4013SOL    HW123672   4.483   0.503  14.109  0.0995 -0.1714 -0.4886
 4013SOL    HW223673   4.431   0.500  14.247  1.5457 -0.3177  0.1167
 4014SOL     OW23674   2.653   0.473   5.919  0.5326 -0.3182  0.3717
 4014SOL    HW123675   2.585   0.496   5.982 -0.8042 -1.2685 -0.7233
 4014SOL    HW223676   2.635   0.380   5.902 -0.1886 -0.5478  2.4048
 4015SOL     OW23677   1.105   0.145   6.229  0.0069  0.3398 -0.0893
 4015SOL    HW123678   1.121   0.105   6.315  0.5952  0.3238 -0.2088
 4015SOL    HW223679   1.137   0.073   6.174  1.3614  1.1222 -0.3172
 4016SOL     OW23680   0.656   3.509   5.854  0.0141 -0.4820  0.2876
 4016SOL    HW123681   0.745   3.475   5.841 -0.1876 -0.8375 -0.1674
 4016SOL    HW223682   0.666   3.591   5.903 -1.0126 -0.4841  0.5120
 4017SOL     OW23683   1.360   2.916   7.539  0.2052  0.3477 -0.1968
 4017SOL    HW123684   1.387   2.953   7.455  0.1894 -1.0135 -0.7983
 4017SOL    HW223685   1.276   2.962   7.546 -0.6636 -1.2179 -0.2103
 4018SOL     OW23686   2.906   0.127   2.117 -0.0871 -0.3255 -0.0714
 4018SOL    HW123687   2.974   0.191   2.137  1.2002 -1.7900  0.2912
 4018SOL    HW223688   2.927   0.100   2.027 -0.7797  0.1937 -0.3862
 4019SOL     OW23689   3.096   0.929   8.467 -0.5720 -0.0693 -0.0025
 4019SOL    HW123690   3.159   0.878   8.517 -2.2234 -1.3827  0.7473
 4019SOL    HW223691   3.044   0.854   8.437 -1.3058  0.5151 -0.1858
 4020SOL     OW23692   0.532   0.066   5.750 -0.6557  0.0659  0.2762
 4020SOL    HW123693   0.451   0.015   5.752 -0.6691  0.1559  1.9834
 4020SOL    HW223694   0.517   0.086   5.658 -0.6550  1.2247  0.5206
 4021SOL     OW23695   3.358   0.479   8.896  0.2258  0.0683  0.2087
 4021SOL    HW123696   3.296   0.438   8.957 -0.0809 -0.0672 -0.1998
 4021SOL    HW223697   3.356   0.569   8.930  2.3086 -0.1687  0.9649
 4022SOL     OW23698   0.308   0.656   6.753  0.0205 -0.0477 -0.9206
 4022SOL    HW123699   0.293   0.645   6.847 -0.2256 -0.2174 -0.9804
 4022SOL    HW223700   0.269   0.743   6.744  2.0174  0.8800 -0.6127
 4023SOL     OW23701   3.930   0.107   9.105  0.4307  0.3443 -0.8410
 4023SOL    HW123702   3.947   0.200   9.119 -1.2160  0.2314  1.8138
 4023SOL    HW223703   3.880   0.120   9.025  0.4190 -0.8773 -1.0301
 4024SOL     OW23704   1.120   4.526   4.465 -0.1723 -0.2485  0.5848
 4024SOL    HW123705   1.066   4.530   4.386 -1.8909 -1.5584  1.6775
 4024SOL    HW223706   1.207   4.553   4.436 -0.3624 -0.5119 -0.2493
 4025SOL     OW23707   1.170   2.757  15.107  0.0976  0.6151  0.2993
 4025SOL    HW123708   1.178   2.701  15.030  0.9620 -1.1652  1.7028
 4025SOL    HW223709   1.248   2.725  15.153  0.0401  0.6753  0.4363
 4026SOL     OW23710   3.606   2.176   5.908  0.4177  0.4931  0.9197
 4026SOL    HW123711   3.559   2.093   5.914 -1.5052  1.1835 -4.1494
 4026SOL    HW223712   3.684   2.167   5.854 -0.2325  2.1462 -0.2982
 4027SOL     OW23713   1.264   4.375   7.442 -0.0525 -0.1222  0.0288
 4027SOL    HW123714   1.193   4.395   7.504 -0.2764 -1.4510  0.1955
 4027SOL    HW223715   1.341   4.352   7.493  1.7085  1.4382 -1.9364
 4028SOL     OW23716   2.381   0.551   1.982  0.0068 -0.3083 -0.2663
 4028SOL    HW123717   2.293   0.542   2.018 -0.5077 -1.8690 -1.9394
 4028SOL    HW223718   2.413   0.464   2.006  1.0371 -0.0568 -0.7155
 4029SOL     OW23719   1.261   3.716   9.554 -0.2288  0.6179 -0.3320
 4029SOL    HW123720   1.283   3.624   9.564  1.7018  1.1209  0.1350
 4029SOL    HW223721   1.344   3.764   9.563  0.3412 -0.5472  0.5687
 4030SOL     OW23722   4.273   1.241   8.550 -0.2393  0.4506 -0.2758
 4030SOL    HW123723   4.326   1.227   8.473  0.6127 -2.7596  0.9267
 4030SOL    HW223724   4.182   1.213   8.536 -0.1556 -0.7280  1.5310
 4031SOL     OW23725   1.287   0.714   7.685 -0.3172 -0.1195 -0.3078
 4031SOL    HW123726   1.318   0.666   7.609 -0.5131  1.0975 -1.1507
 4031SOL    HW223727   1.228   0.769   7.633 -0.4220  2.4066  2.4473
 4032SOL     OW23728   1.604   1.686   5.202  0.1106  0.2607  0.4633
 4032SOL    HW123729   1.689   1.719   5.232 -0.3739  0.4028  1.6876
 4032SOL    HW223730   1.629   1.596   5.181 -3.1201 -1.1088  2.4328
 4033SOL     OW23731   3.517   4.504   5.858 -0.5022 -0.1071  0.2878
 4033SOL    HW123732   3.557   4.526   5.773  0.7326 -2.5509  0.2433
 4033SOL    HW223733   3.500   4.593   5.890 -0.0587 -0.8529  2.5767
 4034SOL     OW23734   0.921   2.207   4.777 -0.0011 -0.1963 -0.0317
 4034SOL    HW123735   0.946   2.283   4.725 -2.0554  0.8418  0.5362
 4034SOL    HW223736   0.921   2.131   4.717 -0.9600 -0.2724  0.0645
 4035SOL     OW23737   3.884   3.872  12.132  0.1523 -0.3490  0.7094
 4035SOL    HW123738   3.979   3.881  12.129  0.0308  0.6837 -0.3279
 4035SOL    HW223739   3.860   3.881  12.224 -0.2994  2.1333  0.3731
 4036SOL     OW23740   1.577   0.702   7.497 -0.0112  0.0674 -0.3151
 4036SOL    HW123741   1.492   0.692   7.455  0.8654 -0.6728 -1.9100
 4036SOL    HW223742   1.611   0.613   7.497 -1.6725 -0.5583 -1.2223
 4037SOL     OW23743   0.761   3.704   1.800  0.1997 -0.3738  0.0019
 4037SOL    HW123744   0.729   3.615   1.789 -1.3709  0.0810  0.9233
 4037SOL    HW223745   0.853   3.684   1.816  0.1882 -1.5337 -1.4112
 4038SOL     OW23746   0.886   2.263   6.539 -0.4883 -0.6481  0.0988
 4038SOL    HW123747   0.951   2.327   6.566 -1.9001  0.5407  0.6871
 4038SOL    HW223748   0.800   2.303   6.520 -1.0707 -3.1683 -2.5601
 4039SOL     OW23749   3.864   0.378   4.892  0.3397 -0.1660 -0.4469
 4039SOL    HW123750   3.789   0.417   4.846  1.5408 -0.0395 -2.2903
 4039SOL    HW223751   3.925   0.412   4.826 -0.7702 -0.6536 -1.7153
 4040SOL     OW23752   0.307   1.376   2.191  0.0578  0.5756 -0.4926
 4040SOL    HW123753   0.394   1.407   2.165  0.7088  0.7363  1.8695
 4040SOL    HW223754   0.288   1.299   2.137 -0.1467  0.9934 -1.0162
 4041SOL     OW23755   1.387   3.500   5.552  0.7198 -0.0313  0.1268
 4041SOL    HW123756   1.373   3.593   5.535 -0.1927  0.2490  2.4000
 4041SOL    HW223757   1.462   3.511   5.611  1.0080  1.4554 -0.5037
 4042SOL     OW23758   0.988   1.165   7.746  0.3689  0.3606  0.5581
 4042SOL    HW123759   0.939   1.084   7.761 -0.1548  0.1975 -1.9746
 4042SOL    HW223760   1.064   1.151   7.801  2.5392 -2.4707 -3.1888
 4043SOL     OW23761   3.133   4.328   9.713 -1.0586 -0.1462  0.1159
 4043SOL    HW123762   3.097   4.414   9.732 -1.3168 -0.0833 -0.6709
 4043SOL    HW223763   3.056   4.280   9.683 -1.1972  0.7035 -0.8710
 4044SOL     OW23764   0.621   3.269   0.839 -0.3431  0.5759 -0.0220
 4044SOL    HW123765   0.688   3.334   0.860  0.8741 -0.9400  0.8071
 4044SOL    HW223766   0.545   3.319   0.867 -1.2317 -0.9844  0.3755
 4045SOL     OW23767   3.955   1.304  10.173  0.2307 -0.6948 -0.2646
 4045SOL    HW123768   3.941   1.396  10.152 -0.5145 -0.3256  1.8001
 4045SOL    HW223769   3.941   1.297  10.268 -0.9220 -0.1580 -0.4002
 4046SOL     OW23770   4.604   0.370   9.438 -0.3585 -0.4118  0.6796
 4046SOL    HW123771   4.699   0.358   9.435  0.0820  3.1970  0.4651
 4046SOL    HW223772   4.596   0.451   9.488  2.6546  0.6958 -0.6481
 4047SOL     OW23773   2.496   0.696   5.902  0.2178 -0.4305  0.4161
 4047SOL    HW123774   2.503   0.639   5.825 -0.0791  1.0107 -0.6658
 4047SOL    HW223775   2.447   0.771   5.871 -0.5839 -1.0276  0.2498
 4048SOL     OW23776   0.289   3.812  15.159  0.1427  0.1833 -0.3208
 4048SOL    HW123777   0.295   3.899  15.199  2.9740  0.1292 -0.6459
 4048SOL    HW223778   0.263   3.834  15.070  1.6548 -1.3681 -1.1429
 4049SOL     OW23779   0.912   1.502   7.451 -0.2440 -0.2123 -0.0168
 4049SOL    HW123780   0.850   1.566   7.485  0.4155 -0.4510  1.6202
 4049SOL    HW223781   1.000   1.532   7.474 -0.7551  0.5057  0.9786
 4050SOL     OW23782   2.083   0.651  10.762 -0.1676 -0.0202 -0.5261
 4050SOL    HW123783   2.061   0.568  10.802 -2.9859  0.5571 -0.9228
 4050SOL    HW223784   2.090   0.696  10.846  0.6807 -0.5313 -0.3262
 4051SOL     OW23785   4.559   0.764   3.536  0.1779  0.5001 -0.4004
 4051SOL    HW123786   4.497   0.694   3.517 -1.8863  1.4688  2.8014
 4051SOL    HW223787   4.574   0.800   3.448 -2.4915  1.3754 -0.4953
 4052SOL     OW23788   2.509   3.409   9.197 -0.4988  0.1216 -0.1867
 4052SOL    HW123789   2.442   3.390   9.132 -1.8561  1.4748  0.8312
 4052SOL    HW223790   2.460   3.432   9.276 -1.4373 -0.0208 -0.7298
 4053SOL     OW23791   4.300   2.432   9.008 -0.0494 -0.7080 -0.3651
 4053SOL    HW123792   4.382   2.399   8.972 -0.2505 -1.3246 -0.2497
 4053SOL    HW223793   4.333   2.513   9.046 -2.1984 -0.5495  1.1574
 4054SOL     OW23794   4.401   3.993   5.266  0.3200  0.1632  0.1841
 4054SOL    HW123795   4.373   3.954   5.183 -0.0707  0.5882  0.1197
 4054SOL    HW223796   4.315   3.989   5.308  0.3780  0.7901  0.3658
 4055SOL     OW23797   0.629   1.411   2.717  0.5204 -0.0368  0.1106
 4055SOL    HW123798   0.708   1.430   2.668  1.1920  0.3411  1.3383
 4055SOL    HW223799   0.660   1.321   2.730  0.8832  0.1640  0.6302
 4056SOL     OW23800   0.480   1.932  12.002 -0.2249  0.5168 -0.1518
 4056SOL    HW123801   0.541   1.892  12.064 -1.5890  2.4120  2.3900
 4056SOL    HW223802   0.400   1.889  12.032 -0.1261  0.8883  0.6476
 4057SOL     OW23803   4.216   4.363   5.691  0.1747  0.5624  0.6167
 4057SOL    HW123804   4.164   4.438   5.661  0.4927  0.2515 -0.7100
 4057SOL    HW223805   4.175   4.340   5.774 -0.3463 -1.8414 -0.2959
 4058SOL     OW23806   2.946   4.052   8.555 -0.7715 -0.5254  0.0092
 4058SOL    HW123807   2.969   4.068   8.464 -0.9822 -0.9240 -0.1107
 4058SOL    HW223808   2.853   4.070   8.563 -0.2256  1.9979  0.7492
 4059SOL     OW23809   2.928   0.509   3.927  0.0632 -0.2010 -0.5757
 4059SOL    HW123810   2.930   0.513   4.023 -3.2746 -0.2864 -0.5140
 4059SOL    HW223811   2.843   0.465   3.921  0.2166 -0.6904  0.7636
 4060SOL     OW23812   3.911   0.186   6.932 -0.2238  0.2432  0.5694
 4060SOL    HW123813   3.938   0.246   6.862 -1.1534 -1.3807 -1.1900
 4060SOL    HW223814   3.989   0.188   6.988 -0.5005  1.5041  0.9196
 4061SOL     OW23815   4.501   4.133   3.521  0.4149 -0.6813  0.0225
 4061SOL    HW123816   4.487   4.154   3.428 -1.0789  2.3284  0.9462
 4061SOL    HW223817   4.427   4.074   3.535 -0.0604  0.3817  1.9675
 4062SOL     OW23818   0.333   2.229   1.964  0.1849  0.3513  0.5689
 4062SOL    HW123819   0.270   2.228   1.892 -0.2562  0.4144  0.9518
 4062SOL    HW223820   0.276   2.239   2.040 -1.6151 -3.8169 -0.2600
 4063SOL     OW23821   3.580   2.848   7.641  0.6242  0.5264  0.0817
 4063SOL    HW123822   3.537   2.868   7.725 -0.2618 -0.2199 -0.1940
 4063SOL    HW223823   3.566   2.753   7.638 -1.0815  0.8778 -2.6428
 4064SOL     OW23824   2.359   0.037  10.170  0.1909 -0.4186 -0.5804
 4064SOL    HW123825   2.325   0.029  10.259 -0.3039  1.5932 -0.5949
 4064SOL    HW223826   2.282   0.030  10.115  0.0158  1.0537 -0.5133
 4065SOL     OW23827   2.355   0.961   5.203  0.1266 -0.0163  0.0166
 4065SOL    HW123828   2.400   1.022   5.262 -0.9268  0.1999  0.5929
 4065SOL    HW223829   2.264   0.984   5.222  0.7311  1.5600  1.0578
 4066SOL     OW23830   0.942   3.735  12.001  0.5816 -0.1826  0.1845
 4066SOL    HW123831   1.006   3.670  11.972 -1.4453 -0.7883 -2.9588
 4066SOL    HW223832   0.997   3.794  12.053 -1.4057  1.5179  0.3506
 4067SOL     OW23833   2.206   0.127   5.981  0.1287  0.4554 -0.3839
 4067SOL    HW123834   2.198   0.070   5.905 -0.5489  0.9955 -0.7190
 4067SOL    HW223835   2.206   0.214   5.941  0.0048 -0.2464 -1.9125
 4068SOL     OW23836   2.750   3.953   8.213 -0.4356 -0.3689  0.1395
 4068SOL    HW123837   2.665   3.969   8.254  1.0580  2.3178  2.2020
 4068SOL    HW223838   2.722   3.912   8.131 -1.5015  0.4513  0.0849
 4069SOL     OW23839   4.207   4.003   3.886  0.2049 -0.4080 -0.3267
 4069SOL    HW123840   4.205   3.910   3.865  0.4621 -0.7867  1.3411
 4069SOL    HW223841   4.199   4.002   3.981  1.8555  1.1466 -0.1697
 4070SOL     OW23842   3.637   0.030   7.818  0.4768 -0.2506  0.0864
 4070SOL    HW123843   3.548   0.050   7.790  0.1551 -0.5680  0.8837
 4070SOL    HW223844   3.641   0.091   7.892 -0.7824 -0.4954  0.3688
 4071SOL     OW23845   4.416   3.607   5.132 -0.5419  0.0789 -0.2086
 4071SOL    HW123846   4.506   3.620   5.163 -0.1820  1.6605 -1.9539
 4071SOL    HW223847   4.381   3.637   5.216  2.1130 -1.7578  1.5808
 4072SOL     OW23848   0.912   0.353   9.786 -0.5184  0.2409 -0.9458
 4072SOL    HW123849   0.845   0.420   9.799  0.4321  0.9590  0.3500
 4072SOL    HW223850   0.872   0.268   9.800 -1.1967  0.4149 -1.8280
 4073SOL     OW23851   2.193   0.400   1.394 -0.0828  0.3377  0.1541
 4073SOL    HW123852   2.252   0.423   1.466  0.5633  0.9588 -0.5732
 4073SOL    HW223853   2.110   0.402   1.441  0.1384 -0.9127  0.6008
 4074SOL     OW23854   0.630   4.281   3.682  0.3759 -0.5318  0.2428
 4074SOL    HW123855   0.596   4.295   3.594 -1.9646 -2.0502  0.9115
 4074SOL    HW223856   0.600   4.365   3.717  0.1599 -0.1549 -0.8416
 4075SOL     OW23857   2.796   2.228  10.659  0.4865  0.5593  0.1514
 4075SOL    HW123858   2.746   2.192  10.732 -0.2390 -0.3678 -0.8052
 4075SOL    HW223859   2.778   2.322  10.656 -0.4452  0.4008  1.0098
 4076SOL     OW23860   3.899   3.678   4.896  0.2916 -0.4146  0.1473
 4076SOL    HW123861   3.975   3.670   4.954 -0.4068 -1.2158  0.9446
 4076SOL    HW223862   3.907   3.770   4.869  1.4053 -0.6717 -0.4286
 4077SOL     OW23863   0.046   2.315   8.241 -0.1913  0.1878  0.1284
 4077SOL    HW123864   0.105   2.331   8.314  0.5845 -2.2061  0.0363
 4077SOL    HW223865   4.702   2.310   8.285  0.6451 -1.5279  1.5618
 4078SOL     OW23866   1.939   1.333   6.633  0.0230  0.1763 -0.0349
 4078SOL    HW123867   2.011   1.304   6.688  0.1118  0.6113  0.0737
 4078SOL    HW223868   1.987   1.400   6.584 -0.2141  0.9766  0.8376
 4079SOL     OW23869   0.296   4.233  14.179 -0.0132 -0.3368 -0.3164
 4079SOL    HW123870   0.348   4.303  14.139  1.8426 -2.4542 -1.5943
 4079SOL    HW223871   0.218   4.230  14.123 -0.4249 -0.2400  0.2540
 4080SOL     OW23872   4.582   2.330   3.392 -0.5383  0.8410 -0.1609
 4080SOL    HW123873   4.499   2.330   3.344 -0.5245 -1.9561 -0.1724
 4080SOL    HW223874   4.619   2.248   3.359  0.5702  1.0155  0.6521
 4081SOL     OW23875   2.493   3.221   8.786  0.1151 -0.0105 -0.0704
 4081SOL    HW123876   2.550   3.298   8.784  2.5115 -1.7402  0.9318
 4081SOL    HW223877   2.553   3.148   8.769  1.2131  0.5089  1.5550
 4082SOL     OW23878   4.128   2.599   8.504 -0.0954  0.8752  0.0031
 4082SOL    HW123879   4.048   2.574   8.550  0.1173  1.6260  0.7928
 4082SOL    HW223880   4.148   2.675   8.559 -0.1103  0.9124 -0.0427
 4083SOL     OW23881   2.532   0.589   1.272  0.4608  0.1066 -0.1788
 4083SOL    HW123882   2.545   0.593   1.177 -1.0295  1.0183 -0.3544
 4083SOL    HW223883   2.485   0.507   1.286  1.8004 -1.0380 -2.4875
 4084SOL     OW23884   0.455   3.483   3.306  0.0486  0.0922 -0.1950
 4084SOL    HW123885   0.501   3.555   3.348 -0.3960 -0.0699  0.5686
 4084SOL    HW223886   0.493   3.407   3.351 -0.6180 -0.4097 -0.4793
 4085SOL     OW23887   3.729   0.897   0.656  0.2164  0.7429  0.0215
 4085SOL    HW123888   3.762   0.807   0.655 -4.6616 -1.0424  0.5675
 4085SOL    HW223889   3.725   0.914   0.562 -2.2180  0.6157  0.1099
 4086SOL     OW23890   2.685   4.572  12.015  0.0060  0.5334 -0.5805
 4086SOL    HW123891   2.740   4.537  11.945  0.9646  1.3375 -0.2399
 4086SOL    HW223892   2.604   4.592  11.969  0.4953  1.2125 -1.1543
 4087SOL     OW23893   4.054   0.011  16.514  0.1511  0.1276 -0.3478
 4087SOL    HW123894   4.045   0.104  16.534 -0.8084  0.1675 -0.9553
 4087SOL    HW223895   4.008   4.711  16.588  2.3739  0.0128  0.9823
 4088SOL     OW23896   3.284   0.334   2.285  0.4429 -0.0513 -0.5196
 4088SOL    HW123897   3.367   0.323   2.332  0.5753  1.0459 -0.4972
 4088SOL    HW223898   3.303   0.417   2.240 -0.0669 -0.2523 -1.0920
 4089SOL     OW23899   3.302   4.512  16.097 -0.2881  0.1625  0.2880
 4089SOL    HW123900   3.373   4.560  16.054  0.5690  0.0020  1.5212
 4089SOL    HW223901   3.273   4.566  16.170 -1.7722 -0.0821 -0.1146
 4090SOL     OW23902   0.647   3.022   7.144  0.4323 -0.4104 -0.8609
 4090SOL    HW123903   0.570   2.983   7.186  1.8734  1.8544  3.8647
 4090SOL    HW223904   0.705   2.954   7.178  3.6174  1.8325 -1.8096
 4091SOL     OW23905   1.847   0.516   1.205  0.1461 -0.1311 -0.0340
 4091SOL    HW123906   1.801   0.548   1.283 -1.0840  1.0769 -1.2352
 4091SOL    HW223907   1.780   0.513   1.136 -1.1210  1.8331  1.0900
 4092SOL     OW23908   3.631   4.232  17.320 -0.1456 -0.1121  0.0554
 4092SOL    HW123909   3.544   4.194  17.308 -0.1764 -0.1408  0.3559
 4092SOL    HW223910   3.630   4.322  17.289 -1.2491  0.3258  1.3508
 4093SOL     OW23911   1.834   4.577   2.238  0.5259 -0.7028 -0.0796
 4093SOL    HW123912   1.881   4.542   2.162 -0.0134 -0.5036 -0.5111
 4093SOL    HW223913   1.776   4.639   2.193 -0.2572 -0.4002  1.3631
 4094SOL     OW23914   1.202   1.733  14.082 -0.2019  0.2445 -0.8117
 4094SOL    HW123915   1.283   1.718  14.033 -1.6131  2.0827 -3.7796
 4094SOL    HW223916   1.215   1.817  14.127 -0.2668  0.5088 -1.2764
 4095SOL     OW23917   0.761   0.055   6.827 -0.2979  0.5361  0.3514
 4095SOL    HW123918   0.693   0.091   6.770 -1.4896 -1.3702  0.5769
 4095SOL    HW223919   0.822   0.126   6.806  1.3079 -1.1541 -0.6765
 4096SOL     OW23920   2.912   0.502  14.762  0.8095  0.8219 -0.3676
 4096SOL    HW123921   2.949   0.581  14.803  2.9712 -1.2812  1.6935
 4096SOL    HW223922   2.975   0.475  14.696 -0.3145 -0.4995 -0.9004
 4097SOL     OW23923   1.020   3.750   0.781  0.1610 -0.2847 -0.1224
 4097SOL    HW123924   1.024   3.845   0.771  0.5532 -0.5044 -2.1609
 4097SOL    HW223925   0.925   3.741   0.777  0.1957 -0.4344 -0.7246
 4098SOL     OW23926   4.452   2.520   9.686  0.1162 -0.4154 -0.4479
 4098SOL    HW123927   4.514   2.518   9.613  1.6289 -2.0366  0.9083
 4098SOL    HW223928   4.391   2.591   9.664  2.4029  1.7330  0.1163
 4099SOL     OW23929   2.853   2.036   9.543 -0.0771  0.2860 -0.1651
 4099SOL    HW123930   2.931   2.051   9.488 -0.4339 -0.1635 -0.7860
 4099SOL    HW223931   2.797   1.986   9.484  0.5092  2.7749 -2.8481
 4100SOL     OW23932   1.954   4.275   2.133  0.6011 -0.1961 -0.5270
 4100SOL    HW123933   1.947   4.217   2.057  0.2011  0.3545 -0.9036
 4100SOL    HW223934   1.946   4.359   2.090 -0.2045 -0.2590 -0.5160
 4101SOL     OW23935   0.413   1.724   5.417 -0.3227 -0.3217 -0.3518
 4101SOL    HW123936   0.440   1.657   5.354  1.6032 -2.0725  2.3325
 4101SOL    HW223937   0.491   1.750   5.466 -0.3384 -2.8139  0.9661
 4102SOL     OW23938   4.729   2.474   4.134  0.1290 -0.1508  0.0889
 4102SOL    HW123939   4.706   2.531   4.208 -1.3716  0.1533 -0.6109
 4102SOL    HW223940   0.062   2.520   4.095  0.6652  0.4242  1.7780
 4103SOL     OW23941   2.197   3.333  16.762  0.0991 -0.2450  0.8725
 4103SOL    HW123942   2.138   3.272  16.717 -0.7618  1.0099  0.3161
 4103SOL    HW223943   2.158   3.419  16.748  0.0495 -0.4921 -0.4544
 4104SOL     OW23944   1.197   3.129   2.146  0.5998 -0.1473 -0.1835
 4104SOL    HW123945   1.246   3.089   2.217  1.2032  0.3974 -0.2956
 4104SOL    HW223946   1.190   3.219   2.180 -0.4640  0.2175 -1.3464
 4105SOL     OW23947   0.194   2.845   9.127  0.3572  0.2001  0.0147
 4105SOL    HW123948   0.158   2.933   9.114 -0.4755 -0.2398 -0.6842
 4105SOL    HW223949   0.239   2.851   9.211 -0.2514  0.3095  0.3389
 4106SOL     OW23950   0.966   3.589  17.657  0.8094  0.2234 -0.5870
 4106SOL    HW123951   0.881   3.626  17.631 -0.3858 -1.6509  0.6674
 4106SOL    HW223952   0.950   3.566  17.749  0.2255 -2.1007 -1.2866
 4107SOL     OW23953   1.265   4.534   6.211  0.8221 -0.1233  0.3151
 4107SOL    HW123954   1.210   4.458   6.225 -0.5632  1.0221  1.1333
 4107SOL    HW223955   1.204   4.582   6.156  0.3863 -0.3992  0.5569
 4108SOL     OW23956   3.389   4.701  14.188 -0.0531  0.0988  0.1026
 4108SOL    HW123957   3.406   0.017  14.263 -3.5539 -0.2540  1.1938
 4108SOL    HW223958   3.464   4.643  14.192 -0.4181 -0.3212  0.7882
 4109SOL     OW23959   4.251   3.706  17.186  0.1788 -0.2820 -0.7940
 4109SOL    HW123960   4.327   3.651  17.165  1.1969  0.3326  1.2856
 4109SOL    HW223961   4.186   3.636  17.182  0.9293 -1.0912  1.4963
 4110SOL     OW23962   0.442   0.405   9.117  0.3259  0.0786  0.1675
 4110SOL    HW123963   0.421   0.352   9.041  2.5225  0.9784 -1.0855
 4110SOL    HW223964   0.519   0.363   9.155  0.6498  2.7914  2.5235
 4111SOL     OW23965   4.397   0.989   8.644 -0.2098  0.0458  0.2140
 4111SOL    HW123966   4.477   1.023   8.605  0.6912 -1.8050  0.4167
 4111SOL    HW223967   4.343   1.067   8.649 -1.9955 -1.2805  1.8682
 4112SOL     OW23968   3.515   0.097   9.917 -0.6522 -0.0087 -0.0942
 4112SOL    HW123969   3.443   0.075   9.858 -0.4482 -1.6558  0.2827
 4112SOL    HW223970   3.502   0.182   9.961 -2.9788  0.2276 -1.2578
 4113SOL     OW23971   0.692   1.807   4.401  0.7275  0.0623  0.3544
 4113SOL    HW123972   0.774   1.850   4.424  2.1795 -1.1815 -2.5538
 4113SOL    HW223973   0.679   1.766   4.486 -0.6034  1.0826  0.6485
 4114SOL     OW23974   1.999   0.333  11.974 -0.4426 -0.5444  0.2159
 4114SOL    HW123975   2.054   0.347  11.898 -0.3518 -2.1264 -0.0191
 4114SOL    HW223976   2.002   0.238  11.988  1.0940 -0.7401 -1.5200
 4115SOL     OW23977   0.504   0.303   3.360 -0.3403  0.0572 -0.3624
 4115SOL    HW123978   0.591   0.311   3.400 -0.5891 -0.4536  0.2792
 4115SOL    HW223979   0.499   0.379   3.302 -1.4702  0.4813  0.2945
 4116SOL     OW23980   3.813   1.044   8.907  0.7751 -0.0108 -0.0316
 4116SOL    HW123981   3.869   0.985   8.857  0.7568 -1.6251  1.8794
 4116SOL    HW223982   3.835   1.124   8.858 -3.8149  0.7180 -0.8633
 4117SOL     OW23983   2.627   1.305   2.866  0.4199  0.4736  0.0193
 4117SOL    HW123984   2.594   1.215   2.874  0.3103  0.4083 -1.0883
 4117SOL    HW223985   2.634   1.326   2.959  1.3031  0.9530 -0.1529
 4118SOL     OW23986   0.632   4.457   5.555 -0.0567 -0.1630 -0.1789
 4118SOL    HW123987   0.686   4.491   5.627  0.5170 -0.6284 -0.3898
 4118SOL    HW223988   0.570   4.401   5.601  0.8969  0.3801  1.7493
 4119SOL     OW23989   3.691   1.180   8.372 -0.0662 -0.0575 -0.7042
 4119SOL    HW123990   3.684   1.096   8.418  1.0523  0.7710  0.9811
 4119SOL    HW223991   3.612   1.161   8.322 -0.9193  1.4962  0.0707
 4120SOL     OW23992   0.431   1.686   4.356  0.3625  0.6306  0.4325
 4120SOL    HW123993   0.368   1.755   4.377 -1.3970 -0.1733 -2.2856
 4120SOL    HW223994   0.515   1.731   4.354 -0.0113  1.3235  0.4764
 4121SOL     OW23995   2.265   3.186   8.078  0.2496 -0.3067  0.5972
 4121SOL    HW123996   2.291   3.186   8.170 -1.0347  0.5676  0.9536
 4121SOL    HW223997   2.172   3.171   8.091 -0.0233  2.3383  1.7401
 4122SOL     OW23998   2.538   1.377   7.527  0.4263 -0.2399  0.0239
 4122SOL    HW123999   2.453   1.340   7.549  0.4660  1.1287  2.4631
 4122SOL    HW224000   2.526   1.372   7.432 -2.6980 -2.5185  0.5749
 4123SOL     OW24001   1.042   3.660   2.642 -0.4755  0.3649  0.2442
 4123SOL    HW124002   0.951   3.640   2.621  0.2760 -2.4452 -0.3619
 4123SOL    HW224003   1.049   3.755   2.654 -0.5879  0.2005  1.6416
 4124SOL     OW24004   0.793   3.752   3.250  0.2687 -0.0898 -0.5423
 4124SOL    HW124005   0.818   3.842   3.274  2.0585 -0.4735 -0.9666
 4124SOL    HW224006   0.702   3.756   3.279  0.6576 -3.9793  1.1917
 4125SOL     OW24007   3.486   3.513  12.484 -0.3155  0.1032 -0.0383
 4125SOL    HW124008   3.421   3.566  12.530 -1.5229  0.5143 -2.2091
 4125SOL    HW224009   3.430   3.457  12.430  0.0773 -0.1948 -0.1338
 4126SOL     OW24010   2.182   1.014   3.174  0.2106 -0.2258  0.0099
 4126SOL    HW124011   2.200   0.921   3.163  1.0990 -0.3231  2.3298
 4126SOL    HW224012   2.250   1.039   3.237  0.3845 -0.3905 -0.1159
 4127SOL     OW24013   3.880   2.618   4.925  0.0174  0.1674  0.1721
 4127SOL    HW124014   3.834   2.547   4.880  0.1050 -1.3951  2.5472
 4127SOL    HW224015   3.812   2.643   4.988  0.9084  0.3119  1.0761
 4128SOL     OW24016   4.395   4.356   1.632  0.1514 -0.0588 -0.2297
 4128SOL    HW124017   4.380   4.262   1.645  0.8641  0.0788  1.7158
 4128SOL    HW224018   4.383   4.363   1.538 -0.9472  0.3288 -0.0509
 4129SOL     OW24019   1.247   4.143   7.272 -0.2429 -0.4083 -0.5846
 4129SOL    HW124020   1.268   4.222   7.323 -1.1933 -1.3127  1.1926
 4129SOL    HW224021   1.227   4.086   7.345 -0.9486 -0.1440 -0.5687
 4130SOL     OW24022   3.204   3.765   6.020  1.3420 -0.1982 -0.5240
 4130SOL    HW124023   3.203   3.787   6.113  1.2456  0.6989 -0.7409
 4130SOL    HW224024   3.212   3.852   5.981 -1.8900  0.3587  0.0283
 4131SOL     OW24025   4.564   0.949  12.378  0.0006 -0.5407  0.2991
 4131SOL    HW124026   4.651   0.927  12.409  0.1540 -1.5687 -0.8988
 4131SOL    HW224027   4.550   1.038  12.412  1.2186 -0.2540  0.0570
 4132SOL     OW24028   2.679   3.219   6.341 -0.1618  0.1421 -0.1622
 4132SOL    HW124029   2.733   3.269   6.402 -0.1644  1.7362 -1.4791
 4132SOL    HW224030   2.742   3.168   6.291 -1.9483 -2.3086  0.1011
 4133SOL     OW24031   0.533   4.029   5.939  0.1381 -0.2598  0.1386
 4133SOL    HW124032   0.532   4.104   5.999 -0.8775  2.1226 -2.8617
 4133SOL    HW224033   0.439   4.021   5.923 -0.0491 -0.7302  1.4166
 4134SOL     OW24034   1.792   0.980   7.956  0.5519  0.3174  0.0757
 4134SOL    HW124035   1.771   1.039   8.028 -0.3654  0.7653 -0.5638
 4134SOL    HW224036   1.723   1.020   7.904 -0.6618 -0.7351  0.8514
 4135SOL     OW24037   0.568   0.015  14.329  0.0147 -0.4901  0.9767
 4135SOL    HW124038   0.548   0.109  14.322 -2.0822 -0.9453  0.8008
 4135SOL    HW224039   0.603   0.012  14.418  0.4772 -2.4346  0.7319
 4136SOL     OW24040   4.466   0.106   9.500 -0.0314  0.4188  0.4316
 4136SOL    HW124041   4.456   0.093   9.405  1.7799  2.8389 -0.1034
 4136SOL    HW224042   4.529   0.177   9.492 -0.7545  1.0578  0.3533
 4137SOL     OW24043   2.778   4.590   4.052  0.1324  0.3242  0.4188
 4137SOL    HW124044   2.804   4.573   4.142  1.7984  0.0383 -0.0993
 4137SOL    HW224045   2.807   4.503   4.024 -2.1033 -0.2358 -0.1527
 4138SOL     OW24046   3.952   2.279   9.769 -0.6915  0.1008  0.1505
 4138SOL    HW124047   4.022   2.249   9.711 -2.1056 -0.9657 -1.0125
 4138SOL    HW224048   3.941   2.204   9.827  0.3972  1.0207  1.5605
 4139SOL     OW24049   4.212   2.426  10.015  0.0069  0.2443  0.8143
 4139SOL    HW124050   4.141   2.424  10.080 -1.6275  1.0748 -0.9366
 4139SOL    HW224051   4.175   2.477   9.943 -1.5614 -0.1373  1.3461
 4140SOL     OW24052   3.477   2.423  13.924  0.2500 -0.2109  0.2795
 4140SOL    HW124053   3.439   2.337  13.942 -1.4655  0.1425 -1.6618
 4140SOL    HW224054   3.438   2.441  13.839  2.4792 -0.1543 -0.7144
 4141SOL     OW24055   1.270   0.514  15.128  0.3142  0.2206 -0.0881
 4141SOL    HW124056   1.333   0.554  15.188  0.8949 -0.0270 -0.5341
 4141SOL    HW224057   1.193   0.544  15.176 -0.5286 -2.3295  0.1171
 4142SOL     OW24058   1.268   1.535   7.226 -0.2607  0.5579  0.4809
 4142SOL    HW124059   1.268   1.547   7.131 -1.2177  0.0986  0.4277
 4142SOL    HW224060   1.239   1.623   7.253 -0.1336  1.1077 -1.2039
 4143SOL     OW24061   2.632   3.551   7.214  0.2671 -0.2563  0.2248
 4143SOL    HW124062   2.683   3.628   7.239 -2.2933  1.4989 -0.0160
 4143SOL    HW224063   2.660   3.495   7.286  1.9885  1.1204  0.6350
 4144SOL     OW24064   3.802   2.497   0.088  0.3681 -0.0063 -0.0635
 4144SOL    HW124065   3.860   2.444   0.143  2.2825 -0.0989 -2.2126
 4144SOL    HW224066   3.771   2.441   0.017  0.6647 -0.5017  0.1919
 4145SOL     OW24067   2.240   2.654   9.167 -0.0941 -0.4301 -0.1018
 4145SOL    HW124068   2.160   2.616   9.130 -1.5400  0.8866  1.6577
 4145SOL    HW224069   2.227   2.624   9.257  0.7246 -2.9635 -0.8421
 4146SOL     OW24070   1.654   1.359   2.710  0.3147 -0.0572 -0.1413
 4146SOL    HW124071   1.672   1.271   2.744 -1.1994 -0.0743  0.6035
 4146SOL    HW224072   1.559   1.355   2.700  0.3578  0.2929 -0.6770
 4147SOL     OW24073   1.934   2.779   8.672 -0.0632  0.8758 -0.4407
 4147SOL    HW124074   2.000   2.805   8.736  1.8864 -2.8917 -0.9238
 4147SOL    HW224075   1.942   2.683   8.668 -0.4863  0.7933  0.7287
 4148SOL     OW24076   3.260   2.460  12.860 -0.5850  0.0661 -0.4878
 4148SOL    HW124077   3.165   2.458  12.864 -0.6014  1.7360  0.0737
 4148SOL    HW224078   3.283   2.427  12.947 -4.1317  2.3090  1.2893
 4149SOL     OW24079   0.120   2.754   2.023  0.0713 -0.3667  0.4953
 4149SOL    HW124080   0.089   2.693   2.090  1.4439 -1.5319  0.0817
 4149SOL    HW224081   0.215   2.742   2.026  0.3631  1.7574 -0.3549
 4150SOL     OW24082   2.969   2.002   4.720  0.2244 -0.6853 -0.6334
 4150SOL    HW124083   3.033   1.939   4.687  0.7846  0.7019 -2.1927
 4150SOL    HW224084   2.890   1.964   4.680 -0.1870  1.6104 -2.0180
 4151SOL     OW24085   1.359   1.291   3.364  0.5708 -0.2069  0.5983
 4151SOL    HW124086   1.405   1.209   3.347  3.0658  1.0773  1.1821
 4151SOL    HW224087   1.407   1.344   3.300  0.2353  0.0333  0.5443
 4152SOL     OW24088   0.608   1.390   6.823 -0.6196 -0.1559 -0.0937
 4152SOL    HW124089   0.590   1.450   6.895  0.1292  0.7847 -0.6909
 4152SOL    HW224090   0.684   1.344   6.859 -1.4956 -0.9376  0.7550
 4153SOL     OW24091   2.901   3.931  16.238  0.2415 -0.0968  0.2480
 4153SOL    HW124092   2.840   3.964  16.173  1.5596 -0.0231 -0.9401
 4153SOL    HW224093   2.982   3.983  16.232 -0.2511  0.8481  1.6197
 4154SOL     OW24094   2.050   3.810  11.381 -0.6879 -0.0646  0.0504
 4154SOL    HW124095   1.956   3.818  11.398 -0.2780 -0.6773  2.6698
 4154SOL    HW224096   2.074   3.724  11.415  1.6786  0.7136  0.3581
 4155SOL     OW24097   2.764   3.146   8.231 -0.1476  0.6547 -0.5257
 4155SOL    HW124098   2.800   3.058   8.228 -2.3414 -0.2854  1.5010
 4155SOL    HW224099   2.730   3.151   8.320 -1.2632 -1.0973 -0.8573
 4156SOL     OW24100   1.016   2.795   6.707 -0.2797  0.2970 -0.3428
 4156SOL    HW124101   1.074   2.729   6.668  0.1346 -0.7641  2.0449
 4156SOL    HW224102   1.079   2.847   6.758  0.5928  0.1535 -1.2637
 4157SOL     OW24103   2.089   1.270   3.786 -0.5445 -0.0217 -0.3591
 4157SOL    HW124104   2.040   1.284   3.866  1.3095 -0.3933  0.8367
 4157SOL    HW224105   2.046   1.332   3.727 -1.8252  0.2610  0.9018
 4158SOL     OW24106   3.873   4.547   6.371  0.0118  0.2557 -0.1034
 4158SOL    HW124107   3.900   4.572   6.459  0.8243  0.9416 -0.5433
 4158SOL    HW224108   3.946   4.582   6.319 -0.9509  1.3937 -0.6760
 4159SOL     OW24109   1.675   4.528   6.707 -0.5036  0.6257 -0.3832
 4159SOL    HW124110   1.757   4.577   6.714  0.5176 -1.3560  1.6573
 4159SOL    HW224111   1.707   4.475   6.634  0.4354 -0.4503  0.8090
 4160SOL     OW24112   2.976   4.152   6.463  0.4173  0.1239 -0.0133
 4160SOL    HW124113   3.005   4.241   6.485 -0.4062  0.4008 -0.0394
 4160SOL    HW224114   2.972   4.103   6.546 -0.2822  0.9276  0.4306
 4161SOL     OW24115   3.224   1.362   8.178  0.0159  0.1839 -0.1810
 4161SOL    HW124116   3.217   1.366   8.083  2.1069 -0.5336 -0.3825
 4161SOL    HW224117   3.198   1.272   8.195 -1.9355  0.5337 -1.3208
 4162SOL     OW24118   1.771   3.001  16.401  0.2457 -0.6730  0.1132
 4162SOL    HW124119   1.785   3.091  16.372 -1.5093  0.0460  1.5399
 4162SOL    HW224120   1.860   2.969  16.412  0.9183  1.0890 -0.2622
 4163SOL     OW24121   4.616   2.824   9.344  0.7727  0.3777  0.1203
 4163SOL    HW124122   4.615   2.780   9.259  0.6230 -2.2212  1.4976
 4163SOL    HW224123   4.666   2.903   9.324 -0.9815  1.0655 -1.5407
 4164SOL     OW24124   1.867   2.497   7.542 -0.4544  0.3257  0.4104
 4164SOL    HW124125   1.912   2.414   7.528 -0.8978  0.0205  0.7799
 4164SOL    HW224126   1.884   2.546   7.462  0.9567 -2.7829 -1.1918
 4165SOL     OW24127   4.017   4.550   1.915 -0.1514 -0.0181 -0.0853
 4165SOL    HW124128   3.978   4.621   1.864 -1.0090 -0.0022  0.6003
 4165SOL    HW224129   4.102   4.586   1.941  0.0639 -0.7750  0.2596
 4166SOL     OW24130   2.342   3.789  14.060 -0.6286  0.0979  0.5187
 4166SOL    HW124131   2.419   3.732  14.069 -0.2973  0.4071 -0.3406
 4166SOL    HW224132   2.372   3.845  13.988  1.6112 -2.0998 -0.3000
 4167SOL     OW24133   0.663   3.949  14.149 -0.1162  0.0820  0.0370
 4167SOL    HW124134   0.710   3.878  14.105 -1.2483  0.3011 -1.5311
 4167SOL    HW224135   0.714   4.028  14.131 -0.3186  0.2147  0.0534
 4168SOL     OW24136   2.363   4.271   3.867 -0.1246  0.0932 -0.2086
 4168SOL    HW124137   2.454   4.291   3.844  0.9353 -2.9339  1.3244
 4168SOL    HW224138   2.320   4.270   3.782  0.6651 -1.6704 -0.5884
 4169SOL     OW24139   3.716   0.616   6.372 -0.0363  0.1719  0.0420
 4169SOL    HW124140   3.781   0.561   6.329  1.3027  0.4981  1.6537
 4169SOL    HW224141   3.762   0.664   6.441  3.3705 -0.8911 -1.4928
 4170SOL     OW24142   0.418   1.216   3.409 -0.1865  0.2921  0.0499
 4170SOL    HW124143   0.510   1.207   3.386  0.0176  2.0409  0.1845
 4170SOL    HW224144   0.394   1.124   3.401 -2.6288  0.6903  2.8751
 4171SOL     OW24145   1.479   3.138   6.064  0.2801  0.4537 -0.5520
 4171SOL    HW124146   1.437   3.080   6.128  2.2482 -0.6458 -0.2431
 4171SOL    HW224147   1.557   3.158   6.115 -1.0032  0.9457  1.2358
 4172SOL     OW24148   3.091   3.618   2.818  0.0656  0.0116  0.2522
 4172SOL    HW124149   3.114   3.628   2.910 -1.9280  3.0826  0.4227
 4172SOL    HW224150   2.997   3.636   2.823 -0.3119 -2.0271  0.7562
 4173SOL     OW24151   1.402   0.808  17.056  0.0081 -0.3886 -0.3230
 4173SOL    HW124152   1.470   0.829  16.993 -2.9424  1.5655 -2.8283
 4173SOL    HW224153   1.332   0.785  16.994  0.4925 -0.5393 -0.8101
 4174SOL     OW24154   2.637   2.001   5.144  0.0977  0.0002  0.0133
 4174SOL    HW124155   2.604   2.089   5.123  2.9419  1.1796  0.5355
 4174SOL    HW224156   2.580   1.942   5.096 -1.1049 -0.1145  1.5820
 4175SOL     OW24157   0.452   1.167   6.672 -0.3006 -0.5981  0.7344
 4175SOL    HW124158   0.495   1.243   6.711 -0.2097  0.0425 -0.6442
 4175SOL    HW224159   0.520   1.104   6.698  0.8776  0.2729 -0.2612
 4176SOL     OW24160   2.748   0.008   7.113  0.0556  0.4969 -0.0599
 4176SOL    HW124161   2.817   4.694   7.150 -1.3071 -1.1515  0.0583
 4176SOL    HW224162   2.690   4.685   7.072  0.6294  0.9565 -1.6231
 4177SOL     OW24163   4.316   4.533   6.381 -0.0395 -0.3761 -0.0384
 4177SOL    HW124164   4.263   4.527   6.460 -1.0092  1.1002 -0.5845
 4177SOL    HW224165   4.362   4.449   6.380  0.7799  0.0684  0.0224
 4178SOL     OW24166   3.474   0.319   2.490  0.1764  0.4952  0.0076
 4178SOL    HW124167   3.474   0.291   2.582 -1.4266  0.2043 -0.0922
 4178SOL    HW224168   3.489   0.414   2.494 -1.3464  0.7671 -1.1300
 4179SOL     OW24169   0.271   3.484   8.308 -0.0758 -0.1590  0.6725
 4179SOL    HW124170   0.332   3.417   8.337  0.1533  0.3378  1.3410
 4179SOL    HW224171   0.205   3.423   8.275  0.3176  1.1287 -2.4954
 4180SOL     OW24172   3.252   1.230  10.986  0.3454 -0.4086 -0.1137
 4180SOL    HW124173   3.314   1.159  11.000  0.4038 -0.4248 -0.4558
 4180SOL    HW224174   3.294   1.299  11.037  0.1257 -0.1158 -0.3212
 4181SOL     OW24175   4.462   1.323  11.092  0.0452 -0.0438 -0.5125
 4181SOL    HW124176   4.485   1.233  11.115  2.9512  0.5933 -0.9357
 4181SOL    HW224177   4.389   1.321  11.030  0.1862 -0.1730 -0.6764
 4182SOL     OW24178   0.884   0.074   3.170  1.1820 -0.6610 -0.4026
 4182SOL    HW124179   0.915   0.007   3.109  3.1481  0.3951 -0.5631
 4182SOL    HW224180   0.793   0.089   3.143  0.9998 -1.1243 -0.0330
 4183SOL     OW24181   0.950   3.951  10.102  0.1703  0.1500 -0.2637
 4183SOL    HW124182   0.884   4.019  10.094 -0.4418 -0.4436 -0.2943
 4183SOL    HW224183   0.966   3.931  10.010  1.3212  2.9947 -0.6579
 4184SOL     OW24184   2.617   1.947   3.570 -1.1976  0.0510 -0.1872
 4184SOL    HW124185   2.623   1.892   3.648 -1.4367 -0.7195 -0.7068
 4184SOL    HW224186   2.709   1.971   3.562 -1.0818 -1.3296 -2.8260
 4185SOL     OW24187   0.337   4.337   4.357  0.1796  0.0293  0.2548
 4185SOL    HW124188   0.297   4.315   4.442  0.3482  2.7378  1.0326
 4185SOL    HW224189   0.296   4.263   4.312 -0.7287  0.0759  1.0001
 4186SOL     OW24190   3.907   4.569   6.944 -0.0392 -0.1882  0.7376
 4186SOL    HW124191   3.974   4.587   7.010  0.7546 -2.3339  0.5103
 4186SOL    HW224192   3.856   4.650   6.947  0.1106 -0.1725  2.4378
 4187SOL     OW24193   4.519   2.427  17.642  0.2492  0.4223  0.3211
 4187SOL    HW124194   4.536   2.343  17.684 -0.9991 -0.0892 -0.1975
 4187SOL    HW224195   4.431   2.432  17.679  1.0461 -0.8821  2.3611
 4188SOL     OW24196   0.999   3.082   8.367  0.3402  0.6066  0.3414
 4188SOL    HW124197   1.030   3.087   8.457 -0.3121  0.4008  0.5762
 4188SOL    HW224198   0.915   3.128   8.372  0.8135  1.4462  0.4386
 4189SOL     OW24199   3.641   1.300   3.916 -0.5997  0.2651  0.5143
 4189SOL    HW124200   3.704   1.231   3.938 -0.7837 -0.1735 -0.3517
 4189SOL    HW224201   3.585   1.241   3.866 -0.6960 -1.2377  2.3837
 4190SOL     OW24202   4.036   2.870  11.343  0.3267  0.1180 -0.2428
 4190SOL    HW124203   3.995   2.886  11.257 -0.4149  0.1719  0.1222
 4190SOL    HW224204   3.961   2.886  11.399  0.9903 -1.5123  1.1004
 4191SOL     OW24205   4.477   2.544   2.397 -0.2557  0.5817  0.7200
 4191SOL    HW124206   4.383   2.562   2.390 -0.0355  0.8380 -1.5959
 4191SOL    HW224207   4.493   2.583   2.483  0.3538 -0.2950  0.9989
 4192SOL     OW24208   1.324   0.237  17.517  0.0770 -0.0537  0.0623
 4192SOL    HW124209   1.303   0.322  17.557  0.4963 -0.4669  1.1532
 4192SOL    HW224210   1.309   0.259  17.425 -1.8732  1.1765  0.6629
 4193SOL     OW24211   3.168   2.045   4.334  0.1644 -0.0050  0.1463
 4193SOL    HW124212   3.205   1.963   4.302 -1.6871 -1.0257  0.6542
 4193SOL    HW224213   3.078   2.015   4.348  0.4552 -1.1713 -0.4992
 4194SOL     OW24214   0.880   1.536   1.866  0.1242 -0.1173 -0.3590
 4194SOL    HW124215   0.890   1.456   1.814  1.2766  1.2783 -2.2811
 4194SOL    HW224216   0.962   1.582   1.848 -0.2999  1.6350  2.3609
 4195SOL     OW24217   1.653   4.483   7.652 -0.1574 -0.4768  0.3787
 4195SOL    HW124218   1.563   4.454   7.666  0.1633 -0.1628  3.1862
 4195SOL    HW224219   1.665   4.546   7.723 -0.6788 -1.9902  1.8114
 4196SOL     OW24220   2.345   1.118   3.381 -0.1008 -0.0011  0.0689
 4196SOL    HW124221   2.351   1.214   3.382 -1.1609  0.0547  0.9762
 4196SOL    HW224222   2.271   1.108   3.440 -2.2988  0.5180 -2.5890
 4197SOL     OW24223   4.215   0.236  16.493  0.2070 -0.1256  0.4864
 4197SOL    HW124224   4.242   0.155  16.449 -1.7069  0.1921 -1.3086
 4197SOL    HW224225   4.249   0.222  16.581 -0.4251 -1.1199  0.5771
 4198SOL     OW24226   1.776   4.310   9.085  0.1838  0.1287  0.2964
 4198SOL    HW124227   1.854   4.354   9.121  0.0390  0.6495 -0.0382
 4198SOL    HW224228   1.743   4.254   9.155 -1.1223 -0.7611 -1.0424
 4199SOL     OW24229   2.044   4.628   0.539  0.4481  0.3063 -0.2909
 4199SOL    HW124230   2.094   4.599   0.462  1.3302  0.5209  0.1995
 4199SOL    HW224231   1.959   4.593   0.513  0.7061 -1.2208  0.9293
 4200SOL     OW24232   0.575   4.256   8.422 -0.3788 -0.1562 -0.2224
 4200SOL    HW124233   0.582   4.289   8.512  1.6535 -2.6675  0.5523
 4200SOL    HW224234   0.648   4.309   8.389 -1.5793  3.5993  3.1003
 4201SOL     OW24235   1.635   3.286   3.075  0.6159 -0.5195 -0.4750
 4201SOL    HW124236   1.688   3.298   3.153 -0.1282  0.3814 -0.1140
 4201SOL    HW224237   1.704   3.259   3.014  0.9023 -1.6266  0.3382
 4202SOL     OW24238   2.894   3.982  15.493  0.0787 -0.1583 -0.3129
 4202SOL    HW124239   2.900   3.886  15.488 -1.4680 -0.3359  1.2356
 4202SOL    HW224240   2.950   4.015  15.423  0.0107  0.2603 -0.1645
 4203SOL     OW24241   4.244   0.626  16.465 -0.3789  0.1443  0.3255
 4203SOL    HW124242   4.204   0.691  16.407  0.9652  1.4638  0.8795
 4203SOL    HW224243   4.241   0.552  16.404 -0.4671  0.7846 -0.4478
 4204SOL     OW24244   1.208   4.240   1.878  0.2505 -0.3447 -0.0945
 4204SOL    HW124245   1.187   4.317   1.930  2.0088 -0.8395  1.3617
 4204SOL    HW224246   1.134   4.206   1.829  0.1044 -0.4261  0.1833
 4205SOL     OW24247   2.944   2.647  14.094 -0.1533 -0.0472  0.1451
 4205SOL    HW124248   2.868   2.704  14.084 -1.7157 -2.1461  0.0595
 4205SOL    HW224249   2.902   2.567  14.126  2.7596 -1.4861  0.4607
 4206SOL     OW24250   1.181   0.285   0.959  0.2140  0.2723  0.1986
 4206SOL    HW124251   1.168   0.193   0.937 -2.6459  0.3942  1.3601
 4206SOL    HW224252   1.189   0.327   0.873  1.2894  0.2332  0.2756
 4207SOL     OW24253   0.763   0.033  13.305 -0.0975  0.1544 -0.4032
 4207SOL    HW124254   0.731   4.684  13.313  2.1564 -0.7410 -1.4492
 4207SOL    HW224255   0.855   0.028  13.278  0.4954  0.8926  1.5209
 4208SOL     OW24256   4.226   3.697   7.992 -0.5243 -0.4037 -0.2964
 4208SOL    HW124257   4.142   3.662   8.021  0.8457 -2.2072  1.4843
 4208SOL    HW224258   4.211   3.787   8.021  0.1570 -0.7397  1.0995
 4209SOL     OW24259   1.798   4.198   3.358 -0.0533  0.6157  0.5700
 4209SOL    HW124260   1.786   4.117   3.309  1.0085  0.7341  0.1212
 4209SOL    HW224261   1.713   4.240   3.343  0.8400  2.5820  0.9124
 4210SOL     OW24262   2.552   0.586  14.892  0.4009 -0.3504  0.2806
 4210SOL    HW124263   2.499   0.611  14.816  0.0524 -0.6752  0.4220
 4210SOL    HW224264   2.624   0.648  14.878  0.0083  0.3845  1.5244
 4211SOL     OW24265   3.607   1.191   9.523 -0.3226  0.0746 -0.2153
 4211SOL    HW124266   3.651   1.148   9.596 -0.4911 -0.8623 -0.6583
 4211SOL    HW224267   3.683   1.205   9.467 -0.4649 -0.2267 -0.4877
 4212SOL     OW24268   4.420   3.116   6.872 -0.2593  0.4057 -0.4800
 4212SOL    HW124269   4.458   3.091   6.788 -2.1653  0.5986 -1.3967
 4212SOL    HW224270   4.376   3.033   6.892  0.2283  0.5496  1.1896
 4213SOL     OW24271   3.508   1.263   2.245 -0.2868 -0.5655  0.0367
 4213SOL    HW124272   3.582   1.323   2.252 -0.7998  0.2451 -1.4223
 4213SOL    HW224273   3.447   1.312   2.299  2.0630  0.4633  1.7836
 4214SOL     OW24274   2.252   1.091   2.011  0.2271  0.1767  0.5215
 4214SOL    HW124275   2.314   1.047   2.069 -1.1197  0.5180  2.2437
 4214SOL    HW224276   2.216   1.167   2.057 -1.2269  0.0158 -0.3608
 4215SOL     OW24277   2.362   1.419  14.217  0.0241 -1.0088 -0.1742
 4215SOL    HW124278   2.325   1.456  14.136  1.0656 -2.0914 -1.1478
 4215SOL    HW224279   2.394   1.338  14.178 -0.2214 -1.2971  0.2272
 4216SOL     OW24280   4.544   4.585   7.709  0.2494  0.5359 -0.6131
 4216SOL    HW124281   4.494   4.554   7.784  1.8789  2.1651  1.1460
 4216SOL    HW224282   4.634   4.599   7.738  0.1367  0.1396 -0.0770
 4217SOL     OW24283   4.282   1.837   3.368 -0.8280  0.4119 -0.3197
 4217SOL    HW124284   4.274   1.865   3.459  0.0175  0.3543 -0.2341
 4217SOL    HW224285   4.195   1.798   3.359 -1.1364  1.4678 -1.8886
 4218SOL     OW24286   1.422   1.639   5.457  0.6236  0.0497  0.0104
 4218SOL    HW124287   1.466   1.620   5.374  2.7448  2.4000  0.6040
 4218SOL    HW224288   1.439   1.562   5.511  1.3308  0.7288  0.7541
 4219SOL     OW24289   0.445   1.312   8.987  0.4030  0.1275  0.1129
 4219SOL    HW124290   0.411   1.232   8.947  0.0380  0.2277  0.2275
 4219SOL    HW224291   0.520   1.288   9.041  0.0620  0.9354  0.9392
 4220SOL     OW24292   2.397   1.850  11.472  0.1069  0.0348 -0.4959
 4220SOL    HW124293   2.450   1.893  11.539 -1.0729 -1.6797  1.5583
 4220SOL    HW224294   2.392   1.916  11.404 -1.0426 -0.6877 -1.1097
 4221SOL     OW24295   0.828   0.127  10.343  0.4135 -0.4566 -0.1778
 4221SOL    HW124296   0.886   0.195  10.374 -1.4242 -0.3506  3.0446
 4221SOL    HW224297   0.846   0.067  10.416 -0.4082 -0.5923 -0.0830
 4222SOL     OW24298   1.789   1.957   7.623 -0.0048  0.0166 -0.2968
 4222SOL    HW124299   1.755   1.885   7.570  1.7437 -1.8465  1.1374
 4222SOL    HW224300   1.858   1.990   7.565  0.9663 -0.9880  0.2874
 4223SOL     OW24301   3.545   2.214   7.282  0.2673 -0.6729 -0.7125
 4223SOL    HW124302   3.507   2.128   7.301  1.5807 -1.7398 -2.7668
 4223SOL    HW224303   3.464   2.262   7.265  0.3530  0.1114  1.1930
 4224SOL     OW24304   3.391   2.338  16.854 -0.1044  0.2646  0.0140
 4224SOL    HW124305   3.414   2.350  16.762 -0.7204 -0.3353 -0.2250
 4224SOL    HW224306   3.341   2.417  16.873 -1.7694 -0.9080  0.5107
 4225SOL     OW24307   3.319   3.772   8.772  0.7564 -0.1576 -0.2033
 4225SOL    HW124308   3.397   3.725   8.740  0.5234 -0.8670  0.2736
 4225SOL    HW224309   3.358   3.833   8.834 -0.4437 -0.8027  1.1844
 4226SOL     OW24310   3.403   1.397  11.126  0.8234 -0.3249  0.2620
 4226SOL    HW124311   3.451   1.409  11.207 -0.1280  1.1064  0.6115
 4226SOL    HW224312   3.421   1.483  11.087  2.3037  0.4404  2.6550
 4227SOL     OW24313   1.359   1.387   2.698  0.3374  0.1390 -0.4030
 4227SOL    HW124314   1.314   1.428   2.772 -0.5290 -2.2911  0.4287
 4227SOL    HW224315   1.404   1.462   2.659 -1.7738  1.7510  0.3056
 4228SOL     OW24316   4.061   0.608   5.451 -0.2005 -0.7453  0.2876
 4228SOL    HW124317   3.979   0.650   5.477 -0.2445 -0.4758 -0.2907
 4228SOL    HW224318   4.119   0.664   5.502 -0.7250 -0.8651  1.0119
 4229SOL     OW24319   4.656   0.839   1.901 -0.3216 -0.1593  0.4029
 4229SOL    HW124320   4.659   0.915   1.959 -1.1647  0.4835 -0.3773
 4229SOL    HW224321   4.709   0.867   1.826 -0.4384  0.5800  0.5903
 4230SOL     OW24322   1.095   4.575  11.748 -0.0656  0.4618  0.2322
 4230SOL    HW124323   1.153   4.627  11.693  1.1491  0.1199  1.1961
 4230SOL    HW224324   1.146   4.494  11.751 -1.1904 -0.2719 -0.3999
 4231SOL     OW24325   3.271   2.862  15.887 -0.1501 -0.1626  0.3288
 4231SOL    HW124326   3.333   2.797  15.853 -0.3379 -0.6229  0.8624
 4231SOL    HW224327   3.275   2.940  15.831 -0.4901 -0.7027 -0.4427
 4232SOL     OW24328   4.104   3.007   5.282 -0.2357 -0.3980 -0.5031
 4232SOL    HW124329   4.157   3.059   5.221  1.7524  0.4050  1.8796
 4232SOL    HW224330   4.166   3.008   5.355 -1.2881 -2.7916  0.4156
 4233SOL     OW24331   2.386   0.842   1.334 -0.3303  0.2186  0.4378
 4233SOL    HW124332   2.463   0.801   1.296 -1.1295  0.0776 -1.0211
 4233SOL    HW224333   2.434   0.898   1.395 -1.5271  0.8775  0.7763
 4234SOL     OW24334   3.335   1.874   6.934 -0.1248 -0.1979 -0.0366
 4234SOL    HW124335   3.403   1.811   6.955  1.2056  2.0649  2.4817
 4234SOL    HW224336   3.375   1.909   6.855  0.2508 -0.7309 -0.0846
 4235SOL     OW24337   2.859   2.949   5.595  0.0464  0.1325  0.3062
 4235SOL    HW124338   2.933   2.979   5.542  2.2267  0.4901  3.5660
 4235SOL    HW224339   2.851   2.856   5.573 -1.7738  0.5867 -0.9342
 4236SOL     OW24340   3.433   4.422   7.209 -0.1441  0.3988  0.0597
 4236SOL    HW124341   3.357   4.455   7.257  0.4563 -2.1388  2.6944
 4236SOL    HW224342   3.483   4.402   7.288  1.3388 -0.6597 -1.1283
 4237SOL     OW24343   0.575   1.226  15.773  0.4658  0.3390  0.8569
 4237SOL    HW124344   0.584   1.270  15.688 -0.0834  1.2924  1.3026
 4237SOL    HW224345   0.556   1.133  15.760 -0.2167  0.7529 -1.0409
 4238SOL     OW24346   0.407   3.931   7.200 -0.2792 -0.8934  0.2485
 4238SOL    HW124347   0.351   3.913   7.275 -0.2488 -3.5240 -0.3601
 4238SOL    HW224348   0.476   3.865   7.198  0.1846 -0.3712 -1.1097
 4239SOL     OW24349   0.361   1.637  14.140  0.7095 -0.0013 -0.0745
 4239SOL    HW124350   0.382   1.548  14.112 -1.3589 -0.2211 -0.9434
 4239SOL    HW224351   0.422   1.697  14.098  3.3935 -1.5751  1.5808
 4240SOL     OW24352   2.155   1.750   6.118 -0.5631  0.6836  0.5223
 4240SOL    HW124353   2.108   1.787   6.193 -2.4417  0.7063 -0.6422
 4240SOL    HW224354   2.243   1.758   6.152  0.5329  0.3957 -2.2033
 4241SOL     OW24355   1.858   0.526   4.617 -0.2963  0.2016  0.3077
 4241SOL    HW124356   1.915   0.603   4.607  0.4883 -0.3487  0.5360
 4241SOL    HW224357   1.797   0.561   4.682  0.1234 -2.1085  1.9307
 4242SOL     OW24358   1.724   2.450  16.185 -0.7130  0.0617  0.1031
 4242SOL    HW124359   1.794   2.452  16.251  0.7808  0.0640 -1.4813
 4242SOL    HW224360   1.755   2.386  16.121  0.5371  0.2785  0.5002
 4243SOL     OW24361   2.736   4.096  15.824  0.4650 -0.6097 -0.3082
 4243SOL    HW124362   2.817   4.046  15.831  0.3490 -1.0141 -1.8925
 4243SOL    HW224363   2.739   4.124  15.733 -0.5184 -0.0441 -0.1637
 4244SOL     OW24364   2.243   2.966   8.572 -0.2260 -0.8896 -0.3454
 4244SOL    HW124365   2.288   3.001   8.649  0.7582 -0.5379 -1.0824
 4244SOL    HW224366   2.316   2.982   8.512 -1.2540  1.9234 -0.8110
 4245SOL     OW24367   2.910   3.146   8.921  0.0936  0.4948 -0.0722
 4245SOL    HW124368   2.843   3.176   8.982  0.5653  2.0891 -0.3489
 4245SOL    HW224369   2.989   3.146   8.975 -0.6348 -3.3147  0.9496
 4246SOL     OW24370   0.067   1.367  11.021  0.2719  0.0858 -0.4687
 4246SOL    HW124371   0.134   1.418  10.976 -0.1405 -0.6051 -1.8988
 4246SOL    HW224372   0.028   1.314  10.950 -0.9720 -1.3623  1.2865
 4247SOL     OW24373   2.619   0.284   8.880 -0.3227 -0.1260  0.0438
 4247SOL    HW124374   2.534   0.273   8.838 -0.0055  0.9898 -0.8821
 4247SOL    HW224375   2.594   0.323   8.964 -2.2191 -0.5770 -0.3283
 4248SOL     OW24376   3.332   2.230   8.353  0.1393  0.2016 -0.1678
 4248SOL    HW124377   3.303   2.164   8.289  0.5288 -0.3552  0.2219
 4248SOL    HW224378   3.355   2.312   8.310  0.5597  0.1982  0.0503
 4249SOL     OW24379   1.290   4.566   7.862 -0.3769 -0.1470 -0.7429
 4249SOL    HW124380   1.230   4.540   7.793 -0.9317 -0.0988 -0.2782
 4249SOL    HW224381   1.298   4.658   7.838  0.2641 -0.2525 -0.9456
 4250SOL     OW24382   2.687   0.828   2.808  0.3903  0.0829 -0.1666
 4250SOL    HW124383   2.742   0.751   2.821 -0.5642 -1.0223 -2.6393
 4250SOL    HW224384   2.625   0.797   2.742 -2.1670  2.6820  0.9985
 4251SOL     OW24385   2.401   0.752  10.908 -0.1940 -0.1847 -0.0469
 4251SOL    HW124386   2.414   0.693  10.983  1.2424  1.3827  0.9365
 4251SOL    HW224387   2.315   0.781  10.938  0.2145 -0.2853  1.2390
 4252SOL     OW24388   2.469   1.158   8.095  0.2593  0.5784 -0.2486
 4252SOL    HW124389   2.486   1.161   8.001  1.0365  1.6336 -0.0725
 4252SOL    HW224390   2.543   1.101   8.117  0.8033  1.3473 -0.0936
 4253SOL     OW24391   2.315   3.573   6.841 -0.2073  0.3164  0.1159
 4253SOL    HW124392   2.371   3.527   6.903  0.2408  2.0924  1.0430
 4253SOL    HW224393   2.289   3.494   6.794  0.3362 -0.2786  0.8247
 4254SOL     OW24394   3.833   0.654   0.670 -0.4943  0.7555 -0.4085
 4254SOL    HW124395   3.792   0.571   0.694  0.5115  0.1144 -0.8678
 4254SOL    HW224396   3.916   0.632   0.712 -0.5757 -1.7139 -1.5216
 4255SOL     OW24397   0.632   3.055   1.926 -0.9906  0.3536 -0.2828
 4255SOL    HW124398   0.607   2.977   1.877 -0.5827 -0.9958  1.6621
 4255SOL    HW224399   0.555   3.077   1.979 -0.3408  0.3446  0.6602
 4256SOL     OW24400   1.287   0.408   4.891  0.3821  0.1018  0.2746
 4256SOL    HW124401   1.244   0.323   4.878 -1.3546  0.5428  3.0223
 4256SOL    HW224402   1.378   0.390   4.912  0.2777  0.5991  1.1309
 4257SOL     OW24403   4.013   2.390   4.536 -0.8758  0.1497  0.5637
 4257SOL    HW124404   4.012   2.319   4.472  2.2682  0.1103  0.5423
 4257SOL    HW224405   4.108   2.398   4.549 -0.8107 -0.1642  0.2860
 4258SOL     OW24406   4.447   3.780   1.882  0.2815  0.0075  0.2657
 4258SOL    HW124407   4.479   3.859   1.925 -1.1379  1.3236 -1.0893
 4258SOL    HW224408   4.532   3.740   1.861  0.3425 -0.3208  1.1361
 4259SOL     OW24409   2.695   3.114   3.781  0.4007  0.0855 -0.1046
 4259SOL    HW124410   2.715   3.208   3.770 -0.1634  0.2504  0.2981
 4259SOL    HW224411   2.733   3.087   3.697 -0.4169 -1.8602  0.1656
 4260SOL     OW24412   0.553   4.149   3.096  0.1705  0.5727 -0.1366
 4260SOL    HW124413   0.555   4.210   3.022 -0.9742 -0.2936 -0.8957
 4260SOL    HW224414   0.535   4.065   3.053  1.9669  1.6347 -2.9749
 4261SOL     OW24415   2.860   3.659   4.595  0.1956  0.2774  0.0303
 4261SOL    HW124416   2.776   3.698   4.615 -0.2798 -1.1861  0.8467
 4261SOL    HW224417   2.865   3.679   4.501 -0.2898  0.3460  0.0214
 4262SOL     OW24418   3.098   2.341   7.805  0.3375  0.5850 -0.1823
 4262SOL    HW124419   3.018   2.289   7.803 -0.5986  2.0428 -0.2955
 4262SOL    HW224420   3.165   2.282   7.839  0.4722  0.4466 -0.6735
 4263SOL     OW24421   1.381   0.039   0.799  0.4741 -0.0314 -0.5918
 4263SOL    HW124422   1.409   4.719   0.730 -0.8666 -0.4570 -0.7718
 4263SOL    HW224423   1.289   0.052   0.777  0.3307  2.6570  1.6265
 4264SOL     OW24424   1.760   2.195   6.341  0.7251  0.5652  0.4375
 4264SOL    HW124425   1.817   2.271   6.354 -0.1013  1.0558  1.1831
 4264SOL    HW224426   1.784   2.143   6.418 -0.8367 -0.5247  0.1866
 4265SOL     OW24427   1.633   0.702  14.523 -0.4642  0.4880  0.5083
 4265SOL    HW124428   1.701   0.691  14.590  1.8760  1.0814 -1.7591
 4265SOL    HW224429   1.569   0.635  14.544 -1.7801  1.2922 -0.9740
 4266SOL     OW24430   2.070   4.058   3.017 -0.5682  0.5704 -0.0736
 4266SOL    HW124431   2.151   4.021   3.050 -0.6382 -1.0935 -1.7237
 4266SOL    HW224432   2.049   4.126   3.081 -2.4138  0.5177 -0.6099
 4267SOL     OW24433   1.499   3.845  12.414  0.1415  0.2482 -0.2293
 4267SOL    HW124434   1.553   3.790  12.358 -0.9158  0.7116 -1.7133
 4267SOL    HW224435   1.450   3.774  12.454  0.5650 -0.9468 -1.8485
 4268SOL     OW24436   0.734   0.777   4.960  0.0046  0.4594 -0.2035
 4268SOL    HW124437   0.732   0.700   5.017  0.6556  2.4749  2.5979
 4268SOL    HW224438   0.657   0.761   4.907 -0.5628  0.3441  0.6507
 4269SOL     OW24439   3.228   2.182   3.144 -0.3302  0.3006 -0.3419
 4269SOL    HW124440   3.310   2.200   3.189  0.5005  0.1609 -1.8099
 4269SOL    HW224441   3.270   2.144   3.067  0.5217 -1.1343  0.8308
 4270SOL     OW24442   2.463   0.430   6.398  0.0527 -0.2679  0.0550
 4270SOL    HW124443   2.550   0.431   6.359 -0.6457  0.4765 -1.5222
 4270SOL    HW224444   2.444   0.522   6.376 -0.1024  0.7074  4.3792
 4271SOL     OW24445   3.924   4.437   3.701 -0.5510 -0.0610  0.2788
 4271SOL    HW124446   3.899   4.369   3.764  1.3520 -0.5401  0.5287
 4271SOL    HW224447   3.928   4.394   3.615 -1.1966 -2.2072  1.3118
 4272SOL     OW24448   0.907   2.979   2.512  0.1050  0.4461 -0.2607
 4272SOL    HW124449   1.001   2.961   2.510  0.1912  1.0236 -1.0966
 4272SOL    HW224450   0.904   3.074   2.526 -1.4059  0.4584 -0.6979
 4273SOL     OW24451   0.533   0.089   0.063 -0.4354 -0.7772 -0.0506
 4273SOL    HW124452   0.604   0.147   0.036 -0.6404 -1.1872 -1.4621
 4273SOL    HW224453   0.493   0.073  17.739 -0.8946  0.4406 -0.0612
 4274SOL     OW24454   4.333   2.987  12.404  0.2128 -0.3725  0.3278
 4274SOL    HW124455   4.378   2.961  12.485 -0.3788  0.1928  0.8437
 4274SOL    HW224456   4.392   3.058  12.382 -1.0410  1.0169  1.4275
 4275SOL     OW24457   0.731   1.268   3.930  0.0911  0.1186 -0.9242
 4275SOL    HW124458   0.795   1.306   3.869  2.2259 -0.3943  0.9711
 4275SOL    HW224459   0.788   1.278   4.007 -0.9563 -2.0902  0.1556
 4276SOL     OW24460   2.436   4.553  13.764  0.4770  0.6048 -0.1410
 4276SOL    HW124461   2.341   4.542  13.765  0.4012  1.3278  0.7501
 4276SOL    HW224462   2.455   4.595  13.847  0.5277 -0.9005  0.6052
 4277SOL     OW24463   0.339   0.210   3.554  0.2039 -0.4648  0.3793
 4277SOL    HW124464   0.371   0.256   3.632 -0.2732 -0.4339  0.5599
 4277SOL    HW224465   0.375   0.262   3.483 -2.6921  1.7666  0.5407
 4278SOL     OW24466   4.293   1.984   6.044  0.3213  0.7181 -0.8148
 4278SOL    HW124467   4.203   1.957   6.025  0.4476  0.0525 -0.4457
 4278SOL    HW224468   4.343   1.967   5.965  1.4988 -2.9098  0.7096
 4279SOL     OW24469   3.997   2.759   5.563 -0.0813 -0.1896  0.4267
 4279SOL    HW124470   3.982   2.742   5.470  1.8893 -1.0063  0.2602
 4279SOL    HW224471   3.907   2.766   5.595  0.0929 -2.0241  1.3158
 4280SOL     OW24472   3.627   4.692   8.994 -0.0104  0.3068  0.0609
 4280SOL    HW124473   3.688   0.022   8.973  1.5592 -0.4575  2.1292
 4280SOL    HW224474   3.587   4.678   8.908 -1.6334  0.9321  0.7157
 4281SOL     OW24475   4.638   3.515   5.319  0.2097 -0.1678  0.4352
 4281SOL    HW124476   4.699   3.517   5.393  2.0335  0.1173 -1.0696
 4281SOL    HW224477   4.697   3.538   5.248 -0.3393  0.8646  0.3071
 4282SOL     OW24478   0.273   1.816   5.976 -0.3021  0.4593  0.2329
 4282SOL    HW124479   0.304   1.729   6.001 -1.9828 -0.0170  0.6588
 4282SOL    HW224480   0.340   1.856   5.921 -0.9680  0.5300 -0.5421
 4283SOL     OW24481   4.727   3.570   9.715 -0.4341  0.4590  0.7101
 4283SOL    HW124482   4.741   3.476   9.717 -1.4472  0.2944 -0.0747
 4283SOL    HW224483   4.659   3.573   9.783  0.1073 -0.9698  1.3171
 4284SOL     OW24484   4.477   2.990  10.142 -0.1356 -0.0213  0.1408
 4284SOL    HW124485   4.563   3.007  10.103  0.7863 -2.1906  1.2091
 4284SOL    HW224486   4.482   3.049  10.217 -3.7057 -0.2074  0.5105
 4285SOL     OW24487   0.861   1.241   9.942 -0.2319  0.0259  0.1258
 4285SOL    HW124488   0.834   1.233   9.851  3.0208  1.4388 -0.9639
 4285SOL    HW224489   0.893   1.155   9.972 -0.7935 -0.0081  0.6296
 4286SOL     OW24490   3.129   1.917   6.488 -0.2661  0.3993  0.1072
 4286SOL    HW124491   3.034   1.924   6.491 -0.3183 -0.5778  0.6271
 4286SOL    HW224492   3.134   1.874   6.403 -1.8473 -1.0150  0.7280
 4287SOL     OW24493   1.828   4.320   8.472 -0.4768  0.3931  0.7568
 4287SOL    HW124494   1.819   4.373   8.551 -1.4883 -0.5534  1.2836
 4287SOL    HW224495   1.828   4.394   8.412  1.3020  0.5447  0.9331
 4288SOL     OW24496   2.952   2.373  16.427 -0.3365 -0.9825 -0.3753
 4288SOL    HW124497   3.010   2.352  16.354  0.2076 -1.2125  0.1255
 4288SOL    HW224498   2.903   2.293  16.442 -1.0913 -0.3150  0.7174
 4289SOL     OW24499   4.183   2.082   7.875  0.1219  0.4497 -0.1053
 4289SOL    HW124500   4.189   1.995   7.836  0.1812 -0.9581  3.0323
 4289SOL    HW224501   4.114   2.122   7.822 -0.8030 -3.3945 -1.7743
 4290SOL     OW24502   2.932   4.129   2.068  0.2519  0.4817  0.1702
 4290SOL    HW124503   2.973   4.165   1.989 -1.1306  0.5181 -0.5364
 4290SOL    HW224504   2.839   4.141   2.048  0.2987 -0.4014 -0.6198
 4291SOL     OW24505   1.586   3.421   5.758  0.0910 -0.0771 -0.3432
 4291SOL    HW124506   1.656   3.387   5.702 -0.5759 -0.5809 -0.8851
 4291SOL    HW224507   1.641   3.450   5.830  0.3820 -0.3616 -0.4504
 4292SOL     OW24508   1.219   4.425   8.391 -0.3058  0.4855  0.2073
 4292SOL    HW124509   1.183   4.513   8.407  3.1062  1.7967  0.7318
 4292SOL    HW224510   1.312   4.448   8.401 -0.0698  0.1981 -1.2691
 4293SOL     OW24511   3.657   3.393  14.450 -0.3400  0.4396 -0.0373
 4293SOL    HW124512   3.744   3.405  14.487  1.0624 -2.1923 -2.4643
 4293SOL    HW224513   3.627   3.317  14.500  1.7492  0.0889  0.6754
 4294SOL     OW24514   1.277   1.288  12.985 -0.1920 -0.0721  0.5567
 4294SOL    HW124515   1.277   1.383  13.002 -0.9090  0.0440 -0.1007
 4294SOL    HW224516   1.204   1.293  12.923 -0.2337 -1.1877  0.5320
 4295SOL     OW24517   1.422   1.120   1.690 -0.0021  0.0745 -0.0702
 4295SOL    HW124518   1.376   1.053   1.639  0.3791 -1.0610  1.0840
 4295SOL    HW224519   1.511   1.087   1.690 -0.5639 -1.4295  0.6322
 4296SOL     OW24520   4.400   1.758   5.463 -0.3769  0.2887  0.2782
 4296SOL    HW124521   4.342   1.827   5.431 -1.7039 -0.3154  1.3881
 4296SOL    HW224522   4.474   1.811   5.492 -1.1904  1.2149  0.6247
 4297SOL     OW24523   2.228   4.718  12.990 -0.0362 -0.2981  0.0041
 4297SOL    HW124524   2.157   4.738  12.928  0.1404  0.3304  0.0053
 4297SOL    HW224525   2.266   0.064  12.996 -2.6784  0.8526  0.3356
 4298SOL     OW24526   3.136   1.313   8.505 -0.0919  0.4999 -0.1547
 4298SOL    HW124527   3.101   1.293   8.418 -0.1780  1.3618 -0.3234
 4298SOL    HW224528   3.071   1.278   8.565  2.1911  1.0555  2.6399
 4299SOL     OW24529   0.888   0.002   7.220  0.6161  0.1485 -0.2997
 4299SOL    HW124530   0.848   0.089   7.216 -0.0706 -0.1996 -1.0433
 4299SOL    HW224531   0.931   0.006   7.134  0.2578 -0.6306 -0.5199
 4300SOL     OW24532   1.669   0.755   6.410 -0.5388 -0.0252  0.0258
 4300SOL    HW124533   1.633   0.768   6.322 -1.1957  1.2744  0.4663
 4300SOL    HW224534   1.658   0.665   6.440  1.6557 -0.0031  0.8793
 4301SOL     OW24535   2.732   4.731   5.748  0.1511 -0.0740  0.0339
 4301SOL    HW124536   2.673   4.662   5.718  2.9222 -1.2343 -2.8230
 4301SOL    HW224537   2.810   4.682   5.776 -0.6380 -0.1757  2.0077
 4302SOL     OW24538   0.790   0.038   2.871 -0.7160  0.5717  0.2011
 4302SOL    HW124539   0.823   0.025   2.783 -1.3555 -0.0829  0.0570
 4302SOL    HW224540   0.819   0.129   2.878  0.1711  0.3891 -1.1889
 4303SOL     OW24541   3.507   1.332   1.960 -0.6043 -0.6348 -0.3345
 4303SOL    HW124542   3.504   1.313   2.054 -1.3214  2.1861  0.1936
 4303SOL    HW224543   3.556   1.255   1.931  0.4670 -0.4786  1.0781
 4304SOL     OW24544   4.519   1.358  17.409  0.0868 -0.5413 -0.5103
 4304SOL    HW124545   4.531   1.372  17.315 -0.2971  2.6290 -0.0937
 4304SOL    HW224546   4.439   1.305  17.412  0.6142 -1.3214 -0.3484
 4305SOL     OW24547   2.958   3.669   7.197  0.2450 -0.3535  0.0219
 4305SOL    HW124548   3.004   3.586   7.180 -0.5340 -0.5764 -0.9652
 4305SOL    HW224549   2.976   3.699   7.286 -0.4682 -2.0139  0.7365
 4306SOL     OW24550   2.236   4.448   3.301  0.3825 -0.2615 -0.1630
 4306SOL    HW124551   2.232   4.529   3.352 -0.1373  1.8734 -3.6188
 4306SOL    HW224552   2.292   4.473   3.227  1.2156  0.3231  0.6677
 4307SOL     OW24553   3.102   2.539  16.581  0.3580  0.0384 -0.0501
 4307SOL    HW124554   3.077   2.497  16.664  0.8967  4.1213  2.2154
 4307SOL    HW224555   3.050   2.469  16.543  0.7289  0.6399 -1.6396
 4308SOL     OW24556   4.343   0.335   2.826  0.1693 -0.5205  1.0955
 4308SOL    HW124557   4.371   0.295   2.743 -1.2492 -0.8862  0.8037
 4308SOL    HW224558   4.432   0.350   2.859  0.2920 -0.7756  0.8833
 4309SOL     OW24559   2.384   3.917  17.570  0.4483  0.2909  0.2519
 4309SOL    HW124560   2.367   3.845  17.630  1.6427  0.8929  1.3013
 4309SOL    HW224561   2.404   3.981  17.637 -1.4434 -0.2173  1.2952
 4310SOL     OW24562   0.329   1.320   3.726 -0.4655 -0.5140  0.6238
 4310SOL    HW124563   0.315   1.414   3.734  0.6740 -0.3613  0.7871
 4310SOL    HW224564   0.365   1.297   3.811  2.0204  1.5377  0.0960
 4311SOL     OW24565   0.916   2.417  16.539  0.1126 -0.4826 -0.1069
 4311SOL    HW124566   0.951   2.501  16.568 -1.9869  0.8542 -1.4547
 4311SOL    HW224567   0.883   2.439  16.452 -1.5414  0.2545  0.6932
 4312SOL     OW24568   0.015   3.385   3.263  0.3044 -0.0997 -0.1469
 4312SOL    HW124569   4.694   3.416   3.329 -0.5496 -0.9385 -0.5585
 4312SOL    HW224570   0.082   3.453   3.263 -1.4201  1.6001 -1.6454
 4313SOL     OW24571   2.274   4.362   7.894  0.1180  0.2440  0.1850
 4313SOL    HW124572   2.294   4.269   7.901 -1.0466 -0.0851 -0.7694
 4313SOL    HW224573   2.186   4.370   7.931 -0.8708 -3.3254 -1.4268
 4314SOL     OW24574   1.217   3.910   7.895  0.1849 -0.1739  0.0982
 4314SOL    HW124575   1.123   3.925   7.895  0.2094 -0.0113 -1.1912
 4314SOL    HW224576   1.236   3.867   7.812 -0.1438  0.4101 -0.2763
 4315SOL     OW24577   2.983   0.011  13.670  0.0199 -0.0604  0.9671
 4315SOL    HW124578   2.944   0.000  13.757  3.0695  0.6987  2.4491
 4315SOL    HW224579   2.956   0.097  13.637 -1.1723 -0.4781  0.8794
 4316SOL     OW24580   3.487   4.516   8.490  0.2990  0.1286  0.5054
 4316SOL    HW124581   3.551   4.579   8.456 -0.4251  1.7787  2.1716
 4316SOL    HW224582   3.512   4.524   8.582  0.0141  0.6692  0.5380
 4317SOL     OW24583   1.486   1.100   0.446  1.0185  0.0394 -0.2966
 4317SOL    HW124584   1.532   1.126   0.526  0.4531  0.6434 -0.1719
 4317SOL    HW224585   1.434   1.029   0.484 -0.7365  1.0278 -0.8619
 4318SOL     OW24586   3.020   4.587  16.023 -0.0257  0.2594  0.0227
 4318SOL    HW124587   2.999   4.504  15.981 -0.9144  0.7347 -0.4800
 4318SOL    HW224588   3.094   4.557  16.076  1.1629  0.7032 -1.3849
 4319SOL     OW24589   0.311   0.302   8.274  0.5619 -0.6051 -0.0660
 4319SOL    HW124590   0.375   0.296   8.203  0.1943 -1.8506 -0.3038
 4319SOL    HW224591   0.357   0.272   8.353 -0.3818  3.3773  1.9677
 4320SOL     OW24592   1.816   0.056  15.188 -0.0678 -0.0398  0.2672
 4320SOL    HW124593   1.729   0.044  15.227  1.1742 -1.5043  2.5716
 4320SOL    HW224594   1.809   4.733  15.117 -0.9068  0.5233 -0.1654
 4321SOL     OW24595   2.844   1.202  10.106 -0.9046 -0.4967 -0.2752
 4321SOL    HW124596   2.905   1.261  10.151 -0.4497  0.2101 -1.8532
 4321SOL    HW224597   2.856   1.240  10.020 -0.2747 -1.3253 -0.5519
 4322SOL     OW24598   4.216   0.053  17.170 -0.0545 -0.1581 -0.3143
 4322SOL    HW124599   4.267   0.045  17.251  0.2292 -0.6818 -0.5384
 4322SOL    HW224600   4.240   0.138  17.133  1.3576 -0.9154 -1.1250
 4323SOL     OW24601   4.576   4.568   2.446  0.2432 -0.0312  0.3931
 4323SOL    HW124602   4.575   4.651   2.493  1.4011  0.4531 -0.4556
 4323SOL    HW224603   4.587   4.591   2.354  0.6464 -1.4651  0.0878
 4324SOL     OW24604   4.348   4.723  16.059  0.5039 -0.2300 -0.6460
 4324SOL    HW124605   4.322   0.069  16.028 -4.8998 -1.8618 -0.6583
 4324SOL    HW224606   4.403   4.687  15.989 -0.3239 -0.9940 -0.9025
 4325SOL     OW24607   0.293   1.060   1.493 -0.0868 -0.0982 -0.6296
 4325SOL    HW124608   0.244   1.010   1.428 -0.8646 -0.4539  0.2334
 4325SOL    HW224609   0.284   1.146   1.452  1.3978  0.2867 -0.1605
 4326SOL     OW24610   3.292   0.065   2.410 -0.5008 -0.4037  0.1534
 4326SOL    HW124611   3.278   0.141   2.353 -2.0202 -2.5741 -2.3565
 4326SOL    HW224612   3.218   0.064   2.471 -0.1183 -1.7243  0.5974
 4327SOL     OW24613   2.738   0.013   0.844  0.3858 -0.0977 -0.1802
 4327SOL    HW124614   2.794   0.039   0.771 -1.8027 -0.1632 -1.8978
 4327SOL    HW224615   2.666   0.074   0.827  0.2733 -0.3928 -0.7376
 4328SOL     OW24616   1.707   1.581   3.110  0.5960 -0.1584 -0.3863
 4328SOL    HW124617   1.751   1.642   3.169  1.1652  0.7562 -1.7502
 4328SOL    HW224618   1.756   1.589   3.028 -0.0066  2.2153 -0.4879
 4329SOL     OW24619   2.617   3.648   9.006 -0.5546  0.4175  0.4601
 4329SOL    HW124620   2.591   3.736   9.033  0.6547  0.5178  1.3154
 4329SOL    HW224621   2.662   3.625   9.088 -0.9523 -1.7059  0.0781
 4330SOL     OW24622   3.771   4.555   9.959 -0.0980 -0.3049 -0.3295
 4330SOL    HW124623   3.719   4.547  10.039 -1.1330  3.2990 -0.6070
 4330SOL    HW224624   3.765   4.650   9.948  0.7726 -0.2449 -0.2914
 4331SOL     OW24625   1.361   2.555  15.134 -0.0145 -0.1473  0.0179
 4331SOL    HW124626   1.289   2.508  15.093  1.3580 -1.8000 -0.4756
 4331SOL    HW224627   1.433   2.540  15.073 -0.0404 -1.5820  0.3308
 4332SOL     OW24628   0.013   3.035   8.462  0.0490 -0.1801 -0.3504
 4332SOL    HW124629   0.074   3.038   8.388  0.1612  0.6885 -0.2244
 4332SOL    HW224630   4.677   3.025   8.408 -0.5953 -0.1603  0.5606
 4333SOL     OW24631   3.749   0.764   9.701 -0.0200  0.1946 -0.4833
 4333SOL    HW124632   3.761   0.707   9.777  1.2959 -1.3052 -1.8349
 4333SOL    HW224633   3.723   0.850   9.736  0.2683  0.5778 -1.2032
 4334SOL     OW24634   3.273   1.704   7.924  0.1039 -0.6514 -0.2016
 4334SOL    HW124635   3.348   1.668   7.877 -0.0785 -0.7334 -0.4319
 4334SOL    HW224636   3.218   1.745   7.857 -1.0295 -1.2745  0.3469
 4335SOL     OW24637   3.379   4.253  14.979  0.2009 -0.2803  0.0335
 4335SOL    HW124638   3.325   4.177  14.959  0.6092 -0.1455 -1.6142
 4335SOL    HW224639   3.345   4.292  15.059 -0.0529 -2.1205  0.8054
 4336SOL     OW24640   1.539   4.132   7.453 -0.0179 -0.5707  0.6924
 4336SOL    HW124641   1.524   4.201   7.388  0.0817  1.0234  2.3504
 4336SOL    HW224642   1.523   4.053   7.401 -2.9299  1.7341 -1.9234
 4337SOL     OW24643   0.955   0.275   8.440  0.1943  0.0038  0.6262
 4337SOL    HW124644   1.036   0.325   8.444  0.0297  0.1060  2.7652
 4337SOL    HW224645   0.953   0.254   8.534 -1.7613 -0.2532  0.5224
 4338SOL     OW24646   3.522   0.010   8.742  0.1605 -0.1986  0.1888
 4338SOL    HW124647   3.580   4.721   8.672  1.4577 -0.8107  1.5214
 4338SOL    HW224648   3.543   0.103   8.733 -1.3447 -0.1581 -2.7765
 4339SOL     OW24649   1.728   1.566   6.579 -0.0161 -0.7921  0.3877
 4339SOL    HW124650   1.648   1.586   6.532 -1.1909  0.0085  2.6901
 4339SOL    HW224651   1.798   1.619   6.539  1.0765  0.3835  3.7941
 4340SOL     OW24652   4.507   1.890   4.990  0.3838  0.1887  0.2121
 4340SOL    HW124653   4.527   1.932   4.907 -0.2560  1.0741  0.4984
 4340SOL    HW224654   4.573   1.931   5.046  0.0418 -1.6253  1.9203
 4341SOL     OW24655   0.828   2.636   0.590  0.1408  0.6067  0.3658
 4341SOL    HW124656   0.759   2.653   0.655  1.6923  0.2262  2.1282
 4341SOL    HW224657   0.861   2.552   0.624 -0.0603  0.8693  1.2010
 4342SOL     OW24658   0.877   0.412   3.952  0.6125  0.3006 -0.2863
 4342SOL    HW124659   0.870   0.324   3.916  1.2065 -0.8213  2.3180
 4342SOL    HW224660   0.948   0.386   4.010 -0.8645 -2.1703  0.4376
 4343SOL     OW24661   1.902   3.088   5.806 -0.2901 -0.0929  0.7981
 4343SOL    HW124662   1.981   3.130   5.841  0.0767  0.6088 -0.8972
 4343SOL    HW224663   1.936   3.018   5.750  0.5864 -0.8135  2.2201
 4344SOL     OW24664   4.541   3.899   5.709 -0.2578  0.3678  0.9683
 4344SOL    HW124665   4.446   3.902   5.699  0.1509  2.5949 -2.2579
 4344SOL    HW224666   4.563   3.973   5.765 -1.5954  0.5595  1.2411
 4345SOL     OW24667   4.455   0.359   1.901  0.0126  0.1284  0.0422
 4345SOL    HW124668   4.400   0.310   1.962  2.1399 -1.5573  0.5952
 4345SOL    HW224669   4.543   0.327   1.918 -0.3656 -1.0963 -0.3322
 4346SOL     OW24670   2.459   3.520   2.359 -0.1549 -0.4167 -0.0097
 4346SOL    HW124671   2.457   3.452   2.291 -0.9368  0.0047 -0.4052
 4346SOL    HW224672   2.393   3.584   2.335  1.6844  0.8450 -1.7181
 4347SOL     OW24673   0.102   4.011   4.042 -0.8120 -0.0801  0.0291
 4347SOL    HW124674   0.054   4.045   3.966  0.4618  2.4005  0.3288
 4347SOL    HW224675   0.172   3.965   3.996 -1.0644 -0.1757 -0.2583
 4348SOL     OW24676   2.372   4.082  16.908  0.1268  0.6705 -0.6551
 4348SOL    HW124677   2.303   4.138  16.943  0.1000  0.7334 -0.8075
 4348SOL    HW224678   2.346   3.993  16.932 -3.5073  1.6235 -1.0808
 4349SOL     OW24679   4.026   4.606  10.573 -0.1263 -0.0745  0.1246
 4349SOL    HW124680   4.051   4.660  10.649 -0.5660 -0.5035  0.5747
 4349SOL    HW224681   4.040   4.523  10.617  0.2699 -0.4149 -0.6532
 4350SOL     OW24682   1.075   4.207   0.912  0.2036  0.4440 -0.5012
 4350SOL    HW124683   1.128   4.194   0.991  1.0131  0.8208 -0.9815
 4350SOL    HW224684   0.993   4.181   0.954  1.7194 -0.3581  1.9780
 4351SOL     OW24685   0.251   0.738  16.288  0.2287 -0.3103 -0.2251
 4351SOL    HW124686   0.342   0.723  16.264  0.5612 -1.7980  1.9725
 4351SOL    HW224687   0.264   0.713  16.379 -1.6096  2.6666  0.8655
 4352SOL     OW24688   3.314   2.466  13.718  0.1790  0.2169 -0.0462
 4352SOL    HW124689   3.352   2.472  13.630  1.0726 -1.4102  0.2252
 4352SOL    HW224690   3.241   2.528  13.717  1.2903  1.5428  2.3929
 4353SOL     OW24691   2.524   0.280   2.627 -0.4389  0.0415  0.0240
 4353SOL    HW124692   2.544   0.303   2.717 -2.8453  0.5734  0.4225
 4353SOL    HW224693   2.601   0.319   2.585  0.1811 -1.2433 -0.0167
 4354SOL     OW24694   1.764   3.384   8.290 -0.0532 -0.0976 -0.1519
 4354SOL    HW124695   1.689   3.443   8.280  1.0186  1.3000  0.1318
 4354SOL    HW224696   1.752   3.328   8.213 -0.8703 -1.0992  0.6971
 4355SOL     OW24697   1.626   1.473   3.532  0.5192 -0.2900 -0.7039
 4355SOL    HW124698   1.663   1.561   3.527 -0.5529  0.0755 -1.8386
 4355SOL    HW224699   1.534   1.493   3.549  0.0024 -2.8811 -0.3024
 4356SOL     OW24700   4.037   0.786   1.341 -0.0206 -0.1023 -0.3999
 4356SOL    HW124701   3.988   0.796   1.260 -0.5944 -1.5044 -0.2275
 4356SOL    HW224702   3.961   0.775   1.398 -0.1942  0.8437 -0.4587
 4357SOL     OW24703   2.901   4.537   2.616  0.1170  0.0888  0.3770
 4357SOL    HW124704   2.961   4.463   2.611  1.3638  1.2363 -1.5364
 4357SOL    HW224705   2.883   4.527   2.523 -1.5927  1.9675  0.4965
 4358SOL     OW24706   0.751   1.334   6.434 -0.4970  0.2398 -0.8403
 4358SOL    HW124707   0.764   1.428   6.443  2.2274 -0.2398  0.1261
 4358SOL    HW224708   0.660   1.337   6.405 -1.5177  0.0152  2.2921
 4359SOL     OW24709   1.808   2.460   9.481  0.3348 -0.3557  0.0486
 4359SOL    HW124710   1.835   2.382   9.433 -0.6299 -0.3840 -0.4351
 4359SOL    HW224711   1.719   2.434   9.505  0.1202  1.1262  0.8941
 4360SOL     OW24712   4.616   0.395   0.610  0.6264  0.9915  0.0625
 4360SOL    HW124713   4.639   0.478   0.567  1.2708  1.0047  0.4310
 4360SOL    HW224714   4.691   0.390   0.670  0.6799  0.8247 -0.0202
 4361SOL     OW24715   2.197   4.531   4.043 -0.5279  0.2573  0.2633
 4361SOL    HW124716   2.268   4.500   4.099 -0.2260  1.0734  0.3278
 4361SOL    HW224717   2.239   4.567   3.966  0.0155  0.8165  0.8202
 4362SOL     OW24718   4.247   1.825   7.497  0.1627 -0.4994  0.0173
 4362SOL    HW124719   4.318   1.776   7.455  0.4772  1.3837 -1.6765
 4362SOL    HW224720   4.272   1.818   7.589  2.2109 -2.0801 -0.6618
 4363SOL     OW24721   4.019   1.274   8.997  0.7522 -0.3832  0.1426
 4363SOL    HW124722   4.059   1.187   8.996 -1.7728 -1.5276 -1.8964
 4363SOL    HW224723   4.080   1.321   9.054 -0.8347  0.9588  0.7313
 4364SOL     OW24724   0.339   4.215   2.827  0.5285 -0.3067  0.0412
 4364SOL    HW124725   0.280   4.239   2.898  2.1164 -0.3586  1.3915
 4364SOL    HW224726   0.419   4.251   2.865 -1.2216  0.7316  2.7293
 4365SOL     OW24727   2.122   2.670   9.845  0.2329  0.3628 -0.7232
 4365SOL    HW124728   2.150   2.586   9.883  1.1842  0.6832 -0.7200
 4365SOL    HW224729   2.075   2.640   9.767 -1.5455  0.2516  0.3846
 4366SOL     OW24730   3.704   0.928   9.418  0.2368 -0.5675  0.0850
 4366SOL    HW124731   3.717   0.948   9.511  0.2952 -1.6205  0.2995
 4366SOL    HW224732   3.772   0.983   9.378 -1.6803  2.0782  0.5068
 4367SOL     OW24733   2.785   0.366   1.466 -0.2747  0.0239  0.2092
 4367SOL    HW124734   2.720   0.414   1.517 -0.9919 -1.9369  1.1443
 4367SOL    HW224735   2.871   0.404   1.485  0.0643 -2.6750  3.9334
 4368SOL     OW24736   3.293   2.502   9.043 -0.2688  0.3514  0.2371
 4368SOL    HW124737   3.330   2.581   9.082 -2.4098  3.1442 -3.3256
 4368SOL    HW224738   3.266   2.449   9.118  0.1451 -0.0670  0.0903
 4369SOL     OW24739   0.366   1.273   8.094 -0.0367  0.2804  0.3631
 4369SOL    HW124740   0.363   1.298   8.002 -2.4453  0.0347  0.3714
 4369SOL    HW224741   0.293   1.325   8.127 -0.3709  0.2868 -0.3997
 4370SOL     OW24742   4.371   3.046   5.080 -0.2965 -0.0743  0.2045
 4370SOL    HW124743   4.414   3.115   5.130  0.2882  0.1094 -0.5475
 4370SOL    HW224744   4.317   3.098   5.020  0.0721  0.2526  0.1546
 4371SOL     OW24745   2.407   1.484   8.334 -0.2111  0.0580  0.2045
 4371SOL    HW124746   2.448   1.480   8.248  1.4659  2.6895  0.8675
 4371SOL    HW224747   2.450   1.410   8.378 -0.2347 -1.3738 -2.1789
 4372SOL     OW24748   0.777   4.092   6.124  0.4845 -0.0970 -0.5149
 4372SOL    HW124749   0.794   4.085   6.218  0.3910  0.4310 -0.4602
 4372SOL    HW224750   0.689   4.128   6.124  1.1064  1.4598 -0.6917
 4373SOL     OW24751   1.655   1.342   0.089  0.2483 -0.4283  0.5636
 4373SOL    HW124752   1.650   1.369  17.759 -0.2792  2.7846  1.5545
 4373SOL    HW224753   1.647   1.247   0.078  0.4837 -0.2859 -0.7933
 4374SOL     OW24754   1.451   0.063   7.477  0.0361 -0.2319 -0.6779
 4374SOL    HW124755   1.504   0.142   7.478  0.4911 -0.5181 -1.9028
 4374SOL    HW224756   1.405   0.056   7.560  0.6195 -0.1088 -0.3444
 4375SOL     OW24757   0.284   1.752   8.332 -0.0417 -0.2174 -0.3800
 4375SOL    HW124758   0.216   1.748   8.264 -0.4857 -0.9194  0.1035
 4375SOL    HW224759   0.269   1.664   8.368  1.2156  0.7716  2.5335
 4376SOL     OW24760   1.717   1.836   2.936 -0.3375  0.1204 -0.1246
 4376SOL    HW124761   1.642   1.830   2.995  0.7354 -1.3479  1.0711
 4376SOL    HW224762   1.711   1.757   2.882 -1.3191 -0.3785  0.7068
 4377SOL     OW24763   2.926   1.549  13.188 -0.4346  0.1308 -0.5551
 4377SOL    HW124764   2.839   1.512  13.204 -0.1963  0.1798  0.8338
 4377SOL    HW224765   2.974   1.467  13.192  0.8436  0.9727  0.9659
 4378SOL     OW24766   1.258   1.967   3.489  0.2586  0.4185 -0.7409
 4378SOL    HW124767   1.209   2.048   3.499 -0.1015  0.1585 -0.3698
 4378SOL    HW224768   1.193   1.898   3.502 -0.6467  1.5092  0.6393
 4379SOL     OW24769   3.971   0.529   3.408  0.6738 -0.2075 -0.1189
 4379SOL    HW124770   3.927   0.517   3.492 -1.6516 -0.7674 -1.4209
 4379SOL    HW224771   3.965   0.624   3.398  1.3886  0.0188  1.4911
 4380SOL     OW24772   3.606   4.559   9.228 -0.6112  0.5394  0.4711
 4380SOL    HW124773   3.694   4.520   9.228 -1.3973 -1.1998 -1.6607
 4380SOL    HW224774   3.599   4.579   9.135 -0.0201 -4.3132 -0.6398
 4381SOL     OW24775   4.485   4.386   5.822 -0.2379  0.1437  0.6654
 4381SOL    HW124776   4.451   4.475   5.811  3.1109  1.4444  0.7906
 4381SOL    HW224777   4.403   4.344   5.797  0.0543 -0.1719  0.2219
 4382SOL     OW24778   3.575   2.221   5.596  0.1924 -0.0242  0.0822
 4382SOL    HW124779   3.621   2.270   5.664  0.7176 -0.2772 -0.0877
 4382SOL    HW224780   3.580   2.132   5.631 -1.3033  0.2210  0.8956
 4383SOL     OW24781   3.389   3.355  11.242  0.1863 -0.0922 -0.0541
 4383SOL    HW124782   3.350   3.299  11.308 -0.3538  0.8709  0.4299
 4383SOL    HW224783   3.424   3.421  11.302 -1.7241  1.6761 -0.9019
 4384SOL     OW24784   3.485   0.076   1.608  0.0984 -0.4472  0.3386
 4384SOL    HW124785   3.408   0.021   1.591  0.8887 -0.5276 -2.9024
 4384SOL    HW224786   3.502   0.060   1.701  0.0401 -0.0450  0.4185
 4385SOL     OW24787   0.403   1.375   9.596 -0.4198 -0.1388 -0.2560
 4385SOL    HW124788   0.453   1.328   9.529 -0.4873 -1.2171  0.4448
 4385SOL    HW224789   0.444   1.350   9.679 -3.9274 -1.1458  1.1829
 4386SOL     OW24790   4.723   1.487   0.063  0.5510  0.1590 -0.2469
 4386SOL    HW124791   0.071   1.455   0.076  0.8062  0.8293 -0.3307
 4386SOL    HW224792   4.719   1.481  17.729 -0.0733 -2.2487 -0.0675
 4387SOL     OW24793   4.672   0.160  17.480 -0.5015  0.2911  0.5100
 4387SOL    HW124794   4.624   0.240  17.462 -0.9541  0.2707  1.6531
 4387SOL    HW224795   4.659   0.114  17.397 -0.9916  1.3330  0.0088
 4388SOL     OW24796   4.037   1.370   3.963  0.2362  0.0323  0.0458
 4388SOL    HW124797   4.073   1.335   3.882  2.6975  1.7422  0.4097
 4388SOL    HW224798   4.076   1.457   3.964  3.3393 -1.3500 -0.9049
 4389SOL     OW24799   4.693   2.578   3.444  0.5489 -0.2222  0.0237
 4389SOL    HW124800   4.631   2.648   3.425  0.2344 -0.6882 -0.6552
 4389SOL    HW224801   4.647   2.508   3.399 -0.1294  0.0711  0.2635
 4390SOL     OW24802   1.750   0.235   1.017  0.5011  0.2252  0.1408
 4390SOL    HW124803   1.683   0.289   0.974 -0.6303 -0.2494  1.2997
 4390SOL    HW224804   1.784   0.180   0.947 -0.8638 -1.2040  0.6090
 4391SOL     OW24805   0.852   1.162   4.640  0.2689 -0.0212  0.6449
 4391SOL    HW124806   0.812   1.092   4.588  1.3322 -0.4292  0.3582
 4391SOL    HW224807   0.782   1.227   4.637  0.8007  0.6254  2.0958
 4392SOL     OW24808   3.972   3.882   8.735  0.3036 -0.6175 -0.1501
 4392SOL    HW124809   4.029   3.827   8.789  0.2876 -0.8124 -0.3344
 4392SOL    HW224810   3.996   3.860   8.645  0.4484  1.0449 -0.5184
 4393SOL     OW24811   3.390   0.603   6.050 -0.3149  0.3207 -0.2154
 4393SOL    HW124812   3.342   0.550   5.986 -1.4536  1.3902 -0.2565
 4393SOL    HW224813   3.326   0.591   6.121  2.1245  0.2666  1.9751
 4394SOL     OW24814   3.232   0.262   6.171  0.6203 -0.2255  0.1724
 4394SOL    HW124815   3.251   0.349   6.205  1.5339 -0.8005  1.1363
 4394SOL    HW224816   3.160   0.229   6.226 -2.5261  1.4712 -2.9123
 4395SOL     OW24817   4.295   4.169   9.498  0.4059  0.0573 -0.0942
 4395SOL    HW124818   4.367   4.221   9.533 -0.7776 -0.1753  2.7253
 4395SOL    HW224819   4.296   4.099   9.564  3.0337  0.6369  0.4710
 4396SOL     OW24820   0.783   4.499   7.225 -0.3396  0.4436  0.4375
 4396SOL    HW124821   0.827   4.582   7.242  0.0940  0.3872 -0.4197
 4396SOL    HW224822   0.766   4.509   7.132  0.2604  1.1228  0.4007
 4397SOL     OW24823   2.507   0.070   3.652  0.6998  0.6490  0.3592
 4397SOL    HW124824   2.458   0.058   3.570  0.0215 -1.6198  1.0991
 4397SOL    HW224825   2.594   0.032   3.641  0.9852  1.3131  0.3103
 4398SOL     OW24826   0.651   1.625   9.253 -0.3016 -0.4558 -0.5374
 4398SOL    HW124827   0.570   1.666   9.222 -0.7298 -1.0135 -0.1621
 4398SOL    HW224828   0.680   1.701   9.303 -1.4867  0.2756 -0.9588
 4399SOL     OW24829   2.848   0.333  14.986 -0.2853  0.3075 -0.5782
 4399SOL    HW124830   2.912   0.293  15.043  0.0221  0.7162 -0.6323
 4399SOL    HW224831   2.902   0.401  14.944 -1.8372  0.0196 -3.0962
 4400SOL     OW24832   0.080   2.133  13.124  0.5796  0.1531  0.3971
 4400SOL    HW124833   0.164   2.168  13.154  0.1751  0.8614  0.6888
 4400SOL    HW224834   0.046   2.208  13.075 -0.1531  0.1326  0.8740
 4401SOL     OW24835   1.212   3.842  17.357 -0.2369 -0.5403 -0.3136
 4401SOL    HW124836   1.213   3.779  17.285 -1.2991  0.7860 -1.4827
 4401SOL    HW224837   1.219   3.921  17.305  0.4387 -1.5378 -1.7386
 4402SOL     OW24838   0.977   2.676   6.332  0.1799 -0.1370  0.0156
 4402SOL    HW124839   0.955   2.625   6.411 -0.4048  0.8680  0.5005
 4402SOL    HW224840   0.967   2.613   6.261  0.4731 -0.9982  0.7331
 4403SOL     OW24841   2.380   1.054   5.552 -0.4986  0.3582  0.0175
 4403SOL    HW124842   2.457   1.107   5.572  0.2558 -0.7673  0.1074
 4403SOL    HW224843   2.421   0.968   5.548 -1.2631 -0.0233  0.5261
 4404SOL     OW24844   3.185   3.425  10.781  0.1311  0.3953 -0.3261
 4404SOL    HW124845   3.113   3.455  10.836 -0.2955 -0.2378 -0.5285
 4404SOL    HW224846   3.165   3.475  10.701 -0.0536 -0.0399 -0.5548
 4405SOL     OW24847   3.048   0.878   1.875 -0.3414 -0.2367 -0.0402
 4405SOL    HW124848   3.056   0.973   1.877  1.7975 -0.4698  1.7200
 4405SOL    HW224849   2.961   0.869   1.914 -1.5185 -0.1380 -2.6069
 4406SOL     OW24850   0.219   0.032   2.534 -0.1570 -0.2227  0.3406
 4406SOL    HW124851   0.194   0.030   2.441 -0.8238 -1.2818  0.5353
 4406SOL    HW224852   0.265   4.689   2.534  1.2565  0.5810  1.6778
 4407SOL     OW24853   4.279   1.940   2.557 -0.1856  0.4716 -0.1577
 4407SOL    HW124854   4.241   2.008   2.612 -2.1619 -1.4023  0.7870
 4407SOL    HW224855   4.204   1.886   2.534 -1.1268  1.0903  1.5342
 4408SOL     OW24856   1.784   1.906   2.107  0.0607 -0.0795  0.1993
 4408SOL    HW124857   1.698   1.946   2.113  0.6735  1.1826  0.6031
 4408SOL    HW224858   1.775   1.846   2.180  2.0495  0.7509  1.1580
 4409SOL     OW24859   2.829   3.705   8.329  0.2386 -0.0247 -0.2005
 4409SOL    HW124860   2.882   3.738   8.402  0.0276  1.3697 -0.6708
 4409SOL    HW224861   2.809   3.786   8.282  0.9811  0.0585 -0.3665
 4410SOL     OW24862   0.338   2.224   7.728  0.0245  0.0913 -0.2910
 4410SOL    HW124863   0.306   2.264   7.647  0.5746 -2.6525 -1.8535
 4410SOL    HW224864   0.417   2.277   7.742  0.4047 -0.4707 -0.3198
 4411SOL     OW24865   0.309   4.199   8.488 -0.2465  0.2635 -0.1076
 4411SOL    HW124866   0.263   4.193   8.404 -2.4558 -3.1731  1.3743
 4411SOL    HW224867   0.401   4.211   8.462  0.0007  0.3001  0.7902
 4412SOL     OW24868   1.363   3.204   8.271  0.2545 -0.2179  1.0539
 4412SOL    HW124869   1.453   3.198   8.303 -0.4608 -0.3810  3.0157
 4412SOL    HW224870   1.373   3.262   8.195  0.3256  0.5973  1.6810
 4413SOL     OW24871   4.388   1.208  16.065  0.2886 -0.3755  0.1216
 4413SOL    HW124872   4.410   1.185  16.155  0.2637 -0.0907  0.2005
 4413SOL    HW224873   4.328   1.281  16.078  0.0866 -0.0068 -2.7708
 4414SOL     OW24874   4.329   3.863   8.884 -0.2789  0.0329 -0.1398
 4414SOL    HW124875   4.389   3.881   8.812 -1.2699 -1.0317 -1.2176
 4414SOL    HW224876   4.245   3.842   8.842  0.6921 -4.5037  0.2591
 4415SOL     OW24877   1.277   1.813  14.784 -0.2695 -0.0296 -0.2538
 4415SOL    HW124878   1.241   1.860  14.709  0.6231  1.2900  0.1571
 4415SOL    HW224879   1.190   1.787  14.817 -0.9121  2.2087 -0.1791
 4416SOL     OW24880   2.623   3.591   5.005 -0.2972  0.1664  0.3526
 4416SOL    HW124881   2.562   3.611   4.933  0.8531 -1.8222 -1.1773
 4416SOL    HW224882   2.681   3.668   5.007 -0.7083  0.4948 -0.1400
 4417SOL     OW24883   0.251   1.601  17.715 -0.2077 -0.1036  0.4288
 4417SOL    HW124884   0.212   1.515  17.704 -0.2798 -0.1811  1.2822
 4417SOL    HW224885   0.312   1.579   0.024 -1.5011 -2.4351  0.8084
 4418SOL     OW24886   0.239   2.057   6.438 -0.6981  0.1892 -0.0024
 4418SOL    HW124887   0.195   2.142   6.432 -2.8202 -1.0222 -1.8819
 4418SOL    HW224888   0.257   2.031   6.347  1.4209  0.1124  0.4371
 4419SOL     OW24889   1.793   4.669   9.022 -0.1563 -0.1874  0.5782
 4419SOL    HW124890   1.863   4.619   9.064  1.4207  2.3609  0.9945
 4419SOL    HW224891   1.834   4.712   8.947  2.6692 -1.5169  1.3738
 4420SOL     OW24892   1.629   0.598   5.389 -0.3996  0.2649  0.2043
 4420SOL    HW124893   1.556   0.538   5.376 -0.7170  1.1357 -2.1307
 4420SOL    HW224894   1.639   0.613   5.295 -1.4395  0.9829  0.2229
 4421SOL     OW24895   2.144   0.047  10.006  0.4818 -0.1164 -0.1660
 4421SOL    HW124896   2.074   0.020   9.946 -0.4571 -0.2286  0.9893
 4421SOL    HW224897   2.206   0.097   9.953  0.0213 -0.2446 -0.8250
 4422SOL     OW24898   1.202   3.105   4.755 -0.2895  0.0324  0.3945
 4422SOL    HW124899   1.269   3.115   4.822 -1.9107  0.7424  1.8931
 4422SOL    HW224900   1.241   3.055   4.683  0.2394  0.0292  0.6864
 4423SOL     OW24901   0.562   4.403   9.037 -0.1814 -0.4046  0.0702
 4423SOL    HW124902   0.639   4.358   9.004 -0.9687 -1.4335 -0.3480
 4423SOL    HW224903   0.591   4.413   9.128  0.7295  0.6006 -0.3197
 4424SOL     OW24904   4.604   2.396  15.428 -0.0134  0.0544  0.1202
 4424SOL    HW124905   4.690   2.384  15.388 -0.2756 -0.6845 -0.2160
 4424SOL    HW224906   4.583   2.303  15.433 -1.6261  0.5248  1.9025
 4425SOL     OW24907   0.854   2.370   2.658 -0.4626  0.5488 -0.0025
 4425SOL    HW124908   0.918   2.425   2.613 -2.1501  2.5538  0.0332
 4425SOL    HW224909   0.853   2.393   2.751  2.1669  0.1368  0.1332
 4426SOL     OW24910   4.533   0.074   5.255 -0.4862  0.2605  0.0346
 4426SOL    HW124911   4.546   0.079   5.161 -1.6931  0.6388 -0.1208
 4426SOL    HW224912   4.437   0.080   5.254 -0.5390 -0.6055  0.6811
 4427SOL     OW24913   0.614   3.243  12.312 -0.6108  0.1341 -0.2557
 4427SOL    HW124914   0.566   3.217  12.391  0.6620 -0.1129  0.4312
 4427SOL    HW224915   0.549   3.284  12.255  0.9069 -0.9827 -2.8111
 4428SOL     OW24916   0.724   1.506  16.064 -0.2504  0.3348  0.0327
 4428SOL    HW124917   0.702   1.591  16.102  1.1704  0.8717 -0.3465
 4428SOL    HW224918   0.764   1.523  15.978 -1.2456 -2.1157 -0.9008
 4429SOL     OW24919   2.226   3.998   6.671  0.2193  0.3408  0.5738
 4429SOL    HW124920   2.153   3.992   6.733  1.4483 -2.1857  1.7970
 4429SOL    HW224921   2.250   3.905   6.675 -2.2486 -0.2343  2.4736
 4430SOL     OW24922   4.346   1.791  14.232 -0.1824 -0.4859 -0.2028
 4430SOL    HW124923   4.401   1.767  14.158  1.5522 -1.1408  1.3147
 4430SOL    HW224924   4.328   1.702  14.261  0.7086 -0.8579 -0.8042
 4431SOL     OW24925   0.475   2.513   7.409 -0.2780  0.0317  0.1309
 4431SOL    HW124926   0.508   2.506   7.499  1.0102 -1.2802 -0.4491
 4431SOL    HW224927   0.406   2.577   7.424 -1.3144 -1.0258 -0.1091
 4432SOL     OW24928   3.691   2.187   9.018  0.1092  0.4328  0.9960
 4432SOL    HW124929   3.617   2.245   9.001  0.9507  1.3328  0.4379
 4432SOL    HW224930   3.646   2.109   9.050 -0.7589  0.6498  0.3042
 4433SOL     OW24931   1.205   1.259  12.635  0.0262 -0.7112  0.0549
 4433SOL    HW124932   1.219   1.164  12.640  2.0568 -0.3170  1.8412
 4433SOL    HW224933   1.290   1.294  12.662 -1.0697  1.5282  0.5298
 4434SOL     OW24934   3.832   3.070   5.668  0.3767  0.2359 -0.3494
 4434SOL    HW124935   3.914   3.119   5.668 -0.2542  1.2974  1.0579
 4434SOL    HW224936   3.849   3.013   5.743 -0.2778  0.8888  0.2996
 4435SOL     OW24937   1.372   3.219   5.482  0.9080  0.6108 -0.1307
 4435SOL    HW124938   1.279   3.194   5.481  1.7061 -2.2263 -1.2046
 4435SOL    HW224939   1.366   3.312   5.504 -0.4910  0.1988  1.2262
 4436SOL     OW24940   1.473   2.069   4.768 -0.2214 -0.1339  0.1647
 4436SOL    HW124941   1.488   2.037   4.679 -2.3567 -3.0746  0.8733
 4436SOL    HW224942   1.386   2.103   4.751 -0.2077  0.8506  2.0524
 4437SOL     OW24943   0.832   4.473  17.206 -0.2783  0.0463 -0.0460
 4437SOL    HW124944   0.898   4.466  17.275 -1.4511 -0.4570  1.0224
 4437SOL    HW224945   0.753   4.442  17.249 -0.8111  1.6041  0.1136
 4438SOL     OW24946   2.757   4.503   6.938  0.4492 -0.3648  0.4961
 4438SOL    HW124947   2.706   4.467   6.865  2.5639 -0.9264 -0.6864
 4438SOL    HW224948   2.695   4.493   7.010 -0.6473 -2.1260 -0.6897
 4439SOL     OW24949   3.732   1.217   7.410 -0.4140  0.4474  0.0494
 4439SOL    HW124950   3.762   1.214   7.501 -2.1427 -0.1101  0.5934
 4439SOL    HW224951   3.793   1.150   7.378 -2.5201 -0.2406 -2.4965
 4440SOL     OW24952   3.487   4.099   4.505 -0.6717 -0.7023  0.0632
 4440SOL    HW124953   3.504   4.137   4.419 -0.8355  0.3841  0.5154
 4440SOL    HW224954   3.421   4.163   4.530  0.1096  0.4211 -0.7377
 4441SOL     OW24955   4.484   0.822   9.972 -0.4848  0.0077  0.2942
 4441SOL    HW124956   4.536   0.841   9.894  0.1259 -1.4736  0.3400
 4441SOL    HW224957   4.422   0.895   9.972  1.6646  1.8173 -0.4584
 4442SOL     OW24958   0.039   1.964   4.262  0.2590 -0.3650  0.0407
 4442SOL    HW124959   0.061   2.051   4.228 -3.4214  0.2496 -0.7296
 4442SOL    HW224960   0.031   2.001   4.350  2.1554  2.0874 -0.7842
 4443SOL     OW24961   2.628   3.905   2.973  0.6097 -0.3022  0.4592
 4443SOL    HW124962   2.671   3.970   2.917 -0.2783 -0.9879 -1.0046
 4443SOL    HW224963   2.652   3.934   3.061 -1.6378  3.9039 -0.3241
 4444SOL     OW24964   3.897   3.483  17.595  0.0295  0.4348 -0.6672
 4444SOL    HW124965   3.929   3.478  17.685  0.0202  0.2797 -0.6727
 4444SOL    HW224966   3.899   3.578  17.581  1.3420  0.4764 -0.1433
 4445SOL     OW24967   4.491   2.758   7.772 -0.5612 -0.2661  0.4325
 4445SOL    HW124968   4.398   2.770   7.792 -0.8265 -0.0057 -0.9739
 4445SOL    HW224969   4.520   2.722   7.856  0.8175  0.9696  0.4842
 4446SOL     OW24970   2.620   0.771  15.826 -0.2040 -0.6481  0.4286
 4446SOL    HW124971   2.698   0.761  15.772 -1.2716  1.4937 -1.5199
 4446SOL    HW224972   2.615   0.693  15.881  0.4144 -0.1961  1.1213
 4447SOL     OW24973   0.048   0.859   3.253 -0.7655 -0.1281  0.2014
 4447SOL    HW124974   0.047   0.954   3.242 -0.0117 -0.2032 -0.6006
 4447SOL    HW224975   4.695   0.853   3.236 -0.3844  0.1537 -2.0892
 4448SOL     OW24976   2.898   1.766   8.670  0.0321 -0.1003 -0.6078
 4448SOL    HW124977   2.957   1.697   8.639 -1.5549 -0.8301 -2.0820
 4448SOL    HW224978   2.850   1.794   8.592 -0.0826  1.5945  0.0734
 4449SOL     OW24979   3.056   2.026   4.977 -0.1306  0.6142 -0.0689
 4449SOL    HW124980   2.999   2.016   4.901 -0.3281 -0.2825  0.2017
 4449SOL    HW224981   2.990   2.048   5.043 -1.2843  0.3388 -1.1316
 4450SOL     OW24982   1.790   2.315  13.213 -0.3271 -0.0868 -0.1737
 4450SOL    HW124983   1.748   2.369  13.280  0.3401  0.4328 -0.1805
 4450SOL    HW224984   1.728   2.243  13.203  0.4256 -0.1566 -4.2815
 4451SOL     OW24985   4.269   3.298  11.860 -0.2957  0.2538  0.2870
 4451SOL    HW124986   4.311   3.368  11.809 -1.3280  0.3641 -0.4303
 4451SOL    HW224987   4.287   3.230  11.795 -0.6849  2.3391 -2.0413
 4452SOL     OW24988   0.555   3.173   4.530 -0.0162  0.7914  0.4502
 4452SOL    HW124989   0.531   3.247   4.586  0.8908  1.8852 -0.6097
 4452SOL    HW224990   0.572   3.106   4.596  0.6972 -0.0873 -0.6324
 4453SOL     OW24991   3.001   0.832   9.256 -0.5109  0.3671  0.2010
 4453SOL    HW124992   3.078   0.880   9.287 -0.1478 -0.7950  1.1024
 4453SOL    HW224993   2.986   0.893   9.184 -0.7760  2.1305  1.7523
 4454SOL     OW24994   1.402   3.713  15.366  0.1049  0.7343  0.1055
 4454SOL    HW124995   1.464   3.768  15.414 -0.3519 -0.7397  2.3629
 4454SOL    HW224996   1.434   3.719  15.276 -1.2284  1.2273 -0.3322
 4455SOL     OW24997   0.188   0.730   6.248 -0.1125  0.5324  0.1240
 4455SOL    HW124998   0.198   0.686   6.164 -1.1253 -1.2928  0.9771
 4455SOL    HW224999   0.235   0.804   6.208 -1.0797  1.1303  0.1039
 4456SOL     OW25000   4.216   1.197   9.691 -0.0420 -0.5407  0.0935
 4456SOL    HW125001   4.251   1.282   9.665 -1.6314  0.5079  1.3823
 4456SOL    HW225002   4.208   1.157   9.604 -2.3457  0.3169 -0.1069
 4457SOL     OW25003   4.164   4.218   5.970 -0.0983 -0.8426  0.2793
 4457SOL    HW125004   4.192   4.244   6.058  0.7618  0.7842 -0.4765
 4457SOL    HW225005   4.186   4.125   5.966 -0.2493 -0.8488 -0.4844
 4458SOL     OW25006   1.775   3.327   3.534 -0.3481 -0.1932  0.4080
 4458SOL    HW125007   1.742   3.351   3.448  2.4123  0.9225 -0.3409
 4458SOL    HW225008   1.799   3.235   3.521  1.7474  0.1918  1.4640
 4459SOL     OW25009   0.988   2.244   2.288 -0.0675  0.1957 -0.3115
 4459SOL    HW125010   0.942   2.175   2.241 -0.1060 -0.1867  0.2768
 4459SOL    HW225011   1.014   2.304   2.218 -0.6679  2.0464  1.0492
 4460SOL     OW25012   3.301   1.422   2.356 -0.3276  0.3448 -0.0301
 4460SOL    HW125013   3.227   1.467   2.317  0.9244  0.9009 -1.7878
 4460SOL    HW225014   3.256   1.347   2.395  1.1377  0.1672  1.3438
 4461SOL     OW25015   3.825   1.820  16.543 -0.5853 -0.9375  0.3132
 4461SOL    HW125016   3.908   1.783  16.573  0.6925  1.9072  0.2914
 4461SOL    HW225017   3.817   1.903  16.590  1.1035  0.1935 -1.3675
 4462SOL     OW25018   2.530   0.667   4.930 -0.1128 -0.0823 -0.5975
 4462SOL    HW125019   2.583   0.640   5.005 -2.1384  0.3472  1.0133
 4462SOL    HW225020   2.595   0.683   4.862  0.1210 -1.8962 -0.7784
 4463SOL     OW25021   1.401   0.828  15.476  0.5062  0.6418  0.1516
 4463SOL    HW125022   1.447   0.911  15.471  1.4290  0.1948  1.1709
 4463SOL    HW225023   1.435   0.797  15.560  0.4807 -1.0329 -0.4491
 4464SOL     OW25024   2.966   4.457   6.754 -0.0028 -0.0877 -0.0052
 4464SOL    HW125025   3.002   4.368   6.764 -1.7154 -0.5273  2.1661
 4464SOL    HW225026   2.895   4.468   6.816  0.3133 -0.5641  0.4424
 4465SOL     OW25027   0.478   3.887  16.434 -0.2974 -0.2055  0.1666
 4465SOL    HW125028   0.541   3.917  16.368  1.0576  0.2415  1.6680
 4465SOL    HW225029   0.540   3.826  16.474 -0.2012  0.2159  0.6598
 4466SOL     OW25030   1.351   4.295   8.103  0.0856 -0.4094  0.0007
 4466SOL    HW125031   1.255   4.297   8.098  0.0332 -1.8206  0.3760
 4466SOL    HW225032   1.363   4.280   8.197 -1.8249  2.7914  0.7478
 4467SOL     OW25033   4.646   3.917   7.704 -0.1059 -0.2023  0.2494
 4467SOL    HW125034   4.625   3.861   7.629 -1.9410  0.3269  0.3642
 4467SOL    HW225035   4.592   3.991   7.679  0.0956  0.5636  2.0449
 4468SOL     OW25036   2.562   2.144  15.104 -0.3037  0.0021 -0.3065
 4468SOL    HW125037   2.655   2.163  15.095 -0.2997  0.1249 -0.0065
 4468SOL    HW225038   2.559   2.054  15.138 -0.4072  0.6938  1.4933
 4469SOL     OW25039   2.190   2.314   9.355  0.2419  0.2185  0.2549
 4469SOL    HW125040   2.229   2.279   9.435 -0.2730 -0.6063  0.1429
 4469SOL    HW225041   2.192   2.408   9.372  3.3587  0.1375  0.3831
 4470SOL     OW25042   1.233   1.278   4.179 -0.2736  0.0531 -0.3268
 4470SOL    HW125043   1.146   1.241   4.164  0.0696 -0.4933 -0.9183
 4470SOL    HW225044   1.277   1.203   4.218 -0.3672 -0.8553 -1.9806
 4471SOL     OW25045   3.143   2.235   4.125  0.3946  0.3444  1.0943
 4471SOL    HW125046   3.226   2.211   4.084  1.5234  0.9679  3.0045
 4471SOL    HW225047   3.141   2.169   4.195 -2.6534 -0.1115  0.5498
 4472SOL     OW25048   3.245   4.468   0.475  0.1336  0.0973  0.1661
 4472SOL    HW125049   3.287   4.505   0.552 -0.4312  0.7567  0.1541
 4472SOL    HW225050   3.308   4.398   0.459 -0.9716 -0.5019 -1.6496
 4473SOL     OW25051   0.369   4.559  16.095  0.6140 -0.1446 -0.1964
 4473SOL    HW125052   0.433   4.615  16.139 -0.8481  1.9987 -0.8103
 4473SOL    HW225053   0.422   4.480  16.085 -0.7561 -1.0860 -0.0887
 4474SOL     OW25054   0.733   4.238   7.616 -0.7679 -0.6199 -0.5974
 4474SOL    HW125055   0.703   4.163   7.667  3.0068 -3.2454 -2.1950
 4474SOL    HW225056   0.682   4.224   7.536 -0.9238 -0.6552 -0.4911
 4475SOL     OW25057   0.119   4.089   7.467  0.1719 -0.4208 -0.3054
 4475SOL    HW125058   0.127   4.132   7.552  2.2298 -0.3437 -0.5398
 4475SOL    HW225059   0.151   4.000   7.476 -1.4286 -1.1342 -1.5343
 4476SOL     OW25060   1.467   1.847  11.063  0.0876  0.3477 -0.4536
 4476SOL    HW125061   1.557   1.825  11.084  0.6322  2.8037 -0.2067
 4476SOL    HW225062   1.426   1.762  11.076  0.8573  0.1892  0.9025
 4477SOL     OW25063   3.521   0.627   0.721  0.0262  0.4724  0.0477
 4477SOL    HW125064   3.579   0.551   0.728 -2.4061 -1.2642  0.9875
 4477SOL    HW225065   3.540   0.657   0.631 -0.4758 -2.6004 -1.0795
 4478SOL     OW25066   0.158   2.371   2.499  0.1401  0.0630  0.3762
 4478SOL    HW125067   0.093   2.378   2.569 -0.2210 -0.5741  0.0962
 4478SOL    HW225068   0.196   2.285   2.513 -1.2096 -0.5110  0.4962
 4479SOL     OW25069   3.516   2.564   7.013  0.1722  0.3104 -0.2336
 4479SOL    HW125070   3.501   2.479   6.972 -0.2538 -1.1507  2.9606
 4479SOL    HW225071   3.610   2.583   7.007  0.4155 -0.2616  1.7591
 4480SOL     OW25072   2.751   3.655   6.955  0.2968 -0.5723  0.2582
 4480SOL    HW125073   2.764   3.563   6.981 -0.9385 -0.7186  0.3658
 4480SOL    HW225074   2.809   3.702   7.015 -0.1665  1.5056 -0.9347
 4481SOL     OW25075   0.165   3.790   2.973  0.3002 -0.3074  0.1984
 4481SOL    HW125076   0.089   3.844   2.949  0.5262 -0.7176 -1.4519
 4481SOL    HW225077   0.180   3.812   3.064  1.0756 -1.4424  0.3440
 4482SOL     OW25078   4.013   2.476   1.480 -0.2256  0.1205  0.1417
 4482SOL    HW125079   4.101   2.500   1.508  0.1066  1.8021 -2.3385
 4482SOL    HW225080   4.036   2.389   1.446  1.0266  1.0486 -1.3977
 4483SOL     OW25081   3.530   1.406   5.037  0.0591 -0.0929  0.1734
 4483SOL    HW125082   3.505   1.321   5.073  4.4902 -0.7688  1.6456
 4483SOL    HW225083   3.485   1.400   4.953  0.9505 -1.5050 -0.2102
 4484SOL     OW25084   1.368   3.305  10.348 -0.1114  0.0226  0.6523
 4484SOL    HW125085   1.375   3.220  10.391 -2.5094 -1.4498 -1.8518
 4484SOL    HW225086   1.290   3.334  10.395  0.3378  0.6724  0.9914
 4485SOL     OW25087   0.860   1.835  15.971  0.1264 -0.9364  0.3126
 4485SOL    HW125088   0.946   1.812  16.006  0.1029  0.8180  1.5141
 4485SOL    HW225089   0.870   1.834  15.876 -1.0409  0.6998  0.1604
 4486SOL     OW25090   0.677   2.348   6.811  0.4726  0.3275  0.2308
 4486SOL    HW125091   0.666   2.440   6.837  1.9272  0.5639  0.0164
 4486SOL    HW225092   0.631   2.337   6.727  2.0160  1.7000 -0.7980
 4487SOL     OW25093   0.560   2.350  12.585  0.1275  0.4112  0.8293
 4487SOL    HW125094   0.557   2.370  12.491  2.2952 -1.1342  0.4453
 4487SOL    HW225095   0.480   2.296  12.583  1.7684 -1.9588 -0.7675
 4488SOL     OW25096   3.323   0.980   2.083 -0.1300 -0.0702 -0.4960
 4488SOL    HW125097   3.263   0.994   2.156 -1.3152 -2.4408 -1.0247
 4488SOL    HW225098   3.260   0.970   2.011  0.6326  0.5212 -1.2563
 4489SOL     OW25099   4.648   3.877   3.012  0.2540 -0.0012 -0.1717
 4489SOL    HW125100   4.664   3.971   3.004 -1.3063  0.4029  1.2892
 4489SOL    HW225101   4.641   3.864   3.107  2.1834  1.2488  0.1252
 4490SOL     OW25102   3.705   3.933  14.952  0.2396  0.0703 -0.0132
 4490SOL    HW125103   3.672   3.976  14.873  0.0446  2.0007  1.1150
 4490SOL    HW225104   3.622   3.915  14.996  0.1186 -1.1702 -0.7567
 4491SOL     OW25105   4.555   2.292   2.317  0.9936 -0.5828 -0.0372
 4491SOL    HW125106   4.600   2.273   2.400  1.5229  0.0542 -0.1769
 4491SOL    HW225107   4.517   2.374   2.349 -2.7819 -1.7710 -1.5006
 4492SOL     OW25108   1.900   0.416   3.042 -0.1166  0.5647 -0.1157
 4492SOL    HW125109   1.809   0.392   3.058  0.5594 -3.0743 -1.7905
 4492SOL    HW225110   1.927   0.405   3.134  3.0217 -1.8470 -1.3482
 4493SOL     OW25111   2.685   1.732   2.949  0.2483 -0.0933 -0.5948
 4493SOL    HW125112   2.739   1.736   2.870  0.7065 -1.8830 -0.3718
 4493SOL    HW225113   2.746   1.768   3.013 -1.5694  1.2693  0.3507
 4494SOL     OW25114   4.170   1.271   7.636  0.0587  0.3662 -0.2092
 4494SOL    HW125115   4.257   1.254   7.673  0.3033  2.0959  0.0236
 4494SOL    HW225116   4.171   1.205   7.568 -2.4447 -2.2665  2.3098
 4495SOL     OW25117   0.229   0.332   4.731 -0.2415  0.9634  0.1954
 4495SOL    HW125118   0.145   0.287   4.724 -0.6103  1.4467  1.4114
 4495SOL    HW225119   0.201   0.413   4.773  2.5261  1.3680  1.3042
 4496SOL     OW25120   4.210   1.058   9.038  0.4490  0.9334  0.8620
 4496SOL    HW125121   4.294   1.066   9.083  1.0799 -1.9393  0.1910
 4496SOL    HW225122   4.227   0.988   8.975 -0.9299  0.1547  1.3783
 4497SOL     OW25123   0.103   1.238   4.605 -0.4339  0.6002 -0.5287
 4497SOL    HW125124   0.150   1.237   4.522  3.3526 -0.1247  1.6048
 4497SOL    HW225125   0.037   1.169   4.596 -0.1677  0.8123 -4.0357
 4498SOL     OW25126   0.706   2.031   1.945 -0.3205  0.4305  0.1982
 4498SOL    HW125127   0.676   2.113   1.905  0.5046  0.0980 -1.1093
 4498SOL    HW225128   0.698   1.969   1.872  0.5203  0.4427  0.1011
 4499SOL     OW25129   2.494   3.488  16.701 -0.8392 -0.2958 -0.0358
 4499SOL    HW125130   2.577   3.456  16.666 -0.1260  2.1108 -0.5403
 4499SOL    HW225131   2.438   3.426  16.653  0.0936  1.3226 -3.2352
 4500SOL     OW25132   3.383   4.402   3.649 -0.1948 -0.0971 -0.3135
 4500SOL    HW125133   3.306   4.346   3.659 -1.4512  1.8561  1.0334
 4500SOL    HW225134   3.400   4.399   3.555 -0.0245 -1.7928 -0.2304
 4501SOL     OW25135   2.209   4.292   5.339  0.0019  0.1288 -0.1828
 4501SOL    HW125136   2.303   4.290   5.318 -0.1266  0.6918 -0.7871
 4501SOL    HW225137   2.219   4.238   5.417  0.1255  1.6092  0.8194
 4502SOL     OW25138   3.556   3.606   8.367 -0.5442 -0.0817  0.2499
 4502SOL    HW125139   3.554   3.584   8.460 -0.0773 -4.1994 -0.7398
 4502SOL    HW225140   3.464   3.616   8.343 -0.7271  1.4307  1.5723
 4503SOL     OW25141   0.831   0.485   6.333 -0.0248 -0.0465 -0.2735
 4503SOL    HW125142   0.803   0.576   6.322 -1.9974 -0.6511 -0.1515
 4503SOL    HW225143   0.904   0.476   6.271  1.0493 -1.6819  1.2163
 4504SOL     OW25144   1.845   2.656   9.268 -0.1680  0.2152  0.1168
 4504SOL    HW125145   1.790   2.719   9.315  0.0392  2.3572 -2.4766
 4504SOL    HW225146   1.847   2.591   9.337 -0.1359 -0.1347 -0.2145
 4505SOL     OW25147   4.363   0.524   7.270  0.1316 -0.3083 -0.8389
 4505SOL    HW125148   4.288   0.538   7.211 -1.3156  1.7460  1.4996
 4505SOL    HW225149   4.426   0.569   7.214 -0.5030  2.7354  0.8686
 4506SOL     OW25150   1.356   0.233   5.905 -0.1392  0.3160 -0.7507
 4506SOL    HW125151   1.437   0.285   5.908 -1.3401  2.0522  1.2774
 4506SOL    HW225152   1.393   0.145   5.918 -3.0909 -0.6891  0.8209
 4507SOL     OW25153   3.782   1.686   2.069 -0.4669  0.6635 -0.2685
 4507SOL    HW125154   3.710   1.624   2.059 -1.5341  1.5807  1.8075
 4507SOL    HW225155   3.734   1.759   2.108 -0.8734  1.4053 -2.1696
 4508SOL     OW25156   1.938   2.006   2.945  0.2784 -0.4143 -0.2777
 4508SOL    HW125157   1.890   1.923   2.943  2.6038 -1.7812  0.5577
 4508SOL    HW225158   2.028   1.983   2.923  0.5809  1.9646 -1.5305
 4509SOL     OW25159   4.257   0.117  12.495  0.0663  0.4094 -0.7292
 4509SOL    HW125160   4.201   0.080  12.427 -0.4037 -2.6943  1.3432
 4509SOL    HW225161   4.246   0.071  12.578 -0.7025  0.9948 -0.5072
 4510SOL     OW25162   2.229   1.715   7.915 -0.1243 -0.1607 -0.3261
 4510SOL    HW125163   2.288   1.640   7.913  0.5764  0.4547 -2.0527
 4510SOL    HW225164   2.289   1.787   7.896 -0.9228  0.9999  1.5230
 4511SOL     OW25165   0.865   1.077   9.137 -0.3787  0.5788  0.4851
 4511SOL    HW125166   0.935   1.012   9.142 -0.2377  0.7383  0.5508
 4511SOL    HW225167   0.859   1.108   9.227  2.0406  0.7947  0.5558
 4512SOL     OW25168   1.184   1.116   8.239  0.7426 -0.3749 -0.1015
 4512SOL    HW125169   1.138   1.034   8.255  0.5311 -0.2876 -0.2628
 4512SOL    HW225170   1.121   1.181   8.271 -1.2172 -1.6069 -1.5352
 4513SOL     OW25171   0.570   1.998   4.264  0.0218  0.1432  0.6042
 4513SOL    HW125172   0.602   1.935   4.328  2.1274 -1.9730 -2.5199
 4513SOL    HW225173   0.638   1.995   4.197 -0.4745  0.7185  0.0753
 4514SOL     OW25174   0.520   4.247   7.453  0.0210 -0.6449 -0.5109
 4514SOL    HW125175   0.471   4.169   7.428 -1.1272  0.8541 -2.9723
 4514SOL    HW225176   0.549   4.301   7.379  0.6471 -1.8796 -1.1699
 4515SOL     OW25177   0.391   3.772   6.675 -0.1183  0.5531  0.3997
 4515SOL    HW125178   0.388   3.822   6.594  1.2859  0.4771  0.2969
 4515SOL    HW225179   0.310   3.722   6.668  2.1105 -2.8018 -1.5579
 4516SOL     OW25180   4.437   0.146   5.676 -0.5091  0.4862  0.2370
 4516SOL    HW125181   4.501   0.212   5.702  0.4448 -0.6816  0.8681
 4516SOL    HW225182   4.494   0.112   5.606 -1.1645  0.1548 -0.1378
 4517SOL     OW25183   4.578   4.616  11.260  0.5110  0.1870  0.5637
 4517SOL    HW125184   4.618   4.616  11.347 -4.6603  4.3428  2.9647
 4517SOL    HW225185   4.650   4.589  11.204 -0.2600  0.0942 -0.3825
 4518SOL     OW25186   1.920   4.522   6.158 -0.1976  0.1401  0.0629
 4518SOL    HW125187   1.934   4.490   6.247  0.1079 -1.8472 -0.6989
 4518SOL    HW225188   1.992   4.586   6.152  0.2776 -0.5427 -1.5020
 4519SOL     OW25189   3.800   2.804  16.147  0.6260 -0.0952  0.4827
 4519SOL    HW125190   3.820   2.826  16.056  2.0810 -0.3306  0.7393
 4519SOL    HW225191   3.801   2.709  16.158  1.6762 -0.1105  0.2686
 4520SOL     OW25192   4.035   2.108   5.005 -0.0957  0.5585  0.1461
 4520SOL    HW125193   4.070   2.019   5.008 -0.7267  0.4028  2.7475
 4520SOL    HW225194   4.031   2.136   4.913  0.8140 -0.5139 -0.2263
 4521SOL     OW25195   3.134   3.483   6.839  0.0413  0.4072  0.4440
 4521SOL    HW125196   3.065   3.437   6.888  0.2786 -1.7612 -1.2203
 4521SOL    HW225197   3.132   3.439   6.754 -1.7001  1.6513 -0.1622
 4522SOL     OW25198   0.389   1.940   1.090 -0.2014 -0.0594 -0.4005
 4522SOL    HW125199   0.467   1.953   1.037  0.3873 -0.0984  0.4516
 4522SOL    HW225200   0.382   2.024   1.137  2.1554  0.5494 -1.1604
 4523SOL     OW25201   4.626   0.567   8.507 -0.2359  0.0784 -0.3566
 4523SOL    HW125202   4.638   0.485   8.555 -4.2619 -0.9315 -1.0807
 4523SOL    HW225203   4.589   0.626   8.573  1.5044 -1.0962  1.6607
 4524SOL     OW25204   2.699   0.181   3.432 -0.7278 -0.6116  0.2331
 4524SOL    HW125205   2.668   0.108   3.378  1.2882 -0.9380 -0.4795
 4524SOL    HW225206   2.730   0.135   3.510  1.4914 -0.9915 -0.8738
 4525SOL     OW25207   3.640   1.871   5.319 -0.0823  0.6721 -0.5214
 4525SOL    HW125208   3.722   1.913   5.292  0.2418  1.0260  1.0105
 4525SOL    HW225209   3.659   1.780   5.340  0.3445  0.8071 -0.3273
 4526SOL     OW25210   0.068   2.502   3.684 -0.2873 -0.4530 -0.1714
 4526SOL    HW125211   0.041   2.544   3.603 -1.8425 -0.5486  0.2940
 4526SOL    HW225212   0.089   2.583   3.730  1.1016 -1.3141  0.7001
 4527SOL     OW25213   3.909   2.668   9.537  0.0189 -0.0617 -0.4827
 4527SOL    HW125214   3.960   2.749   9.536  2.1954 -1.4197  0.7349
 4527SOL    HW225215   3.972   2.614   9.488 -0.7492 -0.0635 -1.4662
 4528SOL     OW25216   3.303   1.367   0.549 -0.2379  0.0205  0.3534
 4528SOL    HW125217   3.385   1.335   0.586  2.1666  2.1095 -3.1568
 4528SOL    HW225218   3.276   1.420   0.624  0.3796  1.4069 -0.3852
 4529SOL     OW25219   0.470   1.449   4.870  0.2168  0.5049 -0.3741
 4529SOL    HW125220   0.517   1.521   4.913  1.8783 -0.6101 -0.3055
 4529SOL    HW225221   0.389   1.431   4.918  2.5848 -1.5444  2.8695
 4530SOL     OW25222   3.395   1.636   5.843  0.3671  0.1656 -0.5505
 4530SOL    HW125223   3.464   1.639   5.909 -0.7578  0.1909  0.6333
 4530SOL    HW225224   3.386   1.543   5.823  2.5037 -0.2345  0.3716
 4531SOL     OW25225   4.266   4.123  16.447  0.1592 -0.0022 -0.3662
 4531SOL    HW125226   4.239   4.171  16.369 -0.7036  1.0315  0.5718
 4531SOL    HW225227   4.257   4.193  16.511 -0.0126 -0.8477  0.5398
 4532SOL     OW25228   0.681   3.125  11.560 -0.3783  0.4052 -0.4461
 4532SOL    HW125229   0.648   3.054  11.506 -0.8787 -0.2020  0.6507
 4532SOL    HW225230   0.766   3.150  11.526 -0.3045  0.3552 -0.2997
 4533SOL     OW25231   4.583   0.060   4.978 -0.2693 -0.3034 -0.2124
 4533SOL    HW125232   4.605   4.715   4.941 -2.0592 -0.9313  0.1546
 4533SOL    HW225233   4.546   0.108   4.905  0.5702  4.4737  2.5116
 4534SOL     OW25234   3.667   0.618   8.449  0.0772 -0.7102 -0.4404
 4534SOL    HW125235   3.662   0.620   8.545  1.5041 -0.7022 -0.3796
 4534SOL    HW225236   3.590   0.564   8.429 -0.6123  0.7200 -1.5890
 4535SOL     OW25237   1.097   0.645   3.179  0.7731  0.2583 -0.2170
 4535SOL    HW125238   1.154   0.719   3.200 -1.3460  1.4490  1.2898
 4535SOL    HW225239   1.161   0.574   3.177  1.2618  0.6710  1.1353
 4536SOL     OW25240   2.569   0.302  15.943 -0.2481 -0.3080 -0.5772
 4536SOL    HW125241   2.606   0.275  15.859 -0.8168 -0.0935 -0.9007
 4536SOL    HW225242   2.538   0.221  15.983  1.2282 -0.2532  0.6784
 4537SOL     OW25243   3.984   2.746   7.801  0.1867  0.4462  0.4424
 4537SOL    HW125244   3.933   2.749   7.720  0.3629 -0.6912  0.2896
 4537SOL    HW225245   3.911   2.754   7.862 -0.5460 -1.0925 -0.2497
 4538SOL     OW25246   3.619   3.321  11.957 -0.0644  0.1560 -0.1603
 4538SOL    HW125247   3.658   3.267  12.026 -1.2767 -0.1702  0.2686
 4538SOL    HW225248   3.667   3.402  11.975 -0.9275  0.6382 -0.0187
 4539SOL     OW25249   1.342   0.666   2.151  0.0155  0.1110  0.3303
 4539SOL    HW125250   1.432   0.677   2.120  0.1741  0.9861  1.0970
 4539SOL    HW225251   1.322   0.596   2.088 -0.6982 -0.6185  1.3558
 4540SOL     OW25252   2.233   2.341   2.609 -0.1696  0.1248  0.1531
 4540SOL    HW125253   2.194   2.376   2.689 -1.2200 -0.7407  0.0225
 4540SOL    HW225254   2.170   2.359   2.540  0.0010  1.6458  0.4037
 4541SOL     OW25255   1.208   3.072   6.163 -0.5716 -0.2605 -0.1548
 4541SOL    HW125256   1.278   3.071   6.227 -0.2633  2.2154 -0.4175
 4541SOL    HW225257   1.204   3.167   6.146 -2.5618 -0.4926 -0.9478
 4542SOL     OW25258   4.363   4.700  12.213 -0.3195 -0.1469  0.0358
 4542SOL    HW125259   4.427   4.730  12.149 -1.3274 -0.5811 -1.1627
 4542SOL    HW225260   4.311   0.039  12.224  0.3436  0.9482 -4.6897
 4543SOL     OW25261   4.481   4.185   5.005  0.2126 -0.2827 -0.3502
 4543SOL    HW125262   4.453   4.136   4.928 -0.1982 -3.1354  1.6234
 4543SOL    HW225263   4.415   4.250   5.030 -0.6625 -0.7506 -1.4242
 4544SOL     OW25264   0.790   2.896   5.497 -0.0051  0.2332 -0.7686
 4544SOL    HW125265   0.761   2.877   5.407 -0.0970  1.7207 -1.0464
 4544SOL    HW225266   0.836   2.814   5.513 -1.7715 -0.1501  2.4546
 4545SOL     OW25267   1.380   3.978   5.217  0.0463 -0.3205  0.1595
 4545SOL    HW125268   1.294   3.982   5.176  0.2910 -0.7262 -0.3858
 4545SOL    HW225269   1.396   4.071   5.200 -1.2044 -0.5649 -2.3361
 4546SOL     OW25270   1.828   1.500   1.895 -0.0825 -0.2352 -0.0114
 4546SOL    HW125271   1.867   1.487   1.981 -0.0008  2.4361  0.3304
 4546SOL    HW225272   1.911   1.530   1.858  0.3206  1.1468  2.0709
 4547SOL     OW25273   4.120   4.107   3.632 -0.2223 -0.7155 -0.2483
 4547SOL    HW125274   4.200   4.086   3.583 -1.1827 -0.7097 -1.8011
 4547SOL    HW225275   4.135   4.053   3.709  0.6344  0.6121  0.5160
 4548SOL     OW25276   3.906   3.983   8.470  0.2941  0.4082 -0.0379
 4548SOL    HW125277   3.871   3.939   8.393  0.9288  1.9476 -1.2078
 4548SOL    HW225278   3.980   3.924   8.485 -1.7362 -2.5565 -1.6505
 4549SOL     OW25279   2.840   2.709   7.652 -0.2484  0.1256 -0.8490
 4549SOL    HW125280   2.930   2.680   7.639 -0.7007 -1.3865 -0.6335
 4549SOL    HW225281   2.816   2.742   7.565  1.9979 -0.7893 -1.8124
 4550SOL     OW25282   1.465   2.612   2.119  0.3668  0.2797  0.0247
 4550SOL    HW125283   1.556   2.630   2.144  0.1148 -1.3148  2.0974
 4550SOL    HW225284   1.473   2.627   2.025 -3.9279 -0.6666 -0.4715
 4551SOL     OW25285   4.278   4.298   1.937  0.2860 -0.1990  0.1367
 4551SOL    HW125286   4.283   4.392   1.919  1.2766 -0.8367 -2.8323
 4551SOL    HW225287   4.289   4.254   1.853  2.1969  0.5388 -0.0081
 4552SOL     OW25288   3.873   0.107   8.634  0.5339  0.1664 -0.1929
 4552SOL    HW125289   3.926   0.116   8.555  2.6500 -3.5989  0.7837
 4552SOL    HW225290   3.868   0.011   8.642  0.6795  0.0687 -1.2488
 4553SOL     OW25291   4.461   2.512  10.457 -0.1167  0.3184  0.8326
 4553SOL    HW125292   4.450   2.550  10.370 -1.6365 -3.2166 -0.4741
 4553SOL    HW225293   4.475   2.419  10.441  0.0278  0.3050  1.0329
 4554SOL     OW25294   3.659   2.788   9.446  0.5110 -0.3920 -0.2317
 4554SOL    HW125295   3.589   2.740   9.489  0.5433  1.2736  1.6776
 4554SOL    HW225296   3.733   2.743   9.487  1.0614  1.5959  1.0142
 4555SOL     OW25297   4.407   0.674   5.355  0.2614  0.1802 -0.4000
 4555SOL    HW125298   4.442   0.690   5.443 -0.0514 -1.9840  0.1217
 4555SOL    HW225299   4.315   0.661   5.378  0.7491  0.2674  1.6079
 4556SOL     OW25300   3.508   0.075   9.312  1.0002  1.1817  0.8269
 4556SOL    HW125301   3.522   0.005   9.248  0.3327 -0.6441  2.6809
 4556SOL    HW225302   3.593   0.075   9.356  1.2806  2.1322  0.2794
 4557SOL     OW25303   3.909   4.452  14.604 -0.0602  0.2149  0.5853
 4557SOL    HW125304   3.904   4.499  14.520  0.9647  1.1240  1.0453
 4557SOL    HW225305   3.849   4.380  14.582  0.7365 -0.1305 -0.4757
 4558SOL     OW25306   1.348   3.053   4.248 -0.2674  0.1222  0.1290
 4558SOL    HW125307   1.405   2.985   4.284  0.3599  0.8879  0.5777
 4558SOL    HW225308   1.385   3.062   4.160  2.1159  2.6170  1.4048
 4559SOL     OW25309   2.966   3.134   9.935  0.1482  0.2427 -0.3559
 4559SOL    HW125310   2.889   3.175   9.975  2.5198  3.0114  1.3556
 4559SOL    HW225311   2.943   3.041   9.945  1.2189 -0.2631 -2.4447
 4560SOL     OW25312   1.868   3.881  14.539  0.1385  0.1017 -0.5337
 4560SOL    HW125313   1.813   3.806  14.562  3.0131 -1.7958  0.0559
 4560SOL    HW225314   1.924   3.843  14.472  1.4696 -0.8050  1.0711
 4561SOL     OW25315   3.375   1.889  17.188  0.4484 -0.3538  0.4403
 4561SOL    HW125316   3.378   1.929  17.101  2.9880 -0.5683  0.4366
 4561SOL    HW225317   3.412   1.959  17.241  0.5130 -0.6825  0.8227
 4562SOL     OW25318   2.193   4.520   1.236  0.1740 -0.1272  0.3250
 4562SOL    HW125319   2.166   4.542   1.147 -0.8949  0.1172  0.7100
 4562SOL    HW225320   2.129   4.454   1.265  0.8726 -0.4204  1.2186
 4563SOL     OW25321   2.126   3.124   1.685 -0.1724 -0.2906  0.3628
 4563SOL    HW125322   2.141   3.198   1.626 -1.4019 -0.7661 -0.5565
 4563SOL    HW225323   2.069   3.170   1.746 -0.4778 -0.5993  0.3102
 4564SOL     OW25324   1.526   1.633   6.937 -0.4971 -0.3995  0.2087
 4564SOL    HW125325   1.478   1.663   6.860 -0.8450  1.0706  1.0016
 4564SOL    HW225326   1.528   1.718   6.981  1.2617  0.7584 -2.1310
 4565SOL     OW25327   2.061   2.584  11.476  0.3473 -0.2553 -0.5337
 4565SOL    HW125328   2.082   2.670  11.441  0.9823 -0.6572 -1.1330
 4565SOL    HW225329   2.115   2.585  11.556 -0.7802 -1.1322  0.2444
 4566SOL     OW25330   0.985   2.490  11.590 -0.0692  0.4171 -0.0584
 4566SOL    HW125331   1.024   2.512  11.674 -0.3109  0.1869  0.1139
 4566SOL    HW225332   0.959   2.403  11.620  1.6458 -0.1153 -0.1596
 4567SOL     OW25333   4.605   2.574   9.948  0.3065 -0.2203 -0.3773
 4567SOL    HW125334   4.658   2.495   9.940  0.2852 -0.3216  0.5151
 4567SOL    HW225335   4.554   2.572   9.867  0.0651 -2.2542 -0.1602
 4568SOL     OW25336   2.926   2.572  16.257  0.0550 -0.2091 -0.0060
 4568SOL    HW125337   2.903   2.489  16.216 -2.0323  0.4878 -0.2236
 4568SOL    HW225338   2.960   2.529  16.335  0.3542 -1.9732 -1.1096
 4569SOL     OW25339   2.943   0.160   4.135 -0.8304 -0.3873 -0.0312
 4569SOL    HW125340   3.002   0.234   4.149  1.4763 -2.0418 -0.9580
 4569SOL    HW225341   2.866   0.179   4.187  0.0583  1.4227  0.6275
 4570SOL     OW25342   3.310   2.365  13.104  0.0957 -0.0878 -0.0028
 4570SOL    HW125343   3.379   2.405  13.157 -1.4882 -0.3636  2.2511
 4570SOL    HW225344   3.233   2.394  13.152  0.3767 -0.1057  0.4663
 4571SOL     OW25345   4.145   0.951   4.229 -0.1057 -0.1644 -0.4497
 4571SOL    HW125346   4.063   0.977   4.271  0.2879 -0.7596  0.6733
 4571SOL    HW225347   4.150   1.020   4.163  0.2753  0.1805 -0.0566
 4572SOL     OW25348   0.432   4.447  14.101  0.0630 -0.3538 -0.0069
 4572SOL    HW125349   0.454   4.540  14.101 -0.3442 -0.2681  1.9234
 4572SOL    HW225350   0.365   4.456  14.034  0.4885  0.5794 -0.2953
 4573SOL     OW25351   3.986   2.966   8.331 -0.2285 -0.6326  0.0866
 4573SOL    HW125352   4.060   2.968   8.270 -0.6201 -2.6303 -0.4678
 4573SOL    HW225353   3.935   2.885   8.318 -0.0481 -0.6812 -0.3145
 4574SOL     OW25354   1.084   2.214   0.782 -0.2412 -0.0032 -0.3133
 4574SOL    HW125355   1.129   2.175   0.857  0.7905 -0.0746 -0.9702
 4574SOL    HW225356   1.107   2.153   0.712 -0.7900 -0.2194 -0.3074
 4575SOL     OW25357   1.656   1.733   7.535 -0.0683  0.0734  0.1830
 4575SOL    HW125358   1.650   1.763   7.445 -0.5528  1.3325  0.6267
 4575SOL    HW225359   1.624   1.643   7.527  0.6128 -0.1381 -0.1729
 4576SOL     OW25360   3.416   0.540   2.157  0.0686  0.4028  0.4846
 4576SOL    HW125361   3.430   0.543   2.063 -1.2790 -0.3428  0.2589
 4576SOL    HW225362   3.506   0.539   2.188 -0.0418 -0.7829  0.7685
 4577SOL     OW25363   0.118   3.710  11.541 -0.5196  0.5935  0.2738
 4577SOL    HW125364   0.169   3.731  11.462 -0.9397  1.3099  0.2049
 4577SOL    HW225365   0.169   3.757  11.607 -0.3655 -1.3485  1.5635
 4578SOL     OW25366   1.993   1.709   9.486 -0.3895  0.6510  0.6336
 4578SOL    HW125367   2.027   1.654   9.557 -1.1119 -1.8507 -0.9490
 4578SOL    HW225368   1.953   1.640   9.433  1.8524 -0.4550  0.3852
 4579SOL     OW25369   1.849   1.552  10.289  0.0115  0.0521  0.1692
 4579SOL    HW125370   1.840   1.520  10.378 -0.6294  0.4498  0.2438
 4579SOL    HW225371   1.905   1.629  10.303  2.7370 -1.9518  0.1990
 4580SOL     OW25372   0.407   1.354   2.573 -0.2158 -0.4360 -0.2875
 4580SOL    HW125373   0.373   1.438   2.542  0.0484 -0.9870 -2.0700
 4580SOL    HW225374   0.482   1.385   2.624 -1.2537  1.5020  0.0919
 4581SOL     OW25375   3.632   3.585   9.868 -0.1663  0.7773  0.1294
 4581SOL    HW125376   3.652   3.673   9.836 -2.6000  0.5663 -1.9684
 4581SOL    HW225377   3.552   3.602   9.918  1.0824  1.3917  1.9418
 4582SOL     OW25378   0.640   2.324   7.343 -0.0539  0.6027  0.2951
 4582SOL    HW125379   0.629   2.267   7.419 -2.1872 -1.6323 -1.7495
 4582SOL    HW225380   0.581   2.397   7.365 -0.6041  0.2425 -0.0100
 4583SOL     OW25381   3.862   0.184   4.429  0.0874  0.0661 -0.1864
 4583SOL    HW125382   3.834   0.133   4.352  1.0216 -1.8139  0.7418
 4583SOL    HW225383   3.893   0.265   4.390 -1.2866 -0.3754 -2.2334
 4584SOL     OW25384   2.707   3.304   7.736 -0.0702 -0.1027  0.0027
 4584SOL    HW125385   2.739   3.223   7.776 -0.0567 -0.3320 -0.4734
 4584SOL    HW225386   2.626   3.314   7.787 -0.3921  0.5762 -0.6563
 4585SOL     OW25387   0.857   3.202   9.154  0.2060 -0.4278  0.2639
 4585SOL    HW125388   0.893   3.269   9.211  2.1891 -1.2297 -0.0252
 4585SOL    HW225389   0.920   3.190   9.083 -0.6774 -2.1627 -0.2504
 4586SOL     OW25390   0.375   3.399   3.875 -0.5409  0.2028  0.0847
 4586SOL    HW125391   0.366   3.340   3.950  0.9900 -2.6406 -1.9810
 4586SOL    HW225392   0.415   3.332   3.819 -1.3308 -0.3022  0.1260
 4587SOL     OW25393   0.549   3.331   4.286  0.6480  0.4537 -0.1098
 4587SOL    HW125394   0.544   3.281   4.367  1.8359 -1.0331 -0.9545
 4587SOL    HW225395   0.628   3.295   4.245  1.4215  0.2923  1.5273
 4588SOL     OW25396   3.288   3.784   7.433  0.0711 -0.0329  0.1314
 4588SOL    HW125397   3.268   3.870   7.471  0.1961 -0.6685  1.6659
 4588SOL    HW225398   3.337   3.741   7.504 -1.9355 -0.6005  1.1598
 4589SOL     OW25399   4.651   4.560  16.353 -0.1201  0.8253 -0.0211
 4589SOL    HW125400   4.671   4.635  16.296 -0.1167 -0.6253 -1.9264
 4589SOL    HW225401   4.713   4.496  16.319 -1.4646 -1.3794  1.6867
 4590SOL     OW25402   2.489   3.398   6.474  0.6943  0.1161 -0.1416
 4590SOL    HW125403   2.539   3.319   6.492  2.2032  1.1460  0.1872
 4590SOL    HW225404   2.561   3.447   6.435  1.7440 -2.7739 -1.8255
 4591SOL     OW25405   2.002   3.488   3.907 -0.2706 -0.2417  0.2832
 4591SOL    HW125406   2.008   3.576   3.944  0.1842 -1.0380  2.1132
 4591SOL    HW225407   1.998   3.433   3.985 -2.5196 -0.4247  0.0332
 4592SOL     OW25408   4.522   2.042   5.274 -0.3772  0.4707 -0.1868
 4592SOL    HW125409   4.490   2.042   5.364 -0.8872 -0.3310 -0.3706
 4592SOL    HW225410   4.595   1.980   5.277  0.5427  1.5899  0.2905
 4593SOL     OW25411   0.722   2.103   8.557 -0.1910 -0.1040 -0.0805
 4593SOL    HW125412   0.646   2.047   8.544 -0.6915  0.3315  1.0080
 4593SOL    HW225413   0.719   2.129   8.649 -1.0532  0.3688 -0.2421
 4594SOL     OW25414   3.234   0.171  11.078 -0.1761  0.0928  0.0646
 4594SOL    HW125415   3.272   0.250  11.117 -0.5975  0.2031  0.2501
 4594SOL    HW225416   3.172   0.209  11.016  0.3193 -1.3285 -1.2948
 4595SOL     OW25417   3.389   0.809   5.330  1.0974 -0.4117 -0.1624
 4595SOL    HW125418   3.452   0.759   5.382  0.9885 -0.8208 -0.4163
 4595SOL    HW225419   3.312   0.753   5.317  1.1526  0.2972 -3.4707
 4596SOL     OW25420   3.666   0.305   7.432 -0.6992 -0.2031 -0.6094
 4596SOL    HW125421   3.616   0.379   7.465  0.0079  0.6243 -1.3943
 4596SOL    HW225422   3.616   0.233   7.470 -0.1527 -1.1210 -1.6327
 4597SOL     OW25423   1.928   1.463  11.796 -0.3456  0.0887 -0.1839
 4597SOL    HW125424   1.843   1.419  11.796 -0.1361 -0.3103 -0.6610
 4597SOL    HW225425   1.978   1.387  11.767 -0.6291 -0.7180  1.4395
 4598SOL     OW25426   3.969   0.641  13.468 -0.2684  0.1216 -0.0585
 4598SOL    HW125427   3.974   0.647  13.372  0.0390 -2.4630 -0.2068
 4598SOL    HW225428   3.874   0.635  13.470 -0.2159  0.2812  2.2971
 4599SOL     OW25429   0.671   4.664   9.355  0.2021 -0.0004  0.0603
 4599SOL    HW125430   0.745   4.633   9.303  0.9984  1.3015  0.4390
 4599SOL    HW225431   0.627   4.583   9.381  0.8316 -0.0859  0.8559
 4600SOL     OW25432   1.183   0.859   5.026  0.4053  0.2729 -0.3095
 4600SOL    HW125433   1.195   0.804   4.949  2.3557 -0.3274  0.4098
 4600SOL    HW225434   1.090   0.882   5.023 -0.1363 -1.8873 -0.4944
 4601SOL     OW25435   0.538   1.162   2.276  1.2222 -0.2223  0.0829
 4601SOL    HW125436   0.614   1.180   2.332  0.2006 -1.3105  1.7964
 4601SOL    HW225437   0.546   1.244   2.226  1.3009  2.4984  4.5153
 4602SOL     OW25438   0.147   4.291   9.617  0.2160 -0.1890 -0.4497
 4602SOL    HW125439   0.062   4.300   9.574  0.5156  1.1947 -0.7470
 4602SOL    HW225440   0.126   4.235   9.691 -1.2839  0.4595 -0.3802
 4603SOL     OW25441   3.779   2.508  16.573  0.0652 -0.1771  0.0660
 4603SOL    HW125442   3.826   2.539  16.651  1.0625 -1.4901 -0.0106
 4603SOL    HW225443   3.710   2.572  16.559 -0.1782  0.1694  2.8242
 4604SOL     OW25444   1.975   4.566   4.204 -0.2070 -0.0061 -0.2141
 4604SOL    HW125445   1.900   4.588   4.149  0.4875 -2.3027 -2.1076
 4604SOL    HW225446   2.047   4.574   4.142 -0.6170  4.0602 -0.1832
 4605SOL     OW25447   2.115   1.801  12.429  0.1666 -0.1511 -0.2294
 4605SOL    HW125448   2.203   1.804  12.390  0.0875 -1.0534 -0.4753
 4605SOL    HW225449   2.127   1.813  12.523 -0.4534  0.2461 -0.2020
 4606SOL     OW25450   2.412   2.606   5.352 -0.3417 -0.3273 -0.2066
 4606SOL    HW125451   2.340   2.585   5.293  1.5449 -0.4488 -2.4282
 4606SOL    HW225452   2.468   2.532   5.328  0.9741  0.2602  1.0690
 4607SOL     OW25453   2.844   4.138   6.071  0.0468  0.3806  0.5210
 4607SOL    HW125454   2.866   4.180   6.154  0.6163 -2.4115  1.7669
 4607SOL    HW225455   2.870   4.048   6.090  2.1200  0.9965  0.5756
 4608SOL     OW25456   2.932   4.542   7.223 -0.3777 -0.1014  0.0462
 4608SOL    HW125457   2.977   4.501   7.297 -0.5490 -1.8371 -0.8254
 4608SOL    HW225458   3.000   4.540   7.156  1.3463  0.2345  1.7765
 4609SOL     OW25459   1.715   1.311  11.704  0.3156 -0.2399 -0.4693
 4609SOL    HW125460   1.742   1.333  11.615  0.1169 -1.5486 -0.8526
 4609SOL    HW225461   1.622   1.333  11.699  0.4804  0.6149  0.0970
 4610SOL     OW25462   0.265   3.465   2.459 -0.5437  0.1912 -0.4505
 4610SOL    HW125463   0.333   3.465   2.527 -2.2586 -2.6093  1.2816
 4610SOL    HW225464   0.190   3.482   2.517  0.4724  0.2302  0.8576
 4611SOL     OW25465   0.637   3.519   9.480  0.4446 -0.5785  0.2585
 4611SOL    HW125466   0.583   3.500   9.557 -0.5085  0.7871 -0.0513
 4611SOL    HW225467   0.694   3.587   9.517  0.5092 -0.2298 -0.4817
 4612SOL     OW25468   0.683   3.787   2.039 -0.4256  0.0777 -0.2700
 4612SOL    HW125469   0.689   3.776   1.944 -1.5860 -2.2227 -0.0923
 4612SOL    HW225470   0.700   3.697   2.068  0.0993 -0.7905 -3.2317
 4613SOL     OW25471   2.331   1.161   4.539  0.0587 -0.8637 -0.0753
 4613SOL    HW125472   2.313   1.251   4.511 -0.5333 -0.3228  2.0459
 4613SOL    HW225473   2.241   1.132   4.554 -0.4925  0.2088 -1.2803
 4614SOL     OW25474   2.119   0.063  15.366 -0.2185 -0.2402 -0.5894
 4614SOL    HW125475   2.081   4.717  15.357 -0.1255 -0.3233 -0.2029
 4614SOL    HW225476   2.091   0.083  15.456 -2.2521  0.5180 -1.4077
 4615SOL     OW25477   0.675   1.821   5.381 -0.4653  0.6002 -0.2942
 4615SOL    HW125478   0.700   1.886   5.315 -1.0798 -0.4612 -1.5810
 4615SOL    HW225479   0.736   1.841   5.452 -1.2902 -3.2439  1.5044
 4616SOL     OW25480   4.585   1.001   6.585  0.5692  0.0980 -0.5408
 4616SOL    HW125481   4.653   0.964   6.528 -0.8028 -2.2386 -0.6533
 4616SOL    HW225482   4.554   0.917   6.619  0.1558  0.4407 -0.0818
 4617SOL     OW25483   3.661   4.044   3.249  0.1636  0.7682 -0.4940
 4617SOL    HW125484   3.721   4.020   3.178  1.7421 -0.8898  1.3940
 4617SOL    HW225485   3.663   4.138   3.236 -2.0278  0.5364 -2.4521
 4618SOL     OW25486   0.780   4.686   8.935 -0.1645 -0.2653  0.1751
 4618SOL    HW125487   0.768   4.645   8.850  0.7435 -1.2266  0.5014
 4618SOL    HW225488   0.701   4.650   8.975 -1.5115  0.5443 -1.7670
 4619SOL     OW25489   0.497   3.392  15.744  0.7979 -0.2955  0.0254
 4619SOL    HW125490   0.460   3.376  15.831  2.1691 -1.9608  0.3171
 4619SOL    HW225491   0.488   3.304  15.706  0.6341 -0.6680  0.9283
 4620SOL     OW25492   0.228   0.741   9.130 -0.0835  0.4016  0.2960
 4620SOL    HW125493   0.242   0.726   9.223 -0.4259  0.7770  0.4072
 4620SOL    HW225494   0.196   0.831   9.143  1.1831  1.0555 -1.0531
 4621SOL     OW25495   2.555   2.544   6.519 -0.2911 -0.5290 -0.3758
 4621SOL    HW125496   2.602   2.531   6.601  1.6172  0.6211 -1.2877
 4621SOL    HW225497   2.618   2.539   6.447  0.7847 -1.0569  0.6046
 4622SOL     OW25498   4.101   1.044   3.441  0.5956 -0.0459  0.4481
 4622SOL    HW125499   4.051   1.012   3.516 -0.0411 -1.6333 -0.6659
 4622SOL    HW225500   4.153   1.111   3.486 -0.8981  0.9665  0.6699
 4623SOL     OW25501   0.904   2.072  12.454  0.2493  0.3220  1.2224
 4623SOL    HW125502   0.947   2.056  12.370  0.8844  1.7716  1.2719
 4623SOL    HW225503   0.811   2.088  12.439  1.0721  2.1973 -1.9233
 4624SOL     OW25504   0.578   4.255   6.613 -0.1810  0.1849  0.0290
 4624SOL    HW125505   0.590   4.346   6.584 -2.9694 -0.4135 -3.0743
 4624SOL    HW225506   0.618   4.256   6.699 -2.6850 -0.1806  1.1858
 4625SOL     OW25507   3.015   0.004  10.439 -0.2310  0.1270  0.0562
 4625SOL    HW125508   3.086   0.035  10.383  0.6423 -2.7012 -0.3987
 4625SOL    HW225509   3.022   0.065  10.512 -1.1537 -1.1760  1.2504
 4626SOL     OW25510   3.513   1.074   1.556  0.0916  0.5666 -0.5163
 4626SOL    HW125511   3.426   1.078   1.597  0.6875  2.5778  0.5358
 4626SOL    HW225512   3.539   0.984   1.578 -2.8417  0.1340  1.2884
 4627SOL     OW25513   1.953   4.343  14.164 -0.1141  0.0641  0.0930
 4627SOL    HW125514   1.925   4.381  14.081 -0.7960 -1.1073 -0.2104
 4627SOL    HW225515   2.046   4.357  14.149 -0.2977  0.7392 -0.4011
 4628SOL     OW25516   3.867   2.287  15.979  0.1524 -0.1432  0.4708
 4628SOL    HW125517   3.849   2.320  15.891 -0.9861  0.3672  0.8852
 4628SOL    HW225518   3.812   2.209  15.973 -0.3276  0.1291  1.2561
 4629SOL     OW25519   4.266   3.667  16.100 -0.1353 -0.3424 -0.7007
 4629SOL    HW125520   4.357   3.672  16.070 -0.1802  0.5653 -0.6773
 4629SOL    HW225521   4.271   3.732  16.171  2.6016  0.2061 -1.3966
 4630SOL     OW25522   0.608   4.402   2.453  0.1883  0.2963 -0.2130
 4630SOL    HW125523   0.629   4.333   2.516  2.5022  1.5651  0.4351
 4630SOL    HW225524   0.641   4.364   2.372 -1.8174 -1.0656 -0.4042
 4631SOL     OW25525   3.996   1.473   3.106  0.3260  0.5664  0.0395
 4631SOL    HW125526   3.924   1.447   3.048 -0.7403  0.8345  1.2306
 4631SOL    HW225527   4.009   1.390   3.151 -0.7956  0.5356  0.3281
 4632SOL     OW25528   4.477   4.223  10.079  0.1132 -0.1962  0.5094
 4632SOL    HW125529   4.521   4.273  10.010 -2.6314  1.6810  0.1434
 4632SOL    HW225530   4.387   4.254  10.070  1.1844  2.8930  0.6013
 4633SOL     OW25531   0.822   4.332   8.994  0.2593 -0.1939 -0.1432
 4633SOL    HW125532   0.881   4.281   8.939  1.3736  3.5884 -2.4347
 4633SOL    HW225533   0.820   4.414   8.945 -1.8301  0.6847  1.4093
 4634SOL     OW25534   4.509   0.955   3.746 -0.1240  0.7888  0.9781
 4634SOL    HW125535   4.589   0.960   3.798 -0.0066  2.5087  0.6526
 4634SOL    HW225536   4.550   0.953   3.660 -2.2377  0.7725 -0.0383
 4635SOL     OW25537   1.780   2.063   1.818  0.4209  0.1343  0.6291
 4635SOL    HW125538   1.865   2.026   1.794 -0.0619  0.4313 -1.5264
 4635SOL    HW225539   1.726   1.991   1.785 -0.6428  1.1518  0.1554
 4636SOL     OW25540   1.921   3.045   4.000 -0.4444 -0.3559 -0.4595
 4636SOL    HW125541   1.870   3.056   4.081 -1.0039  1.9366 -1.1220
 4636SOL    HW225542   2.010   3.045   4.034  0.0317 -0.7295 -1.7052
 4637SOL     OW25543   2.556   2.015   8.062  0.0463  0.0017  0.2924
 4637SOL    HW125544   2.588   2.093   8.015  0.6925 -0.2852  0.2458
 4637SOL    HW225545   2.547   2.051   8.150  1.2882  2.5487 -0.6082
 4638SOL     OW25546   3.331   1.446   7.213  0.6486 -0.1551 -0.1831
 4638SOL    HW125547   3.312   1.375   7.274 -2.0146  0.7764  0.0665
 4638SOL    HW225548   3.421   1.469   7.232  1.1691 -2.9768  0.8155
 4639SOL     OW25549   1.678   3.221   5.136 -0.0756  0.1057  0.3056
 4639SOL    HW125550   1.735   3.298   5.143 -0.7678  0.8096 -1.7949
 4639SOL    HW225551   1.604   3.251   5.188  0.3099  2.4995 -0.5009
 4640SOL     OW25552   3.911   4.703  16.754 -0.1673 -0.5719  0.1846
 4640SOL    HW125553   3.924   4.729  16.845 -0.8062 -0.6087  0.2872
 4640SOL    HW225554   3.841   0.022  16.727 -1.0913 -0.9561  1.7350
 4641SOL     OW25555   1.634   2.201  10.455  0.2203 -0.5211 -0.5928
 4641SOL    HW125556   1.639   2.267  10.524 -1.0703 -0.8856 -0.1373
 4641SOL    HW225557   1.611   2.118  10.496  1.6313 -0.1169  1.0421
 4642SOL     OW25558   4.168   0.806   2.861 -0.4170  0.3299  0.0933
 4642SOL    HW125559   4.089   0.850   2.830 -0.1232 -1.1079 -2.7337
 4642SOL    HW225560   4.170   0.732   2.800 -0.1575  2.2455 -2.2332
 4643SOL     OW25561   0.463   4.235   5.612 -0.0974  0.1643 -0.5635
 4643SOL    HW125562   0.484   4.159   5.558  0.0162 -0.2162  0.0105
 4643SOL    HW225563   0.378   4.248   5.570  0.5246  2.9148 -0.9607
 4644SOL     OW25564   4.353   4.167   7.419 -0.1217 -0.2844 -0.3125
 4644SOL    HW125565   4.262   4.191   7.435 -0.4088 -1.5888 -0.0505
 4644SOL    HW225566   4.344   4.089   7.364  1.3655 -0.2025 -0.6795
 4645SOL     OW25567   3.956   4.524   8.446 -0.5643 -0.1157  0.6333
 4645SOL    HW125568   3.950   4.453   8.382 -0.6224  0.4497  0.0127
 4645SOL    HW225569   4.043   4.504   8.482 -0.2597 -0.1249 -0.1220
 4646SOL     OW25570   3.006   2.255   3.903  0.0178 -0.2604 -0.4256
 4646SOL    HW125571   3.043   2.262   3.991 -0.7460 -4.8112  0.2922
 4646SOL    HW225572   3.070   2.194   3.866  0.5239 -0.0229  0.0657
 4647SOL     OW25573   1.339   0.107   7.773 -0.7453 -0.4478 -0.6669
 4647SOL    HW125574   1.431   0.132   7.760 -1.3768  2.2652  0.1146
 4647SOL    HW225575   1.313   0.139   7.859  1.9012 -0.9577  0.3246
 4648SOL     OW25576   2.447   0.993   2.533 -0.2708  0.1818 -0.2010
 4648SOL    HW125577   2.375   1.021   2.477 -0.0588  3.0913  0.9764
 4648SOL    HW225578   2.503   0.943   2.473  0.4800  0.3522  0.3599
 4649SOL     OW25579   1.050   3.837  14.965 -0.1321  0.4011 -0.4332
 4649SOL    HW125580   1.035   3.759  14.911 -1.6115  1.3529 -1.4068
 4649SOL    HW225581   1.003   3.904  14.914 -0.0207  1.9965  1.5669
 4650SOL     OW25582   2.787   3.837   5.063 -0.1061  0.0101  0.2105
 4650SOL    HW125583   2.878   3.812   5.079 -0.3875 -1.4831 -0.5113
 4650SOL    HW225584   2.766   3.889   5.140  0.1498  2.2305 -1.2133
 4651SOL     OW25585   4.202   4.700   2.233 -0.1420  0.0479  0.3169
 4651SOL    HW125586   4.106   4.696   2.229 -0.1562 -0.6105  1.1621
 4651SOL    HW225587   4.212   4.627   2.295  0.1594 -0.3961 -0.2633
 4652SOL     OW25588   3.009   3.975   5.469  0.5199 -0.0526 -0.0252
 4652SOL    HW125589   3.003   4.026   5.550  0.4444 -1.9820  1.1702
 4652SOL    HW225590   2.962   4.028   5.404  1.2994 -0.7604 -1.1789
 4653SOL     OW25591   2.052   0.962  13.833  0.0318  0.0270  0.3219
 4653SOL    HW125592   2.091   0.965  13.921 -1.8908  3.2832  1.0671
 4653SOL    HW225593   1.966   1.001  13.846 -0.1516 -0.1828 -0.2782
 4654SOL     OW25594   1.203   1.868   1.230 -0.3529 -0.6385  0.1295
 4654SOL    HW125595   1.156   1.935   1.180  0.5156  1.5050  2.2020
 4654SOL    HW225596   1.196   1.789   1.176 -0.7303 -1.2754  1.1122
 4655SOL     OW25597   2.113   4.706  11.528 -0.6630 -0.2579 -0.4667
 4655SOL    HW125598   2.072   4.621  11.539 -0.7304  0.0252  1.4500
 4655SOL    HW225599   2.102   4.731  11.437 -0.5664  0.4908 -0.2761
 4656SOL     OW25600   1.217   0.664  16.916 -0.1668 -0.2849  0.4670
 4656SOL    HW125601   1.249   0.584  16.874 -1.5031 -0.0240 -1.0585
 4656SOL    HW225602   1.133   0.628  16.944  0.8840 -2.9837  0.0946
 4657SOL     OW25603   0.952   3.749   3.937 -0.4923 -0.1089 -0.1722
 4657SOL    HW125604   1.038   3.729   3.973 -0.3255  0.8681 -0.0418
 4657SOL    HW225605   0.895   3.702   3.998  1.9753 -2.6829  0.1376
 4658SOL     OW25606   0.300   1.388   5.797 -0.3484 -0.3705 -0.4051
 4658SOL    HW125607   0.259   1.380   5.883 -0.4029  2.2123 -0.1965
 4658SOL    HW225608   0.380   1.335   5.803  0.7617  1.4823  1.0795
 4659SOL     OW25609   0.974   1.179   3.515  0.3916 -0.1956  0.7632
 4659SOL    HW125610   1.034   1.118   3.557  0.6543  1.2922  2.5162
 4659SOL    HW225611   1.023   1.241   3.461 -1.3493  0.2743 -0.3124
 4660SOL     OW25612   2.776   1.402   1.236  0.1556 -0.1559 -0.0668
 4660SOL    HW125613   2.845   1.377   1.175  0.4104  1.2400 -0.3457
 4660SOL    HW225614   2.707   1.342   1.206  1.4970 -1.5021 -0.4481
 4661SOL     OW25615   3.441   3.507   6.201  0.3401  0.5207 -0.4958
 4661SOL    HW125616   3.530   3.514   6.235 -0.7322 -0.0489  2.3958
 4661SOL    HW225617   3.447   3.555   6.118  0.6692 -1.3856 -1.5811
 4662SOL     OW25618   3.499   2.483  17.725 -0.0770  0.2124 -0.1970
 4662SOL    HW125619   3.506   2.404   0.018  0.7691 -0.8500 -1.8439
 4662SOL    HW225620   3.417   2.468  17.678 -0.0963  0.5882 -0.2848
 4663SOL     OW25621   3.960   3.019   7.489  0.0050  0.3053  0.1718
 4663SOL    HW125622   4.048   2.991   7.514 -0.8716 -0.6527  2.1701
 4663SOL    HW225623   3.909   2.950   7.531 -0.1446  1.0323  1.2081
 4664SOL     OW25624   0.005   0.973   6.818  0.0744  0.3111  0.0162
 4664SOL    HW125625   4.665   0.993   6.771 -0.5893  0.8792  1.4001
 4664SOL    HW225626   0.032   1.059   6.850 -0.2403  0.2402  0.4779
 4665SOL     OW25627   2.824   4.315   2.455  0.3390 -0.1361 -1.0339
 4665SOL    HW125628   2.751   4.285   2.401 -1.8790  1.1735  1.2475
 4665SOL    HW225629   2.788   4.299   2.542 -0.7826 -0.2386 -1.5104
 4666SOL     OW25630   4.632   4.102   7.333 -0.9023 -0.4455  0.1269
 4666SOL    HW125631   4.714   4.099   7.382 -0.8228  0.1294  0.0325
 4666SOL    HW225632   4.613   4.196   7.335 -0.4939 -0.3770  0.8190
 4667SOL     OW25633   2.626   0.176   5.880  0.3740 -0.0070  0.3340
 4667SOL    HW125634   2.679   0.118   5.824  0.7017  0.9764 -0.3794
 4667SOL    HW225635   2.679   0.190   5.958  0.3770 -0.8959  0.4947
 4668SOL     OW25636   0.356   4.536   2.513  0.8563 -0.5441 -0.0482
 4668SOL    HW125637   0.309   4.475   2.456 -0.0753  1.7020 -1.6780
 4668SOL    HW225638   0.445   4.506   2.496  0.8630 -1.0978  0.9545
 4669SOL     OW25639   2.942   2.461   9.226  0.1749 -0.4365 -0.0129
 4669SOL    HW125640   3.012   2.396   9.235  3.2068  2.8201 -0.2855
 4669SOL    HW225641   2.994   2.529   9.184  1.7603 -0.8995  1.2085
 4670SOL     OW25642   2.713   1.379   6.377  0.2030  0.2380  0.8404
 4670SOL    HW125643   2.696   1.363   6.470  2.1745  0.0156  1.1648
 4670SOL    HW225644   2.772   1.453   6.387  1.6941 -0.5555 -2.0927
 4671SOL     OW25645   0.285   3.839  11.705  0.1538  0.1803 -0.0848
 4671SOL    HW125646   0.355   3.798  11.653  2.1192 -0.1304  2.7931
 4671SOL    HW225647   0.331   3.918  11.734 -0.0367  0.0241  0.6343
 4672SOL     OW25648   1.845   3.161  10.661  0.4162 -0.1548 -0.3437
 4672SOL    HW125649   1.789   3.093  10.623 -0.0710  0.6610 -1.0650
 4672SOL    HW225650   1.927   3.125  10.627 -0.4529 -3.4133  1.0358
 4673SOL     OW25651   4.394   1.910  10.062 -0.1347  0.1318  0.4861
 4673SOL    HW125652   4.385   1.994  10.018  2.8333 -0.7639 -1.8749
 4673SOL    HW225653   4.327   1.913  10.129 -0.1037  0.1547  0.5161
 4674SOL     OW25654   4.261   3.129   7.876  0.5685 -0.1147 -0.5287
 4674SOL    HW125655   4.185   3.187   7.873  0.4560 -0.2229  0.5569
 4674SOL    HW225656   4.312   3.135   7.794 -1.1678 -2.8086 -1.7846
 4675SOL     OW25657   2.818   3.317   4.583 -0.4756 -0.2547 -0.2487
 4675SOL    HW125658   2.770   3.311   4.666  0.8215  1.5563  0.6344
 4675SOL    HW225659   2.866   3.398   4.602  0.6497 -0.8303 -0.6896
 4676SOL     OW25660   0.019   4.481   5.842  0.5495 -0.1440 -0.4142
 4676SOL    HW125661   4.685   4.528   5.803  2.1273  0.0184 -3.2768
 4676SOL    HW225662   0.043   4.417   5.775 -0.6164  0.1230 -1.0972
 4677SOL     OW25663   3.105   2.935   7.745 -0.2768 -0.3241  0.1943
 4677SOL    HW125664   3.146   2.863   7.696  1.2543  0.1387  0.7687
 4677SOL    HW225665   3.173   2.961   7.808  0.0148  0.1815 -0.3340
 4678SOL     OW25666   1.116   3.912   4.834  0.3914 -0.2870 -0.1145
 4678SOL    HW125667   1.172   3.989   4.824 -1.3824  0.9270 -0.7095
 4678SOL    HW225668   1.169   3.852   4.782 -0.8901  0.9079 -2.7871
 4679SOL     OW25669   1.790   1.805   5.644 -0.1095 -0.0342 -0.0589
 4679SOL    HW125670   1.881   1.833   5.639  0.6968 -2.7057 -0.5496
 4679SOL    HW225671   1.743   1.888   5.635 -0.5677 -0.5542 -2.6335
 4680SOL     OW25672   2.761   3.106   2.440  0.7118  0.0266 -0.1269
 4680SOL    HW125673   2.798   3.183   2.395 -0.2578  1.6756  1.8923
 4680SOL    HW225674   2.692   3.082   2.378 -0.9753  0.1780  1.6781
 4681SOL     OW25675   0.438   0.159   7.471  0.5037  0.2387  0.1212
 4681SOL    HW125676   0.485   0.212   7.535 -2.0846  1.7612  0.7809
 4681SOL    HW225677   0.513   0.110   7.438  0.6475  1.8870 -2.0067
 4682SOL     OW25678   3.545   1.069   6.527  0.6513 -0.7747  0.3312
 4682SOL    HW125679   3.495   1.041   6.451  2.2826  1.9334 -1.7321
 4682SOL    HW225680   3.517   1.005   6.592 -0.2966  0.4086  1.0928
 4683SOL     OW25681   2.628   1.540  10.266  0.1260 -0.1974  0.3621
 4683SOL    HW125682   2.629   1.487  10.186 -2.1156 -0.1667  0.3148
 4683SOL    HW225683   2.544   1.510  10.301  0.3396  0.7237  1.6734
 4684SOL     OW25684   2.106   0.090   7.641  0.2363 -0.6666  0.2519
 4684SOL    HW125685   2.039   0.023   7.652 -0.1641 -0.4392 -0.8039
 4684SOL    HW225686   2.181   0.036   7.616  1.0145 -0.5131  2.2791
 4685SOL     OW25687   3.185   0.259   1.949  0.9009  0.0662  0.0844
 4685SOL    HW125688   3.267   0.255   1.997  0.9011 -0.6560  0.0307
 4685SOL    HW225689   3.172   0.164   1.943  0.4174  0.1814 -0.7586
 4686SOL     OW25690   4.607   0.977   2.913 -0.0939  0.4419 -0.4249
 4686SOL    HW125691   4.662   0.899   2.915 -3.6539 -1.9862  1.6936
 4686SOL    HW225692   4.652   1.034   2.850  0.6600 -1.0192 -1.2010
 4687SOL     OW25693   1.630   1.359   5.383 -0.3495  0.5020 -0.0962
 4687SOL    HW125694   1.683   1.414   5.440  1.2988 -0.2158 -0.9291
 4687SOL    HW225695   1.563   1.347   5.450  0.9013 -1.0934  0.8645
 4688SOL     OW25696   1.515   0.579  10.879 -0.4277  0.4572  0.5011
 4688SOL    HW125697   1.578   0.579  10.950 -2.6286  0.8868  2.4459
 4688SOL    HW225698   1.526   0.490  10.848  2.1355  0.5722  1.1010
 4689SOL     OW25699   1.620   1.859   9.041 -0.2549  0.1185 -0.6192
 4689SOL    HW125700   1.557   1.871   9.112 -0.5235 -0.8340 -0.6986
 4689SOL    HW225701   1.569   1.809   8.978 -1.9215  1.6222 -0.4406
 4690SOL     OW25702   1.044   2.462   2.445  0.4410 -0.1208 -0.1100
 4690SOL    HW125703   1.096   2.511   2.381 -0.6964  1.7850  0.4434
 4690SOL    HW225704   1.037   2.373   2.409  1.0468 -1.2786  2.6252
 4691SOL     OW25705   0.940   0.572  13.155  0.0253  0.8541  0.0293
 4691SOL    HW125706   0.877   0.607  13.219  0.6634 -1.1649  1.7786
 4691SOL    HW225707   1.006   0.542  13.218 -0.5465  0.5473  0.4815
 4692SOL     OW25708   3.830   2.557   4.147  0.2908 -0.1609  0.1531
 4692SOL    HW125709   3.840   2.575   4.240  1.4507 -1.2700  0.2534
 4692SOL    HW225710   3.911   2.514   4.119  0.1818  0.0582 -0.5170
 4693SOL     OW25711   1.035   2.308  12.766 -0.0722  0.2869  0.3520
 4693SOL    HW125712   1.015   2.311  12.672 -1.8297  1.0495  0.7636
 4693SOL    HW225713   1.123   2.344  12.775 -0.0448  0.2527  0.2231
 4694SOL     OW25714   2.433   1.200  14.071 -0.2928  0.6441  0.0682
 4694SOL    HW125715   2.408   1.194  13.979 -0.8450  0.2032  0.2460
 4694SOL    HW225716   2.510   1.143  14.076 -1.0268 -0.3756 -0.3066
 4695SOL     OW25717   4.017   2.848  15.220 -0.3281 -0.4549 -0.1994
 4695SOL    HW125718   3.945   2.854  15.282  0.2183 -1.0280  0.4830
 4695SOL    HW225719   4.033   2.755  15.203 -0.8243 -0.6723  0.5266
 4696SOL     OW25720   0.185   0.723   7.397  0.1990  0.6807 -0.0862
 4696SOL    HW125721   0.108   0.681   7.359  0.4683 -0.2126  0.3557
 4696SOL    HW225722   0.220   0.773   7.323  0.0267  2.6837  1.1854
 4697SOL     OW25723   4.427   1.688   9.669 -0.6069  0.3846  0.1590
 4697SOL    HW125724   4.379   1.769   9.683 -1.1016  0.3535 -1.3157
 4697SOL    HW225725   4.492   1.719   9.606 -0.2237 -0.4471  0.1343
 4698SOL     OW25726   2.290   2.375  12.586  0.1295  0.0101 -0.0716
 4698SOL    HW125727   2.335   2.298  12.550 -0.9509 -0.4649 -0.4068
 4698SOL    HW225728   2.295   2.352  12.679 -1.0558 -0.2350 -0.0634
 4699SOL     OW25729   0.624   1.615  10.874  0.3321  0.2076 -0.3337
 4699SOL    HW125730   0.538   1.657  10.866  0.1824  0.0695  0.5214
 4699SOL    HW225731   0.595   1.525  10.858  0.1383  0.5388 -1.8181
 4700SOL     OW25732   1.720   3.039   4.209 -0.2075 -0.5381 -0.2162
 4700SOL    HW125733   1.647   3.086   4.168 -2.0151 -2.7369  0.4587
 4700SOL    HW225734   1.722   3.067   4.300  0.3943  4.2561 -1.6860
 4701SOL     OW25735   0.577   0.825  14.608 -0.0895  0.1367  0.1201
 4701SOL    HW125736   0.619   0.803  14.524 -2.4021 -1.0869 -0.7270
 4701SOL    HW225737   0.601   0.917  14.618 -2.5077  0.8158 -0.2485
 4702SOL     OW25738   4.210   3.584   7.523 -0.2504 -0.0368 -0.6745
 4702SOL    HW125739   4.285   3.571   7.582 -1.9837  1.1765  1.8260
 4702SOL    HW225740   4.177   3.495   7.524 -1.5141  0.4472  0.8569
 4703SOL     OW25741   0.522   1.633  12.533 -0.3969 -0.2796 -0.4418
 4703SOL    HW125742   0.590   1.690  12.568  0.8778 -0.5186 -2.5725
 4703SOL    HW225743   0.454   1.693  12.502 -2.1324 -1.0846  1.7532
 4704SOL     OW25744   2.702   3.401   8.810 -0.0245 -0.6184 -0.4079
 4704SOL    HW125745   2.742   3.444   8.885  0.8472  0.2699 -1.3720
 4704SOL    HW225746   2.772   3.415   8.746 -0.8638  0.5032 -1.0969
 4705SOL     OW25747   2.259   1.641   5.346  0.2171  0.3514  0.1282
 4705SOL    HW125748   2.289   1.609   5.430  1.4063 -2.8724 -1.5497
 4705SOL    HW225749   2.176   1.672   5.382 -0.9207 -0.4848 -1.7927
 4706SOL     OW25750   2.729   3.571   9.241 -0.0108  0.4985 -0.3218
 4706SOL    HW125751   2.655   3.511   9.229 -2.5457  3.8711 -1.4595
 4706SOL    HW225752   2.799   3.507   9.254 -0.8289 -1.0079 -3.3619
 4707SOL     OW25753   4.666   0.495   6.125 -0.2805 -0.7173 -0.1264
 4707SOL    HW125754   4.617   0.434   6.071 -1.9398  0.5078 -0.0337
 4707SOL    HW225755   4.681   0.445   6.205  0.5013  1.7256  1.2545
 4708SOL     OW25756   1.988   3.101   5.301  0.3067 -0.0142 -0.7292
 4708SOL    HW125757   2.078   3.106   5.271  0.0757  1.2091 -1.1898
 4708SOL    HW225758   1.976   3.193   5.325  1.4914  0.4062 -1.7438
 4709SOL     OW25759   1.646   2.976  13.512  0.0843  0.0949  0.1213
 4709SOL    HW125760   1.557   2.943  13.500 -0.0684  1.4838 -2.7553
 4709SOL    HW225761   1.678   2.950  13.425  0.3976  0.9150 -0.0108
 4710SOL     OW25762   2.544   3.538   0.659  0.1616  0.6821  0.0687
 4710SOL    HW125763   2.562   3.456   0.612 -1.8727  0.2080  0.1153
 4710SOL    HW225764   2.484   3.493   0.719 -0.9130  0.1155 -1.4348
 4711SOL     OW25765   4.325   1.052   2.875  0.1741 -0.2290 -0.1025
 4711SOL    HW125766   4.400   1.020   2.925  0.8763  2.8067  0.8362
 4711SOL    HW225767   4.282   0.974   2.842  1.4897 -0.7801 -0.5020
 4712SOL     OW25768   3.200   3.656   4.646 -0.0462  0.4692  0.5169
 4712SOL    HW125769   3.276   3.628   4.698  0.8121  0.8350 -0.5407
 4712SOL    HW225770   3.238   3.687   4.564  0.3252 -2.9211 -0.6130
 4713SOL     OW25771   2.579   1.458   5.493 -0.4559 -0.1639  0.0096
 4713SOL    HW125772   2.631   1.539   5.493  1.0307 -1.1159  1.5426
 4713SOL    HW225773   2.613   1.404   5.421 -0.6702 -1.0912  0.6102
 4714SOL     OW25774   1.387   2.072   7.851 -0.6004  0.0044  0.2959
 4714SOL    HW125775   1.482   2.059   7.847 -0.5720  1.0040 -2.8035
 4714SOL    HW225776   1.379   2.074   7.946 -1.7467  1.8075  0.1633
 4715SOL     OW25777   0.599   3.540   7.954 -0.1328  0.3545  0.5292
 4715SOL    HW125778   0.577   3.456   7.914 -0.6898 -0.1058  1.8026
 4715SOL    HW225779   0.514   3.553   7.996  0.3039  0.3015  1.4356
 4716SOL     OW25780   0.193   3.902   2.018 -0.3447 -0.4978 -0.0697
 4716SOL    HW125781   0.268   3.868   2.067  1.1785  0.1389 -1.9955
 4716SOL    HW225782   0.188   3.827   1.958 -0.9182  0.5259 -1.2865
 4717SOL     OW25783   3.823   1.611   4.008  0.2486 -0.0645  0.0376
 4717SOL    HW125784   3.896   1.653   3.963 -0.3702 -0.4503 -1.3410
 4717SOL    HW225785   3.783   1.561   3.936  0.6369 -1.4844  0.8167
 4718SOL     OW25786   3.715   3.146   8.787 -0.2920  0.4690 -0.2409
 4718SOL    HW125787   3.789   3.098   8.751 -0.8239  0.2644 -1.0791
 4718SOL    HW225788   3.650   3.079   8.766  0.2230  0.1377 -0.7780
 4719SOL     OW25789   1.753   1.045   7.145 -0.1251  0.1702  0.0843
 4719SOL    HW125790   1.733   0.985   7.217 -2.8769  2.8655  1.5691
 4719SOL    HW225791   1.767   0.985   7.071 -0.0917 -1.9344  1.8073
 4720SOL     OW25792   0.720   3.963  11.555  0.5919 -0.1485 -0.7554
 4720SOL    HW125793   0.758   3.876  11.541  2.1343  0.2407  0.8711
 4720SOL    HW225794   0.635   3.939  11.591  0.5227  2.2725  0.7287
 4721SOL     OW25795   1.539   4.216   4.858  0.2507 -0.1851  0.6088
 4721SOL    HW125796   1.525   4.306   4.827  3.9399 -0.3966 -1.6798
 4721SOL    HW225797   1.628   4.194   4.831 -0.2410 -1.7023  0.1943
 4722SOL     OW25798   3.423   0.690   4.508  0.7928  0.0986 -0.4562
 4722SOL    HW125799   3.446   0.685   4.601  0.3413  2.8157 -0.1836
 4722SOL    HW225800   3.397   0.782   4.500 -1.2890 -0.3302  1.2244
 4723SOL     OW25801   0.449   3.163   9.244 -0.0267 -0.3456  0.0981
 4723SOL    HW125802   0.529   3.215   9.232  0.6688 -1.3244  0.5459
 4723SOL    HW225803   0.394   3.198   9.173 -0.2274 -1.9729 -0.5385
 4724SOL     OW25804   2.112   1.279   4.854  0.1630 -0.2140 -0.0008
 4724SOL    HW125805   2.136   1.191   4.824  0.6986  0.6495 -2.0570
 4724SOL    HW225806   2.191   1.330   4.873 -1.8121  1.8338  2.5917
 4725SOL     OW25807   1.375   0.973   7.273  0.8023 -0.0265 -0.2204
 4725SOL    HW125808   1.434   0.913   7.229  0.7787 -0.2630  0.0725
 4725SOL    HW225809   1.424   0.994   7.353 -2.0565  0.4481  1.4120
 4726SOL     OW25810   2.588   0.802  12.284  0.0808 -0.4976  0.2374
 4726SOL    HW125811   2.521   0.819  12.349 -0.9968  2.8534 -1.7390
 4726SOL    HW225812   2.659   0.766  12.337  0.8191 -1.1452 -1.1736
 4727SOL     OW25813   0.342   2.867   5.545 -0.3024 -0.5013  0.3036
 4727SOL    HW125814   0.270   2.822   5.590 -0.4875 -0.4841  0.0289
 4727SOL    HW225815   0.419   2.811   5.558  1.1346  0.7955 -2.6745
 4728SOL     OW25816   2.532   4.539   7.085 -0.2157  0.1080  0.0204
 4728SOL    HW125817   2.523   4.534   7.180  0.4520  0.7279  0.1230
 4728SOL    HW225818   2.461   4.599   7.062  1.0230  0.7367 -2.1933
 4729SOL     OW25819   1.936   2.386   4.609  0.3896 -0.1828  0.7748
 4729SOL    HW125820   1.985   2.378   4.691  2.6702 -1.1915 -0.6816
 4729SOL    HW225821   1.874   2.313   4.614 -0.5412  0.4603 -1.9038
 4730SOL     OW25822   4.036   0.762  17.419  0.0779  1.0107 -0.2212
 4730SOL    HW125823   4.017   0.690  17.359  0.3164  1.5975 -1.0015
 4730SOL    HW225824   3.948   0.783  17.452  0.2742  0.7767  0.4479
 4731SOL     OW25825   4.515   4.475   4.601 -0.3163 -0.2018  0.3649
 4731SOL    HW125826   4.592   4.522   4.570  0.0820 -2.2512 -1.7381
 4731SOL    HW225827   4.560   4.400   4.639 -0.5226 -1.9269 -2.7609
 4732SOL     OW25828   2.613   1.348  15.946  0.6670  0.1807  0.3425
 4732SOL    HW125829   2.607   1.439  15.917  0.8890  0.8224  2.3016
 4732SOL    HW225830   2.525   1.316  15.924  1.2626 -1.4589  0.4061
 4733SOL     OW25831   2.807   0.424  16.561 -0.1557  0.2260  0.0466
 4733SOL    HW125832   2.729   0.379  16.593  0.6302  0.5912  2.4290
 4733SOL    HW225833   2.773   0.463  16.480 -1.8749  1.7546  1.5053
 4734SOL     OW25834   2.215   0.130  17.355 -0.0781  0.1134 -0.3138
 4734SOL    HW125835   2.298   0.173  17.333  0.2778 -0.7010 -0.6036
 4734SOL    HW225836   2.162   0.154  17.279  0.1944 -0.8628 -0.8125
 4735SOL     OW25837   2.066   1.602   8.633  0.7144 -0.2918  0.4602
 4735SOL    HW125838   2.031   1.689   8.649 -0.7504 -0.6884 -0.4546
 4735SOL    HW225839   2.115   1.607   8.551 -0.0694  2.1027  0.1360
 4736SOL     OW25840   3.249   3.386  12.924  0.0796  0.8510 -0.4068
 4736SOL    HW125841   3.259   3.436  13.005  0.3214  1.1650 -0.6287
 4736SOL    HW225842   3.309   3.432  12.865  0.1393  4.8922  2.8254
 4737SOL     OW25843   1.763   1.718  15.168  0.0183  0.5145  0.0455
 4737SOL    HW125844   1.759   1.655  15.240  0.5342  1.1998  0.6829
 4737SOL    HW225845   1.826   1.674  15.112  1.2286 -1.1407  2.7208
 4738SOL     OW25846   4.052   0.400  12.027  0.3098 -0.5102  0.0449
 4738SOL    HW125847   3.970   0.367  12.065 -0.3853  0.5949 -0.4932
 4738SOL    HW225848   4.075   0.472  12.085  2.8022 -2.5841  1.6573
 4739SOL     OW25849   2.687   4.196   2.666  0.3925  0.6954 -0.1881
 4739SOL    HW125850   2.719   4.131   2.728  0.9428  0.5095 -0.6688
 4739SOL    HW225851   2.671   4.137   2.593  0.5512  1.0351 -0.4993
 4740SOL     OW25852   1.225   3.477   5.096  0.2058 -0.5751 -0.0607
 4740SOL    HW125853   1.184   3.544   5.152  0.7989  0.5475 -0.9900
 4740SOL    HW225854   1.255   3.539   5.030 -1.4764  0.8507  0.4915
 4741SOL     OW25855   3.380   1.363   7.547  0.1582 -0.0744 -0.2510
 4741SOL    HW125856   3.295   1.319   7.551  1.6138 -2.7161  1.4461
 4741SOL    HW225857   3.420   1.339   7.464 -0.2265 -3.5569  0.5706
 4742SOL     OW25858   2.540   0.684   7.096 -0.2658  0.2713 -0.1961
 4742SOL    HW125859   2.448   0.689   7.121  0.1981 -2.1160  1.8991
 4742SOL    HW225860   2.540   0.729   7.011 -1.0038 -2.7232 -1.7943
 4743SOL     OW25861   2.654   3.949  10.276 -0.9097  0.2703 -0.1191
 4743SOL    HW125862   2.697   3.869  10.304 -0.9357 -0.6063 -2.5174
 4743SOL    HW225863   2.716   3.988  10.214 -0.7907 -0.0736 -0.2133
 4744SOL     OW25864   4.715   3.464   1.614 -0.2515 -0.0149  0.1051
 4744SOL    HW125865   0.033   3.434   1.684 -1.0651  0.0654  0.8232
 4744SOL    HW225866   4.702   3.383   1.566  1.0528  1.1014 -2.1527
 4745SOL     OW25867   4.232   1.618   2.004  0.4478 -0.3298  0.0581
 4745SOL    HW125868   4.257   1.699   2.048  1.1267 -0.3680 -0.2473
 4745SOL    HW225869   4.289   1.614   1.927  1.6565  3.0656  0.7839
 4746SOL     OW25870   0.171   0.692   7.852  0.1526 -0.1703  0.6282
 4746SOL    HW125871   0.213   0.645   7.924 -0.6890  1.3498  2.1120
 4746SOL    HW225872   0.187   0.636   7.777  1.5624  1.1461 -0.0633
 4747SOL     OW25873   4.194   3.046  17.086 -0.3933 -0.0679  0.0174
 4747SOL    HW125874   4.132   3.117  17.073 -0.3945 -0.4906 -2.1803
 4747SOL    HW225875   4.147   2.966  17.062  0.4094  0.6984 -3.9785
 4748SOL     OW25876   0.907   0.174   4.248 -0.5324  0.7804 -0.0719
 4748SOL    HW125877   0.850   0.237   4.203 -1.1078  1.3731  1.4920
 4748SOL    HW225878   0.994   0.210   4.227 -0.5228  0.6597 -0.2367
 4749SOL     OW25879   1.076   0.155   9.156  0.1992 -0.7369  0.4817
 4749SOL    HW125880   1.016   0.166   9.229  1.2622  1.4198  1.0367
 4749SOL    HW225881   1.156   0.124   9.197  1.2992  0.8846 -0.4300
 4750SOL     OW25882   2.792   3.117   9.329  0.2195  0.1275  0.0685
 4750SOL    HW125883   2.800   3.208   9.358 -2.9883  0.3501  0.2798
 4750SOL    HW225884   2.767   3.117   9.236  3.3186  0.1328 -0.7829
 4751SOL     OW25885   2.564   3.549   6.132  0.0720 -0.6361  0.2631
 4751SOL    HW125886   2.642   3.525   6.182  0.2563  0.4571  0.4959
 4751SOL    HW225887   2.518   3.466   6.124 -0.3300 -0.5507  1.6396
 4752SOL     OW25888   2.361   0.103  15.191 -0.1453  0.1588 -0.4663
 4752SOL    HW125889   2.278   0.097  15.238  0.7542  0.0611  1.0940
 4752SOL    HW225890   2.390   0.014  15.207 -0.5005  0.0321 -0.5146
 4753SOL     OW25891   1.526   2.502  10.445 -0.8613 -0.5461  0.5148
 4753SOL    HW125892   1.547   2.495  10.539  0.0539 -0.6605  0.3046
 4753SOL    HW225893   1.538   2.411  10.419 -1.8057 -0.6807  0.5456
 4754SOL     OW25894   0.190   0.092   5.860 -0.3365 -0.5967  0.3612
 4754SOL    HW125895   0.137   0.064   5.785  0.7297  0.5328 -0.8064
 4754SOL    HW225896   0.160   0.179   5.886 -3.0837 -0.9413 -1.6134
 4755SOL     OW25897   1.490   4.648   8.058  0.1406  0.0029  0.2245
 4755SOL    HW125898   1.437   4.721   8.092  0.3486  0.6260 -0.7787
 4755SOL    HW225899   1.425   4.594   8.014  1.1844 -0.4972 -0.6886
 4756SOL     OW25900   0.395   2.528   3.798  0.0718 -0.2913  0.5279
 4756SOL    HW125901   0.403   2.478   3.717  0.9398  0.5505  0.0941
 4756SOL    HW225902   0.484   2.565   3.800 -0.8102  1.7047  2.0072
 4757SOL     OW25903   0.983   1.353  12.520 -0.7858  0.6117  0.3245
 4757SOL    HW125904   1.052   1.350  12.585 -1.3030 -1.7426  0.7575
 4757SOL    HW225905   0.977   1.261  12.492  2.0501 -0.0038  1.7102
 4758SOL     OW25906   2.937   2.472  14.399 -0.0613 -0.1597  0.0145
 4758SOL    HW125907   2.892   2.387  14.408 -0.0703 -0.1774 -0.2059
 4758SOL    HW225908   2.870   2.521  14.352  0.9594  0.7525 -0.4778
 4759SOL     OW25909   1.556   1.118   5.775 -0.6792 -0.2120 -0.1166
 4759SOL    HW125910   1.520   1.174   5.844 -0.4366  0.6139 -0.6479
 4759SOL    HW225911   1.624   1.173   5.736 -3.6933  3.3362 -0.3779
 4760SOL     OW25912   0.777   0.763   8.359 -0.7148  0.0819 -0.2954
 4760SOL    HW125913   0.702   0.816   8.383 -0.2321  0.3803  0.5777
 4760SOL    HW225914   0.757   0.670   8.371 -0.4794  0.3658  2.4066
 4761SOL     OW25915   1.612   2.304   8.264  0.9301  0.2324 -0.3810
 4761SOL    HW125916   1.645   2.362   8.195 -0.5177  0.3587 -0.9658
 4761SOL    HW225917   1.523   2.337   8.276  1.2053  0.8165  0.0424
 4762SOL     OW25918   1.557   4.318   3.299  0.2701 -0.2166  0.1855
 4762SOL    HW125919   1.485   4.255   3.304 -1.6363  2.0393  1.2849
 4762SOL    HW225920   1.536   4.377   3.372 -0.2211 -1.0516  0.7224
 4763SOL     OW25921   2.860   4.260  16.150 -0.5846  0.0817 -0.6799
 4763SOL    HW125922   2.904   4.246  16.234  0.4507  1.3195 -1.0035
 4763SOL    HW225923   2.771   4.226  16.159  0.0058 -1.1547  0.5364
 4764SOL     OW25924   1.681   0.170  16.369  0.3720  0.4204  0.2204
 4764SOL    HW125925   1.652   0.240  16.428 -0.1171 -0.8221  1.4315
 4764SOL    HW225926   1.776   0.175  16.380  0.2452  1.3185  0.9120
 4765SOL     OW25927   0.543   4.591   3.798  0.1050 -0.1216 -0.2878
 4765SOL    HW125928   0.458   4.623   3.766 -0.8782 -3.2870 -0.8792
 4765SOL    HW225929   0.517   4.542   3.876 -0.0022  1.0643  0.4132
 4766SOL     OW25930   1.557   1.692   6.400  0.5345  0.1345 -0.2835
 4766SOL    HW125931   1.599   1.757   6.344  0.5149 -0.4360 -0.9606
 4766SOL    HW225932   1.469   1.692   6.365  0.8347  2.2608 -1.0303
 4767SOL     OW25933   2.162   4.220  11.142  0.2605 -0.0085  0.0377
 4767SOL    HW125934   2.251   4.254  11.148 -0.1107  0.6809  1.8192
 4767SOL    HW225935   2.171   4.131  11.176  1.0540  0.6019  1.4305
 4768SOL     OW25936   1.863   0.870   5.159 -0.5322 -0.4744  0.3363
 4768SOL    HW125937   1.853   0.937   5.227 -0.3681 -1.2654  1.1318
 4768SOL    HW225938   1.795   0.894   5.095 -0.7933  0.1689  0.8539
 4769SOL     OW25939   0.939   2.921   8.684 -0.4726 -0.3063  0.4859
 4769SOL    HW125940   0.997   2.996   8.674 -3.3181  1.7353 -0.9562
 4769SOL    HW225941   0.987   2.842   8.661  0.0518 -0.1609  1.0839
 4770SOL     OW25942   3.830   1.385   9.163  0.7623 -0.2240  0.6629
 4770SOL    HW125943   3.889   1.346   9.099  1.4622 -0.1323  1.2427
 4770SOL    HW225944   3.803   1.464   9.116  1.4720  1.0849  2.4125
 4771SOL     OW25945   2.177   0.348  13.390 -0.0232  0.1002 -0.1427
 4771SOL    HW125946   2.244   0.390  13.443 -1.7527  0.8214  1.4748
 4771SOL    HW225947   2.111   0.330  13.457 -0.0740  3.0122  0.5636
 4772SOL     OW25948   3.862   0.085  14.183  0.2232 -0.0871 -0.3795
 4772SOL    HW125949   3.956   0.069  14.173  0.5541  1.9394 -0.6374
 4772SOL    HW225950   3.823   0.055  14.102  0.2916 -2.9162  0.6428
 4773SOL     OW25951   2.813   2.710   3.676 -0.5703 -0.1408  0.7977
 4773SOL    HW125952   2.862   2.661   3.742 -1.0111 -0.8487  0.5976
 4773SOL    HW225953   2.874   2.784   3.673 -0.9704  0.0842 -2.0015
 4774SOL     OW25954   4.056   4.276   4.388  0.4988  0.3839 -0.2197
 4774SOL    HW125955   4.121   4.255   4.321  1.2276 -0.7279  0.8605
 4774SOL    HW225956   3.970   4.243   4.363  0.3203  0.4288  0.3356
 4775SOL     OW25957   2.195   0.984  13.482 -0.6447  0.1862 -0.4874
 4775SOL    HW125958   2.142   0.908  13.506 -0.0661 -0.0526  0.0065
 4775SOL    HW225959   2.209   1.028  13.565 -1.4251  0.3495 -0.4380
 4776SOL     OW25960   3.836   2.870  15.879  0.2819  0.3030  0.1015
 4776SOL    HW125961   3.906   2.921  15.838 -0.5678  1.7304  0.4333
 4776SOL    HW225962   3.764   2.885  15.818  1.1531 -1.3542 -1.3383
 4777SOL     OW25963   2.344   1.947  15.756  0.7485 -0.4085 -0.2513
 4777SOL    HW125964   2.338   1.867  15.704 -1.0697  0.0244 -0.7072
 4777SOL    HW225965   2.401   1.920  15.828  0.7235 -1.1499 -0.5117
 4778SOL     OW25966   2.729   4.209  15.586  0.0816  0.5650 -0.2757
 4778SOL    HW125967   2.757   4.299  15.576 -2.4779  1.8524  4.1770
 4778SOL    HW225968   2.792   4.155  15.536  0.7561 -0.1385  1.3452
 4779SOL     OW25969   0.642   4.283  14.526  0.0606  0.1897  0.4965
 4779SOL    HW125970   0.600   4.230  14.459  0.7946  2.2805 -1.6299
 4779SOL    HW225971   0.597   4.367  14.510 -0.5388 -0.8726 -3.4747
 4780SOL     OW25972   2.139   1.988   8.633  0.2662 -0.0522  0.3858
 4780SOL    HW125973   2.055   1.943   8.629  0.6164 -0.8615  2.5485
 4780SOL    HW225974   2.187   1.950   8.559  0.4482  0.2365  0.3523
 4781SOL     OW25975   1.321   1.725   8.532  0.3436  0.0779  0.0330
 4781SOL    HW125976   1.270   1.650   8.501 -1.6129  0.8425  1.4610
 4781SOL    HW225977   1.386   1.742   8.464  2.8463  1.1156  2.6872
 4782SOL     OW25978   1.008   3.592   3.339 -0.3135 -0.5275  0.2364
 4782SOL    HW125979   0.934   3.649   3.317 -0.1999 -0.5771 -0.2727
 4782SOL    HW225980   1.073   3.620   3.275 -2.0150 -0.6840 -1.5813
 4783SOL     OW25981   1.679   3.860  12.640  0.3500  0.6002  0.0855
 4783SOL    HW125982   1.638   3.847  12.554 -2.1033  0.8167  1.2233
 4783SOL    HW225983   1.599   3.861  12.693  0.5531 -1.3171  0.4386
 4784SOL     OW25984   2.629   4.555   7.986  0.1639 -0.4911 -0.3170
 4784SOL    HW125985   2.711   4.593   8.017 -0.3294  0.8203 -0.6389
 4784SOL    HW225986   2.662   4.524   7.901 -1.0047 -0.9633 -0.5994
 4785SOL     OW25987   4.143   3.294   8.142  0.6932 -0.5725 -0.2639
 4785SOL    HW125988   4.120   3.325   8.054  0.8654 -1.7233 -0.7185
 4785SOL    HW225989   4.206   3.357   8.178 -2.9610  2.5649  0.6303
 4786SOL     OW25990   3.724   0.059   2.793 -0.0347  0.6129  0.1137
 4786SOL    HW125991   3.706   4.740   2.866 -0.9552 -0.3377 -0.8798
 4786SOL    HW225992   3.656   0.030   2.732 -0.0162 -1.1334  0.9201
 4787SOL     OW25993   1.877   1.605  10.603  0.1143 -0.0263  0.3712
 4787SOL    HW125994   1.786   1.619  10.629 -0.3432 -2.1979 -0.0680
 4787SOL    HW225995   1.920   1.647  10.678 -0.9901 -0.2213  1.1158
 4788SOL     OW25996   1.685   3.038  11.582  0.6326 -0.4378  0.6895
 4788SOL    HW125997   1.714   3.095  11.511  0.4319 -0.1260  0.8612
 4788SOL    HW225998   1.686   2.950  11.543 -2.0257 -1.5321  3.0658
 4789SOL     OW25999   3.780   3.775  11.501  0.6241 -0.3995  0.1177
 4789SOL    HW126000   3.728   3.705  11.541 -0.3142 -0.5144 -1.2597
 4789SOL    HW226001   3.847   3.789  11.567 -0.1221 -0.6047  0.9134
 4790SOL     OW26002   3.501   2.120   6.341  0.2116 -0.4727 -0.3032
 4790SOL    HW126003   3.436   2.188   6.353 -2.7192 -3.0134 -1.7377
 4790SOL    HW226004   3.581   2.171   6.357  0.7928 -2.0018  1.7903
 4791SOL     OW26005   3.321   4.506   7.835 -0.1806 -0.0324  0.0988
 4791SOL    HW126006   3.235   4.467   7.818  1.1584 -2.4311 -1.0792
 4791SOL    HW226007   3.328   4.498   7.930 -2.4238 -0.2851  0.2440
 4792SOL     OW26008   4.000   3.165  11.831  0.3870  0.0302 -0.1873
 4792SOL    HW126009   3.960   3.221  11.764  0.7349  1.2566  0.6370
 4792SOL    HW226010   4.076   3.212  11.864 -0.2409  1.3355 -0.6129
 4793SOL     OW26011   3.422   3.210   6.733 -0.3461  0.2084  0.2639
 4793SOL    HW126012   3.357   3.275   6.707 -0.8100 -0.3278  0.0912
 4793SOL    HW226013   3.443   3.251   6.818 -0.2620  1.3384 -0.2997
 4794SOL     OW26014   4.171   4.236  16.204  0.4875 -0.2600  0.3352
 4794SOL    HW126015   4.077   4.216  16.206  0.7775 -1.6760 -0.4216
 4794SOL    HW226016   4.192   4.187  16.125 -1.6341  0.5339 -0.7377
 4795SOL     OW26017   0.102   0.629   6.975  0.0705 -0.2142  0.0140
 4795SOL    HW126018   0.135   0.569   7.041  1.6799  0.2957 -0.3373
 4795SOL    HW226019   0.006   0.625   6.979  0.1666 -2.3809 -0.1565
 4796SOL     OW26020   2.298   2.512   4.275  0.9133  0.0518 -0.7203
 4796SOL    HW126021   2.377   2.529   4.224  0.0071  0.9056 -1.8215
 4796SOL    HW226022   2.247   2.592   4.264  1.2150  0.3874  0.2480
 4797SOL     OW26023   3.491   3.925   6.092 -1.1595 -0.2227 -0.4379
 4797SOL    HW126024   3.507   4.011   6.129 -1.6581  0.1871 -1.1714
 4797SOL    HW226025   3.422   3.896   6.152 -0.3522 -1.0021  0.1077
 4798SOL     OW26026   3.756   0.048   6.567 -0.6696  0.3057  0.0497
 4798SOL    HW126027   3.789   0.130   6.604 -2.6088  0.8678  0.5225
 4798SOL    HW226028   3.831   4.734   6.592  0.6292  1.0399 -2.2318
 4799SOL     OW26029   0.770   4.167   8.140 -0.1614  0.3209  0.7581
 4799SOL    HW126030   0.754   4.173   8.046 -1.1248 -0.8218  0.8562
 4799SOL    HW226031   0.845   4.225   8.151  0.3471 -0.3815  0.9660
 4800SOL     OW26032   0.295   3.045   4.943 -0.5946 -0.4511 -0.2347
 4800SOL    HW126033   0.237   3.057   4.867 -0.0623 -0.9774 -0.7230
 4800SOL    HW226034   0.247   2.979   4.992 -0.5974  1.5540  2.4387
 4801SOL     OW26035   1.156   1.731   3.562  0.1995 -0.2130  0.7383
 4801SOL    HW126036   1.230   1.724   3.623  0.5680  0.4944  0.3818
 4801SOL    HW226037   1.194   1.694   3.482  2.0019  0.2839  1.3527
 4802SOL     OW26038   3.709   0.832  17.242  0.8017  0.7268  0.0200
 4802SOL    HW126039   3.744   0.799  17.159  1.1686  0.3521  0.3234
 4802SOL    HW226040   3.707   0.751  17.292 -0.0985  1.6991  1.5479
 4803SOL     OW26041   3.351   1.928  14.402  0.3208 -0.0726 -0.2659
 4803SOL    HW126042   3.410   1.855  14.384  1.7129  0.9832  0.0714
 4803SOL    HW226043   3.413   1.996  14.376  2.0575 -0.1454  3.5703
 4804SOL     OW26044   4.501   4.518  13.760  0.3455  0.6408 -0.0092
 4804SOL    HW126045   4.412   4.491  13.737 -0.2270  0.9476  1.8894
 4804SOL    HW226046   4.495   4.614  13.759  1.4236  0.6997 -0.2548
 4805SOL     OW26047   1.357   3.650  13.781 -0.2680 -0.1837 -0.7776
 4805SOL    HW126048   1.410   3.577  13.749 -0.6649 -0.1726 -1.4627
 4805SOL    HW226049   1.273   3.613  13.811 -1.2172  0.5561 -2.5049
 4806SOL     OW26050   1.886   3.899   2.611 -0.5685  0.2600  0.0966
 4806SOL    HW126051   1.891   3.862   2.699 -0.6452 -0.0021 -0.0108
 4806SOL    HW226052   1.904   3.991   2.629  0.5507 -0.4689  2.7638
 4807SOL     OW26053   0.129   0.453   8.172 -0.6396  0.0180 -0.2948
 4807SOL    HW126054   0.189   0.472   8.100  1.8430 -1.0397  1.5125
 4807SOL    HW226055   0.185   0.388   8.214 -2.5000 -1.4247 -0.0843
 4808SOL     OW26056   0.082   1.784   2.069 -0.3463  0.7528  0.1172
 4808SOL    HW126057   0.114   1.694   2.062  0.2891  1.1121 -1.5966
 4808SOL    HW226058   4.731   1.769   2.091  0.0658 -0.3652  1.0801
 4809SOL     OW26059   3.863   4.455   9.700  0.0534  0.4244 -0.2497
 4809SOL    HW126060   3.820   4.531   9.739 -0.1565  0.8910 -1.3763
 4809SOL    HW226061   3.785   4.402   9.684  1.5917 -1.0580 -2.8231
 4810SOL     OW26062   4.272   1.908   3.787 -0.3480 -0.2812  0.5208
 4810SOL    HW126063   4.245   1.935   3.874  1.2726  1.5936  0.4462
 4810SOL    HW226064   4.299   1.989   3.744  0.1016 -0.4751  0.4289
 4811SOL     OW26065   0.337   0.661   4.981  0.0252  0.3213 -0.0409
 4811SOL    HW126066   0.332   0.745   4.935  1.8396 -0.2460 -1.2881
 4811SOL    HW226067   0.388   0.617   4.913 -0.9021 -1.1278  0.2023
 4812SOL     OW26068   4.170   3.472  10.563  0.2930 -0.0745  0.0188
 4812SOL    HW126069   4.086   3.516  10.547  1.9826  2.6359 -1.3510
 4812SOL    HW226070   4.211   3.518  10.636 -1.5702  0.4609  0.7233
 4813SOL     OW26071   3.815   1.596   1.478 -0.0208 -0.3796 -0.2343
 4813SOL    HW126072   3.820   1.667   1.543  1.8903 -2.2001  1.6062
 4813SOL    HW226073   3.902   1.607   1.441  0.0519  0.4800  0.1998
 4814SOL     OW26074   4.413   3.630   5.692 -0.1158  0.5534 -0.2038
 4814SOL    HW126075   4.497   3.657   5.729 -0.1910  1.5804 -0.7551
 4814SOL    HW226076   4.358   3.635   5.770  0.8032  1.4662  0.3818
 4815SOL     OW26077   2.666   3.329   1.917 -0.5785 -0.4950  0.2664
 4815SOL    HW126078   2.629   3.401   1.866  3.4628  0.6213 -1.1127
 4815SOL    HW226079   2.626   3.255   1.871  0.4927 -0.9285  0.0122
 4816SOL     OW26080   4.307   0.654   8.824  0.1997 -0.0176  0.0491
 4816SOL    HW126081   4.380   0.608   8.865 -1.4713  1.2960  4.5496
 4816SOL    HW226082   4.253   0.590   8.779  4.6124 -4.4636  1.1374
 4817SOL     OW26083   2.244   1.144   2.358  0.1221 -0.1436  0.2016
 4817SOL    HW126084   2.172   1.110   2.410  0.3833  0.4105  0.9288
 4817SOL    HW226085   2.209   1.193   2.284 -0.4807  1.2001  1.3676
 4818SOL     OW26086   1.725   3.876   9.720 -0.2304  0.2638 -0.0037
 4818SOL    HW126087   1.746   3.835   9.804 -1.0759  1.8124  0.9630
 4818SOL    HW226088   1.780   3.953   9.705  1.3278 -0.9711 -0.5576
 4819SOL     OW26089   0.514   2.692   6.475  0.4603 -0.4206 -0.2605
 4819SOL    HW126090   0.603   2.695   6.509  0.2945 -1.7230  0.2737
 4819SOL    HW226091   0.499   2.785   6.458 -1.2497 -0.8438 -1.1631
 4820SOL     OW26092   3.397   4.428   8.862  0.2275  0.6366  0.2335
 4820SOL    HW126093   3.491   4.437   8.874  0.5648  0.2633 -2.1642
 4820SOL    HW226094   3.379   4.336   8.843 -0.0348  1.1780 -2.2038
 4821SOL     OW26095   4.097   4.063   3.243  0.0330 -0.8775  0.3503
 4821SOL    HW126096   4.030   4.087   3.180  1.3299  1.2771 -0.2204
 4821SOL    HW226097   4.046   4.084   3.321  0.1321  0.7631 -0.0237
 4822SOL     OW26098   3.772   1.876  15.135 -0.1248 -0.6704 -0.1287
 4822SOL    HW126099   3.802   1.964  15.155  3.6049 -1.7060 -1.1950
 4822SOL    HW226100   3.754   1.889  15.042  3.7191 -0.6669 -0.8833
 4823SOL     OW26101   2.846   3.566  11.263 -0.1410 -0.5525 -0.5018
 4823SOL    HW126102   2.920   3.590  11.318  0.0625 -1.1920 -0.4969
 4823SOL    HW226103   2.809   3.647  11.229 -0.1848 -0.1577  0.4868
 4824SOL     OW26104   2.786   0.473  14.153  0.3557  0.1668 -0.4759
 4824SOL    HW126105   2.716   0.459  14.216 -0.5072 -1.2013 -1.7576
 4824SOL    HW226106   2.733   0.481  14.074 -0.0442  0.5469 -0.1643
 4825SOL     OW26107   1.324   4.472   6.787  0.2468 -0.0961 -0.0099
 4825SOL    HW126108   1.366   4.557   6.774 -0.6301  0.2354 -0.6797
 4825SOL    HW226109   1.310   4.443   6.697  0.3910 -1.1000  0.2839
 4826SOL     OW26110   0.537   1.585   5.782 -0.1786 -0.4610  0.5125
 4826SOL    HW126111   0.466   1.544   5.732 -1.4667  1.6547  0.5959
 4826SOL    HW226112   0.494   1.631   5.855  0.0304 -0.1463  0.4338
 4827SOL     OW26113   1.042   4.123   1.716  0.0063 -0.2838 -0.2261
 4827SOL    HW126114   0.948   4.113   1.703  0.0054 -0.5545 -0.0233
 4827SOL    HW226115   1.071   4.102   1.628  0.9380  1.2978 -0.3062
 4828SOL     OW26116   2.459   3.563   4.775  0.3291  0.8608  0.0757
 4828SOL    HW126117   2.415   3.519   4.703 -0.0450  0.1351  0.7450
 4828SOL    HW226118   2.529   3.595   4.719  0.7368  1.0234  0.6798
 4829SOL     OW26119   1.452   0.179   6.244  0.2198 -0.3538  0.4352
 4829SOL    HW126120   1.524   0.196   6.183 -0.5982  0.7759 -0.2151
 4829SOL    HW226121   1.396   0.115   6.200  0.3771 -1.6284  2.0980
 4830SOL     OW26122   0.094   1.962   9.289 -0.3292 -0.1350 -0.1080
 4830SOL    HW126123   0.153   1.935   9.359  0.3036  1.6944  0.0910
 4830SOL    HW226124   0.033   2.025   9.328 -0.7778 -1.2109  0.9371
 4831SOL     OW26125   2.395   0.950  11.960  0.3988  0.5777 -0.3526
 4831SOL    HW126126   2.457   0.914  11.896  0.1447  1.4051 -1.0622
 4831SOL    HW226127   2.350   0.876  12.000 -0.9740  0.0246 -2.9387
 4832SOL     OW26128   0.679   2.136  13.054 -0.1441 -0.3593 -0.2809
 4832SOL    HW126129   0.774   2.130  13.068 -0.3287 -1.5153  0.4853
 4832SOL    HW226130   0.693   2.128  12.960 -0.4417 -2.2878 -0.1599
 4833SOL     OW26131   1.362   1.702   6.712  0.4214 -0.0977 -0.0213
 4833SOL    HW126132   1.381   1.794   6.693 -0.1380  0.6070  2.9104
 4833SOL    HW226133   1.327   1.680   6.626 -1.0242  3.9368 -0.4830
 4834SOL     OW26134   2.590   2.076   5.793  0.3325 -0.2011  0.4093
 4834SOL    HW126135   2.655   2.012   5.821  2.9328  1.9962 -0.6147
 4834SOL    HW226136   2.521   2.015   5.767 -0.1207  0.0605  1.0168
 4835SOL     OW26137   1.661   0.921  12.908 -0.5097 -0.2105  0.9620
 4835SOL    HW126138   1.606   0.986  12.863 -1.1242  0.0783  2.1335
 4835SOL    HW226139   1.597   0.857  12.937  0.6156 -0.3894  3.0185
 4836SOL     OW26140   0.931   4.549   2.010  0.2402 -0.2831 -0.2375
 4836SOL    HW126141   0.846   4.566   1.970  0.2884  2.3168  0.7587
 4836SOL    HW226142   0.907   4.561   2.102  0.2373 -2.5664  0.0671
 4837SOL     OW26143   4.383   4.001  12.593  0.3545 -0.0998  0.0584
 4837SOL    HW126144   4.449   4.062  12.625 -1.0930  0.4017  2.0393
 4837SOL    HW226145   4.391   3.928  12.654 -1.0668  0.8580  1.3880
 4838SOL     OW26146   0.331   2.580  14.443  0.0737  0.4756  0.2818
 4838SOL    HW126147   0.263   2.515  14.463  1.7242 -1.3251  0.0924
 4838SOL    HW226148   0.376   2.546  14.365  1.6032  1.1434  0.8920
 4839SOL     OW26149   1.629   0.276   6.042  0.4682  0.1227  0.2979
 4839SOL    HW126150   1.612   0.369   6.025 -1.9987 -0.3760  0.0055
 4839SOL    HW226151   1.705   0.262   5.985  0.8893 -1.5301  1.2688
 4840SOL     OW26152   2.248   3.383  12.540 -0.3631 -0.0867  0.0916
 4840SOL    HW126153   2.232   3.470  12.576 -0.1612 -0.2894  0.6604
 4840SOL    HW226154   2.161   3.342  12.538 -0.9282  1.0845  0.3190
 4841SOL     OW26155   0.311   2.007   5.241  0.0917 -0.0140 -0.0207
 4841SOL    HW126156   0.309   1.914   5.264 -2.2201  0.4360  1.6173
 4841SOL    HW226157   0.329   2.040   5.329  1.5915  0.1123 -0.3852
 4842SOL     OW26158   4.274   1.457   3.225  0.5713  0.4573  0.2663
 4842SOL    HW126159   4.367   1.463   3.246  0.7017  0.8386 -0.4288
 4842SOL    HW226160   4.276   1.392   3.155 -0.7028 -0.3376  0.9564
 4843SOL     OW26161   0.894   3.661   2.996 -0.0219 -0.3931 -0.0540
 4843SOL    HW126162   0.858   3.586   2.949  1.2406  0.9079 -3.1101
 4843SOL    HW226163   0.829   3.680   3.064 -0.1324  0.2286 -0.3312
 4844SOL     OW26164   2.505   1.794   6.955  0.7022 -0.3652  0.0166
 4844SOL    HW126165   2.530   1.790   7.047  2.2007 -0.0500 -0.3790
 4844SOL    HW226166   2.479   1.886   6.945 -0.4412 -0.4957  1.7099
 4845SOL     OW26167   1.814   1.928   7.345  0.1129  0.0665  0.0725
 4845SOL    HW126168   1.777   1.849   7.305  1.3153 -1.2566  1.5636
 4845SOL    HW226169   1.776   2.003   7.300 -0.4644  0.0330  0.5019
 4846SOL     OW26170   3.263   0.780   2.621 -0.1273 -0.1915  0.1657
 4846SOL    HW126171   3.353   0.766   2.652 -1.2367  0.3969  3.7446
 4846SOL    HW226172   3.229   0.703   2.576 -0.9202  0.3967 -0.2364
 4847SOL     OW26173   1.212   3.386   3.374 -0.5104  0.5153  0.2902
 4847SOL    HW126174   1.194   3.307   3.323  1.2582 -0.6888  1.5367
 4847SOL    HW226175   1.158   3.444   3.319  2.8524  1.7556 -1.6710
 4848SOL     OW26176   0.762   0.609  13.364  0.4686 -0.0970 -0.1471
 4848SOL    HW126177   0.744   0.528  13.411  1.7784  0.2640  0.9530
 4848SOL    HW226178   0.689   0.659  13.401 -0.2955 -0.2535 -1.4119
 4849SOL     OW26179   1.883   3.426   7.401 -0.0979  0.4057 -0.3459
 4849SOL    HW126180   1.835   3.507   7.383 -1.1970 -0.1574  0.0297
 4849SOL    HW226181   1.920   3.403   7.316 -0.1881 -0.6307 -0.1086
 4850SOL     OW26182   1.661   2.954   0.030 -0.2625 -0.2407  0.0743
 4850SOL    HW126183   1.738   2.998  17.755 -0.7087 -0.3614 -1.0285
 4850SOL    HW226184   1.698   2.879   0.076 -1.4603 -0.3789  0.8002
 4851SOL     OW26185   3.285   2.758  13.982  0.0688  0.5049  0.1593
 4851SOL    HW126186   3.223   2.723  13.918  1.4797 -0.2477 -0.8051
 4851SOL    HW226187   3.239   2.831  14.023 -0.9032 -0.7093  1.2421
 4852SOL     OW26188   4.408   2.025  13.258 -0.5383 -0.5999  0.4442
 4852SOL    HW126189   4.483   2.059  13.307 -1.6937  2.3863  0.0957
 4852SOL    HW226190   4.367   2.102  13.221 -0.3085 -0.7930 -0.2037
 4853SOL     OW26191   3.406   4.656  11.170 -0.1110  0.1676 -0.1360
 4853SOL    HW126192   3.495   4.676  11.142 -0.2878  1.8701  0.5172
 4853SOL    HW226193   3.358   4.734  11.142 -1.0774  0.3227  1.9450
 4854SOL     OW26194   4.452   2.810   8.832  0.5178  0.0752 -0.3700
 4854SOL    HW126195   4.539   2.795   8.794  1.3871  0.9489  1.2908
 4854SOL    HW226196   4.464   2.892   8.880 -2.5669  1.7571 -2.4888
 4855SOL     OW26197   0.018   0.576  15.827  0.3479 -0.3146 -0.1770
 4855SOL    HW126198   0.071   0.620  15.894  1.2023  1.5155 -2.0496
 4855SOL    HW226199   0.074   0.500  15.814 -1.4216 -1.3068 -1.9931
 4856SOL     OW26200   1.152   1.375   3.732 -0.3764  0.3381  0.1121
 4856SOL    HW126201   1.196   1.420   3.804 -1.1151 -1.1607  1.4901
 4856SOL    HW226202   1.065   1.361   3.768 -0.9211  0.5038 -1.1523
 4857SOL     OW26203   1.459   0.131   8.485 -0.2166  0.4514 -0.1419
 4857SOL    HW126204   1.471   0.197   8.418  2.3811  0.6961  0.5775
 4857SOL    HW226205   1.365   0.132   8.505 -0.3263  0.9280 -0.7119
 4858SOL     OW26206   1.462   0.096   5.055 -0.8151  0.0513 -0.6527
 4858SOL    HW126207   1.527   0.159   5.025  1.0662 -1.8124 -0.4923
 4858SOL    HW226208   1.418   0.148   5.121  1.1770  2.7908 -1.4883
 4859SOL     OW26209   0.678   0.239   2.062 -0.4952 -0.2451  0.2160
 4859SOL    HW126210   0.596   0.241   2.013 -0.9698 -0.5220  1.0034
 4859SOL    HW226211   0.735   0.179   2.014  0.6639  0.6709  0.4532
 4860SOL     OW26212   2.908   2.969  11.664 -0.0851  0.5811  0.3887
 4860SOL    HW126213   2.851   3.033  11.622  0.2496  1.9581  2.0481
 4860SOL    HW226214   2.927   3.007  11.750  0.2441  1.7737 -0.2117
 4861SOL     OW26215   2.150   0.294   1.922 -0.0514 -0.0818 -0.2663
 4861SOL    HW126216   2.121   0.325   2.008  0.5479  0.3788 -0.2249
 4861SOL    HW226217   2.065   0.273   1.883 -0.9729  0.1614  1.6195
 4862SOL     OW26218   0.666   0.396   4.465  0.5183 -0.3726 -0.2878
 4862SOL    HW126219   0.704   0.315   4.498  1.8694  0.5823  0.4988
 4862SOL    HW226220   0.600   0.419   4.529 -1.3997 -3.2834 -1.2203
 4863SOL     OW26221   0.137   2.393   8.816  0.4313  0.4084 -0.1786
 4863SOL    HW126222   0.150   2.483   8.845  3.0761 -0.0558  0.0533
 4863SOL    HW226223   0.219   2.351   8.842  0.0487  0.4535  1.0691
 4864SOL     OW26224   0.931   0.237   6.752 -0.2822 -0.4620  0.0152
 4864SOL    HW126225   0.904   0.329   6.743  1.0332 -0.4732 -4.0514
 4864SOL    HW226226   0.995   0.234   6.681 -1.8434  2.2304 -1.5025
 4865SOL     OW26227   4.682   3.138  10.376  0.5797  0.1297  0.1522
 4865SOL    HW126228   4.604   3.192  10.362 -1.4101 -1.7005  4.1198
 4865SOL    HW226229   4.640   3.087  10.446 -1.0475  0.0748 -0.8732
 4866SOL     OW26230   4.503   2.630   3.802  0.1529 -0.1890  0.3387
 4866SOL    HW126231   4.592   2.646   3.771 -0.0415 -2.5996 -1.4249
 4866SOL    HW226232   4.511   2.568   3.874 -0.3045 -0.3234  0.2753
 4867SOL     OW26233   2.578   4.257   8.112 -0.1066 -0.1751 -0.6851
 4867SOL    HW126234   2.553   4.348   8.099  1.9632  0.7078  1.5519
 4867SOL    HW226235   2.502   4.201   8.096 -0.3897  0.5675 -1.8908
 4868SOL     OW26236   0.869   1.442   2.593  0.0104  0.1184  0.3286
 4868SOL    HW126237   0.900   1.514   2.538  1.0973 -0.4499  0.2016
 4868SOL    HW226238   0.953   1.409   2.622  0.5438  2.0430  0.9659
 4869SOL     OW26239   2.926   4.392   3.198  1.0585  0.4536  0.4012
 4869SOL    HW126240   2.964   4.321   3.146 -0.5024  1.2459 -1.8084
 4869SOL    HW226241   2.877   4.340   3.262  2.0327 -0.0885  0.7121
 4870SOL     OW26242   2.795   1.827   9.764 -0.3200 -0.1553  0.4213
 4870SOL    HW126243   2.891   1.822   9.770 -0.4363  0.5522  2.6488
 4870SOL    HW226244   2.797   1.887   9.689  0.9191  0.0852  0.6377
 4871SOL     OW26245   0.743   2.450   9.074 -0.2568 -0.3069  0.1431
 4871SOL    HW126246   0.785   2.366   9.053  1.3053  0.3199  0.7613
 4871SOL    HW226247   0.819   2.507   9.077  0.0990 -0.5496 -3.8989
 4872SOL     OW26248   3.853   0.099   3.683 -0.0387 -0.5864  0.1122
 4872SOL    HW126249   3.827   0.010   3.660 -0.4344  0.1771 -2.3812
 4872SOL    HW226250   3.936   0.117   3.640 -0.6223 -0.1839 -0.8411
 4873SOL     OW26251   0.393   3.042   0.981  0.3555 -0.5293  0.2372
 4873SOL    HW126252   0.479   3.043   1.022  1.6468 -2.0165 -2.4542
 4873SOL    HW226253   0.369   3.128   1.016 -0.6112 -0.4939 -0.5032
 4874SOL     OW26254   3.119   2.313   8.593  0.3989  0.6356  0.2045
 4874SOL    HW126255   3.038   2.263   8.597  0.5717  0.4520  1.3993
 4874SOL    HW226256   3.113   2.362   8.675  1.8684  0.1996  0.5838
 4875SOL     OW26257   3.023   1.251   4.241 -0.0990  1.1438  0.2180
 4875SOL    HW126258   2.942   1.201   4.232  0.6781 -0.3013  1.2169
 4875SOL    HW226259   3.048   1.269   4.150 -0.4784 -0.8509 -0.2810
 4876SOL     OW26260   2.206   2.084   1.792  0.0264  0.5594 -0.0873
 4876SOL    HW126261   2.270   2.025   1.832  0.6606  2.2271  1.3480
 4876SOL    HW226262   2.221   2.167   1.837  2.6546  0.0691 -0.0491
 4877SOL     OW26263   3.699   1.658   0.458 -0.3747  0.0473 -0.0555
 4877SOL    HW126264   3.669   1.677   0.369  1.8513 -1.5935 -1.1528
 4877SOL    HW226265   3.793   1.670   0.444 -0.0296 -0.9073  1.4745
 4878SOL     OW26266   0.856   0.973   7.034  0.4651 -0.0945  0.4995
 4878SOL    HW126267   0.920   1.039   7.008  0.7111 -1.1744 -1.5499
 4878SOL    HW226268   0.787   1.004   6.976  0.2585  0.3987  1.0062
 4879SOL     OW26269   3.285   2.034   2.071 -0.0275 -0.3688  0.1826
 4879SOL    HW126270   3.264   1.997   1.985 -0.2298 -1.0252  0.5100
 4879SOL    HW226271   3.227   1.999   2.140 -1.4850 -0.0508 -0.8737
 4880SOL     OW26272   3.718   0.522   9.022 -0.2673  0.0840  0.0846
 4880SOL    HW126273   3.758   0.502   9.106 -1.6308  1.1547  0.9894
 4880SOL    HW226274   3.679   0.604   9.050  0.5397  0.7921 -0.8641
 4881SOL     OW26275   2.042   4.272  17.534  0.1391 -0.0875  0.0775
 4881SOL    HW126276   2.138   4.271  17.528  0.1382 -0.1935  0.0700
 4881SOL    HW226277   2.034   4.271  17.438 -1.2085 -0.3817  0.1958
 4882SOL     OW26278   2.058   3.896   6.155 -0.2282  0.6458  0.2122
 4882SOL    HW126279   2.071   3.963   6.222 -0.3697  1.0896 -0.1989
 4882SOL    HW226280   2.137   3.843   6.155 -0.4021  0.3781  1.3778
 4883SOL     OW26281   4.487   2.155   4.062  0.1771 -0.0477 -0.2567
 4883SOL    HW126282   4.450   2.131   3.977  1.2841 -0.4179 -0.6286
 4883SOL    HW226283   4.564   2.099   4.062  0.0067 -0.2838  1.2902
 4884SOL     OW26284   0.687   1.139   8.024  0.1256  0.2373 -0.5837
 4884SOL    HW126285   0.668   1.051   7.992 -2.3690  0.7327 -0.4442
 4884SOL    HW226286   0.601   1.180   8.031  1.3506  2.7572 -0.2043
 4885SOL     OW26287   2.758   0.757  10.551  0.1487 -0.5925  0.4242
 4885SOL    HW126288   2.664   0.739  10.551 -0.1377  0.9140  0.0607
 4885SOL    HW226289   2.781   0.794  10.636  1.6239 -1.8548  0.5650
 4886SOL     OW26290   2.510   3.961   8.336  0.0799 -0.0800 -0.0233
 4886SOL    HW126291   2.419   3.987   8.350 -0.3618 -0.9041 -1.3618
 4886SOL    HW226292   2.491   3.868   8.341 -0.5508 -0.0209 -1.4433
 4887SOL     OW26293   0.531   4.645   2.269  0.0035  0.1132 -0.3112
 4887SOL    HW126294   0.560   4.579   2.206 -0.1158  0.1383 -0.3920
 4887SOL    HW226295   0.560   4.602   2.350  0.3584 -0.6708 -0.8524
 4888SOL     OW26296   3.255   2.326   6.460 -0.2566  0.0060 -0.1724
 4888SOL    HW126297   3.226   2.318   6.551 -1.4775 -0.3865 -0.5924
 4888SOL    HW226298   3.186   2.273   6.419 -1.4121  0.1903  1.5252
 4889SOL     OW26299   4.299   4.541   1.148  0.4387 -0.5930 -0.0229
 4889SOL    HW126300   4.343   4.528   1.064 -0.9806  2.1280 -1.1877
 4889SOL    HW226301   4.206   4.553   1.127 -0.0512  0.9032  3.0461
 4890SOL     OW26302   4.582   1.840   6.006  0.0071 -0.3742 -0.3899
 4890SOL    HW126303   4.646   1.825   6.075  0.7103  1.5423 -0.6320
 4890SOL    HW226304   4.500   1.833   6.055 -0.0806 -1.8549 -0.7642
 4891SOL     OW26305   0.416   3.880   9.319 -0.3367  0.0448  0.0028
 4891SOL    HW126306   0.453   3.792   9.310  1.2798  0.5648  1.5025
 4891SOL    HW226307   0.374   3.876   9.405 -1.1953 -0.3436 -0.4431
 4892SOL     OW26308   1.697   0.130   4.798 -0.0435 -0.0821  0.6131
 4892SOL    HW126309   1.736   0.069   4.859 -1.5407 -2.5064 -0.8634
 4892SOL    HW226310   1.707   0.091   4.711 -0.1666 -0.9791  1.0015
 4893SOL     OW26311   3.529   1.691   6.991 -0.1646  0.1540  0.1934
 4893SOL    HW126312   3.537   1.606   6.948  0.8940  0.7007 -0.7044
 4893SOL    HW226313   3.616   1.701   7.030  0.0460 -2.2321  0.3133
 4894SOL     OW26314   3.073   4.104   7.939  0.5177 -0.3185 -0.4577
 4894SOL    HW126315   3.084   4.096   7.844 -1.1721  0.0046 -0.6787
 4894SOL    HW226316   2.987   4.143   7.955  1.3948  0.0740  3.3374
 4895SOL     OW26317   0.274   0.002   8.011  0.3349  0.5578  0.8943
 4895SOL    HW126318   0.302   4.681   8.078  2.8843  1.5276  0.7276
 4895SOL    HW226319   0.214   0.058   8.060 -0.2180 -0.3323  1.2270
 4896SOL     OW26320   0.236   3.875   1.618 -0.4225 -0.1950  0.5710
 4896SOL    HW126321   0.230   3.946   1.682 -0.9725  0.4124 -0.1544
 4896SOL    HW226322   0.149   3.883   1.580  0.1902 -0.3957 -0.8971
 4897SOL     OW26323   2.759   2.879   2.749 -0.1550  0.0542  0.1828
 4897SOL    HW126324   2.788   2.818   2.681 -1.2901  1.6434 -1.7279
 4897SOL    HW226325   2.795   2.820   2.815 -1.4745 -1.7838 -0.7183
 4898SOL     OW26326   1.798   4.288  13.524 -0.3161  0.1510 -0.1258
 4898SOL    HW126327   1.761   4.275  13.612 -2.2339 -1.3590 -1.1639
 4898SOL    HW226328   1.779   4.204  13.483 -0.6999 -1.1773  2.7259
 4899SOL     OW26329   4.474   1.404   9.018 -0.3851  0.2670  0.1206
 4899SOL    HW126330   4.508   1.374   8.933  0.3384  0.4079  0.3613
 4899SOL    HW226331   4.522   1.347   9.078  0.2710  1.1048  0.3939
 4900SOL     OW26332   1.449   0.924   6.174 -0.5885  0.2857  0.7801
 4900SOL    HW126333   1.433   0.830   6.164  4.7426 -0.5166 -0.0232
 4900SOL    HW226334   1.402   0.942   6.256  0.5640  0.4519  1.4113
 4901SOL     OW26335   4.006   4.644   2.549  0.6790  0.1510  0.0740
 4901SOL    HW126336   3.911   4.653   2.549  0.5861 -0.9354 -0.1315
 4901SOL    HW226337   4.021   4.647   2.455 -1.8021  1.8922 -0.2627
 4902SOL     OW26338   3.574   1.649   9.163 -0.5591 -0.2541 -0.3073
 4902SOL    HW126339   3.638   1.612   9.103  0.0730  0.4404 -0.0526
 4902SOL    HW226340   3.548   1.572   9.215 -1.1448  0.8981  1.1047
 4903SOL     OW26341   3.896   4.151   8.139 -0.1663  0.3860  0.1683
 4903SOL    HW126342   3.859   4.197   8.064 -3.8907  0.6328  2.1482
 4903SOL    HW226343   3.835   4.182   8.206  1.6809  1.0376  1.5385
 4904SOL     OW26344   3.491   3.212   3.659 -0.0897  0.4058 -0.1108
 4904SOL    HW126345   3.532   3.295   3.683 -0.8049 -0.0137  2.6470
 4904SOL    HW226346   3.550   3.165   3.601 -0.2737 -1.6681  1.3956
 4905SOL     OW26347   0.784   0.108  16.060  0.0235 -0.5827  0.6162
 4905SOL    HW126348   0.793   0.202  16.077  1.8477 -1.0282  2.1027
 4905SOL    HW226349   0.693   0.093  16.085 -0.1850  1.4616  1.1106
 4906SOL     OW26350   2.489   3.924   3.310 -0.4416 -0.0663 -0.7812
 4906SOL    HW126351   2.580   3.947   3.295 -1.1228  2.4730 -1.0433
 4906SOL    HW226352   2.460   3.988   3.245 -0.5788  0.8040  0.1362
 4907SOL     OW26353   1.819   3.981   3.700 -0.2945  0.7895 -0.0452
 4907SOL    HW126354   1.903   3.994   3.744 -0.0701 -0.3859 -0.1339
 4907SOL    HW226355   1.843   3.985   3.608  2.4484 -1.3695  0.5726
 4908SOL     OW26356   0.286   2.409   6.591  0.9758 -0.3956 -0.2686
 4908SOL    HW126357   0.227   2.357   6.646  0.4470  0.2142 -0.2561
 4908SOL    HW226358   0.331   2.469   6.650 -0.5582 -0.7548  1.2565
 4909SOL     OW26359   0.956   2.064   6.348 -0.4571  0.5270 -0.0439
 4909SOL    HW126360   0.944   1.990   6.407 -0.0088  1.4713  1.2479
 4909SOL    HW226361   0.932   2.138   6.404 -2.5412 -0.8460  0.8533
 4910SOL     OW26362   0.036   2.809   2.748  0.3625 -0.6752 -0.7034
 4910SOL    HW126363   0.114   2.852   2.782  0.8145 -2.4728  0.5189
 4910SOL    HW226364   0.007   2.764   2.828 -0.5536  1.5860  0.2560
 4911SOL     OW26365   2.239   0.414   1.694 -0.0975  0.1996 -0.4004
 4911SOL    HW126366   2.240   0.387   1.786 -1.2065  1.3485 -0.0449
 4911SOL    HW226367   2.247   0.510   1.696 -2.5061  0.3584  1.2313
 4912SOL     OW26368   3.065   4.683   0.459  0.2277 -0.4789  0.2419
 4912SOL    HW126369   3.136   4.621   0.472  1.7272  0.7355 -2.3049
 4912SOL    HW226370   2.992   4.620   0.456  1.3386 -1.9152  2.8639
 4913SOL     OW26371   0.024   0.352   5.516  0.3203 -0.2824  0.0080
 4913SOL    HW126372   4.717   0.377   5.595  2.3991  0.4313  1.0216
 4913SOL    HW226373   0.010   0.433   5.468  0.4038 -0.4670 -0.3315
 4914SOL     OW26374   3.245   1.953   5.714  0.0311  0.8207  0.5931
 4914SOL    HW126375   3.332   1.991   5.703  0.2662 -0.4413 -1.9423
 4914SOL    HW226376   3.255   1.887   5.645  0.6676  1.8237 -0.2730
 4915SOL     OW26377   4.319   0.711   6.938  0.0278 -0.2019  0.2058
 4915SOL    HW126378   4.270   0.786   6.972 -1.1164 -0.8189 -0.0672
 4915SOL    HW226379   4.240   0.661   6.917 -0.0719 -0.3414  0.9035
 4916SOL     OW26380   2.900   1.472   7.740 -0.5306  0.7325  0.7402
 4916SOL    HW126381   2.873   1.399   7.685  0.0393  0.2023  1.1757
 4916SOL    HW226382   2.960   1.522   7.684 -1.6240  0.1255 -0.9843
 4917SOL     OW26383   4.606   4.138   2.681  0.1019  0.1429  0.3569
 4917SOL    HW126384   4.609   4.233   2.676 -1.5250  0.1816  0.0746
 4917SOL    HW226385   4.586   4.129   2.774  0.1312 -4.2832 -0.0250
 4918SOL     OW26386   0.919   4.251   5.788  0.4924  0.1416  0.1950
 4918SOL    HW126387   0.923   4.186   5.718 -0.0021  0.9123 -0.5554
 4918SOL    HW226388   0.926   4.334   5.740  2.1576  1.2500  2.3587
 4919SOL     OW26389   3.994   2.419   5.871 -0.2099 -0.0127  0.6329
 4919SOL    HW126390   4.004   2.488   5.936  0.3931 -0.6879  1.2561
 4919SOL    HW226391   4.084   2.387   5.874  0.2136  0.9518 -1.8480
 4920SOL     OW26392   2.278   1.204   9.936  0.4306 -0.5900 -0.2723
 4920SOL    HW126393   2.263   1.111   9.919  1.8678 -0.6965 -0.9442
 4920SOL    HW226394   2.262   1.250   9.854  1.6527 -1.6503 -1.1058
 4921SOL     OW26395   0.415   4.294   9.687 -0.5554  0.3332  0.1050
 4921SOL    HW126396   0.322   4.297   9.666 -0.6122 -1.1853  0.1448
 4921SOL    HW226397   0.411   4.241   9.766 -0.5487  0.2454  0.0464
 4922SOL     OW26398   1.283   4.245  13.036 -0.0864 -0.6025  0.0575
 4922SOL    HW126399   1.232   4.206  12.965 -0.3215  0.4665 -0.3588
 4922SOL    HW226400   1.292   4.336  13.007 -0.4732 -0.3524  0.7302
 4923SOL     OW26401   4.290   1.840   2.268  0.6442 -0.6570  0.1385
 4923SOL    HW126402   4.303   1.757   2.314  0.8381 -0.2269  0.8557
 4923SOL    HW226403   4.323   1.893   2.340  0.6514 -0.4856  0.0075
 4924SOL     OW26404   1.723   0.728   8.020 -0.1327  0.2762  0.0318
 4924SOL    HW126405   1.714   0.747   8.113 -1.4974 -2.0595  0.4046
 4924SOL    HW226406   1.751   0.813   7.989 -1.5632  0.5080 -0.6505
 4925SOL     OW26407   3.027   0.610   4.441 -0.9537 -0.4751  0.0546
 4925SOL    HW126408   3.113   0.579   4.412 -0.6629 -0.1701  0.6003
 4925SOL    HW226409   3.060   0.679   4.499 -0.3479 -0.0865 -0.7580
 4926SOL     OW26410   1.130   1.744   1.888 -0.2719 -0.0134 -0.4858
 4926SOL    HW126411   1.130   1.796   1.968  1.7095  0.9989 -1.1440
 4926SOL    HW226412   1.214   1.699   1.900 -0.5675 -0.0628  1.3113
 4927SOL     OW26413   2.858   2.673   5.529 -0.3054 -0.4638  0.1779
 4927SOL    HW126414   2.925   2.608   5.510 -0.2763 -0.0476 -1.1484
 4927SOL    HW226415   2.828   2.640   5.614 -0.6500  0.4638  0.4170
 4928SOL     OW26416   1.780   4.068   0.103 -0.5160 -0.2247 -0.5663
 4928SOL    HW126417   1.828   4.066   0.020  0.5816 -0.1647  0.0606
 4928SOL    HW226418   1.694   4.043   0.071 -0.0913 -0.8607 -1.2218
 4929SOL     OW26419   2.329   4.336   6.099 -0.2546 -0.3542 -0.1845
 4929SOL    HW126420   2.355   4.247   6.077 -1.0207 -1.0785  1.8231
 4929SOL    HW226421   2.244   4.311   6.136  0.1143  1.9544  2.2188
 4930SOL     OW26422   4.082   2.706   1.167  0.3310  0.1450 -0.4686
 4930SOL    HW126423   4.148   2.689   1.100  0.8083 -1.8149  0.4958
 4930SOL    HW226424   4.030   2.625   1.171  1.7027 -0.7889 -1.8065
 4931SOL     OW26425   2.363   3.463  14.308 -0.0317  0.4238  0.0023
 4931SOL    HW126426   2.335   3.386  14.357 -1.1280  0.2888 -0.8242
 4931SOL    HW226427   2.447   3.489  14.346  0.5764 -0.1931 -0.8895
 4932SOL     OW26428   2.536   0.339   3.683 -0.1363  0.1949 -0.7476
 4932SOL    HW126429   2.544   0.415   3.625 -1.1300  1.2861  0.5381
 4932SOL    HW226430   2.552   0.267   3.623 -1.1966  0.2363 -1.0738
 4933SOL     OW26431   2.940   0.947   1.129 -0.1005 -0.2094  0.2098
 4933SOL    HW126432   2.971   0.872   1.078  0.6493  0.4151 -0.2547
 4933SOL    HW226433   3.021   0.990   1.157 -0.7236  0.0336  1.6567
 4934SOL     OW26434   3.869   1.068   2.323 -0.4639  0.1266 -0.2460
 4934SOL    HW126435   3.930   0.994   2.322 -1.8593 -1.0189 -0.0908
 4934SOL    HW226436   3.861   1.078   2.228  3.6335 -1.7038 -0.8066
 4935SOL     OW26437   1.395   3.171   1.983  0.3114  0.5848 -0.3308
 4935SOL    HW126438   1.316   3.164   2.036  1.2940 -1.2464  0.9188
 4935SOL    HW226439   1.455   3.199   2.053 -0.7568  0.7939  0.5082
 4936SOL     OW26440   4.321   4.056  17.132 -0.2835 -0.4940  0.1746
 4936SOL    HW126441   4.366   4.086  17.211 -0.6763  1.9865 -0.5375
 4936SOL    HW226442   4.239   4.022  17.167 -1.6283  1.2617 -1.2495
 4937SOL     OW26443   4.280   2.976   3.231  0.2450  0.4705  0.3434
 4937SOL    HW126444   4.258   2.961   3.139  0.8188 -1.1164  0.4683
 4937SOL    HW226445   4.366   2.935   3.226 -0.3663 -0.7840  0.0996
 4938SOL     OW26446   1.500   3.834   8.088  0.3248 -0.1596 -0.0350
 4938SOL    HW126447   1.430   3.865   8.031  0.5404 -0.0531 -0.2456
 4938SOL    HW226448   1.485   3.869   8.176  1.1531  3.2681 -1.2266
 4939SOL     OW26449   1.856   2.100   8.071 -0.7481  0.0673  0.4290
 4939SOL    HW126450   1.893   2.032   8.014 -1.8385  0.7560 -1.0806
 4939SOL    HW226451   1.936   2.142   8.102 -0.1251 -0.3583 -0.5917
 4940SOL     OW26452   0.220   2.770   7.784  0.6202  0.4411 -0.0855
 4940SOL    HW126453   0.193   2.786   7.694  0.8822  0.8232 -0.0952
 4940SOL    HW226454   0.239   2.676   7.773 -0.7138  0.1136  0.4107
 4941SOL     OW26455   3.937   3.644  10.565 -0.2610 -0.3936  0.1518
 4941SOL    HW126456   3.855   3.674  10.603 -1.8246 -1.0926 -2.7187
 4941SOL    HW226457   3.969   3.715  10.510 -0.9038 -0.2674 -0.0535
 4942SOL     OW26458   2.873   4.349   2.878  0.0683 -0.0557  0.1463
 4942SOL    HW126459   2.801   4.389   2.828 -0.7775 -0.7475  0.8265
 4942SOL    HW226460   2.936   4.317   2.813  1.5093 -0.8097  1.9086
 4943SOL     OW26461   3.109   1.573  16.421 -0.2716 -0.0188 -0.1004
 4943SOL    HW126462   3.194   1.616  16.414 -0.6550  0.3894 -2.1563
 4943SOL    HW226463   3.050   1.643  16.394 -0.1501 -0.0859 -0.5455
 4944SOL     OW26464   2.504   1.156  10.896 -0.3594 -0.4351 -0.3860
 4944SOL    HW126465   2.440   1.218  10.862 -1.2453 -1.8382 -1.2712
 4944SOL    HW226466   2.466   1.141  10.982  0.4306  1.3522  0.2833
 4945SOL     OW26467   1.173   1.279   7.074  0.0231 -0.1817 -0.0802
 4945SOL    HW126468   1.264   1.309   7.078 -0.0904  0.0438  0.7396
 4945SOL    HW226469   1.144   1.319   7.156 -0.3476  0.2011 -0.4008
 4946SOL     OW26470   3.862   2.628  11.578 -0.0428  0.0128  0.5521
 4946SOL    HW126471   3.875   2.702  11.519 -0.9846  0.4898  0.9571
 4946SOL    HW226472   3.949   2.632  11.618  0.7456  1.4145 -1.3070
 4947SOL     OW26473   0.749   2.221   5.591  0.9089  0.2704  0.8791
 4947SOL    HW126474   0.776   2.231   5.500 -1.5754 -2.1359 -0.1204
 4947SOL    HW226475   0.801   2.291   5.630  0.2871  1.2922 -0.1378
 4948SOL     OW26476   3.229   1.814  12.328 -0.3375 -0.0805  0.1205
 4948SOL    HW126477   3.302   1.875  12.317 -2.0441  2.0936  0.8678
 4948SOL    HW226478   3.273   1.768  12.400  0.1144  0.8101  0.4210
 4949SOL     OW26479   4.534   0.540   8.923  0.5235 -0.0916 -0.7920
 4949SOL    HW126480   4.577   0.528   9.008  0.6396 -0.5137 -0.9120
 4949SOL    HW226481   4.590   0.609   8.888  1.2064 -1.0002 -1.5061
 4950SOL     OW26482   4.458   0.380   8.150  0.8168  0.1035 -0.2089
 4950SOL    HW126483   4.510   0.353   8.226 -3.3497 -3.3620  1.4493
 4950SOL    HW226484   4.463   0.307   8.088  2.0901 -0.9657  1.1347
 4951SOL     OW26485   1.755   0.434   0.482 -0.1014 -0.5381  0.2857
 4951SOL    HW126486   1.832   0.479   0.518  0.0035 -0.6946  0.2561
 4951SOL    HW226487   1.755   0.473   0.394 -0.9677  0.8726  0.9220
 4952SOL     OW26488   1.169   3.598  15.575 -0.1390  0.3820 -0.0750
 4952SOL    HW126489   1.161   3.509  15.540  3.1281 -0.6985  1.9038
 4952SOL    HW226490   1.166   3.578  15.668  1.6230  0.3015 -0.0362
 4953SOL     OW26491   1.026   1.085   4.185 -0.9961 -0.2608  0.4487
 4953SOL    HW126492   1.078   1.019   4.138  2.1313  2.3254  0.2221
 4953SOL    HW226493   1.021   1.042   4.270 -2.2232  0.8265  0.9290
 4954SOL     OW26494   1.722   3.625  14.462  0.1681  0.2866  0.4491
 4954SOL    HW126495   1.655   3.681  14.423 -0.0076 -0.0808  0.2275
 4954SOL    HW226496   1.756   3.583  14.383  0.0363  2.5471 -0.8031
 4955SOL     OW26497   0.087   0.990   2.396 -0.6294 -0.3157 -0.5205
 4955SOL    HW126498   0.163   1.047   2.411 -0.9429 -0.2267  0.7333
 4955SOL    HW226499   0.103   0.944   2.314 -1.4592 -2.4286  0.4972
 4956SOL     OW26500   1.834   1.031   2.417  0.0213 -0.2024  0.1522
 4956SOL    HW126501   1.841   1.126   2.429 -0.7136 -0.0052 -0.9567
 4956SOL    HW226502   1.925   1.008   2.435 -0.1818 -1.7728 -0.8307
 4957SOL     OW26503   2.229   1.218  15.659 -0.3569  0.2131  0.5744
 4957SOL    HW126504   2.163   1.263  15.606 -1.2679  0.3618  1.8308
 4957SOL    HW226505   2.284   1.175  15.594  0.1929 -2.0396  2.5229
 4958SOL     OW26506   0.802   4.532  14.683  0.2940 -0.4517  0.6197
 4958SOL    HW126507   0.808   4.524  14.778 -0.6152 -1.2451  0.6179
 4958SOL    HW226508   0.817   4.439  14.665  0.1010 -0.0965 -1.3566
 4959SOL     OW26509   3.369   1.178   8.529  0.3092  0.2568  0.3263
 4959SOL    HW126510   3.287   1.219   8.503 -0.8652 -2.8082 -0.7649
 4959SOL    HW226511   3.382   1.108   8.466  3.9694  3.2204 -2.2197
 4960SOL     OW26512   3.777   1.318   5.794 -0.0672 -0.9332 -0.0179
 4960SOL    HW126513   3.861   1.320   5.747  0.4731 -1.2456  0.9329
 4960SOL    HW226514   3.800   1.264   5.870 -0.4400  1.5733  1.8847
 4961SOL     OW26515   0.951   0.664   9.125  0.1793 -0.0296  0.2945
 4961SOL    HW126516   0.929   0.650   9.217  1.5167 -2.7446  0.2011
 4961SOL    HW226517   0.993   0.582   9.101 -1.2908 -0.4320 -0.8575
 4962SOL     OW26518   4.564   3.893   4.801 -0.9664 -0.3112 -0.0747
 4962SOL    HW126519   4.633   3.870   4.739  0.3333  2.9318  0.1808
 4962SOL    HW226520   4.510   3.948   4.744 -0.4390  0.1814 -0.0985
 4963SOL     OW26521   1.798   2.095   9.045 -0.2367 -0.2946 -0.7623
 4963SOL    HW126522   1.804   2.000   9.041 -2.1405 -0.3594 -2.4200
 4963SOL    HW226523   1.730   2.109   8.979 -1.5721  0.1567  0.7034
 4964SOL     OW26524   3.343   2.523   5.057 -0.1382  0.2682  0.2210
 4964SOL    HW126525   3.417   2.467   5.081 -1.2939 -0.7780  1.3303
 4964SOL    HW226526   3.347   2.596   5.119 -0.1933  0.3180  0.1654
 4965SOL     OW26527   0.172   0.387   9.517 -0.2367  0.3378  0.4383
 4965SOL    HW126528   0.116   0.362   9.591  2.4576 -0.8879  2.0415
 4965SOL    HW226529   0.221   0.459   9.559  0.2697 -0.0364  0.4824
 4966SOL     OW26530   1.557   2.040   4.113 -0.4063 -0.6729 -0.3054
 4966SOL    HW126531   1.580   2.007   4.026  2.9170 -0.4189  0.4679
 4966SOL    HW226532   1.647   2.045   4.147 -0.0079  0.4110 -1.5253
 4967SOL     OW26533   0.055   1.147   5.962 -0.1763 -0.6531  0.0540
 4967SOL    HW126534   4.727   1.103   6.011 -1.5368  1.1580 -0.2348
 4967SOL    HW226535   0.030   1.131   5.871 -0.8226  0.8395 -0.0319
 4968SOL     OW26536   1.121   3.459   2.850 -0.0686  0.3175  0.4033
 4968SOL    HW126537   1.095   3.540   2.806 -1.4878 -0.1825  0.2946
 4968SOL    HW226538   1.055   3.402   2.809 -2.3570  1.5168  2.4409
 4969SOL     OW26539   3.436   1.572   9.755  0.0173 -0.0864 -0.4059
 4969SOL    HW126540   3.433   1.510   9.683  0.1091 -0.5670  0.0062
 4969SOL    HW226541   3.507   1.524   9.797  1.9657  1.8899 -1.4531
 4970SOL     OW26542   1.550   2.215   9.335  0.4286 -0.4879  0.0189
 4970SOL    HW126543   1.517   2.200   9.246  0.8934 -0.3534 -0.1798
 4970SOL    HW226544   1.576   2.128   9.363  0.4279 -0.2951  0.6282
 4971SOL     OW26545   0.783   4.058  13.579 -0.0912  0.7185 -0.1237
 4971SOL    HW126546   0.721   4.017  13.518  0.9960  0.3014 -0.9389
 4971SOL    HW226547   0.865   4.060  13.530  0.8013  1.1425  1.3827
 4972SOL     OW26548   3.848   0.950   2.916  0.2643  0.4313  0.4700
 4972SOL    HW126549   3.871   0.903   2.997  1.6597 -2.0936 -1.4074
 4972SOL    HW226550   3.844   0.879   2.852 -0.2724 -1.2716  2.3983
 4973SOL     OW26551   1.767   1.991  13.268  0.3864 -0.0457 -0.4220
 4973SOL    HW126552   1.764   1.897  13.285 -0.2951 -0.0130 -0.3563
 4973SOL    HW226553   1.700   2.003  13.200 -1.5822 -0.4977  1.4511
 4974SOL     OW26554   2.552   1.431   6.924  0.1237 -0.1621 -0.1583
 4974SOL    HW126555   2.537   1.356   6.982 -1.2189  0.3164  0.1163
 4974SOL    HW226556   2.459   1.441   6.906 -0.0103 -0.9547  0.0868
 4975SOL     OW26557   4.168   0.416   9.381  0.0628  0.6599 -0.2875
 4975SOL    HW126558   4.181   0.336   9.431 -0.8687  0.8787  0.3007
 4975SOL    HW226559   4.122   0.391   9.300  1.8209  1.0333 -1.4125
 4976SOL     OW26560   4.343   2.355   2.616  0.0624  0.2666 -0.0713
 4976SOL    HW126561   4.426   2.309   2.623 -0.1384 -0.0741  0.1095
 4976SOL    HW226562   4.343   2.381   2.708 -0.3671  0.3184 -0.0852
 4977SOL     OW26563   3.694   4.671   8.419 -0.0546 -0.0171  0.5293
 4977SOL    HW126564   3.780   4.630   8.409 -0.9046 -1.6660 -0.0358
 4977SOL    HW226565   3.700   0.001   8.355 -0.0443 -0.4281  0.0721
 4978SOL     OW26566   2.483   1.353  16.429 -0.3504 -0.0033 -0.2044
 4978SOL    HW126567   2.472   1.304  16.348 -3.3175 -3.1422  2.0457
 4978SOL    HW226568   2.539   1.421  16.392 -1.2703  1.0533  0.3535
 4979SOL     OW26569   2.066   2.813   6.607  0.2244  0.3906 -0.0990
 4979SOL    HW126570   2.148   2.789   6.650  0.0881 -1.8069 -1.0729
 4979SOL    HW226571   2.035   2.731   6.569  2.2628 -0.6653  0.4782
 4980SOL     OW26572   1.797   2.552  11.476 -0.4477  0.4272 -0.3410
 4980SOL    HW126573   1.891   2.551  11.492 -0.4132 -2.4777 -0.6974
 4980SOL    HW226574   1.783   2.500  11.397 -1.1990 -0.3312  0.2899
 4981SOL     OW26575   1.732   0.042   0.379  0.0657  0.5886 -0.0049
 4981SOL    HW126576   1.740   4.695   0.344 -2.1195  0.2632  0.3194
 4981SOL    HW226577   1.713   0.101   0.306  0.9458 -0.3285 -0.9871
 4982SOL     OW26578   4.461   4.128   7.674  0.5976 -0.8037  0.2141
 4982SOL    HW126579   4.434   4.145   7.584 -1.8333  1.6513  1.3932
 4982SOL    HW226580   4.382   4.088   7.711 -0.0343  0.2412  0.0032
 4983SOL     OW26581   4.445   0.171   7.935 -0.0672 -0.5707  0.5453
 4983SOL    HW126582   4.461   0.198   7.845 -1.7211  0.4947  0.5519
 4983SOL    HW226583   4.470   0.079   7.923  1.8308  0.0930 -0.4804
 4984SOL     OW26584   1.782   4.553   0.090 -0.2438  0.1986 -0.6696
 4984SOL    HW126585   1.828   4.475   0.061  0.3099  0.1837  0.2528
 4984SOL    HW226586   1.842   4.618   0.055  0.6568  0.8880  2.1460
 4985SOL     OW26587   2.082   2.200   5.133 -0.4305  0.2115 -0.1231
 4985SOL    HW126588   2.001   2.172   5.091 -1.2181  2.6037 -0.2175
 4985SOL    HW226589   2.107   2.261   5.064 -1.4756 -1.5550 -2.0549
 4986SOL     OW26590   0.301   0.575   1.644 -0.8925 -0.1433  0.2458
 4986SOL    HW126591   0.265   0.643   1.700 -2.5394 -0.9270  0.1305
 4986SOL    HW226592   0.225   0.525   1.615 -1.5639  1.2103 -0.2907
 4987SOL     OW26593   0.115   1.409   8.112 -0.3459 -0.9048  0.4273
 4987SOL    HW126594   0.087   1.487   8.064 -1.3883 -1.7882 -0.4020
 4987SOL    HW226595   0.070   1.341   8.062 -1.0092 -0.8899  0.9942
 4988SOL     OW26596   1.867   1.596   8.915 -0.2786 -0.2658  0.5246
 4988SOL    HW126597   1.948   1.583   8.866 -0.0400  1.7321  0.3834
 4988SOL    HW226598   1.815   1.532   8.866  0.6762 -0.0680 -0.7381
 4989SOL     OW26599   1.072   1.595  11.179  0.0453 -0.5663 -0.1596
 4989SOL    HW126600   1.114   1.558  11.256  0.3793  1.5365  0.6579
 4989SOL    HW226601   1.055   1.685  11.207  0.9756 -1.6275  3.8207
 4990SOL     OW26602   4.119   2.586   6.483  0.2799  0.6165 -0.0119
 4990SOL    HW126603   4.046   2.617   6.429 -0.9049  0.5258  1.5266
 4990SOL    HW226604   4.146   2.675   6.507  1.1159  1.1312 -2.8365
 4991SOL     OW26605   3.485   0.457   7.601  0.4999  0.0565 -0.0509
 4991SOL    HW126606   3.431   0.473   7.679  2.6830  0.9415  1.3025
 4991SOL    HW226607   3.559   0.435   7.657  2.9674  0.0015 -3.3274
 4992SOL     OW26608   4.210   0.514  12.233  0.2021  0.4705  0.3164
 4992SOL    HW126609   4.303   0.502  12.211 -0.0847  1.2281 -1.3057
 4992SOL    HW226610   4.205   0.542  12.324 -1.0630  1.2494  0.0015
 4993SOL     OW26611   1.789   0.012   2.651  0.6217  0.0358  0.1770
 4993SOL    HW126612   1.740   0.092   2.671 -0.3949 -0.0986 -1.8125
 4993SOL    HW226613   1.881   0.039   2.659  0.4124  0.5582  0.8183
 4994SOL     OW26614   2.183   3.873   3.235  0.3578  0.4732  0.5008
 4994SOL    HW126615   2.117   3.826   3.286 -1.5141  1.3869 -1.0713
 4994SOL    HW226616   2.184   3.958   3.280  1.0830  0.4773  0.4694
 4995SOL     OW26617   2.688   2.841   7.817  0.5096 -0.3385 -0.1170
 4995SOL    HW126618   2.655   2.777   7.881  0.2743 -1.7326 -1.6401
 4995SOL    HW226619   2.747   2.789   7.763  2.0980  0.2595  1.0285
 4996SOL     OW26620   4.427   3.866   9.265 -0.0498 -0.4137 -0.1951
 4996SOL    HW126621   4.368   3.794   9.243  0.9861 -0.3894 -3.0481
 4996SOL    HW226622   4.407   3.931   9.197 -0.3179  0.5186  0.7782
 4997SOL     OW26623   4.488   4.547  15.422 -0.2651 -0.1679 -0.0877
 4997SOL    HW126624   4.448   4.463  15.401 -0.0561 -0.7797  1.9121
 4997SOL    HW226625   4.579   4.539  15.392  0.2230 -0.8587  1.5595
 4998SOL     OW26626   3.486   1.748  17.501 -0.2911 -0.3114  0.0317
 4998SOL    HW126627   3.553   1.680  17.493  1.1218  0.7360  2.9486
 4998SOL    HW226628   3.497   1.799  17.421  0.3329 -0.6997 -0.1308
 4999SOL     OW26629   4.418   3.042   4.725  0.1717  0.3186  0.1535
 4999SOL    HW126630   4.356   2.991   4.673  0.4900 -1.1582  1.2130
 4999SOL    HW226631   4.374   3.113   4.770 -0.4352 -0.0552  0.1527
 5000SOL     OW26632   3.797   1.996   9.245 -0.2477 -0.2336  0.4722
 5000SOL    HW126633   3.711   1.966   9.216 -0.3608 -0.4092  0.9950
 5000SOL    HW226634   3.851   1.956   9.177 -0.9069  1.3148 -0.9615
 5001SOL     OW26635   2.225   1.397   6.135 -0.3455  0.1008  0.1261
 5001SOL    HW126636   2.197   1.329   6.195 -1.9209 -0.7563 -1.5860
 5001SOL    HW226637   2.290   1.445   6.187 -0.0214 -0.5083  0.2719
 5002SOL     OW26638   1.056   1.382   5.401 -0.3131  0.1512 -0.0585
 5002SOL    HW126639   1.021   1.457   5.450 -0.7082  0.0980 -0.2556
 5002SOL    HW226640   1.026   1.312   5.459  0.4610  0.2223  0.4233
 5003SOL     OW26641   3.294   4.288   4.546 -0.2892 -0.3422  0.3770
 5003SOL    HW126642   3.221   4.235   4.580 -0.1621  0.0337  1.2223
 5003SOL    HW226643   3.245   4.333   4.478  1.6807  1.3136  0.0600
 5004SOL     OW26644   3.419   1.450   8.495  0.5998  0.2607  0.1592
 5004SOL    HW126645   3.426   1.462   8.590  3.6837 -1.0625  0.0888
 5004SOL    HW226646   3.409   1.355   8.492  0.1445  0.2790  0.9898
 5005SOL     OW26647   1.189   2.294   4.946  0.0636  0.2249 -0.1935
 5005SOL    HW126648   1.106   2.268   4.985  0.7347 -0.9379  0.4818
 5005SOL    HW226649   1.245   2.286   5.023 -0.9755 -2.0225  0.3275
 5006SOL     OW26650   0.220   1.734   7.793  0.3249  0.7756  0.4762
 5006SOL    HW126651   0.263   1.819   7.795 -0.5967  1.2409  0.2776
 5006SOL    HW226652   0.160   1.769   7.727 -1.7345 -1.8801  0.9332
 5007SOL     OW26653   1.322   2.477   7.077  0.2958 -0.3869  0.0002
 5007SOL    HW126654   1.351   2.474   7.168 -0.6112 -2.4211  0.1995
 5007SOL    HW226655   1.229   2.461   7.087  0.4510 -1.3763 -0.2012
 5008SOL     OW26656   0.127   3.349   7.365 -0.0182  0.0557  0.2976
 5008SOL    HW126657   0.041   3.377   7.335  0.5517  0.9126 -0.5013
 5008SOL    HW226658   0.112   3.254   7.361 -1.2424  0.2025  1.4038
 5009SOL     OW26659   1.716   2.379  12.830 -0.2063  0.5433 -0.0534
 5009SOL    HW126660   1.750   2.362  12.743  0.9274  1.6560  0.1658
 5009SOL    HW226661   1.672   2.297  12.850 -1.5386  1.4380  0.6947
 5010SOL     OW26662   1.789   1.632  14.506 -0.6118  0.6387 -0.2092
 5010SOL    HW126663   1.856   1.567  14.489 -1.2815  0.5255 -2.4612
 5010SOL    HW226664   1.833   1.666  14.584 -1.3030  0.1488  0.3972
 5011SOL     OW26665   3.065   3.703   3.658  0.1901  0.1273  0.2837
 5011SOL    HW126666   3.092   3.625   3.707 -1.6166 -0.7719 -0.1506
 5011SOL    HW226667   3.022   3.665   3.582 -0.6832 -0.1284  0.9025
 5012SOL     OW26668   2.484   2.942   1.105 -0.1741  0.1813  0.1715
 5012SOL    HW126669   2.520   2.958   1.018 -0.1426  1.8039  0.4906
 5012SOL    HW226670   2.420   3.012   1.105 -1.0138 -0.5887 -0.1182
 5013SOL     OW26671   3.103   1.399   3.480  0.2300 -0.0556 -0.3719
 5013SOL    HW126672   3.021   1.350   3.471 -1.5433  3.0439 -0.9480
 5013SOL    HW226673   3.139   1.365   3.562  1.5572  0.0312 -0.9182
 5014SOL     OW26674   4.175   3.000   6.228 -0.2860  0.8836  0.1812
 5014SOL    HW126675   4.266   3.015   6.255  0.8654 -3.1943 -1.4024
 5014SOL    HW226676   4.122   3.047   6.292 -1.6387 -1.8716  1.0880
 5015SOL     OW26677   0.466   4.523   4.081 -0.1149  0.1450  0.4892
 5015SOL    HW126678   0.439   4.440   4.041  1.8615  0.6421 -1.8191
 5015SOL    HW226679   0.390   4.548   4.134  0.8472  0.3834  1.7609
 5016SOL     OW26680   3.816   0.711   8.212  0.2359 -0.3472  0.6704
 5016SOL    HW126681   3.878   0.773   8.252 -0.0290 -0.7148  1.6309
 5016SOL    HW226682   3.756   0.685   8.281  0.1247 -3.5115 -0.6459
 5017SOL     OW26683   3.133   3.115   9.070 -0.6553 -0.1296 -0.1144
 5017SOL    HW126684   3.168   3.033   9.105  0.8503  0.6001  0.0704
 5017SOL    HW226685   3.166   3.179   9.133  0.6848  0.4795 -1.4218
 5018SOL     OW26686   3.848   1.361   0.507 -0.4061 -0.3263 -1.0430
 5018SOL    HW126687   3.795   1.305   0.563  0.6244  0.0320  0.2890
 5018SOL    HW226688   3.849   1.443   0.555 -2.5798 -1.3094  0.6487
 5019SOL     OW26689   2.189   3.894  16.980 -0.2298  0.3220 -0.0555
 5019SOL    HW126690   2.155   3.919  17.066 -1.2056  0.5217 -0.4939
 5019SOL    HW226691   2.245   3.819  17.000 -2.3933 -1.2476  0.1624
 5020SOL     OW26692   4.038   0.093   7.641 -0.5110  0.1872  0.4931
 5020SOL    HW126693   3.991   0.010   7.642  1.0106 -0.6904 -0.0579
 5020SOL    HW226694   4.073   0.074   7.728 -1.0039  0.5945  0.7804
 5021SOL     OW26695   0.826   1.233   8.902  0.5868  0.0266 -0.1924
 5021SOL    HW126696   0.824   1.174   8.978  0.8839  1.3471  0.8495
 5021SOL    HW226697   0.798   1.311   8.951  0.0144 -0.6042  0.4670
 5022SOL     OW26698   0.167   0.954   4.657  0.6213 -0.5057 -0.7853
 5022SOL    HW126699   0.205   0.920   4.576 -0.4399  0.3465 -1.6327
 5022SOL    HW226700   0.082   0.986   4.628  0.8019  1.5511  0.9434
 5023SOL     OW26701   1.579   2.152  12.848  0.4323 -0.9755 -0.3181
 5023SOL    HW126702   1.494   2.109  12.841 -0.2342  0.2359  0.4168
 5023SOL    HW226703   1.626   2.085  12.898 -2.0443 -3.4526 -1.3248
 5024SOL     OW26704   2.321   4.240  14.546  0.4063  0.4730  0.2411
 5024SOL    HW126705   2.248   4.180  14.560  0.5774  0.5653  1.5318
 5024SOL    HW226706   2.372   4.182  14.489 -1.9787 -1.1366 -0.2716
 5025SOL     OW26707   2.839   3.565   6.243  0.0403  0.6859 -0.3864
 5025SOL    HW126708   2.891   3.488   6.218  2.5167  2.6440 -1.1804
 5025SOL    HW226709   2.905   3.628   6.271  0.9936 -0.5337  0.1171
 5026SOL     OW26710   2.878   2.605   6.061 -0.6340 -0.1123 -0.2027
 5026SOL    HW126711   2.963   2.566   6.081 -0.2306  0.7528 -0.2034
 5026SOL    HW226712   2.869   2.603   5.965 -1.0287  0.9999 -0.1943
 5027SOL     OW26713   3.489   0.303   6.594 -0.1819 -0.6784  0.0295
 5027SOL    HW126714   3.502   0.395   6.618 -0.7203 -1.1629  2.1814
 5027SOL    HW226715   3.520   0.264   6.676 -0.9013 -1.9459 -0.3084
 5028SOL     OW26716   2.108   1.947  12.109 -0.2849 -0.4422 -0.0049
 5028SOL    HW126717   2.047   1.889  12.063  0.1077 -1.9108  1.3284
 5028SOL    HW226718   2.115   1.908  12.196  0.5255  2.1791  1.1221
 5029SOL     OW26719   1.979   1.471   3.159 -0.2721 -0.3918 -0.6034
 5029SOL    HW126720   1.973   1.550   3.213 -1.0283 -1.7676  1.3159
 5029SOL    HW226721   2.072   1.448   3.159 -0.7768 -2.4683  1.0481
 5030SOL     OW26722   2.282   2.002  15.418  0.0461  0.3256 -0.0644
 5030SOL    HW126723   2.191   1.972  15.408 -0.6342  1.8411  1.3756
 5030SOL    HW226724   2.273   2.076  15.478 -1.2826 -0.9993  1.4043
 5031SOL     OW26725   2.414   1.524   6.278 -0.1854 -0.1480  0.1247
 5031SOL    HW126726   2.433   1.506   6.370  1.8297 -0.5979 -0.3785
 5031SOL    HW226727   2.418   1.619   6.268  2.6008 -0.2406  0.4732
 5032SOL     OW26728   3.001   0.354   2.495 -0.5375  0.3634 -0.3699
 5032SOL    HW126729   2.935   0.333   2.429 -3.1807 -0.9813  2.6875
 5032SOL    HW226730   2.995   0.271   2.542  0.0592  0.1145 -0.7333
 5033SOL     OW26731   1.139   0.878   4.055 -0.2344 -0.3487 -0.0197
 5033SOL    HW126732   1.195   0.816   4.102 -0.5220  0.6144  1.5733
 5033SOL    HW226733   1.079   0.814   4.017 -1.8179  1.3981 -0.4523
 5034SOL     OW26734   1.015   2.587   7.360 -0.2629 -0.5006  0.1377
 5034SOL    HW126735   1.048   2.551   7.442  2.1087  0.4990 -0.3744
 5034SOL    HW226736   0.925   2.617   7.375  0.0555 -0.0693  1.2128
 5035SOL     OW26737   0.547   2.216   6.277  0.0024 -0.3270 -0.5826
 5035SOL    HW126738   0.561   2.269   6.355 -1.1804 -1.7566  0.6138
 5035SOL    HW226739   0.562   2.129   6.315 -3.4631  0.4049  2.4507
 5036SOL     OW26740   2.541   3.119  17.106 -0.5387 -0.0897  0.3661
 5036SOL    HW126741   2.573   3.086  17.021 -0.1877  1.8486 -0.2553
 5036SOL    HW226742   2.615   3.174  17.131 -1.1933  0.3275  1.3889
 5037SOL     OW26743   3.504   3.336   5.359  0.2583  0.1148  0.0460
 5037SOL    HW126744   3.472   3.369   5.444 -0.0089  0.4223 -0.1729
 5037SOL    HW226745   3.540   3.413   5.315  0.1950  0.5181  0.6947
 5038SOL     OW26746   3.141   2.487   6.154  0.3053  0.2043  0.1220
 5038SOL    HW126747   3.185   2.571   6.138  1.6929 -0.9094 -2.0776
 5038SOL    HW226748   3.215   2.426   6.159 -0.7581 -1.0848  0.1881
 5039SOL     OW26749   4.477   0.746   2.838 -0.6623 -0.1350 -0.4466
 5039SOL    HW126750   4.502   0.830   2.875  0.1926 -1.2111  1.4576
 5039SOL    HW226751   4.478   0.755   2.743 -0.4749 -3.7940 -0.7941
 5040SOL     OW26752   2.341   4.096   5.134  0.4110  0.1691 -0.1171
 5040SOL    HW126753   2.432   4.127   5.134  0.6394 -0.4900  2.8993
 5040SOL    HW226754   2.360   4.003   5.146  0.2041  0.2194  0.6041
 5041SOL     OW26755   0.950   0.098   7.784 -0.0551  0.4117  0.0560
 5041SOL    HW126756   0.882   0.036   7.760 -1.0729  1.0267  1.3517
 5041SOL    HW226757   1.016   0.093   7.715 -1.8996 -0.1642 -1.6420
 5042SOL     OW26758   3.977   2.085   7.229 -0.6741  0.0315  0.0422
 5042SOL    HW126759   4.070   2.101   7.211 -0.6635 -0.7245 -0.5667
 5042SOL    HW226760   3.976   1.998   7.269  2.9999 -0.3487 -0.7513
 5043SOL     OW26761   0.576   0.522   0.016  0.0354  0.1096 -0.1149
 5043SOL    HW126762   0.534   0.530   0.102  0.7734  1.4922  0.1133
 5043SOL    HW226763   0.638   0.595   0.018 -0.6239  0.6777 -0.4547
 5044SOL     OW26764   4.741   1.537   4.033 -0.5467 -0.2912 -0.3023
 5044SOL    HW126765   0.089   1.572   4.027 -1.0917  1.4524  1.5631
 5044SOL    HW226766   0.014   1.448   4.066  0.3011 -0.2228 -0.4722
 5045SOL     OW26767   2.555   4.007   7.849 -0.1396  0.0816 -0.2716
 5045SOL    HW126768   2.495   4.047   7.912  0.4332  0.2407  0.1689
 5045SOL    HW226769   2.486   3.972   7.792 -0.0932  0.6958 -0.7077
 5046SOL     OW26770   4.637   0.408   5.215  0.3216  1.0314  0.3329
 5046SOL    HW126771   4.679   0.325   5.195  0.6741  1.5691 -1.2114
 5046SOL    HW226772   4.708   0.472   5.227  0.2213  1.2245 -0.1121
 5047SOL     OW26773   2.062   2.856   5.713  0.9731 -0.7019  0.6964
 5047SOL    HW126774   2.135   2.828   5.658  1.0810  0.5345  0.2176
 5047SOL    HW226775   2.010   2.895   5.643  1.2668 -1.4206  0.0802
 5048SOL     OW26776   0.498   2.884  10.346 -0.2970 -0.5947  0.2702
 5048SOL    HW126777   0.424   2.878  10.286  0.7394  1.2402 -1.2254
 5048SOL    HW226778   0.521   2.977  10.341  1.1810 -1.0426 -1.1543
 5049SOL     OW26779   2.705   0.387   5.360 -0.0518 -0.4336  0.4098
 5049SOL    HW126780   2.689   0.446   5.433 -0.2822  0.4143 -0.3156
 5049SOL    HW226781   2.739   0.309   5.403  1.1546  0.4647  1.0846
 5050SOL     OW26782   4.164   1.776   4.265  0.4418  0.4798 -0.1162
 5050SOL    HW126783   4.210   1.727   4.333  0.0975 -1.0857 -0.9885
 5050SOL    HW226784   4.223   1.851   4.259  0.8318  0.2361  0.6912
 5051SOL     OW26785   4.015   2.361  13.282  0.2159  0.3692  0.6603
 5051SOL    HW126786   3.933   2.319  13.255  0.0327  0.7501  0.6268
 5051SOL    HW226787   4.000   2.380  13.374 -2.0326 -0.7259  0.5485
 5052SOL     OW26788   4.498   1.370   4.851  0.1658  0.0561  0.1616
 5052SOL    HW126789   4.446   1.451   4.852 -1.0436 -0.6902 -1.7027
 5052SOL    HW226790   4.436   1.305   4.883  0.4536  0.4046  1.4368
 5053SOL     OW26791   0.821   1.705  10.274  0.0241  0.7250 -0.2966
 5053SOL    HW126792   0.857   1.681  10.189 -0.9114  0.8179 -0.7204
 5053SOL    HW226793   0.830   1.800  10.267  3.0116  0.6208  2.1824
 5054SOL     OW26794   0.410   4.293   8.207  0.1758 -0.0704  0.0540
 5054SOL    HW126795   0.488   4.273   8.258 -0.1377  1.1464  1.0204
 5054SOL    HW226796   0.414   4.388   8.196  2.9632 -0.3549 -1.3410
 5055SOL     OW26797   0.075   1.376   4.841  0.3644 -0.4810  0.1856
 5055SOL    HW126798   0.099   1.344   4.754 -1.2823  0.0080 -0.4547
 5055SOL    HW226799   4.720   1.372   4.838  0.3701 -0.7408  0.3938
 5056SOL     OW26800   3.324   0.479   2.919  0.4305 -0.3510  0.3624
 5056SOL    HW126801   3.389   0.542   2.888  2.1073 -1.7315  1.0727
 5056SOL    HW226802   3.299   0.529   2.997 -0.6874  0.1092 -0.2836
 5057SOL     OW26803   4.157   4.707   7.018  0.4135 -0.0398  0.4525
 5057SOL    HW126804   4.245   4.740   7.037  0.0173  0.9351  0.5759
 5057SOL    HW226805   4.107   0.015   7.083  1.3498  0.0048  1.1411
 5058SOL     OW26806   1.060   3.033   9.621  0.2815  0.5118  0.0549
 5058SOL    HW126807   0.988   2.996   9.570 -0.7636  0.9562  1.2233
 5058SOL    HW226808   1.025   3.096   9.684  2.4975  0.3157  1.4801
 5059SOL     OW26809   2.049   3.195   7.626  0.2384  0.3828  0.3416
 5059SOL    HW126810   2.039   3.240   7.710 -1.0413 -0.8065  0.8298
 5059SOL    HW226811   2.122   3.135   7.637 -0.2777 -0.5282 -1.0648
 5060SOL     OW26812   1.521   1.943   5.352 -0.1818  0.1248 -0.2846
 5060SOL    HW126813   1.441   1.901   5.320 -0.2553  1.1204 -1.4250
 5060SOL    HW226814   1.545   1.868   5.406  1.8246  0.0550 -1.2872
 5061SOL     OW26815   4.354   2.633   3.130  0.1384  0.3191  0.4180
 5061SOL    HW126816   4.322   2.633   3.040  0.3257 -2.0868  0.3337
 5061SOL    HW226817   4.405   2.711   3.149 -0.6769  1.5175 -2.3712
 5062SOL     OW26818   1.220   0.885   7.057  0.3284  0.6696 -0.1313
 5062SOL    HW126819   1.248   0.938   7.132 -1.1663  1.5780 -0.2347
 5062SOL    HW226820   1.253   0.933   6.981  0.1932 -1.9030 -1.7986
 5063SOL     OW26821   0.393   0.353   4.353 -0.5868 -0.0135 -0.2264
 5063SOL    HW126822   0.479   0.331   4.319 -0.8507 -0.3821 -0.6519
 5063SOL    HW226823   0.356   0.385   4.271 -1.4076  0.3802  0.2945
 5064SOL     OW26824   2.231   1.231  12.677  0.4400 -0.2252 -0.1243
 5064SOL    HW126825   2.269   1.244  12.764 -1.0766  0.6193  0.4048
 5064SOL    HW226826   2.306   1.247  12.619 -0.6230  0.5348 -1.2753
 5065SOL     OW26827   3.701   0.310  17.226 -0.3240  0.2136 -0.0006
 5065SOL    HW126828   3.791   0.334  17.248 -1.0264  1.4360  1.5274
 5065SOL    HW226829   3.705   0.230  17.174  0.7821 -0.7103  1.5160
 5066SOL     OW26830   0.140   0.368   6.064  0.5881  0.5618  0.0382
 5066SOL    HW126831   0.066   0.424   6.086 -0.7512 -0.8251 -0.9248
 5066SOL    HW226832   0.210   0.434   6.063 -0.7480  1.9669 -0.3613
 5067SOL     OW26833   1.024   0.816   2.061  0.0834 -0.4820 -0.1910
 5067SOL    HW126834   1.109   0.855   2.080  0.0233 -0.3817 -0.1297
 5067SOL    HW226835   1.048   0.727   2.036  0.6186  0.4049 -2.8589
 5068SOL     OW26836   4.356   2.708  16.824 -0.5163  0.2672 -0.5271
 5068SOL    HW126837   4.274   2.758  16.832 -0.4672  0.1390  0.7141
 5068SOL    HW226838   4.356   2.675  16.913 -0.9660 -0.0037 -0.6272
 5069SOL     OW26839   2.262   3.337  14.900  0.3487  0.6320 -0.3750
 5069SOL    HW126840   2.187   3.388  14.868 -0.0527  1.0735  1.2614
 5069SOL    HW226841   2.329   3.351  14.832  1.0798 -1.0363 -0.0028
 5070SOL     OW26842   1.627   3.800   6.589  0.1349 -0.2535  0.3558
 5070SOL    HW126843   1.674   3.751   6.521 -0.7369 -2.4140  1.2881
 5070SOL    HW226844   1.697   3.844   6.637  0.5566  0.1785 -0.6520
 5071SOL     OW26845   3.977   0.911   5.333  0.4916  0.4998 -0.3080
 5071SOL    HW126846   4.067   0.943   5.330  1.2482 -1.7511 -1.6654
 5071SOL    HW226847   3.946   0.920   5.243  1.0329 -1.5633 -0.7076
 5072SOL     OW26848   3.087   1.582   2.223  0.4273 -0.0659  0.2048
 5072SOL    HW126849   2.999   1.588   2.259  1.5831 -1.1933  3.1582
 5072SOL    HW226850   3.073   1.551   2.133  1.4230  1.7690 -0.5922
 5073SOL     OW26851   2.465   3.119   7.215 -0.6187  0.6285 -0.2341
 5073SOL    HW126852   2.412   3.191   7.248 -0.6568 -0.3067  1.7560
 5073SOL    HW226853   2.539   3.141   7.270  0.6082 -1.6290 -0.9595
 5074SOL     OW26854   3.640   4.591   4.039  0.1596  0.0748 -0.2608
 5074SOL    HW126855   3.622   4.554   3.952 -0.7077 -0.9159  0.3382
 5074SOL    HW226856   3.566   4.549   4.084 -0.0449  0.7259  0.0039
 5075SOL     OW26857   3.948   2.073   4.170 -0.2759 -0.3575  0.1078
 5075SOL    HW126858   3.928   2.030   4.254 -0.0358  1.4027  1.0649
 5075SOL    HW226859   3.889   2.030   4.108  0.6502 -2.0256  0.3702
 5076SOL     OW26860   3.292   1.072   1.706  0.1593  0.1598  0.1152
 5076SOL    HW126861   3.221   1.108   1.759 -0.3543 -1.6737  0.6817
 5076SOL    HW226862   3.253   0.993   1.667 -1.4733  1.3298 -0.6384
 5077SOL     OW26863   2.326   0.694   1.591  0.1872  0.5472 -0.2412
 5077SOL    HW126864   2.411   0.720   1.554  0.1330  0.6554 -0.2881
 5077SOL    HW226865   2.303   0.781   1.622 -0.5255 -0.3413  1.7171
 5078SOL     OW26866   0.033   0.067  16.894 -0.2421  0.7700 -0.1566
 5078SOL    HW126867   0.027   4.714  16.908  0.2487  0.6837 -0.5337
 5078SOL    HW226868   4.685   0.101  16.899 -0.3125  0.6200 -0.4033
 5079SOL     OW26869   0.132   3.387  13.446  0.0685  0.0289 -0.2829
 5079SOL    HW126870   0.116   3.470  13.493  2.0483 -0.4536  1.2287
 5079SOL    HW226871   0.195   3.335  13.495  0.3101  0.3776 -0.2220
 5080SOL     OW26872   4.342   4.204   8.821  0.2421 -0.6260 -0.0517
 5080SOL    HW126873   4.300   4.279   8.778  0.5411 -0.3238  0.1863
 5080SOL    HW226874   4.321   4.141   8.752 -2.9122  0.7469 -0.3911
 5081SOL     OW26875   3.790   0.696   5.481  0.0745 -0.2081  0.2729
 5081SOL    HW126876   3.776   0.777   5.530  4.4865  0.2518  0.8107
 5081SOL    HW226877   3.762   0.743   5.402 -0.5141  1.0709  1.2489
 5082SOL     OW26878   0.400   1.601   6.046  0.0387 -0.2529  0.3521
 5082SOL    HW126879   0.468   1.636   6.103  0.0628 -1.0138  0.7917
 5082SOL    HW226880   0.412   1.506   6.041  0.6837 -0.0924 -1.3238
 5083SOL     OW26881   2.181   0.785  16.915 -0.2088 -0.0369 -0.1188
 5083SOL    HW126882   2.193   0.713  16.854  2.5407 -0.7121  1.2501
 5083SOL    HW226883   2.243   0.846  16.875 -1.2454  1.2562  0.2099
 5084SOL     OW26884   2.380   1.472  15.572 -0.0835  0.0306 -0.8815
 5084SOL    HW126885   2.460   1.444  15.527  0.9480 -1.3529  1.7887
 5084SOL    HW226886   2.334   1.388  15.584 -0.7568  0.1727 -2.4829
 5085SOL     OW26887   3.433   3.304   4.806 -0.1384  1.1246 -0.1910
 5085SOL    HW126888   3.389   3.378   4.765 -1.1524  0.3626 -0.5035
 5085SOL    HW226889   3.408   3.230   4.750  3.1378 -0.0723 -0.0791
 5086SOL     OW26890   0.749   3.953  10.425 -0.4824 -0.0564  0.0676
 5086SOL    HW126891   0.747   4.048  10.429 -0.4180 -0.0651  0.2874
 5086SOL    HW226892   0.708   3.934  10.509 -1.1396 -0.4516 -0.3425
 5087SOL     OW26893   4.141   2.540   5.275  0.1590  0.1818 -0.2289
 5087SOL    HW126894   4.075   2.494   5.326  1.4111 -1.4624 -0.0761
 5087SOL    HW226895   4.133   2.485   5.197 -0.2806  0.3472 -0.2985
 5088SOL     OW26896   4.651   4.204   8.845  0.4152 -0.2931  0.0213
 5088SOL    HW126897   4.621   4.183   8.756  2.0593 -2.2603 -0.0613
 5088SOL    HW226898   4.650   4.116   8.882  0.0004  1.0172  3.0842
 5089SOL     OW26899   4.544   2.652  17.506  0.6248 -0.9184 -0.3229
 5089SOL    HW126900   4.633   2.657  17.471  1.3364  0.6404  1.7180
 5089SOL    HW226901   4.550   2.574  17.561 -0.4765 -3.4134 -3.6904
 5090SOL     OW26902   2.629   1.394  15.487  0.2172 -0.2168 -0.1817
 5090SOL    HW126903   2.668   1.312  15.455 -0.4861 -0.8529  0.6045
 5090SOL    HW226904   2.682   1.402  15.566 -0.1992 -0.9523  0.1703
 5091SOL     OW26905   2.408   3.359  14.645 -0.2224 -0.1127 -0.1822
 5091SOL    HW126906   2.476   3.292  14.640 -0.6202 -0.7513  2.6495
 5091SOL    HW226907   2.347   3.321  14.582 -1.1724  2.5646 -0.8896
 5092SOL     OW26908   2.530   2.634   4.637  0.5701  0.1933  0.4233
 5092SOL    HW126909   2.576   2.632   4.722  0.8217 -2.1461  0.2302
 5092SOL    HW226910   2.548   2.554   4.588 -2.2956  0.1950 -0.6123
 5093SOL     OW26911   1.107   0.024   7.017  0.0179 -0.2615  0.3177
 5093SOL    HW126912   1.202   0.018   7.018  0.1672  1.9728  0.0639
 5093SOL    HW226913   1.084   4.694   6.956 -0.8514  0.6344 -0.4063
 5094SOL     OW26914   0.022   1.689   9.056  0.0865  0.3121  0.3686
 5094SOL    HW126915   0.045   1.627   8.986  0.7281  0.4916  0.4136
 5094SOL    HW226916   4.672   1.705   9.034  0.6791 -0.1804 -2.3528
 5095SOL     OW26917   2.636   1.314   3.154  0.4215 -0.3085  0.2218
 5095SOL    HW126918   2.726   1.312   3.187  0.4768 -2.5169 -0.0604
 5095SOL    HW226919   2.601   1.382   3.211  0.1166 -0.9865  0.8504
 5096SOL     OW26920   0.056   3.467   2.921  0.2884 -0.2331  0.3058
 5096SOL    HW126921   4.732   3.537   2.911  2.0803  0.8384 -3.6906
 5096SOL    HW226922   0.076   3.475   3.015  0.7357 -0.7502  0.2504
 5097SOL     OW26923   0.034   1.063   2.642  0.4232  0.2988 -0.6145
 5097SOL    HW126924   0.057   1.050   2.550  1.0792  0.1434 -0.4295
 5097SOL    HW226925   0.005   1.154   2.643 -0.3989  0.0120  0.8956
 5098SOL     OW26926   0.019   0.071  16.631  0.3666 -0.4813 -0.4119
 5098SOL    HW126927   0.014   0.083  16.726 -0.2811 -0.4805 -0.4486
 5098SOL    HW226928   4.697   4.741  16.620 -2.4294  1.7803  1.0444
 5099SOL     OW26929   3.137   0.353   3.816  0.5479 -0.2802 -0.2535
 5099SOL    HW126930   3.079   0.412   3.863 -1.4634 -0.2438 -2.7415
 5099SOL    HW226931   3.076   0.280   3.806 -2.3256  2.2758 -1.3153
 5100SOL     OW26932   2.392   0.902  15.729 -0.1884  0.3218 -0.5412
 5100SOL    HW126933   2.455   0.944  15.669 -0.7934  0.6030 -0.9860
 5100SOL    HW226934   2.457   0.862  15.787 -0.1956  1.1335  0.0244
 5101SOL     OW26935   2.334   1.743  15.568  0.1301  0.0757 -0.1996
 5101SOL    HW126936   2.356   1.786  15.485  1.5739  0.1640  0.2271
 5101SOL    HW226937   2.337   1.650  15.549 -0.9247 -0.4076  1.9948
 5102SOL     OW26938   2.997   3.907  15.834 -0.6732  0.2348 -0.2634
 5102SOL    HW126939   2.939   3.833  15.853 -0.7782  0.4105  0.1060
 5102SOL    HW226940   3.003   3.896  15.739 -1.5855  0.5471 -0.3579
 5103SOL     OW26941   1.205   3.727   4.092  0.3031  0.1080  0.0008
 5103SOL    HW126942   1.213   3.822   4.080 -1.3659 -0.1557 -3.2286
 5103SOL    HW226943   1.270   3.726   4.162 -0.2376 -1.1533  0.4875
 5104SOL     OW26944   4.667   2.054   6.645 -0.3040  0.2800  0.4460
 5104SOL    HW126945   4.576   2.028   6.658 -0.9471  2.0580 -0.4833
 5104SOL    HW226946   4.696   2.048   6.736  1.5322 -0.6166 -0.2191
 5105SOL     OW26947   2.992   2.448   9.848 -0.3361 -0.1071 -0.7713
 5105SOL    HW126948   2.918   2.391   9.826 -1.2678  0.8624 -0.1929
 5105SOL    HW226949   2.960   2.530   9.811  1.7816  1.2530  0.4522
 5106SOL     OW26950   2.704   1.027   8.098  0.3653  0.4981 -0.2321
 5106SOL    HW126951   2.680   0.953   8.041  0.8457  0.8664 -0.9215
 5106SOL    HW226952   2.716   0.987   8.183 -0.5906 -1.6027 -1.0904
 5107SOL     OW26953   1.832   1.991  16.882 -0.4137 -0.0806  0.8063
 5107SOL    HW126954   1.745   1.959  16.906 -0.5267  0.0482  0.5679
 5107SOL    HW226955   1.828   2.082  16.912 -1.2110 -0.0096  0.4643
 5108SOL     OW26956   0.982   1.631   8.553 -0.4762  0.2183 -0.2650
 5108SOL    HW126957   0.912   1.696   8.558 -0.4574  0.1974  0.2805
 5108SOL    HW226958   0.966   1.592   8.467 -3.5652  2.6640 -0.7954
 5109SOL     OW26959   1.207   4.626  14.232 -0.0978 -0.6311  0.5937
 5109SOL    HW126960   1.171   4.663  14.312 -0.3965  1.2808 -0.4376
 5109SOL    HW226961   1.122   4.608  14.191 -0.3764  2.0319  0.0261
 5110SOL     OW26962   1.298   0.447   3.567 -0.0443 -0.5698  0.3878
 5110SOL    HW126963   1.244   0.502   3.623  0.1208 -0.3247  0.3063
 5110SOL    HW226964   1.342   0.393   3.632  2.4183  1.6222  0.5325
 5111SOL     OW26965   2.044   2.250  16.379 -0.0120 -1.1144  0.1646
 5111SOL    HW126966   1.966   2.196  16.365 -0.6976  0.5692 -2.5894
 5111SOL    HW226967   2.010   2.337  16.356 -1.5470 -1.2811  1.7923
 5112SOL     OW26968   2.649   1.900   4.817  0.2221  0.0749  0.3094
 5112SOL    HW126969   2.607   1.982   4.844  0.6566  0.8340 -1.3565
 5112SOL    HW226970   2.634   1.891   4.723  2.2367  0.8084 -0.0832
 5113SOL     OW26971   0.741   1.801   4.954  0.0263  0.0033 -0.0510
 5113SOL    HW126972   0.721   1.726   5.011 -0.9263  0.5936  0.3955
 5113SOL    HW226973   0.801   1.848   5.012 -0.2634  0.0728  0.1988
 5114SOL     OW26974   0.735   2.308   8.124 -0.5140  0.4149 -0.3211
 5114SOL    HW126975   0.830   2.302   8.119 -0.3508  1.3818  1.5986
 5114SOL    HW226976   0.719   2.332   8.216 -2.6359  0.8182 -0.7947
 5115SOL     OW26977   2.488   0.812  10.650 -0.9321 -0.0395  0.3097
 5115SOL    HW126978   2.451   0.900  10.654 -0.2275  0.2550  0.2825
 5115SOL    HW226979   2.472   0.787  10.741  1.6565 -0.9722  0.4890
 5116SOL     OW26980   4.273   4.669   3.400  0.1494  0.8383  0.1220
 5116SOL    HW126981   4.333   0.002   3.410  0.8644  0.4019 -0.9507
 5116SOL    HW226982   4.195   4.723   3.383 -1.3824 -1.0485  1.2034
 5117SOL     OW26983   1.610   3.114   5.462  0.5056 -0.2119 -0.0583
 5117SOL    HW126984   1.641   3.186   5.517 -2.1120  0.3193  0.7132
 5117SOL    HW226985   1.519   3.142   5.461  1.1568  1.6746 -4.3554
 5118SOL     OW26986   4.003   4.246   6.317  0.4002 -0.0041  0.0052
 5118SOL    HW126987   4.080   4.282   6.273  0.1833  1.0384  0.4667
 5118SOL    HW226988   3.928   4.286   6.272  1.1162 -1.5105 -2.5424
 5119SOL     OW26989   2.863   1.951   6.524 -0.3105  0.1243 -0.1970
 5119SOL    HW126990   2.860   1.878   6.586 -0.3754 -0.7607 -1.2380
 5119SOL    HW226991   2.786   1.998   6.556 -0.5369 -0.1755 -0.3054
 5120SOL     OW26992   0.538   1.234   5.534  0.9697 -0.0524  0.0113
 5120SOL    HW126993   0.617   1.239   5.480 -0.6144 -2.3789 -2.4541
 5120SOL    HW226994   0.491   1.313   5.506  0.4404 -0.9415 -1.5791
 5121SOL     OW26995   2.696   3.891   6.509 -0.0114 -0.0661  0.7214
 5121SOL    HW126996   2.638   3.911   6.582 -1.1882  0.1882 -0.2941
 5121SOL    HW226997   2.664   3.804   6.485  0.7294  0.3511 -1.8506
 5122SOL     OW26998   2.774   2.406   5.310 -0.1952 -0.0850 -0.0125
 5122SOL    HW126999   2.829   2.412   5.389  0.8023 -0.9218 -0.6279
 5122SOL    HW227000   2.825   2.342   5.260 -0.5388 -1.9477  2.0364
 5123SOL     OW27001   0.495   3.125   9.536 -0.2263  0.6902  0.0058
 5123SOL    HW127002   0.567   3.062   9.529 -0.8158  0.1517 -1.1380
 5123SOL    HW227003   0.465   3.142   9.447 -2.2531  1.0834  0.7812
 5124SOL     OW27004   1.995   2.961   8.424  0.2283 -0.3484 -0.1694
 5124SOL    HW127005   1.950   2.876   8.431  0.8733 -0.6783 -0.0442
 5124SOL    HW227006   2.062   2.940   8.489  1.0370  1.5970 -0.4015
 5125SOL     OW27007   0.979   1.919   7.303 -0.2870 -0.6019  0.2327
 5125SOL    HW127008   0.935   1.955   7.380 -1.9686 -0.7174 -0.6684
 5125SOL    HW227009   0.914   1.936   7.234 -0.2211  0.4876  0.4473
 5126SOL     OW27010   0.749   1.179   2.763 -0.2970 -0.0340 -0.1300
 5126SOL    HW127011   0.844   1.182   2.766 -0.3086 -0.6023  0.7344
 5126SOL    HW227012   0.740   1.190   2.857 -1.6600  1.4850 -0.4244
 5127SOL     OW27013   1.900   3.404   5.978  0.4907 -0.4452  0.2517
 5127SOL    HW127014   1.850   3.336   6.023 -2.5226  0.7130 -1.3590
 5127SOL    HW227015   1.953   3.353   5.916 -2.8240 -0.2425 -2.7336
 5128SOL     OW27016   0.078   2.479   9.300 -0.1830 -0.6261  0.1905
 5128SOL    HW127017   0.096   2.394   9.258  0.8159 -0.0048 -0.6463
 5128SOL    HW227018   0.136   2.534   9.247 -0.0996 -0.4699  0.4420
 5129SOL     OW27019   3.034   0.766   2.912 -0.6397 -0.5639  0.1127
 5129SOL    HW127020   3.022   0.826   2.838  0.5107  0.7394  0.9791
 5129SOL    HW227021   2.978   0.695   2.881 -0.0431  0.0729 -2.4885
 5130SOL     OW27022   1.517   4.702   2.790 -0.1481 -0.1282 -0.1458
 5130SOL    HW127023   1.525   0.048   2.751 -1.0607  0.1221  0.2501
 5130SOL    HW227024   1.569   4.646   2.732  2.2765  1.4710  0.4656
 5131SOL     OW27025   1.555   3.851   4.735  0.1745 -0.3072  0.7774
 5131SOL    HW127026   1.533   3.874   4.825 -0.6925  0.3362  0.4015
 5131SOL    HW227027   1.507   3.768   4.733 -0.4856  0.0924 -0.7103
 5132SOL     OW27028   4.075   2.351   8.394  0.8183  0.1199 -0.3620
 5132SOL    HW127029   4.030   2.360   8.478 -0.4610  1.7416 -1.2186
 5132SOL    HW227030   4.111   2.440   8.390  0.6013  0.2709  1.0298
 5133SOL     OW27031   2.697   1.334  14.203 -0.4163  0.3195 -0.0653
 5133SOL    HW127032   2.667   1.247  14.176  1.9476 -0.1341 -1.1941
 5133SOL    HW227033   2.670   1.383  14.126 -2.4080 -0.2963  0.2392
 5134SOL     OW27034   1.567   3.235   7.708  0.0414  0.5490 -0.5869
 5134SOL    HW127035   1.601   3.231   7.619 -3.2967 -1.6000 -1.8086
 5134SOL    HW227036   1.625   3.300   7.746 -0.2212  1.3587 -1.5606
 5135SOL     OW27037   0.305   1.205   2.834 -0.8675 -0.8550  0.0490
 5135SOL    HW127038   0.305   1.193   2.739 -0.3441  2.8758 -0.4237
 5135SOL    HW227039   0.259   1.289   2.837  1.9360  0.7172 -2.1350
 5136SOL     OW27040   1.472   4.502   8.451  0.4465  0.2107 -0.4878
 5136SOL    HW127041   1.526   4.565   8.404  1.2044 -0.4710 -0.5220
 5136SOL    HW227042   1.480   4.536   8.540 -1.6479  3.2900 -1.4767
 5137SOL     OW27043   2.229   1.408   4.477  0.5106 -0.2139  0.0437
 5137SOL    HW127044   2.172   1.415   4.553 -0.4585  0.9014 -0.7979
 5137SOL    HW227045   2.179   1.461   4.415  0.7223  1.1353  1.0267
 5138SOL     OW27046   0.488   2.466   2.127  0.0982  0.6345  0.5469
 5138SOL    HW127047   0.461   2.420   2.206 -1.0570  2.0381  0.9785
 5138SOL    HW227048   0.494   2.398   2.060 -0.3830  2.3591 -1.2462
 5139SOL     OW27049   1.174   3.369   3.670  0.5153  0.1284 -0.2565
 5139SOL    HW127050   1.230   3.296   3.643 -0.6556 -0.4490 -1.1351
 5139SOL    HW227051   1.203   3.438   3.610  0.9109  2.2879  2.4170
 5140SOL     OW27052   3.522   3.864   4.651  0.5300 -0.2951 -0.1269
 5140SOL    HW127053   3.530   3.948   4.606 -1.1325 -0.1289 -0.1121
 5140SOL    HW227054   3.427   3.871   4.659  0.4732 -0.9994 -0.1701
 5141SOL     OW27055   3.948   0.779   7.823  0.5605  0.5631 -0.1755
 5141SOL    HW127056   3.908   0.692   7.816  1.7662  0.0985 -1.2537
 5141SOL    HW227057   3.888   0.822   7.883  0.6744  1.5193 -0.7464
 5142SOL     OW27058   2.773   3.075   1.097 -0.2250  0.1401 -0.0989
 5142SOL    HW127059   2.698   3.061   1.038  0.4849 -0.4320 -0.8577
 5142SOL    HW227060   2.760   2.998   1.152  0.3964 -0.0424 -0.2128
 5143SOL     OW27061   3.138   0.053   7.795 -0.0388  0.0387 -0.1765
 5143SOL    HW127062   3.148   0.041   7.889 -0.5607 -0.1908 -0.1498
 5143SOL    HW227063   3.090   0.136   7.793  2.0112  1.2059 -0.5145
 5144SOL     OW27064   2.120   0.398   2.165  0.0557  0.3793 -0.1038
 5144SOL    HW127065   2.068   0.478   2.172 -0.7790 -0.2220  0.6645
 5144SOL    HW227066   2.155   0.395   2.254 -1.4768  0.0840  0.4912
 5145SOL     OW27067   1.066   3.253   2.492  0.0557  0.3598  0.3318
 5145SOL    HW127068   1.145   3.276   2.539  0.5230 -0.1416 -0.2040
 5145SOL    HW227069   1.089   3.289   2.407 -0.6410  0.2922  0.1164
 5146SOL     OW27070   3.603   2.495   9.234 -0.1138 -0.1462  0.0259
 5146SOL    HW127071   3.549   2.573   9.246 -0.3127 -0.5917  2.0534
 5146SOL    HW227072   3.588   2.438   9.309 -0.7599  1.2513  0.9424
 5147SOL     OW27073   3.521   4.129  14.774  0.8953  0.0049  0.2394
 5147SOL    HW127074   3.481   4.044  14.758  2.1082 -0.1471 -1.9114
 5147SOL    HW227075   3.473   4.166  14.849  0.4506  0.8909 -0.4864
 5148SOL     OW27076   0.006   0.945   3.925  0.0379 -0.0713 -0.6807
 5148SOL    HW127077   0.036   0.871   3.872 -0.3434 -1.5875  1.2202
 5148SOL    HW227078   0.056   0.947   4.007  0.3674 -2.9940 -0.8189
 5149SOL     OW27079   3.977   1.679   0.464  0.1970 -0.1070 -0.4757
 5149SOL    HW127080   4.044   1.724   0.413  0.6322 -1.5006 -1.1294
 5149SOL    HW227081   4.005   1.685   0.556  2.3925  0.5309 -1.1699
 5150SOL     OW27082   2.902   4.104  17.649  0.6204  0.7879 -0.0155
 5150SOL    HW127083   2.810   4.123  17.630  0.3308  0.9916  1.6316
 5150SOL    HW227084   2.934   4.072  17.564  0.1802 -1.3180  0.6177
 5151SOL     OW27085   2.493   2.786   9.280  0.2023  0.3184  0.6806
 5151SOL    HW127086   2.524   2.772   9.369  0.6636 -0.1901  0.4358
 5151SOL    HW227087   2.397   2.794   9.285  0.0915 -0.3872 -0.3535
 5152SOL     OW27088   2.300   2.285  12.841 -0.2642 -0.1869  0.1895
 5152SOL    HW127089   2.349   2.278  12.922 -0.7466  0.4537  0.5405
 5152SOL    HW227090   2.241   2.210  12.847  1.4299 -1.4319  1.1853
 5153SOL     OW27091   2.356   1.409   3.417 -0.4049 -0.0614  0.7194
 5153SOL    HW127092   2.438   1.378   3.455  0.0418 -0.4037 -0.5305
 5153SOL    HW227093   2.343   1.480   3.481  4.2401 -0.0448  1.6408
 5154SOL     OW27094   2.445   3.710   3.739  0.7713 -0.7071  0.3414
 5154SOL    HW127095   2.394   3.725   3.660  1.2283 -0.1203  0.1551
 5154SOL    HW227096   2.388   3.727   3.814 -2.0006  2.0045 -2.4039
 5155SOL     OW27097   3.099   4.085   0.974 -0.6723  0.3299 -0.3423
 5155SOL    HW127098   3.029   4.087   1.039  0.0028 -1.7901  0.4278
 5155SOL    HW227099   3.095   4.177   0.945  0.3798  0.5303  0.1461
 5156SOL     OW27100   1.239   0.674   5.694  0.1681 -0.1763 -0.0336
 5156SOL    HW127101   1.276   0.762   5.692  1.7123 -0.8418 -0.9410
 5156SOL    HW227102   1.316   0.620   5.708 -0.2492 -0.9863 -0.7874
 5157SOL     OW27103   2.142   0.334   7.810 -0.5232 -0.0342  0.0691
 5157SOL    HW127104   2.163   0.278   7.735 -0.5384 -3.3616  2.5660
 5157SOL    HW227105   2.224   0.306   7.851 -1.5621 -1.1556  1.3951
 5158SOL     OW27106   0.332   2.275   7.421  0.0089  0.2696 -0.1459
 5158SOL    HW127107   0.320   2.228   7.338  0.1063  1.4100 -0.8085
 5158SOL    HW227108   0.387   2.350   7.397  1.1937 -0.0878  1.4719
 5159SOL     OW27109   0.405   4.583   9.540  0.0663  0.3161  0.0487
 5159SOL    HW127110   0.321   4.628   9.530 -0.3447 -0.4407  0.0706
 5159SOL    HW227111   0.396   4.516   9.472 -0.5444 -1.0733  1.4830
 5160SOL     OW27112   0.153   4.197   5.863 -0.2597  0.2412  0.0975
 5160SOL    HW127113   0.221   4.262   5.884  1.4272 -1.6110  0.4157
 5160SOL    HW227114   0.204   4.128   5.820 -0.7785 -1.2409  1.8768
 5161SOL     OW27115   3.996   2.757   5.244 -0.0203  0.1564 -0.4238
 5161SOL    HW127116   4.061   2.687   5.243  0.9229  1.0344 -0.5406
 5161SOL    HW227117   4.052   2.834   5.255  0.4150  0.0634 -1.9762
 5162SOL     OW27118   3.960   0.186  13.900 -0.2817 -0.0120 -0.6090
 5162SOL    HW127119   3.982   0.226  13.984  2.1095 -1.4065 -0.5597
 5162SOL    HW227120   3.889   0.242  13.869  0.7372  1.0695 -0.9662
 5163SOL     OW27121   1.658   4.573  14.325  0.2157  0.1214  0.1645
 5163SOL    HW127122   1.614   4.609  14.402  1.3826  1.0757  0.4029
 5163SOL    HW227123   1.692   4.488  14.354  0.3088 -0.1652 -0.7931
 5164SOL     OW27124   1.917   3.600   7.659 -0.0099  0.0325 -0.2793
 5164SOL    HW127125   1.852   3.665   7.632 -0.8409  0.1694  2.0202
 5164SOL    HW227126   1.981   3.594   7.588 -0.9989 -2.8672 -0.9476
 5165SOL     OW27127   4.207   2.941  11.933 -0.4709 -0.2681  0.6667
 5165SOL    HW127128   4.117   2.965  11.913 -0.3755  1.0645  1.8447
 5165SOL    HW227129   4.196   2.858  11.980  0.8404 -0.4117  0.7223
 5166SOL     OW27130   1.820   0.546   1.822  0.0946 -0.4119 -0.0480
 5166SOL    HW127131   1.841   0.454   1.836  0.5122 -0.5066 -1.2878
 5166SOL    HW227132   1.876   0.564   1.747  1.1483  0.9565  1.0677
 5167SOL     OW27133   0.349   1.631   9.502 -0.1205 -0.2421 -0.0669
 5167SOL    HW127134   0.256   1.641   9.524  0.0463  2.2660 -0.5191
 5167SOL    HW227135   0.379   1.547   9.535 -1.3808  0.0374  1.8542
 5168SOL     OW27136   1.455   3.365   8.047  0.1917 -1.0984  0.7167
 5168SOL    HW127137   1.468   3.360   7.952  1.4413 -0.3512  0.8551
 5168SOL    HW227138   1.481   3.454   8.070 -1.8129 -0.4616  0.5351
 5169SOL     OW27139   0.583   4.392  16.136 -0.8578  0.2527 -0.6620
 5169SOL    HW127140   0.605   4.363  16.047 -0.1349 -0.7426 -0.1605
 5169SOL    HW227141   0.662   4.396  16.190 -1.0457 -2.1715 -0.1938
 5170SOL     OW27142   2.206   2.809   5.224  0.0901  0.5124  0.2311
 5170SOL    HW127143   2.190   2.901   5.201 -3.0015 -0.0605  0.0870
 5170SOL    HW227144   2.119   2.777   5.202  0.8108 -0.3363 -1.3460
 5171SOL     OW27145   0.266   4.674  14.330 -0.0190  0.2344 -0.2946
 5171SOL    HW127146   0.328   4.642  14.264 -0.4737 -0.7812 -0.2412
 5171SOL    HW227147   0.236   4.599  14.381  0.2696  0.1056 -0.3114
 5172SOL     OW27148   1.362   3.696   6.618 -0.2059  1.0306  0.4498
 5172SOL    HW127149   1.451   3.722   6.593  0.2311 -0.3522  0.5713
 5172SOL    HW227150   1.336   3.660   6.534 -1.2804  0.4580  1.0288
 5173SOL     OW27151   1.760   3.428   7.827 -0.3868 -0.0208 -0.2196
 5173SOL    HW127152   1.735   3.499   7.888 -2.6091  0.9823 -2.2780
 5173SOL    HW227153   1.836   3.465   7.783  1.0910 -0.0385  2.3021
 5174SOL     OW27154   0.860   2.669   6.898 -0.2505  0.1478  0.0503
 5174SOL    HW127155   0.917   2.712   6.834 -1.1421  0.5007 -0.4948
 5174SOL    HW227156   0.873   2.578   6.872  0.4204  1.1595 -3.2112
 5175SOL     OW27157   1.681   3.401   2.013  0.5925  0.1204  0.4879
 5175SOL    HW127158   1.749   3.443   2.065 -0.1855  1.1836  0.6495
 5175SOL    HW227159   1.641   3.341   2.076 -0.7352 -1.1616 -1.5715
 5176SOL     OW27160   4.113   0.339   8.355 -0.5685  0.4012 -0.4890
 5176SOL    HW127161   4.169   0.382   8.420 -1.3060  2.2851 -1.0753
 5176SOL    HW227162   4.120   0.247   8.377  0.1568  1.1582  2.4162
 5177SOL     OW27163   0.789   0.515   8.700  0.5210  0.3565 -0.3102
 5177SOL    HW127164   0.810   0.584   8.763  2.3267 -0.5341  0.0757
 5177SOL    HW227165   0.845   0.445   8.733 -1.1396 -0.0528  1.6671
 5178SOL     OW27166   0.582   1.586   8.011  0.1142  0.4145  0.2682
 5178SOL    HW127167   0.585   1.534   8.091  0.2636 -2.7707 -1.7766
 5178SOL    HW227168   0.670   1.624   8.020 -0.6129  2.1542 -0.0592
 5179SOL     OW27169   3.594   4.220  16.008  0.2718  0.0187  0.6590
 5179SOL    HW127170   3.670   4.267  15.974  0.1572  0.3377  0.8477
 5179SOL    HW227171   3.636   4.160  16.070  0.1995  0.1406  0.8270
 5180SOL     OW27172   3.190   4.707  10.891  0.1110  0.2391 -0.0627
 5180SOL    HW127173   3.215   0.037  10.949 -0.7131  1.2012 -0.8864
 5180SOL    HW227174   3.169   4.627  10.940 -0.0074  1.3950  1.7560
 5181SOL     OW27175   1.385   4.019   5.961  0.8795 -0.1511  0.0315
 5181SOL    HW127176   1.430   3.984   5.884  2.2910 -0.3631  0.9584
 5181SOL    HW227177   1.448   3.991   6.027  0.6048 -4.2038 -1.4400
 5182SOL     OW27178   3.639   3.282   9.348 -0.1614  0.1815  0.2678
 5182SOL    HW127179   3.606   3.195   9.370  0.7565  0.2761  1.9830
 5182SOL    HW227180   3.657   3.267   9.255  1.3599 -1.4326  0.8356
 5183SOL     OW27181   4.541   1.427   3.233 -0.3488 -0.3146 -0.5022
 5183SOL    HW127182   4.598   1.362   3.193  0.5123 -0.4281  0.9134
 5183SOL    HW227183   4.583   1.455   3.314 -3.4159  2.7560  0.0185
 5184SOL     OW27184   4.455   3.064   8.114  0.5305 -0.1793  0.6209
 5184SOL    HW127185   4.442   3.029   8.026 -1.2265  0.4525  0.6319
 5184SOL    HW227186   4.440   3.154   8.087  1.6731 -0.0796  0.3177
 5185SOL     OW27187   2.710   3.063   4.355  0.4460  0.2285  0.0369
 5185SOL    HW127188   2.706   3.010   4.276 -0.2720 -0.1591  0.3311
 5185SOL    HW227189   2.794   3.042   4.396  1.1464  2.1197 -0.4521
 5186SOL     OW27190   1.282   3.530   4.455  0.2136 -0.1813  0.1887
 5186SOL    HW127191   1.248   3.463   4.514 -0.0780 -2.3588 -2.4726
 5186SOL    HW227192   1.207   3.568   4.409 -0.0588  0.7670  1.4285
 5187SOL     OW27193   2.534   0.436   8.546  0.3497  0.3313  0.0185
 5187SOL    HW127194   2.544   0.359   8.602  0.4197  0.0509 -0.3822
 5187SOL    HW227195   2.445   0.419   8.515 -0.2630  0.9956  1.4282
 5188SOL     OW27196   0.436   0.469  11.832 -0.2180  0.2062 -0.0722
 5188SOL    HW127197   0.452   0.497  11.742  0.1031 -0.0999 -0.1075
 5188SOL    HW227198   0.423   0.557  11.869  0.4390  1.2538 -2.3126
 5189SOL     OW27199   0.579   3.101   2.399  0.0210  0.0638  0.0298
 5189SOL    HW127200   0.637   3.073   2.328  1.1273  0.8706  0.6040
 5189SOL    HW227201   0.556   3.187   2.363 -0.3093  0.3194  0.8730
 5190SOL     OW27202   0.186   1.520  13.405 -0.4127 -0.4590 -0.3564
 5190SOL    HW127203   0.270   1.564  13.396 -1.7634  1.8071 -1.9421
 5190SOL    HW227204   0.157   1.569  13.482 -0.4638  1.5116 -1.6100
 5191SOL     OW27205   1.992   4.188   7.210  0.1207 -0.0502 -0.0042
 5191SOL    HW127206   2.001   4.165   7.303 -2.7673  1.2629  0.5979
 5191SOL    HW227207   1.923   4.254   7.209 -0.2303 -0.4053  0.7044
 5192SOL     OW27208   3.372   0.923   0.622 -0.8059 -0.0870 -0.4997
 5192SOL    HW127209   3.444   0.891   0.567 -1.5803 -1.0364 -0.9497
 5192SOL    HW227210   3.347   0.844   0.669  0.8423 -0.3929 -0.1149
 5193SOL     OW27211   1.686   4.280   0.366  0.7720 -0.5944 -0.2147
 5193SOL    HW127212   1.647   4.198   0.397 -1.7362  0.5705 -0.3036
 5193SOL    HW227213   1.667   4.281   0.272 -0.9356 -0.1799  0.1326
 5194SOL     OW27214   2.937   3.852   2.632 -0.1254  0.2161  0.2927
 5194SOL    HW127215   2.855   3.804   2.623 -0.4236  0.5529  1.2484
 5194SOL    HW227216   3.000   3.785   2.606  1.4928  0.7905  2.6548
 5195SOL     OW27217   1.134   1.691   4.909 -0.0553 -0.1014 -0.1302
 5195SOL    HW127218   1.068   1.631   4.945 -0.2859  1.3394  1.8803
 5195SOL    HW227219   1.195   1.694   4.983  1.0330  3.0338 -1.1357
 5196SOL     OW27220   2.659   4.273   1.347 -0.1952 -0.0463 -0.1961
 5196SOL    HW127221   2.724   4.316   1.402 -1.8327  2.1821 -0.0315
 5196SOL    HW227222   2.580   4.307   1.387 -0.5191  0.0310 -0.8951
 5197SOL     OW27223   1.566   4.282   2.495  0.2489  0.0289  0.1894
 5197SOL    HW127224   1.595   4.372   2.507  0.3249  0.2737 -1.8221
 5197SOL    HW227225   1.650   4.258   2.455  0.9013  0.8446  1.0533
 5198SOL     OW27226   4.218   2.302   1.398  0.1398  0.1285  0.3323
 5198SOL    HW127227   4.193   2.236   1.334  0.7522  0.5175 -0.3165
 5198SOL    HW227228   4.240   2.378   1.344 -0.2933 -0.3948 -0.5723
 5199SOL     OW27229   3.152   2.781   1.664 -0.5127 -0.1028 -0.6785
 5199SOL    HW127230   3.063   2.777   1.698 -0.1219 -1.1450  0.1881
 5199SOL    HW227231   3.200   2.746   1.739 -1.0738  0.1199 -0.2119
 5200SOL     OW27232   3.973   1.191   2.852 -0.4268 -0.0616  0.2853
 5200SOL    HW127233   3.891   1.240   2.841  0.3208  1.0933 -0.1784
 5200SOL    HW227234   3.937   1.103   2.843 -2.9399  1.0455 -0.4991
 5201SOL     OW27235   0.517   4.329   3.423  0.4803 -0.2055  0.1173
 5201SOL    HW127236   0.449   4.362   3.364 -0.6982 -0.8615  1.0981
 5201SOL    HW227237   0.592   4.351   3.368 -0.2295  2.0583  0.0468
 5202SOL     OW27238   0.027   4.673   7.832 -0.0751 -0.1856  0.2950
 5202SOL    HW127239   0.105   4.620   7.815 -0.6607 -0.2117 -2.3922
 5202SOL    HW227240   0.049   4.732   7.905 -1.3315  0.7087 -0.0527
 5203SOL     OW27241   2.061   2.849   1.649 -0.4296 -0.2562 -0.2569
 5203SOL    HW127242   2.075   2.942   1.663  0.8320 -0.3807 -0.6664
 5203SOL    HW227243   2.151   2.816   1.645 -1.1351 -1.8242 -3.4638
 5204SOL     OW27244   3.158   2.004  16.412  0.1743 -0.0548  0.4734
 5204SOL    HW127245   3.120   1.928  16.366 -1.3491  1.5774 -0.9538
 5204SOL    HW227246   3.239   1.959  16.436 -0.8378 -1.8017  0.6294
 5205SOL     OW27247   4.612   4.416   3.060  0.0224  0.3462  0.0525
 5205SOL    HW127248   4.534   4.464   3.088 -0.3877 -0.8398  0.9646
 5205SOL    HW227249   4.658   4.466   2.992 -1.3179  0.3207 -0.8753
 5206SOL     OW27250   4.230   0.109   6.554  0.2695 -0.5013 -0.1947
 5206SOL    HW127251   4.263   0.028   6.593 -0.8948  0.3995  2.6648
 5206SOL    HW227252   4.308   0.155   6.526  0.6678 -1.4473 -0.6538
 5207SOL     OW27253   0.131   3.023   8.214 -0.3561 -0.5776 -0.0819
 5207SOL    HW127254   0.058   2.969   8.183 -0.7171  0.7544 -1.5698
 5207SOL    HW227255   0.191   3.026   8.139  0.1474 -0.2559  0.3328
 5208SOL     OW27256   3.985   0.950   8.716  0.0387 -0.0447  0.0382
 5208SOL    HW127257   3.967   0.859   8.742 -0.8807  0.4765  1.2257
 5208SOL    HW227258   4.075   0.950   8.748  0.3231 -1.3696 -0.7297
 5209SOL     OW27259   2.569   1.720   7.927  0.2585 -0.1660  0.0982
 5209SOL    HW127260   2.499   1.779   7.897  1.0872  1.7892  2.0196
 5209SOL    HW227261   2.573   1.667   7.847  1.1759 -0.6356  0.4585
 5210SOL     OW27262   4.034   3.796   7.624 -0.1233 -0.2488  0.0588
 5210SOL    HW127263   4.085   3.859   7.675  1.4652 -0.0963 -1.7232
 5210SOL    HW227264   4.104   3.745   7.583  0.4624 -1.1007  2.1036
 5211SOL     OW27265   0.046   1.260   7.504  0.0399 -0.0408  0.0024
 5211SOL    HW127266   0.065   1.197   7.435  0.2377 -0.0377  0.0528
 5211SOL    HW227267   0.128   1.275   7.552 -0.0200  0.1356  0.0491
 5212SOL     OW27268   3.524   0.539   5.536 -0.9212  0.4338 -0.0029
 5212SOL    HW127269   3.608   0.517   5.577 -0.0494  5.2791  0.7945
 5212SOL    HW227270   3.480   0.454   5.535 -2.0093  1.0054 -0.1215
 5213SOL     OW27271   4.633   3.101   6.320  0.2712 -0.2099  0.0822
 5213SOL    HW127272   4.713   3.136   6.360  1.1173 -0.5575 -1.2679
 5213SOL    HW227273   4.643   3.132   6.230 -0.6567 -3.3344 -1.1089
 5214SOL     OW27274   3.050   2.388   9.524  1.0919  0.2759 -0.1442
 5214SOL    HW127275   2.994   2.344   9.460  0.5503 -2.2795  2.1216
 5214SOL    HW227276   3.044   2.475   9.485 -0.8126  0.6897  1.0390
 5215SOL     OW27277   0.962   3.898   9.114  0.6486  0.0885  0.0598
 5215SOL    HW127278   0.881   3.879   9.162 -0.3316 -0.9560 -1.9885
 5215SOL    HW227279   0.931   3.918   9.026 -1.3256  0.5012  0.8445
 5216SOL     OW27280   1.022   4.492   2.563  0.5261  0.0896 -0.1002
 5216SOL    HW127281   1.073   4.523   2.639  2.6528 -1.7448 -0.7844
 5216SOL    HW227282   1.063   4.407   2.546  1.4296  0.6729 -0.8473
 5217SOL     OW27283   1.348   1.278   2.429 -0.8415  0.3129  0.3960
 5217SOL    HW127284   1.264   1.312   2.399 -1.4357  0.2075  1.9625
 5217SOL    HW227285   1.340   1.287   2.524  1.1343  1.4691  0.4639
 5218SOL     OW27286   3.346   2.626  14.631  0.1303 -0.1858  0.2494
 5218SOL    HW127287   3.282   2.559  14.658  1.0515 -1.1306  0.0833
 5218SOL    HW227288   3.367   2.600  14.542  0.7540  0.5612  0.1803
 5219SOL     OW27289   3.773   1.535   3.754  0.0475 -0.0857 -0.3057
 5219SOL    HW127290   3.742   1.445   3.759 -0.1810  0.1681  2.4766
 5219SOL    HW227291   3.855   1.512   3.711  0.2836 -2.0765  1.2617
 5220SOL     OW27292   1.049   1.205  10.339  0.2061 -0.0555  0.1194
 5220SOL    HW127293   1.092   1.218  10.255 -1.0126  1.8291 -0.2160
 5220SOL    HW227294   1.115   1.247  10.394  0.1781 -0.3111  0.3507
 5221SOL     OW27295   4.554   1.511  16.182  0.8291 -0.0618 -0.2176
 5221SOL    HW127296   4.532   1.445  16.247 -3.1507  1.4586 -0.0307
 5221SOL    HW227297   4.487   1.573  16.211 -1.1807 -1.9938 -0.6551
 5222SOL     OW27298   0.491   3.342   2.590  0.5618 -0.3340  0.3785
 5222SOL    HW127299   0.515   3.257   2.552 -0.4348 -0.7243  0.6270
 5222SOL    HW227300   0.569   3.389   2.560 -0.1703 -0.0304 -1.0708
 5223SOL     OW27301   0.546   1.894   7.727 -0.0951  0.1707 -0.3324
 5223SOL    HW127302   0.489   1.926   7.797 -0.5328 -2.0741  0.3137
 5223SOL    HW227303   0.630   1.885   7.773 -0.5741  3.5243  1.2246
 5224SOL     OW27304   0.186   3.575   9.000  0.4181  0.5249  0.3058
 5224SOL    HW127305   0.110   3.532   8.960 -0.5301  0.8938  1.7449
 5224SOL    HW227306   0.239   3.604   8.925 -1.0291  1.5803 -0.3112
 5225SOL     OW27307   2.561   0.304   2.018  0.3751  0.6085 -0.2611
 5225SOL    HW127308   2.535   0.312   2.109  3.3170  1.1271  0.5111
 5225SOL    HW227309   2.500   0.235   1.991  3.1089 -1.7320 -0.5005
 5226SOL     OW27310   2.714   0.666  16.816  0.5887  0.2340  0.1059
 5226SOL    HW127311   2.686   0.711  16.736 -0.0882  0.4045  0.4392
 5226SOL    HW227312   2.809   0.660  16.809  0.7109  1.6393  0.5635
 5227SOL     OW27313   3.072   4.638   1.025  0.2066 -0.1062 -0.3147
 5227SOL    HW127314   3.077   4.664   0.933 -2.3283 -0.4053 -0.5351
 5227SOL    HW227315   3.013   4.705   1.059  0.5235  0.3355 -0.6427
 5228SOL     OW27316   4.093   4.469  13.878 -0.1698 -0.3403 -0.0466
 5228SOL    HW127317   4.073   4.561  13.897  0.5882  0.2017 -1.8013
 5228SOL    HW227318   4.151   4.479  13.802 -0.8617  3.2518 -0.1165
 5229SOL     OW27319   4.150   0.938   7.089  0.5470 -0.7389  0.1679
 5229SOL    HW127320   4.078   0.888   7.127  1.8525 -2.7779 -0.0300
 5229SOL    HW227321   4.209   0.930   7.164 -1.1597  0.5774  1.6303
 5230SOL     OW27322   1.022   3.512  16.551  0.2013  0.5497 -0.3231
 5230SOL    HW127323   0.964   3.570  16.600  0.7813  0.3994  0.5465
 5230SOL    HW227324   1.037   3.558  16.468  1.7954  1.2183  0.3400
 5231SOL     OW27325   3.228   0.947   8.116 -0.3284  0.0141 -0.2880
 5231SOL    HW127326   3.237   0.990   8.031 -0.4403 -1.3033 -0.9730
 5231SOL    HW227327   3.202   0.859   8.089 -0.4359  0.6338 -2.2018
 5232SOL     OW27328   3.966   1.693   6.416 -0.1069 -0.3278  0.3434
 5232SOL    HW127329   3.906   1.757   6.453 -0.4145 -1.7131  2.1843
 5232SOL    HW227330   3.901   1.630   6.387  0.4408 -1.2676  1.1373
 5233SOL     OW27331   4.349   3.265   8.880 -0.3663 -0.1294 -0.2414
 5233SOL    HW127332   4.257   3.276   8.855 -0.2596  0.3548 -0.4178
 5233SOL    HW227333   4.369   3.332   8.945  0.4535 -0.5633 -0.0514
 5234SOL     OW27334   3.903   4.429   3.158 -0.4258  0.2429  0.1847
 5234SOL    HW127335   3.927   4.522   3.153 -1.0542  0.2964 -1.7324
 5234SOL    HW227336   3.919   4.396   3.070  1.7336  1.3254  0.1754
 5235SOL     OW27337   4.128   2.874  16.807 -0.1426  0.1254 -0.1969
 5235SOL    HW127338   4.165   2.895  16.721 -1.2153 -0.6594 -0.8415
 5235SOL    HW227339   4.064   2.946  16.807 -0.0347  0.2185  2.0213
 5236SOL     OW27340   2.282   1.497   3.177  0.1925 -0.3410 -0.1858
 5236SOL    HW127341   2.330   1.467   3.254  1.1098  1.1576 -0.1648
 5236SOL    HW227342   2.283   1.419   3.123  1.9097 -1.2406  1.1374
 5237SOL     OW27343   2.121   0.012   2.140  0.0873  0.1969  0.0820
 5237SOL    HW127344   2.096   0.096   2.103  0.1256  0.6163  1.0323
 5237SOL    HW227345   2.076   0.002   2.224  1.1981 -0.0183  0.6532
 5238SOL     OW27346   0.243   4.002   0.624  0.3700 -0.2832  0.0935
 5238SOL    HW127347   0.310   3.977   0.560 -1.9992 -1.0001 -2.0992
 5238SOL    HW227348   0.260   3.937   0.692  1.8407 -0.3807 -0.3578
 5239SOL     OW27349   3.534   4.427   6.106 -0.3449  0.4666  0.0375
 5239SOL    HW127350   3.457   4.450   6.158 -1.0048 -1.6974  0.0273
 5239SOL    HW227351   3.499   4.458   6.022  3.9681  1.4175 -1.4202
 5240SOL     OW27352   2.580   1.204   2.007 -0.2551 -0.0203 -0.3698
 5240SOL    HW127353   2.588   1.290   2.048  2.4342 -0.2633 -0.3704
 5240SOL    HW227354   2.529   1.150   2.067 -0.6889  1.1810  0.3353
 5241SOL     OW27355   0.445   1.669   1.506 -0.0124 -0.2117  0.0150
 5241SOL    HW127356   0.506   1.596   1.508  1.5802  1.0921 -0.5329
 5241SOL    HW227357   0.369   1.627   1.546  1.2216 -1.1560  1.3514
 5242SOL     OW27358   1.510   0.258   5.632  0.3329  0.3564  0.1924
 5242SOL    HW127359   1.527   0.181   5.685 -2.0020  0.4325  1.0558
 5242SOL    HW227360   1.574   0.254   5.561 -0.1418 -1.7332 -0.1077
 5243SOL     OW27361   4.326   2.844   6.806  0.5812  0.0268  0.2197
 5243SOL    HW127362   4.326   2.862   6.712  0.7976  0.1091  0.2352
 5243SOL    HW227363   4.232   2.833   6.821  0.0762  2.3229 -1.4362
 5244SOL     OW27364   2.060   4.643   2.759  0.1569 -0.0693 -0.4336
 5244SOL    HW127365   2.055   4.565   2.814  0.3216 -0.8629 -1.5396
 5244SOL    HW227366   2.036   4.711   2.822 -0.1078 -0.5598 -0.0105
 5245SOL     OW27367   4.067   4.158   2.048  0.2056  0.3428 -0.0597
 5245SOL    HW127368   4.159   4.184   2.039  0.0162  0.7615 -0.8161
 5245SOL    HW227369   4.054   4.141   2.141  1.0893  1.2843  0.2329
 5246SOL     OW27370   2.072   0.422   5.057 -0.1783  0.1241  0.0891
 5246SOL    HW127371   1.996   0.433   5.000  0.9597  0.2386 -1.4400
 5246SOL    HW227372   2.133   0.471   5.001  1.8525 -0.6133  1.6802
 5247SOL     OW27373   0.127   2.372  15.773 -0.4485  0.2882 -0.0854
 5247SOL    HW127374   0.175   2.304  15.726 -1.0835 -0.2040 -0.0223
 5247SOL    HW227375   0.034   2.351  15.766 -0.3473  0.6029 -2.2479
 5248SOL     OW27376   0.550   1.310  17.127 -0.0453 -0.3348 -0.4436
 5248SOL    HW127377   0.556   1.362  17.047  0.0276  0.8083  0.3090
 5248SOL    HW227378   0.620   1.246  17.113  1.0234  0.7200  0.0917
 5249SOL     OW27379   3.210   2.542  16.929  0.3409 -0.7405  0.0073
 5249SOL    HW127380   3.189   2.624  16.884  2.4791 -0.8715 -1.2274
 5249SOL    HW227381   3.121   2.509  16.937 -0.4034  1.5036  0.9803
 5250SOL     OW27382   3.284   3.282   1.143 -0.8047 -0.1791  0.0777
 5250SOL    HW127383   3.195   3.273   1.178 -1.7256 -0.6467 -2.3707
 5250SOL    HW227384   3.264   3.330   1.063  1.4346 -0.8544 -0.8803
 5251SOL     OW27385   3.016   2.934   6.735  0.2394 -0.3978  0.1494
 5251SOL    HW127386   3.074   2.994   6.689  0.1112  1.2954  2.2242
 5251SOL    HW227387   2.927   2.955   6.708  0.0676 -0.8742  0.3428
 5252SOL     OW27388   3.564   0.310  14.450 -0.5005  0.6433 -0.0362
 5252SOL    HW127389   3.612   0.330  14.370 -1.0035  2.4831  0.1093
 5252SOL    HW227390   3.521   0.232  14.415  0.6536  0.5412 -1.2006
 5253SOL     OW27391   2.254   3.823   1.527  0.1020  0.4010 -0.3329
 5253SOL    HW127392   2.193   3.842   1.456 -1.5068  0.0611  0.9318
 5253SOL    HW227393   2.210   3.869   1.599 -0.9017 -1.2112  0.1111
 5254SOL     OW27394   3.775   1.918   4.002  0.4690 -0.0678 -0.1428
 5254SOL    HW127395   3.728   1.881   3.928  1.8303 -0.0765 -1.0044
 5254SOL    HW227396   3.809   1.837   4.040  1.2159 -0.2544 -1.2102
 5255SOL     OW27397   3.802   3.915  12.759 -0.0700 -0.1669 -0.7899
 5255SOL    HW127398   3.788   4.005  12.730 -5.0042  0.0500  2.1811
 5255SOL    HW227399   3.833   3.878  12.677  0.1727  0.8713 -1.1724
 5256SOL     OW27400   0.923   1.324   4.115 -0.8314 -0.0919 -0.0080
 5256SOL    HW127401   0.951   1.244   4.160  0.3732 -0.4587 -1.4339
 5256SOL    HW227402   0.877   1.373   4.183  3.4262  1.4218  1.7734
 5257SOL     OW27403   4.236   0.439  11.814 -0.4209 -0.2616 -0.5603
 5257SOL    HW127404   4.235   0.534  11.821  0.9985 -0.1779 -1.4738
 5257SOL    HW227405   4.171   0.402  11.874 -2.2419 -0.5508 -2.7410
 5258SOL     OW27406   4.438   0.095  13.711  0.3864  0.1738 -0.2914
 5258SOL    HW127407   4.463   0.102  13.803 -1.5837 -0.0564  0.2602
 5258SOL    HW227408   4.369   0.161  13.701 -0.5381 -0.9280 -1.2302
 5259SOL     OW27409   3.204   3.803   3.326 -0.6636  0.2107 -0.0021
 5259SOL    HW127410   3.291   3.835   3.352 -0.7396  1.3370 -1.1343
 5259SOL    HW227411   3.215   3.801   3.231  0.8296  0.6663  0.1632
 5260SOL     OW27412   0.291   3.373   2.090  0.0894 -0.1577  0.1691
 5260SOL    HW127413   0.333   3.445   2.043  0.1991 -0.0563  0.4227
 5260SOL    HW227414   0.228   3.418   2.146  0.5012 -0.4077  0.8328
 5261SOL     OW27415   4.368   4.372   1.362  0.8485 -0.5201  0.5172
 5261SOL    HW127416   4.304   4.305   1.339  2.3841 -1.9427  0.4352
 5261SOL    HW227417   4.348   4.446   1.305  1.3245 -0.5140  0.3576
 5262SOL     OW27418   3.025   1.323   6.461  0.1660 -0.3581 -0.2887
 5262SOL    HW127419   2.951   1.375   6.493 -0.4843 -2.0837  0.9636
 5262SOL    HW227420   3.014   1.325   6.366 -0.2339  0.7294 -0.2260
 5263SOL     OW27421   1.863   1.582   7.210  0.1590 -0.0996 -0.9604
 5263SOL    HW127422   1.787   1.637   7.226 -0.5469 -1.7998  1.5261
 5263SOL    HW227423   1.840   1.522   7.281 -1.2135  0.3195 -1.0623
 5264SOL     OW27424   2.817   3.687  15.884  0.1197 -0.0731  0.1496
 5264SOL    HW127425   2.877   3.642  15.824  0.0853  0.7025 -0.4621
 5264SOL    HW227426   2.735   3.680  15.835  0.9369  2.3238 -1.5249
 5265SOL     OW27427   3.457   0.153   9.642  0.0210  0.0994  0.9100
 5265SOL    HW127428   3.388   0.097   9.605 -1.4269  0.7148  2.6525
 5265SOL    HW227429   3.404   0.232   9.627  0.7250  0.0596 -1.8497
 5266SOL     OW27430   2.239   3.695   3.559  0.4868 -0.6277  0.3366
 5266SOL    HW127431   2.162   3.704   3.504  0.4685 -0.7545  0.3415
 5266SOL    HW227432   2.203   3.616   3.598 -2.7691  0.3156 -0.8083
 5267SOL     OW27433   2.929   0.743   5.223  0.0629  0.5319 -0.1153
 5267SOL    HW127434   2.864   0.814   5.216  0.5845  0.8434 -1.7416
 5267SOL    HW227435   3.015   0.784   5.219 -0.7002  2.0069 -1.5180
 5268SOL     OW27436   0.546   2.529   8.260  0.5260 -0.1700 -0.2616
 5268SOL    HW127437   0.532   2.438   8.284 -2.6452  0.4627  0.3116
 5268SOL    HW227438   0.638   2.545   8.279  0.7386 -1.7793 -0.0047
 5269SOL     OW27439   2.431   0.692   7.832  0.0019 -0.0133  0.3601
 5269SOL    HW127440   2.431   0.628   7.761 -1.9313 -1.7900  1.9618
 5269SOL    HW227441   2.373   0.657   7.900 -1.8198 -0.6691 -1.5183
 5270SOL     OW27442   2.028   0.449  14.031 -0.0146  0.1751 -0.2964
 5270SOL    HW127443   2.020   0.438  14.125  2.6653 -1.7990 -0.3085
 5270SOL    HW227444   2.109   0.500  14.024  0.0554  0.2485  1.2039
 5271SOL     OW27445   0.170   1.107   5.671  0.2889  0.3779 -0.2602
 5271SOL    HW127446   0.217   1.078   5.593  1.4191 -1.9040  1.2673
 5271SOL    HW227447   0.242   1.106   5.734  0.1789  0.4791 -0.1341
 5272SOL     OW27448   0.899   4.104   1.089 -0.5526 -0.0094  0.2761
 5272SOL    HW127449   0.925   4.139   1.174 -1.8669 -1.0510  1.0864
 5272SOL    HW227450   0.805   4.120   1.087 -1.0830 -3.1277  0.7784
 5273SOL     OW27451   2.343   1.585  11.456 -0.0606  0.0018  0.5107
 5273SOL    HW127452   2.394   1.666  11.460  1.8155 -1.1569 -0.0481
 5273SOL    HW227453   2.296   1.603  11.537 -0.6917 -0.0900  0.1683
 5274SOL     OW27454   3.548   2.372   9.477 -0.0277  0.1354  0.3975
 5274SOL    HW127455   3.640   2.365   9.505 -0.2037  1.1770  1.2172
 5274SOL    HW227456   3.521   2.426   9.551  0.4728 -1.7237  1.9288
 5275SOL     OW27457   1.403   2.926   8.238  0.0564  0.2780  1.0486
 5275SOL    HW127458   1.346   3.002   8.248 -1.6425 -0.7466 -0.9716
 5275SOL    HW227459   1.379   2.872   8.163 -1.1423 -0.9454  2.3145
 5276SOL     OW27460   3.001   3.222   0.462  0.6279 -0.2622  0.7907
 5276SOL    HW127461   3.059   3.164   0.411  0.1364  0.8688 -1.0660
 5276SOL    HW227462   2.920   3.175   0.440 -1.6434  3.7067  0.8228
 5277SOL     OW27463   3.877   0.489  17.692 -0.1477 -0.1216  0.0910
 5277SOL    HW127464   3.843   0.575  17.713  0.6668  0.0283  0.8076
 5277SOL    HW227465   3.814   0.434  17.738 -1.0776  1.1104  0.2593
 5278SOL     OW27466   0.316   0.273  16.022 -0.8827  0.0137 -0.1164
 5278SOL    HW127467   0.266   0.286  15.942 -0.6383  0.0717 -0.2606
 5278SOL    HW227468   0.292   0.182  16.039 -1.9843  0.2053 -0.6715
 5279SOL     OW27469   2.307   2.439   5.624 -0.1072 -0.4884 -0.4063
 5279SOL    HW127470   2.325   2.346   5.641 -0.3944 -0.5267 -0.3048
 5279SOL    HW227471   2.280   2.439   5.532  0.1116  1.7232 -0.4691
 5280SOL     OW27472   1.624   0.160   1.254 -0.4206  0.0367  0.4904
 5280SOL    HW127473   1.679   0.210   1.194 -1.1056  1.1030  0.7395
 5280SOL    HW227474   1.547   0.129   1.207  2.4217 -1.8907 -2.8729
 5281SOL     OW27475   1.408   3.941   9.156 -0.2637  0.3524 -0.2141
 5281SOL    HW127476   1.382   3.952   9.247 -0.8582  0.8339 -0.4391
 5281SOL    HW227477   1.398   3.846   9.149 -2.1631  0.6011 -0.8364
 5282SOL     OW27478   0.599   2.180   7.576 -0.1321 -0.2726 -0.5295
 5282SOL    HW127479   0.626   2.219   7.659 -0.9323 -0.2566 -0.2769
 5282SOL    HW227480   0.544   2.110   7.611 -1.3969  1.0019  0.0247
 5283SOL     OW27481   3.795   0.766   3.743 -0.1713  0.3583  0.3129
 5283SOL    HW127482   3.786   0.688   3.798 -1.0981  2.2962  2.9085
 5283SOL    HW227483   3.764   0.730   3.659 -0.9378 -0.4093  0.9102
 5284SOL     OW27484   3.161   1.732  12.774  0.0300  0.8312 -0.3608
 5284SOL    HW127485   3.071   1.719  12.803 -0.0452 -0.4321 -1.1888
 5284SOL    HW227486   3.172   1.694  12.687  0.9836 -2.6030  1.2521
 5285SOL     OW27487   4.312   2.592   2.837 -0.0552 -0.2685 -0.1443
 5285SOL    HW127488   4.320   2.639   2.754 -1.0224 -0.4187 -0.3201
 5285SOL    HW227489   4.385   2.532   2.828 -0.6583 -0.7722 -1.6724
 5286SOL     OW27490   3.575   2.240   6.632 -0.3122  0.0317  0.4879
 5286SOL    HW127491   3.584   2.282   6.546  3.2687  0.8801  1.2728
 5286SOL    HW227492   3.666   2.232   6.660 -0.5090 -3.1984  0.1605
 5287SOL     OW27493   0.595   4.131  14.749 -0.0238 -0.4783  0.1899
 5287SOL    HW127494   0.608   4.191  14.675 -1.2900 -2.1091 -1.3791
 5287SOL    HW227495   0.542   4.066  14.703  0.3823 -1.3329  0.9611
 5288SOL     OW27496   3.048   2.847   3.695  0.0746  0.4160  0.1222
 5288SOL    HW127497   3.125   2.830   3.641 -0.5032 -4.7667  0.8922
 5288SOL    HW227498   3.077   2.843   3.786  0.1616 -3.4559 -0.0535
 5289SOL     OW27499   1.979   3.061   6.167 -0.5583  0.3934 -0.0084
 5289SOL    HW127500   2.010   3.091   6.252 -0.3728  0.9130 -0.2597
 5289SOL    HW227501   2.005   3.130   6.105  1.7177 -0.5977 -0.1227
 5290SOL     OW27502   2.483   1.717   3.486  0.1366  0.0948 -0.3722
 5290SOL    HW127503   2.500   1.661   3.562 -1.7260 -2.1318 -1.6067
 5290SOL    HW227504   2.513   1.804   3.513 -1.8174  0.7932 -0.4809
 5291SOL     OW27505   1.806   2.427   6.109 -0.0645 -0.5188 -0.0452
 5291SOL    HW127506   1.821   2.421   6.203 -1.5645 -0.2213  0.2044
 5291SOL    HW227507   1.743   2.499   6.104  1.0682  0.3283 -2.3012
 5292SOL     OW27508   2.893   0.547  10.839 -0.1224  0.2350  0.0091
 5292SOL    HW127509   2.945   0.511  10.767 -0.2206 -0.7361  0.4198
 5292SOL    HW227510   2.867   0.634  10.808  0.2253  0.5672  0.6429
 5293SOL     OW27511   1.076   2.386  14.713 -0.1362 -0.2455  0.1272
 5293SOL    HW127512   1.006   2.429  14.664  2.7941  1.0999 -2.7931
 5293SOL    HW227513   1.055   2.293  14.723 -2.4369  0.1787 -0.5859
 5294SOL     OW27514   4.618   1.007  11.479 -0.5364 -0.2361  0.6408
 5294SOL    HW127515   4.616   1.096  11.513 -1.2017  0.0287 -0.1049
 5294SOL    HW227516   4.638   1.030  11.388  0.6035  1.3397  1.2945
 5295SOL     OW27517   4.104   1.471   4.464 -0.3364 -0.1798 -0.2719
 5295SOL    HW127518   4.067   1.464   4.376 -2.0814 -3.7827  0.7400
 5295SOL    HW227519   4.029   1.517   4.503  0.1536 -0.9084  1.5331
 5296SOL     OW27520   2.264   3.616   4.567 -0.4808 -0.2189  0.0557
 5296SOL    HW127521   2.305   3.698   4.595  1.8139 -1.5257  0.5425
 5296SOL    HW227522   2.177   3.612   4.605  0.2703 -2.5063  1.5191
 5297SOL     OW27523   4.258   0.773   4.416  0.1748 -0.2138 -0.0960
 5297SOL    HW127524   4.252   0.833   4.342  1.6932 -0.9570 -0.8231
 5297SOL    HW227525   4.281   0.687   4.379 -0.0718  0.1236 -1.0389
 5298SOL     OW27526   0.669   2.190   4.934  0.4081 -0.1105  0.2569
 5298SOL    HW127527   0.625   2.274   4.947  0.5648 -0.2811  1.8146
 5298SOL    HW227528   0.726   2.210   4.859 -0.4942 -1.6902 -0.8687
 5299SOL     OW27529   3.473   4.169   0.437  0.3714 -0.4230  0.2537
 5299SOL    HW127530   3.387   4.165   0.480  1.1904  0.7850  1.9687
 5299SOL    HW227531   3.447   4.149   0.347 -2.1744 -0.0521  0.8884
 5300SOL     OW27532   1.462   1.024  11.902  0.3530  0.1039 -0.1854
 5300SOL    HW127533   1.521   1.041  11.829 -2.5608 -1.5288 -2.9556
 5300SOL    HW227534   1.527   0.988  11.962  3.2595  2.5035 -1.9205
 5301SOL     OW27535   2.185   0.297  17.125  0.1120  0.1126 -0.1333
 5301SOL    HW127536   2.155   0.341  17.045  0.4460  0.0155 -0.3121
 5301SOL    HW227537   2.257   0.355  17.150  0.1870  0.4714 -1.1604
 5302SOL     OW27538   2.793   0.961   7.207  0.4270 -0.0425  0.5956
 5302SOL    HW127539   2.880   0.954   7.246  2.0390 -0.5539 -2.9959
 5302SOL    HW227540   2.790   0.899   7.134  0.9108  0.5595  0.0576
 5303SOL     OW27541   3.020   1.555   8.328 -0.2026 -0.3109  0.4863
 5303SOL    HW127542   3.023   1.492   8.256 -0.4997  2.5002 -1.9675
 5303SOL    HW227543   2.932   1.591   8.341 -0.6690 -0.1368 -3.0190
 5304SOL     OW27544   0.020   3.275   8.672 -0.2704  0.2112  0.3315
 5304SOL    HW127545   0.058   3.196   8.634 -2.0009 -0.8988  0.9362
 5304SOL    HW227546   4.678   3.231   8.689  1.2244 -2.9531 -0.6393
 5305SOL     OW27547   3.515   3.749  11.761  0.3920 -0.0841  0.7462
 5305SOL    HW127548   3.591   3.803  11.781  0.2785  0.4445 -0.2864
 5305SOL    HW227549   3.548   3.690  11.692  0.5667  4.3954 -2.9766
 5306SOL     OW27550   1.547   1.357   0.355  0.0770 -0.4336 -0.7682
 5306SOL    HW127551   1.503   1.275   0.376  0.5669 -0.3808  0.4538
 5306SOL    HW227552   1.567   1.341   0.263  0.8161  0.2780 -0.7268
 5307SOL     OW27553   4.582   1.125  14.000  0.5586 -0.8411 -0.4154
 5307SOL    HW127554   4.548   1.189  13.937  2.4741  0.2024 -0.3687
 5307SOL    HW227555   4.503   1.071  14.008 -0.4027  0.8705  1.4860
 5308SOL     OW27556   3.072   0.046   3.709  0.6418 -0.8617  0.0203
 5308SOL    HW127557   3.143   4.732   3.741  0.7851  0.5683  2.1728
 5308SOL    HW227558   3.057   0.005   3.624  3.7180 -0.8319 -0.5476
 5309SOL     OW27559   1.645   1.336   6.685 -0.2054  0.0200 -0.1447
 5309SOL    HW127560   1.719   1.303   6.735 -0.0792 -0.8572 -0.9185
 5309SOL    HW227561   1.666   1.424   6.653 -1.0714  0.9648  1.8683
 5310SOL     OW27562   0.380   3.703   3.162  0.2271 -0.3530  0.3606
 5310SOL    HW127563   0.412   3.619   3.196  1.6525 -0.3557 -1.0247
 5310SOL    HW227564   0.289   3.686   3.186  0.2660 -0.5835  0.3478
 5311SOL     OW27565   1.819   3.542   3.685  0.3968  0.4155 -0.3203
 5311SOL    HW127566   1.868   3.519   3.763 -2.6326  2.0018  2.0698
 5311SOL    HW227567   1.793   3.458   3.647  0.9915 -0.0065  0.2138
 5312SOL     OW27568   0.824   0.487   3.671  0.2709 -0.3385  0.6282
 5312SOL    HW127569   0.883   0.562   3.664 -0.9709  0.5331 -0.7486
 5312SOL    HW227570   0.832   0.468   3.764 -1.1947 -0.9473  0.6316
 5313SOL     OW27571   2.693   1.654   4.545  0.4304 -0.1485 -0.0585
 5313SOL    HW127572   2.757   1.603   4.594  0.1214  0.7784  1.3094
 5313SOL    HW227573   2.626   1.586   4.553 -0.1546  0.6596  2.0677
 5314SOL     OW27574   2.766   0.107   3.915  0.3987  0.3567 -0.1088
 5314SOL    HW127575   2.742   0.024   3.957 -0.2427  0.6088  0.0256
 5314SOL    HW227576   2.849   0.115   3.962  0.1812  1.5621  0.0695
 5315SOL     OW27577   0.739   0.752   3.866 -0.6898 -0.0528 -0.0341
 5315SOL    HW127578   0.662   0.807   3.882 -1.5340 -0.7054 -1.8221
 5315SOL    HW227579   0.792   0.808   3.810 -1.4327 -0.5106 -1.1852
 5316SOL     OW27580   0.880   2.483  14.536  0.0581 -0.9764  0.0360
 5316SOL    HW127581   0.813   2.547  14.558 -0.5225 -1.1000 -1.3619
 5316SOL    HW227582   0.911   2.521  14.453 -0.0751 -1.7769 -0.3860
 5317SOL     OW27583   3.928   3.879   9.198  0.4736 -0.1241 -0.4342
 5317SOL    HW127584   4.012   3.885   9.244 -1.7099 -2.3305  3.8275
 5317SOL    HW227585   3.869   3.889   9.272 -1.9548  1.2905 -2.5833
 5318SOL     OW27586   2.026   3.205  13.703  0.0344  0.3856  0.0606
 5318SOL    HW127587   2.119   3.226  13.712 -0.0374  1.9541 -2.9186
 5318SOL    HW227588   1.997   3.296  13.697  1.6360  0.9822  1.2811
 5319SOL     OW27589   0.842   4.681  12.223 -0.1136  0.2372 -0.2791
 5319SOL    HW127590   0.813   4.708  12.136 -1.6445  2.3152  0.8891
 5319SOL    HW227591   0.930   4.717  12.218 -0.9056  2.2328  0.1115
 5320SOL     OW27592   0.356   2.302  17.394 -0.0823 -0.2074 -0.5188
 5320SOL    HW127593   0.418   2.367  17.426 -1.2037  0.8649 -0.5087
 5320SOL    HW227594   0.358   2.234  17.461 -1.5135  0.7592  0.5131
 5321SOL     OW27595   1.037   0.561   1.710 -0.1671  0.6093 -0.6181
 5321SOL    HW127596   1.009   0.543   1.800  0.1049  3.1426 -0.0172
 5321SOL    HW227597   1.088   0.639   1.730 -1.5499  1.5080 -0.5905
 5322SOL     OW27598   3.028   1.412   9.584  0.2394 -0.0616 -0.3888
 5322SOL    HW127599   2.982   1.328   9.575 -0.5423  0.3097  0.1797
 5322SOL    HW227600   2.973   1.466   9.641  0.7407 -0.8710  0.8597
 5323SOL     OW27601   3.940   3.081  16.782 -0.1565  0.0519 -0.6029
 5323SOL    HW127602   3.866   3.022  16.799 -0.6959  0.1395 -2.7313
 5323SOL    HW227603   3.907   3.149  16.723 -2.5459  1.1808  2.0184
 5324SOL     OW27604   3.898   0.859   4.092 -0.2488  0.6136 -0.1811
 5324SOL    HW127605   3.986   0.880   4.123  0.3612  1.3085 -2.4514
 5324SOL    HW227606   3.891   0.918   4.018  0.5256 -1.0305 -1.5606
 5325SOL     OW27607   0.030   2.277   7.193 -0.7743 -0.2343 -0.1226
 5325SOL    HW127608   4.685   2.295   7.231  0.2899 -0.0416  2.1713
 5325SOL    HW227609   0.004   2.215   7.124 -0.1712  0.6053 -1.1132
 5326SOL     OW27610   2.744   1.850   5.874 -0.1483  0.1457 -0.0900
 5326SOL    HW127611   2.834   1.881   5.868  0.3530 -1.1472  0.7567
 5326SOL    HW227612   2.757   1.756   5.860 -0.1570  0.0697  0.4047
 5327SOL     OW27613   3.647   4.503   5.623 -0.3443 -0.2583 -0.1674
 5327SOL    HW127614   3.581   4.486   5.555 -0.1306 -0.0441 -0.4283
 5327SOL    HW227615   3.721   4.453   5.589  1.1932  3.1585 -1.9172
 5328SOL     OW27616   4.705   2.313   9.872 -0.4741  0.0463  0.3859
 5328SOL    HW127617   0.027   2.307   9.800  1.1535  0.7017  1.7342
 5328SOL    HW227618   4.619   2.301   9.833 -0.2815 -2.7340  0.8131
 5329SOL     OW27619   1.898   2.775   5.176 -0.5650 -0.2166 -0.2829
 5329SOL    HW127620   1.847   2.704   5.215 -0.3368  0.8621  1.9628
 5329SOL    HW227621   1.849   2.856   5.189  0.2709  0.1501  0.5706
 5330SOL     OW27622   0.992   2.538   4.423 -0.3235 -0.2938  0.3809
 5330SOL    HW127623   0.916   2.572   4.470 -0.5721  0.9991 -0.9786
 5330SOL    HW227624   1.034   2.475   4.482  0.5545  1.1563  1.3179
 5331SOL     OW27625   2.085   0.870   4.941 -0.4624 -0.1360  0.4011
 5331SOL    HW127626   2.039   0.862   5.025 -0.8170  0.4003  0.2640
 5331SOL    HW227627   2.143   0.796   4.927 -1.4363 -1.0273  0.9980
 5332SOL     OW27628   1.062   3.583   4.287  0.0453  1.0260  0.0361
 5332SOL    HW127629   0.970   3.563   4.299 -0.3796  1.2316 -2.8424
 5332SOL    HW227630   1.046   3.636   4.209 -2.6744 -0.2444 -0.2451
 5333SOL     OW27631   2.096   0.556   3.688 -0.2632 -0.4362  0.6398
 5333SOL    HW127632   2.133   0.620   3.749 -0.2444  0.6594 -0.5284
 5333SOL    HW227633   2.026   0.515   3.739 -1.8406  1.3791 -0.0583
 5334SOL     OW27634   2.502   1.416   4.225  0.1585 -0.5158 -0.1367
 5334SOL    HW127635   2.411   1.430   4.198 -0.3630 -4.4164 -0.3556
 5334SOL    HW227636   2.492   1.340   4.282  0.9149 -0.2840  0.3091
 5335SOL     OW27637   2.036   2.433  13.279 -0.1947  0.1252  0.4266
 5335SOL    HW127638   1.950   2.393  13.295 -1.4808  1.9193 -1.8500
 5335SOL    HW227639   2.041   2.436  13.184  0.2222  0.6392  0.4644
 5336SOL     OW27640   3.847   1.280   8.773  0.2494  0.4756  0.0123
 5336SOL    HW127641   3.890   1.306   8.855  1.6372  0.4719 -0.7134
 5336SOL    HW227642   3.808   1.358   8.732 -0.7506  0.1298  0.2969
 5337SOL     OW27643   4.433   1.355   2.399  0.3104 -0.1399  0.3109
 5337SOL    HW127644   4.408   1.267   2.369 -0.4658 -0.4191  1.7977
 5337SOL    HW227645   4.402   1.358   2.489 -1.4455 -1.3172 -0.2404
 5338SOL     OW27646   4.311   3.980  10.188  0.1658  0.2653  0.2228
 5338SOL    HW127647   4.267   4.065  10.197 -0.4750 -0.0643  0.1558
 5338SOL    HW227648   4.398   4.012  10.163  0.6135  0.5732  2.1421
 5339SOL     OW27649   0.417   3.747   9.555  0.1277  0.4736  0.1856
 5339SOL    HW127650   0.368   3.676   9.597 -0.1481 -0.3438 -1.5082
 5339SOL    HW227651   0.506   3.719   9.574 -0.3667  0.1084  1.9525
 5340SOL     OW27652   1.410   2.536   5.492  0.6062  0.1473 -0.4170
 5340SOL    HW127653   1.497   2.569   5.468  0.8036 -0.4577 -0.5396
 5340SOL    HW227654   1.378   2.507   5.406  0.4304  0.0836 -0.3298
 5341SOL     OW27655   3.424   1.079   8.252  0.3233 -0.2335  0.6562
 5341SOL    HW127656   3.407   1.151   8.192  0.4643 -1.9546 -1.4675
 5341SOL    HW227657   3.364   1.015   8.213  0.2056  1.0847 -1.3216
 5342SOL     OW27658   0.726   4.321   1.852 -0.3611 -0.4724  0.4186
 5342SOL    HW127659   0.755   4.392   1.794 -1.0088  0.0969  0.7909
 5342SOL    HW227660   0.643   4.296   1.812 -1.3524  0.0463  2.1451
 5343SOL     OW27661   3.705   0.671   3.522 -0.3040  0.4156 -0.3158
 5343SOL    HW127662   3.684   0.613   3.449 -0.8331 -2.0103  1.7654
 5343SOL    HW227663   3.638   0.739   3.514  1.8884  2.5643 -0.5573
 5344SOL     OW27664   4.027   0.460   4.704 -0.1559  0.3403  0.0892
 5344SOL    HW127665   3.963   0.432   4.638 -2.5579  1.8928  1.7619
 5344SOL    HW227666   4.090   0.389   4.694 -0.4000 -0.0171  1.1069
 5345SOL     OW27667   2.098   4.685  11.264  0.0508  0.1790 -0.4320
 5345SOL    HW127668   2.057   4.599  11.263 -0.8503  0.6158 -0.6094
 5345SOL    HW227669   2.191   4.660  11.260  0.0355  0.1076 -0.3447
 5346SOL     OW27670   1.661   2.426   6.894 -0.2503  0.1087  0.5419
 5346SOL    HW127671   1.748   2.386   6.891  0.5951  2.0076  0.0753
 5346SOL    HW227672   1.660   2.505   6.840 -0.5777 -0.1339  0.1894
 5347SOL     OW27673   1.821   1.460   0.796  0.1424  0.1274  0.4430
 5347SOL    HW127674   1.732   1.445   0.830  0.1983  0.0222  0.5435
 5347SOL    HW227675   1.841   1.545   0.835  0.8773 -0.7452  1.9533
 5348SOL     OW27676   4.215   2.832   6.542  0.3733  0.5140 -0.0522
 5348SOL    HW127677   4.154   2.906   6.538 -1.2593 -0.8421  0.2252
 5348SOL    HW227678   4.278   2.856   6.474  0.8849 -2.2148 -0.5302
 5349SOL     OW27679   2.420   1.087   1.774 -0.0813  0.0174 -0.1907
 5349SOL    HW127680   2.472   1.094   1.854  2.3434  0.6617 -1.8218
 5349SOL    HW227681   2.338   1.098   1.822  0.2499 -0.0256  0.3849
 5350SOL     OW27682   0.773   1.094   1.888  0.0563  0.1012 -0.4785
 5350SOL    HW127683   0.814   1.169   1.845 -1.2464  0.3979 -1.2139
 5350SOL    HW227684   0.825   1.022   1.852  0.5754  0.3285 -0.1810
 5351SOL     OW27685   1.450   4.458   1.962  0.3018  0.0267 -0.3260
 5351SOL    HW127686   1.360   4.452   1.993  0.7747  2.0081  1.4062
 5351SOL    HW227687   1.496   4.379   1.992 -1.8765 -1.0440  0.2141
 5352SOL     OW27688   0.437   1.424   4.448 -0.0530  0.0025  0.4709
 5352SOL    HW127689   0.482   1.385   4.522 -1.1114 -0.7432  0.7124
 5352SOL    HW227690   0.452   1.519   4.455 -2.5353  0.4884 -0.8187
 5353SOL     OW27691   0.065   4.396  16.218 -0.3169 -1.0386 -0.0924
 5353SOL    HW127692   0.145   4.387  16.271 -0.3193 -0.8707 -0.0602
 5353SOL    HW227693   0.108   4.373  16.136 -0.6071  1.8078 -1.0609
 5354SOL     OW27694   2.043   1.354  15.517 -0.2067 -0.5423 -0.1031
 5354SOL    HW127695   1.957   1.324  15.488  0.3703 -1.5794 -0.7450
 5354SOL    HW227696   2.049   1.448  15.500 -2.6376 -0.1249  1.3254
 5355SOL     OW27697   4.572   0.741   8.312 -0.2764  0.0276 -0.1915
 5355SOL    HW127698   4.592   0.675   8.378 -1.2089 -1.1885 -1.1275
 5355SOL    HW227699   4.586   0.695   8.229 -0.6539  0.9090 -0.7589
 5356SOL     OW27700   3.282   1.843   9.084  0.1381  0.5614  0.1231
 5356SOL    HW127701   3.336   1.780   9.038  1.3983  2.5909 -1.1777
 5356SOL    HW227702   3.209   1.785   9.105 -0.9683  2.5681  1.8907
 5357SOL     OW27703   3.629   4.290   8.573  0.0108 -0.7090 -0.4957
 5357SOL    HW127704   3.625   4.297   8.668  0.4074  0.3410 -0.5633
 5357SOL    HW227705   3.541   4.325   8.560  0.5587  1.0367  0.5143
 5358SOL     OW27706   4.603   4.454   8.031 -0.1173 -0.1451 -0.2435
 5358SOL    HW127707   4.607   4.388   8.100 -0.3444  0.9165  0.7972
 5358SOL    HW227708   4.606   4.400   7.953 -1.1101 -2.5046  1.3429
 5359SOL     OW27709   1.180   0.011   1.167  0.1375  0.0985  0.1894
 5359SOL    HW127710   1.091   4.730   1.137  0.7564 -1.2751 -0.6633
 5359SOL    HW227711   1.155   0.019   1.259 -1.4576 -0.8804 -0.1501
 5360SOL     OW27712   0.048   0.538   4.394  0.0085 -0.0781 -0.2606
 5360SOL    HW127713   0.002   0.524   4.311  2.3693  2.4545 -1.9955
 5360SOL    HW227714   0.100   0.458   4.394 -2.3088 -1.6058 -0.7298
 5361SOL     OW27715   3.805   4.210   4.297 -0.3224 -0.3132 -0.2926
 5361SOL    HW127716   3.822   4.140   4.234  0.1816 -0.1822 -0.2943
 5361SOL    HW227717   3.709   4.215   4.300 -0.2936  0.4591 -0.7271
 5362SOL     OW27718   2.917   1.420   3.145 -0.8753  0.7308  0.0697
 5362SOL    HW127719   2.951   1.340   3.185  2.0416  2.3197  0.8270
 5362SOL    HW227720   2.923   1.403   3.051  0.2094 -1.8483  0.6147
 5363SOL     OW27721   3.133   3.652  12.161  0.0784 -0.5979  0.1596
 5363SOL    HW127722   3.092   3.578  12.115  1.6471 -0.0222 -2.1856
 5363SOL    HW227723   3.200   3.675  12.097 -0.2966 -1.8397 -0.6998
 5364SOL     OW27724   3.871   2.546   2.842  0.5597 -0.0279  0.3530
 5364SOL    HW127725   3.870   2.615   2.777  1.5519 -1.2568 -0.9539
 5364SOL    HW227726   3.786   2.502   2.834  0.5195  0.0371  0.4236
 5365SOL     OW27727   3.801   2.506  15.175 -0.0248 -0.0124  0.2115
 5365SOL    HW127728   3.766   2.540  15.093  0.0148 -2.1836 -0.7272
 5365SOL    HW227729   3.799   2.583  15.232 -1.4260  0.0315  0.1194
 5366SOL     OW27730   4.429   0.137   3.416  0.1884  0.6160  0.5251
 5366SOL    HW127731   4.521   0.163   3.411  0.0122  0.9714 -0.9780
 5366SOL    HW227732   4.405   0.187   3.494 -0.6473  0.4973  0.3491
 5367SOL     OW27733   2.918   4.090  15.079 -0.3829 -0.6386  0.9366
 5367SOL    HW127734   2.897   4.180  15.057 -1.3027 -1.3448 -1.0744
 5367SOL    HW227735   2.973   4.093  15.158 -0.4882 -3.0219  1.1244
 5368SOL     OW27736   1.561   4.013  11.960  0.1632  0.3240  0.2328
 5368SOL    HW127737   1.639   4.043  12.007  0.5003  3.3896 -2.2774
 5368SOL    HW227738   1.484   4.029  12.014  1.3908  1.0842  1.7461
 5369SOL     OW27739   2.748   2.499   6.299 -0.4307  0.1428 -0.3460
 5369SOL    HW127740   2.735   2.476   6.207 -1.1246  1.9738 -0.7146
 5369SOL    HW227741   2.837   2.468   6.312  0.1052  1.0801 -1.7883
 5370SOL     OW27742   0.331   2.890   0.714  0.4123  0.1556  0.1169
 5370SOL    HW127743   0.318   2.913   0.806 -0.2285 -2.9638  0.7850
 5370SOL    HW227744   0.363   2.979   0.700  0.0721  0.0715 -1.1331
 5371SOL     OW27745   1.548   3.986   5.743  0.0697 -0.2979 -0.5831
 5371SOL    HW127746   1.633   3.957   5.775 -0.0579 -1.2978 -1.1396
 5371SOL    HW227747   1.562   4.004   5.650  0.7661  0.7083 -0.2812
 5372SOL     OW27748   0.715   0.429   9.491 -0.0291 -0.0735 -0.2560
 5372SOL    HW127749   0.668   0.349   9.516 -0.1908  0.8225  2.3837
 5372SOL    HW227750   0.644   0.476   9.447  0.7394 -0.1383 -1.5499
 5373SOL     OW27751   3.310   4.383   6.927 -0.4093 -0.0747 -0.2148
 5373SOL    HW127752   3.353   4.441   6.990 -2.6493  0.3799  0.8622
 5373SOL    HW227753   3.362   4.412   6.852 -0.9228 -0.5599 -0.7630
 5374SOL     OW27754   3.081   3.747   6.795  0.3431  0.0405  0.0392
 5374SOL    HW127755   3.108   3.732   6.705  2.2501 -0.6904  0.7281
 5374SOL    HW227756   3.102   3.660   6.829  0.8253  0.7925  1.6828
 5375SOL     OW27757   4.535   3.823   3.976 -1.3586 -0.0794  0.2976
 5375SOL    HW127758   4.573   3.740   4.005 -2.0150 -0.7373 -0.7310
 5375SOL    HW227759   4.585   3.879   4.035 -2.1637  0.0216  0.8836
 5376SOL     OW27760   0.014   0.001   9.167 -0.1052  0.8590  0.4829
 5376SOL    HW127761   0.088   4.682   9.154 -1.0797  0.4505 -3.0550
 5376SOL    HW227762   4.706   4.688   9.229 -1.9008  0.3575 -1.4188
 5377SOL     OW27763   3.554   2.549   2.528 -0.2026  0.8334 -0.3561
 5377SOL    HW127764   3.506   2.511   2.455  0.5029 -1.7549  0.5235
 5377SOL    HW227765   3.605   2.618   2.486  0.3755 -1.1170 -2.8194
 5378SOL     OW27766   4.004   2.314   3.704  0.5931 -0.3772 -0.5581
 5378SOL    HW127767   4.061   2.370   3.757 -0.0184  2.2829 -2.6893
 5378SOL    HW227768   3.918   2.356   3.707  0.6989 -0.1090 -1.3758
 5379SOL     OW27769   0.618   0.500   3.900 -0.2428 -0.3588  0.0810
 5379SOL    HW127770   0.669   0.573   3.863 -1.8861  0.0671 -1.3619
 5379SOL    HW227771   0.578   0.538   3.978 -0.0540  1.1912 -0.5714
 5380SOL     OW27772   3.315   0.718  12.607 -0.1171  0.1105 -0.2876
 5380SOL    HW127773   3.338   0.811  12.603 -0.8466  0.2521 -1.0536
 5380SOL    HW227774   3.312   0.682  12.519 -0.5982 -0.6324  0.0279
 5381SOL     OW27775   2.081   3.655   6.546  0.2924 -0.1663  0.4237
 5381SOL    HW127776   1.999   3.629   6.587 -0.8716  2.9766  0.1049
 5381SOL    HW227777   2.108   3.707   6.621 -0.2433  0.5823  0.0953
 5382SOL     OW27778   0.375   1.657   2.679  0.2748  0.1506  1.0772
 5382SOL    HW127779   0.292   1.613   2.699  0.1940 -1.0945 -1.9351
 5382SOL    HW227780   0.345   1.724   2.617  1.8232  0.1770  0.3535
 5383SOL     OW27781   0.863   3.315  12.212 -0.2091 -0.3495  0.3449
 5383SOL    HW127782   0.783   3.289  12.258 -0.6239  1.2251  0.5347
 5383SOL    HW227783   0.911   3.363  12.280  0.7187  0.9176 -1.1938
 5384SOL     OW27784   0.221   3.067  14.457  0.0493 -0.6370  0.2666
 5384SOL    HW127785   0.230   2.980  14.496 -2.7947 -0.4020  1.4527
 5384SOL    HW227786   0.251   3.124  14.528  0.4021  2.0748 -2.0764
 5385SOL     OW27787   2.151   3.092   7.321  0.1060 -0.4643  0.3522
 5385SOL    HW127788   2.241   3.112   7.345  0.7791 -0.3339 -2.2347
 5385SOL    HW227789   2.096   3.106   7.398 -0.2272 -0.7954  0.1744
 5386SOL     OW27790   2.058   2.817   3.765  0.4960 -0.7207  0.4743
 5386SOL    HW127791   2.083   2.744   3.822  0.6633  0.4052  1.8403
 5386SOL    HW227792   2.078   2.890   3.823 -0.8835  1.2195 -1.5002
 5387SOL     OW27793   1.684   3.919  13.176  0.4138 -0.1552  0.8141
 5387SOL    HW127794   1.615   3.985  13.178 -0.2122 -0.6837 -2.1936
 5387SOL    HW227795   1.722   3.932  13.088 -0.5875  0.8000  0.5299
 5388SOL     OW27796   1.922   3.404   4.443 -0.0712  0.5429  0.5919
 5388SOL    HW127797   1.892   3.485   4.484 -1.7717  0.0160  0.3662
 5388SOL    HW227798   1.974   3.366   4.515 -0.5040 -2.5979 -0.7849
 5389SOL     OW27799   2.321   1.489   4.867  0.0871 -0.6109  0.0030
 5389SOL    HW127800   2.300   1.563   4.810 -2.9699 -1.3687  0.1797
 5389SOL    HW227801   2.417   1.490   4.860  0.1643  1.9873  1.2604
 5390SOL     OW27802   1.612   4.666   8.294  0.3118 -0.4736  0.1896
 5390SOL    HW127803   1.574   4.668   8.207  1.9480 -0.5713 -0.5349
 5390SOL    HW227804   1.667   0.004   8.293  0.1004 -0.3275  0.0687
 5391SOL     OW27805   0.133   1.387   9.528 -0.2660 -0.4243 -0.2210
 5391SOL    HW127806   0.222   1.373   9.562 -0.2540  1.7634  0.7091
 5391SOL    HW227807   0.131   1.476   9.493  1.5600 -1.0727 -1.9553
 5392SOL     OW27808   4.731   2.147   7.699  0.6097 -0.0260  0.3547
 5392SOL    HW127809   4.702   2.191   7.778  0.5266 -0.8622  0.7920
 5392SOL    HW227810   0.083   2.147   7.720  0.8507  0.2207 -0.7133
 5393SOL     OW27811   1.606   0.111   7.751 -0.2155  0.0864 -0.0070
 5393SOL    HW127812   1.634   0.163   7.826  1.3811  1.0767 -1.2890
 5393SOL    HW227813   1.659   0.145   7.679 -0.1618 -0.4780 -0.2324
 5394SOL     OW27814   0.881   3.286  11.129 -0.1990 -0.4018  0.2798
 5394SOL    HW127815   0.944   3.271  11.200  2.6762  0.0325 -2.1827
 5394SOL    HW227816   0.940   3.335  11.071  1.4537  0.6232  2.8590
 5395SOL     OW27817   4.048   2.817   9.884  0.4366 -0.3940 -0.2180
 5395SOL    HW127818   3.969   2.865   9.855  1.2477  1.0968  0.0325
 5395SOL    HW227819   4.032   2.734   9.840 -0.8088 -0.2035 -0.1537
 5396SOL     OW27820   3.699   0.888   2.496  0.1716  0.0453  0.2262
 5396SOL    HW127821   3.752   0.958   2.459 -1.3838  1.5620  0.8237
 5396SOL    HW227822   3.621   0.902   2.442  0.7396 -1.7058 -1.0358
 5397SOL     OW27823   1.170   4.701   8.410  0.2784 -0.1942 -0.1432
 5397SOL    HW127824   1.225   4.715   8.487  0.5382 -0.0026 -0.3619
 5397SOL    HW227825   1.095   0.011   8.439  0.8452  0.3020  0.4508
 5398SOL     OW27826   1.387   4.689   8.868 -0.4434 -0.0850 -0.1290
 5398SOL    HW127827   1.445   4.648   8.932 -1.1017 -1.6190 -0.5122
 5398SOL    HW227828   1.300   4.687   8.909 -0.9485  0.9073 -1.1472
 5399SOL     OW27829   3.761   1.364   6.128 -0.2642  0.3797  0.4386
 5399SOL    HW127830   3.823   1.400   6.191  1.1118 -1.7201  0.2623
 5399SOL    HW227831   3.798   1.281   6.098  0.8096  1.0290 -0.0257
 5400SOL     OW27832   0.468   3.054  15.316  0.6905 -0.2943  0.1465
 5400SOL    HW127833   0.427   2.979  15.272  0.9529  1.1007 -2.4195
 5400SOL    HW227834   0.558   3.021  15.315  0.2061 -1.4396 -3.5232
 5401SOL     OW27835   0.022   2.414   2.770  0.4765 -0.3302  0.2323
 5401SOL    HW127836   0.021   2.507   2.747 -0.4811 -0.3567  0.1634
 5401SOL    HW227837   0.076   2.417   2.849  0.5290 -0.1219  0.1873
 5402SOL     OW27838   3.584   2.440   0.469  0.3820  0.0845 -0.3973
 5402SOL    HW127839   3.639   2.488   0.406  0.6351  0.0557 -0.1998
 5402SOL    HW227840   3.567   2.517   0.523 -0.1749 -0.2247 -0.1375
 5403SOL     OW27841   4.660   0.867   7.048 -0.2832  0.2869 -0.2078
 5403SOL    HW127842   4.722   0.889   6.979  1.5882 -1.4286  0.9445
 5403SOL    HW227843   4.581   0.909   7.012 -0.4005 -1.2342 -1.7357
 5404SOL     OW27844   2.650   3.956  11.968  0.1601  0.6130  0.1255
 5404SOL    HW127845   2.724   3.926  12.020 -1.4285 -0.3361  1.8485
 5404SOL    HW227846   2.616   4.021  12.029 -1.6133 -0.3161  0.1582
 5405SOL     OW27847   2.295   1.265   7.521 -0.0405 -0.0742 -0.0235
 5405SOL    HW127848   2.256   1.191   7.474 -2.2955  1.2913 -0.2976
 5405SOL    HW227849   2.247   1.244   7.601 -0.8283 -1.0308 -0.7402
 5406SOL     OW27850   0.627   1.384  10.250 -0.4488  0.6376 -0.4885
 5406SOL    HW127851   0.632   1.480  10.247 -0.0252  0.7040  2.5240
 5406SOL    HW227852   0.703   1.370  10.306 -0.0237  0.4207 -1.1168
 5407SOL     OW27853   3.736   3.170   7.085  0.2875  0.2161 -0.1592
 5407SOL    HW127854   3.776   3.111   7.149 -0.0317 -0.1778 -0.3309
 5407SOL    HW227855   3.690   3.101   7.039  0.1530  0.9454 -1.1133
 5408SOL     OW27856   1.392   4.439  14.230 -0.0062 -0.6653 -0.4906
 5408SOL    HW127857   1.466   4.498  14.216 -0.2786 -0.0350  0.6442
 5408SOL    HW227858   1.328   4.505  14.256 -0.7346 -1.8884  0.8639
 5409SOL     OW27859   0.565   1.052   0.406  0.3587  0.0463  0.2389
 5409SOL    HW127860   0.603   1.113   0.469 -0.2572 -0.3975  1.0273
 5409SOL    HW227861   0.643   1.044   0.350 -1.1822 -0.5802 -1.8003
 5410SOL     OW27862   0.022   0.731   6.493 -0.5728  0.2258 -0.5538
 5410SOL    HW127863   0.072   0.731   6.412 -1.1525  1.0098 -0.9139
 5410SOL    HW227864   0.088   0.732   6.563  0.8621  0.5228 -1.9226
 5411SOL     OW27865   4.638   1.330   7.729  1.0198  0.2295  0.2694
 5411SOL    HW127866   4.685   1.323   7.645 -0.2007  0.2018 -0.4056
 5411SOL    HW227867   4.624   1.425   7.728  0.0505  0.0865  1.1238
 5412SOL     OW27868   2.635   2.200   7.754  0.6395  0.3372  0.5463
 5412SOL    HW127869   2.563   2.193   7.817  0.4346 -1.0857  0.1521
 5412SOL    HW227870   2.640   2.289   7.720  0.2046  1.0466  2.3148
 5413SOL     OW27871   4.716   4.337   5.537  0.2159  0.0733  0.9696
 5413SOL    HW127872   4.660   4.408   5.505  0.6656  0.2403  0.5426
 5413SOL    HW227873   4.654   4.265   5.527 -1.1654  1.3260  0.3780
 5414SOL     OW27874   2.363   2.006   9.782 -0.5127 -0.3328  0.0995
 5414SOL    HW127875   2.381   1.939   9.717  1.2067  1.3385 -1.1644
 5414SOL    HW227876   2.433   1.989   9.844 -1.1397 -0.3344  0.8114
 5415SOL     OW27877   1.225   3.684  17.146  0.1758  0.0122  0.0754
 5415SOL    HW127878   1.271   3.600  17.144 -0.7892 -0.4515 -2.0927
 5415SOL    HW227879   1.192   3.691  17.057 -0.0111  0.6140  0.1949
 5416SOL     OW27880   4.207   1.418  17.312  0.0712 -0.2775 -0.0727
 5416SOL    HW127881   4.217   1.417  17.217  0.1625  0.7241 -0.0692
 5416SOL    HW227882   4.211   1.326  17.340  0.4871 -0.0508  0.6236
 5417SOL     OW27883   0.573   3.969   9.037 -0.2169 -0.1160  0.4612
 5417SOL    HW127884   0.491   3.923   9.052 -0.2916 -0.2442 -0.3518
 5417SOL    HW227885   0.623   3.955   9.118  0.4349  0.4097  0.1557
 5418SOL     OW27886   4.289   1.448   9.603 -0.0601  0.1265  0.0690
 5418SOL    HW127887   4.242   1.468   9.523 -3.0015  2.0454  2.3002
 5418SOL    HW227888   4.329   1.528   9.636 -2.0544 -0.2394  3.4055
 5419SOL     OW27889   1.314   1.438   7.831 -0.1121  0.4627 -0.3065
 5419SOL    HW127890   1.281   1.402   7.913  1.8295 -0.3618  0.1252
 5419SOL    HW227891   1.408   1.438   7.853 -0.3203  0.1129  0.6104
 5420SOL     OW27892   4.447   4.541  13.418 -0.0657 -0.7356 -0.1544
 5420SOL    HW127893   4.357   4.527  13.388  0.0816 -2.4727  0.2416
 5420SOL    HW227894   4.484   4.480  13.354 -2.3161 -0.8420 -1.3496
 5421SOL     OW27895   1.534   2.030  16.979  0.4021 -0.1613 -0.4370
 5421SOL    HW127896   1.473   2.050  16.907  1.3454 -1.2872 -1.5579
 5421SOL    HW227897   1.535   2.115  17.023  1.2685 -0.0758 -0.6121
 5422SOL     OW27898   1.010   3.300  10.684  0.1593  0.4320  0.2932
 5422SOL    HW127899   1.020   3.271  10.593 -0.6126 -2.3362  1.0846
 5422SOL    HW227900   1.101   3.293  10.712  0.1576 -2.1905 -0.3572
 5423SOL     OW27901   0.806   2.325   4.308 -0.0867 -0.3813 -0.3173
 5423SOL    HW127902   0.767   2.268   4.374 -0.9819 -1.5524 -1.8518
 5423SOL    HW227903   0.881   2.363   4.354  1.5337 -0.5029 -2.7913
 5424SOL     OW27904   0.388   2.714   2.072  0.0278 -1.0597  0.0300
 5424SOL    HW127905   0.430   2.627   2.071  3.8603  0.7935 -0.1019
 5424SOL    HW227906   0.431   2.743   2.152  3.0775 -1.7027 -1.3685
 5425SOL     OW27907   3.657   4.198  12.567 -0.2494 -0.5186 -0.4300
 5425SOL    HW127908   3.671   4.239  12.652 -1.2296  1.6387 -1.3130
 5425SOL    HW227909   3.744   4.162  12.547 -0.1257  0.3878 -1.5737
 5426SOL     OW27910   1.182   1.681   5.338  0.1268 -0.7638  0.2097
 5426SOL    HW127911   1.204   1.773   5.352 -1.1269 -0.5313  0.6386
 5426SOL    HW227912   1.231   1.633   5.405  0.5842  0.5032  0.7858
 5427SOL     OW27913   0.334   2.982   3.535  0.1833  0.9968 -0.5295
 5427SOL    HW127914   0.404   2.965   3.598 -0.3677  1.4556  0.2250
 5427SOL    HW227915   0.358   3.070   3.505  2.9120  0.4833  0.1335
 5428SOL     OW27916   0.002   4.607  10.971  0.5698 -0.1508 -0.7365
 5428SOL    HW127917   4.722   4.635  10.882 -1.0414  3.2301  0.7060
 5428SOL    HW227918   0.089   4.644  10.986  0.8525 -1.2111  0.2708
 5429SOL     OW27919   3.381   3.055  11.667 -0.1938  0.5739 -0.5651
 5429SOL    HW127920   3.317   3.009  11.613 -1.5629  1.8638 -0.0267
 5429SOL    HW227921   3.460   3.051  11.613 -0.3788 -1.6432 -0.6944
 5430SOL     OW27922   0.378   1.820  15.165  0.4338  0.2312  0.2003
 5430SOL    HW127923   0.356   1.757  15.096  3.0563  1.8450 -2.1181
 5430SOL    HW227924   0.467   1.796  15.191  0.5146  1.8347  1.4048
 5431SOL     OW27925   2.259   3.272  17.183  0.0429  0.1935 -0.0545
 5431SOL    HW127926   2.307   3.233  17.110 -0.4214 -0.0123 -0.2476
 5431SOL    HW227927   2.289   3.220  17.258 -1.2230  0.8207  0.8914
 5432SOL     OW27928   4.336   1.810  14.514  0.3217  0.6264  0.1307
 5432SOL    HW127929   4.329   1.843  14.424 -0.2195  0.3891  0.0831
 5432SOL    HW227930   4.341   1.716  14.498  1.8119  1.1779 -2.6816
 5433SOL     OW27931   4.704   4.602   4.866 -0.4248  0.2720  0.3786
 5433SOL    HW127932   4.666   4.576   4.950  1.5191 -1.1225  0.8170
 5433SOL    HW227933   4.664   4.537   4.807  2.5486  0.3297 -1.6914
 5434SOL     OW27934   2.732   3.859   3.587 -0.0876 -0.0292 -0.3582
 5434SOL    HW127935   2.659   3.919   3.605 -0.3499 -0.1869 -0.9156
 5434SOL    HW227936   2.775   3.920   3.527  2.4817  0.1219  1.6136
 5435SOL     OW27937   1.813   0.190   7.596  0.0009 -0.2938 -0.3476
 5435SOL    HW127938   1.850   0.102   7.594 -1.6998 -0.9949 -1.5229
 5435SOL    HW227939   1.879   0.239   7.644 -0.0184  1.7285 -2.3897
 5436SOL     OW27940   0.752   4.609  15.929  0.4305 -0.3910 -0.8616
 5436SOL    HW127941   0.803   4.652  15.998 -0.3367 -1.6091  0.4512
 5436SOL    HW227942   0.673   4.580  15.974  0.6533  1.0789  0.5041
 5437SOL     OW27943   3.433   0.960  14.870  0.1908 -0.1627 -0.0493
 5437SOL    HW127944   3.477   0.893  14.817 -0.2577 -0.5372  0.0438
 5437SOL    HW227945   3.367   0.995  14.810 -0.8206 -2.4286 -0.2714
 5438SOL     OW27946   4.008   2.609   0.727 -0.1966 -0.1583  0.3011
 5438SOL    HW127947   3.954   2.683   0.754  2.2691  1.1770  1.6239
 5438SOL    HW227948   4.028   2.645   0.641  0.3970  0.4278  0.6869
 5439SOL     OW27949   2.914   3.502   9.006  0.0690  0.2127  1.1849
 5439SOL    HW127950   3.008   3.486   8.997 -0.1326  0.7154 -1.7924
 5439SOL    HW227951   2.904   3.526   9.098 -1.2668 -0.0057  1.0969
 5440SOL     OW27952   2.381   3.288   4.341  0.2163  0.2278 -0.5937
 5440SOL    HW127953   2.350   3.324   4.259 -2.2319 -0.4153  0.0501
 5440SOL    HW227954   2.477   3.289   4.340  0.1905  2.2692 -1.2938
 5441SOL     OW27955   1.639   4.622   1.082  0.1294  0.2277 -0.1981
 5441SOL    HW127956   1.671   4.624   0.992  0.3671 -1.9593 -0.1507
 5441SOL    HW227957   1.563   4.679   1.067 -1.9450 -2.2036  1.0172
 5442SOL     OW27958   1.668   2.877   6.386  0.0040 -0.3077 -0.2010
 5442SOL    HW127959   1.741   2.937   6.401 -0.5799  0.5125 -0.6649
 5442SOL    HW227960   1.703   2.806   6.441 -3.7467  0.4916  3.1813
 5443SOL     OW27961   4.206   1.089   5.290  0.1395 -0.1688 -0.0236
 5443SOL    HW127962   4.178   1.156   5.227  0.5782 -1.7591 -1.9103
 5443SOL    HW227963   4.296   1.070   5.266  0.2558 -0.0592  0.3211
 5444SOL     OW27964   3.275   0.650  11.842  0.7658  0.1798 -0.7704
 5444SOL    HW127965   3.236   0.700  11.771 -1.0211  0.3606  0.3404
 5444SOL    HW227966   3.220   0.685  11.912 -0.5872 -1.0152 -1.2447
 5445SOL     OW27967   3.558   3.584   3.940  0.5028  0.0106 -0.1460
 5445SOL    HW127968   3.509   3.641   3.999 -1.3249 -5.5904  3.7261
 5445SOL    HW227969   3.548   3.498   3.980  0.2550 -0.2749 -0.8245
 5446SOL     OW27970   3.131   2.805   5.762  0.1198 -0.9455  0.9886
 5446SOL    HW127971   3.095   2.807   5.673 -0.3535 -0.4335  1.1949
 5446SOL    HW227972   3.207   2.859   5.741 -0.7449 -0.2389 -0.2879
 5447SOL     OW27973   4.325   1.513  13.089 -0.4832 -0.1788  0.4669
 5447SOL    HW127974   4.258   1.569  13.049 -0.5188 -0.5919 -0.0520
 5447SOL    HW227975   4.402   1.568  13.097  0.6397 -1.6237 -0.4370
 5448SOL     OW27976   4.615   1.453   9.358  0.6664  0.4790  0.6910
 5448SOL    HW127977   4.709   1.456   9.344  0.8222  1.1202  1.9025
 5448SOL    HW227978   4.601   1.543   9.385 -2.0739  0.5715 -1.0240
 5449SOL     OW27979   0.595   1.833   3.448 -0.2835  0.3835 -0.0983
 5449SOL    HW127980   0.519   1.875   3.489  0.7244  0.2799  1.9022
 5449SOL    HW227981   0.576   1.858   3.357  0.5250 -0.7698 -0.5705
 5450SOL     OW27982   0.585   1.922   2.153 -0.2054  0.1188 -0.3309
 5450SOL    HW127983   0.499   1.958   2.131 -0.6297 -2.0023 -2.1720
 5450SOL    HW227984   0.631   1.968   2.083 -0.0611  1.3167  0.5516
 5451SOL     OW27985   2.368   3.293  12.975 -0.0188 -0.5649  0.1948
 5451SOL    HW127986   2.412   3.243  12.906  0.8747 -1.6846  1.5756
 5451SOL    HW227987   2.280   3.300  12.940 -0.2930 -1.1342  0.7600
 5452SOL     OW27988   4.114   0.439   5.990 -0.3317 -0.3889 -0.2500
 5452SOL    HW127989   4.114   0.528   5.953 -0.3075 -0.0453  0.5856
 5452SOL    HW227990   4.123   0.454   6.084  2.1151 -1.3170 -0.3261
 5453SOL     OW27991   0.646   2.793   8.657 -0.0125 -0.3299 -0.6161
 5453SOL    HW127992   0.556   2.824   8.666 -0.1244 -0.3758 -1.5723
 5453SOL    HW227993   0.696   2.875   8.654  0.1435 -0.3809  0.5606
 5454SOL     OW27994   4.033   2.807   6.112  0.4053  0.7355 -0.1888
 5454SOL    HW127995   4.102   2.862   6.148  0.7928 -0.8334  1.4743
 5454SOL    HW227996   4.077   2.722   6.110  0.2078  0.6096  0.4713
 5455SOL     OW27997   2.393   1.751   6.715 -0.5387  0.9422 -0.1021
 5455SOL    HW127998   2.433   1.769   6.800 -0.5774  1.3738 -0.1774
 5455SOL    HW227999   2.304   1.734   6.745 -0.1189 -1.4606 -0.2280
 5456SOL     OW28000   3.516   2.156  13.231 -0.1192 -0.1360  0.2884
 5456SOL    HW128001   3.436   2.146  13.281 -1.2217  1.2585 -1.1898
 5456SOL    HW228002   3.522   2.252  13.229  1.2644 -0.1823  1.9926
 5457SOL     OW28003   2.190   0.126   1.338  0.4697  0.5628 -0.4105
 5457SOL    HW128004   2.102   0.161   1.323 -0.5598 -1.9280 -0.1450
 5457SOL    HW228005   2.223   0.205   1.381  1.2032 -0.0352  0.1334
 5458SOL     OW28006   0.989   0.743   4.681 -0.0074 -0.2164  0.1644
 5458SOL    HW128007   0.930   0.668   4.691 -1.3739  0.6719 -1.2380
 5458SOL    HW228008   1.051   0.742   4.753 -0.1710 -0.6100  0.2992
 5459SOL     OW28009   2.067   1.854  16.848  0.5410 -0.7200  0.2514
 5459SOL    HW128010   1.987   1.904  16.863  0.7735 -0.4764  0.7206
 5459SOL    HW228011   2.053   1.827  16.758  0.3428  0.5083 -0.0784
 5460SOL     OW28012   4.431   0.036  11.896  0.1191 -0.2940 -0.5438
 5460SOL    HW128013   4.356   4.719  11.886  0.6569 -0.8630 -1.3297
 5460SOL    HW228014   4.422   0.101  11.826  0.9841  1.6037  1.1040
 5461SOL     OW28015   0.966   3.194  16.084 -0.0067  0.1440 -0.4590
 5461SOL    HW128016   0.886   3.247  16.084 -0.4670 -0.5348 -3.9383
 5461SOL    HW228017   1.019   3.222  16.159  0.1230  0.7244 -0.7672
 5462SOL     OW28018   0.497   3.639   9.249 -0.4569  0.2468 -0.3373
 5462SOL    HW128019   0.548   3.564   9.282  1.6887  2.8542  2.2919
 5462SOL    HW228020   0.406   3.617   9.267 -0.2442 -1.9913 -1.9988
 5463SOL     OW28021   1.744   1.828   1.581  0.8061  0.4886  0.2826
 5463SOL    HW128022   1.702   1.744   1.595  1.0490  0.0475 -1.5832
 5463SOL    HW228023   1.833   1.812   1.612  0.8286 -2.8749 -1.4613
 5464SOL     OW28024   0.142   3.929   3.206  0.0860 -0.5933  0.2776
 5464SOL    HW128025   0.208   3.977   3.256 -2.5498  2.0441  1.2362
 5464SOL    HW228026   0.062   3.938   3.257 -0.6376 -3.2255 -0.3929
 5465SOL     OW28027   3.964   0.806   6.259 -0.2468 -0.1505 -0.0977
 5465SOL    HW128028   3.941   0.752   6.184  3.8228 -1.3897 -0.4201
 5465SOL    HW228029   3.897   0.874   6.266  1.5796  1.6137  0.2401
 5466SOL     OW28030   3.723   1.841   1.788 -0.4477 -0.2623  0.2297
 5466SOL    HW128031   3.667   1.914   1.815  0.7522 -0.2720  2.8291
 5466SOL    HW228032   3.760   1.803   1.869  1.9132 -0.3340 -0.8936
 5467SOL     OW28033   3.214   2.281   3.474  0.1194 -0.3421  0.0694
 5467SOL    HW128034   3.195   2.361   3.522 -0.7162 -0.5507  0.0790
 5467SOL    HW228035   3.126   2.248   3.456 -1.0460  4.1510 -2.3325
 5468SOL     OW28036   0.633   3.726   4.459  0.0774  0.3288  0.0738
 5468SOL    HW128037   0.607   3.668   4.387 -2.5511 -0.3788  1.5787
 5468SOL    HW228038   0.720   3.749   4.428 -0.0243  0.1415 -0.3514
 5469SOL     OW28039   0.795   3.443   0.909 -0.2877 -0.6834  0.4207
 5469SOL    HW128040   0.845   3.491   0.976  3.5726 -1.1510 -2.1022
 5469SOL    HW228041   0.873   3.414   0.861 -0.8899 -0.2517 -0.8092
 5470SOL     OW28042   2.655   2.717   7.153 -0.4078  0.2802 -0.3219
 5470SOL    HW128043   2.723   2.764   7.105 -0.0792  1.4428  1.2928
 5470SOL    HW228044   2.577   2.770   7.138 -1.2999 -0.7065  0.8048
 5471SOL     OW28045   3.248   4.197   8.156  0.1313  0.7206  0.2588
 5471SOL    HW128046   3.221   4.171   8.244  0.1708 -1.6093 -0.4128
 5471SOL    HW228047   3.193   4.146   8.098 -0.7643 -0.8297  2.4884
 5472SOL     OW28048   4.228   0.708   5.104 -0.6851  0.4662  0.0005
 5472SOL    HW128049   4.256   0.756   5.027 -2.8602 -0.0062 -1.1066
 5472SOL    HW228050   4.297   0.642   5.117 -1.6169 -0.2215  1.5305
 5473SOL     OW28051   3.089   2.620  13.528 -0.2097 -0.4236 -0.2048
 5473SOL    HW128052   3.130   2.537  13.502 -0.0434 -0.0929 -1.0052
 5473SOL    HW228053   3.015   2.618  13.468  1.0121  1.8853 -1.7677
 5474SOL     OW28054   3.725   3.840   2.923 -0.0983 -0.2955  0.5726
 5474SOL    HW128055   3.757   3.774   2.861 -2.2086 -0.3498 -0.4808
 5474SOL    HW228056   3.676   3.895   2.862  1.3196  0.6933  0.3130
 5475SOL     OW28057   1.050   1.997   8.916  0.0467  0.1081  0.5094
 5475SOL    HW128058   1.070   1.930   8.851  0.4458  1.1584 -0.4534
 5475SOL    HW228059   1.118   2.058   8.888 -1.6609  1.0324 -1.6079
 5476SOL     OW28060   4.683   2.975   7.803  0.3181 -0.0692 -0.1602
 5476SOL    HW128061   0.003   2.921   7.853 -2.5236  0.3010  3.7181
 5476SOL    HW228062   4.607   2.919   7.787 -2.4565  2.1709  5.2969
 5477SOL     OW28063   1.318   1.395   5.005 -0.6022 -0.5446  0.3963
 5477SOL    HW128064   1.246   1.388   5.069  0.5256 -0.3763  1.6911
 5477SOL    HW228065   1.330   1.487   5.028 -1.0669 -0.5490  0.6593
 5478SOL     OW28066   0.665   3.315   8.646  0.2834 -0.7789 -0.0573
 5478SOL    HW128067   0.585   3.284   8.688 -0.0758  0.6375  0.3041
 5478SOL    HW228068   0.703   3.379   8.706  1.1404 -0.4721 -0.9291
 5479SOL     OW28069   1.682   4.566   6.029  0.5525 -0.4478  0.3966
 5479SOL    HW128070   1.722   4.531   5.948 -0.4979 -0.9259  0.0836
 5479SOL    HW228071   1.764   4.558   6.078 -0.4185 -2.0540  1.7545
 5480SOL     OW28072   3.022   2.004   6.117 -0.1957  0.6797 -0.2999
 5480SOL    HW128073   3.107   1.971   6.143  0.1311 -0.1775 -2.4471
 5480SOL    HW228074   2.998   1.953   6.040 -3.1249 -1.0892  1.7805
 5481SOL     OW28075   1.074   2.480   8.740 -0.0679 -0.1534 -0.2843
 5481SOL    HW128076   1.134   2.444   8.805  0.2813  0.7684 -0.1001
 5481SOL    HW228077   0.991   2.489   8.786  1.4692  0.6874  2.3499
 5482SOL     OW28078   4.579   3.220   6.066  0.1134  0.5227  0.3763
 5482SOL    HW128079   4.500   3.268   6.091 -1.1501 -0.3034 -2.0562
 5482SOL    HW228080   4.638   3.292   6.046  0.8291 -0.4811 -1.1160
 5483SOL     OW28081   1.861   2.725  13.483  0.4102  0.4699  0.0128
 5483SOL    HW128082   1.836   2.792  13.420 -0.1934  0.5073  0.2913
 5483SOL    HW228083   1.932   2.771  13.528 -0.1310  0.4924  0.8402
 5484SOL     OW28084   0.674   3.187  15.998 -0.0295  0.0500 -0.0578
 5484SOL    HW128085   0.682   3.098  16.033  1.0941  0.2722  0.2516
 5484SOL    HW228086   0.660   3.166  15.906 -3.0363  2.7532 -0.2065
 5485SOL     OW28087   4.080   1.227   6.173 -0.1619  0.0511  0.4091
 5485SOL    HW128088   4.135   1.168   6.225  1.0325  0.9922  0.2125
 5485SOL    HW228089   4.127   1.233   6.090 -0.0714 -1.1575  0.3687
 5486SOL     OW28090   4.191   4.399   8.038 -0.0831  0.1084 -0.3772
 5486SOL    HW128091   4.218   4.365   8.123  1.5277  0.2456 -0.8485
 5486SOL    HW228092   4.251   4.472   8.023  1.0849 -0.7978 -0.1031
 5487SOL     OW28093   1.968   1.224   7.488  0.2181 -0.5737 -0.0652
 5487SOL    HW128094   1.907   1.161   7.527  2.5673 -1.3935  2.3412
 5487SOL    HW228095   2.048   1.172   7.476  1.5639  1.4188  0.2324
 5488SOL     OW28096   1.839   2.147   3.665 -0.7895 -0.2045 -0.5173
 5488SOL    HW128097   1.745   2.146   3.680 -0.0847  1.2967  3.8499
 5488SOL    HW228098   1.876   2.220   3.713 -0.6706 -0.4370 -0.2539
 5489SOL     OW28099   1.487   4.063   0.966  0.4253  0.4088 -0.0616
 5489SOL    HW128100   1.530   4.146   0.946  0.3961  0.7450  1.3091
 5489SOL    HW228101   1.418   4.093   1.025 -0.6691 -0.6309 -0.8017
 5490SOL     OW28102   0.374   0.065   5.478  0.6009  0.2925  0.2270
 5490SOL    HW128103   0.395   0.040   5.388 -2.2372  0.1326 -0.3737
 5490SOL    HW228104   0.336   0.151   5.460  0.4064  0.2192  0.2937
 5491SOL     OW28105   2.935   0.289  13.949 -0.4128  0.7932 -0.0288
 5491SOL    HW128106   2.957   0.379  13.922  1.9252 -0.1646 -1.3355
 5491SOL    HW228107   2.949   0.252  13.862  0.8013  0.3701  0.3442
 5492SOL     OW28108   2.030   1.645   8.227  0.3862 -0.4305 -0.2943
 5492SOL    HW128109   2.012   1.737   8.249  0.4673 -0.2683 -0.8900
 5492SOL    HW228110   1.942   1.619   8.200 -0.6781  2.1766  0.6355
 5493SOL     OW28111   2.201   1.136  13.690 -0.1292  0.2419  0.0896
 5493SOL    HW128112   2.159   1.084  13.758 -2.9227  1.2938 -0.8178
 5493SOL    HW228113   2.246   1.202  13.742 -0.1314  0.3960 -0.1025
 5494SOL     OW28114   2.361   0.225   7.932 -0.0164 -0.0140  0.6457
 5494SOL    HW128115   2.328   0.157   7.991  1.6152 -0.6199  0.8430
 5494SOL    HW228116   2.435   0.179   7.893  1.2846  2.3402  0.3429
 5495SOL     OW28117   0.387   1.194   3.084 -0.0596 -1.1009  0.1994
 5495SOL    HW128118   0.347   1.110   3.105 -0.1274 -0.9811  0.5535
 5495SOL    HW228119   0.372   1.197   2.990 -1.7945 -0.3531  0.5042
 5496SOL     OW28120   2.051   2.539  13.562  0.3203 -0.3967 -0.1462
 5496SOL    HW128121   2.091   2.529  13.476 -1.4594  1.2907 -1.1708
 5496SOL    HW228122   1.969   2.585  13.542  2.2440  2.3312 -1.8071
 5497SOL     OW28123   2.054   4.321  17.246  0.1346  0.1051  0.3255
 5497SOL    HW128124   2.120   4.386  17.221 -1.2878  0.5037 -2.3743
 5497SOL    HW228125   1.979   4.365  17.205 -0.4630 -0.6973  0.5636
 5498SOL     OW28126   3.962   4.462   0.242  0.8598  0.2449 -0.1382
 5498SOL    HW128127   4.012   4.424   0.169 -0.8352 -1.5374 -0.3693
 5498SOL    HW228128   3.912   4.386   0.272  1.4555  0.0816  0.4497
 5499SOL     OW28129   0.634   3.342   9.208 -0.2554 -0.5030  0.1117
 5499SOL    HW128130   0.701   3.306   9.151 -0.2708 -0.7972  0.2771
 5499SOL    HW228131   0.674   3.340   9.295  0.2469 -2.6444 -0.1694
 5500SOL     OW28132   3.499   1.359   6.761  0.5485  0.2073  0.0474
 5500SOL    HW128133   3.433   1.397   6.818  0.9660 -2.2466  2.1527
 5500SOL    HW228134   3.436   1.318   6.701 -0.4681  0.7165  0.7760
 5501SOL     OW28135   3.061   1.971  11.271  0.2425 -0.2445 -0.4505
 5501SOL    HW128136   3.008   2.000  11.345 -1.7442 -0.2270 -1.8690
 5501SOL    HW228137   3.099   1.885  11.293 -2.1460 -0.9859  0.7754
 5502SOL     OW28138   1.050   3.130   1.909  0.4187 -0.1113  0.1549
 5502SOL    HW128139   1.101   3.114   1.988  0.7699 -0.8875 -0.2311
 5502SOL    HW228140   1.064   3.051   1.858  1.8904 -0.3124  0.8857
 5503SOL     OW28141   3.318   2.656   9.285 -0.0028  0.1880  0.1072
 5503SOL    HW128142   3.334   2.739   9.241  1.6388  0.8309  1.9052
 5503SOL    HW228143   3.224   2.665   9.300  0.2662  1.8091  0.7914
 5504SOL     OW28144   0.724   3.296   3.328 -0.0476 -0.2560  0.1707
 5504SOL    HW128145   0.768   3.338   3.403  0.2474 -0.1725 -0.0487
 5504SOL    HW228146   0.728   3.365   3.262  0.0045 -0.9988 -0.5884
 5505SOL     OW28147   2.997   3.515   9.549 -0.3447 -0.0408 -0.2659
 5505SOL    HW128148   2.982   3.569   9.626  0.5001 -0.4742  0.1939
 5505SOL    HW228149   3.052   3.443   9.579 -1.2465  0.5497  2.8194
 5506SOL     OW28150   3.943   1.905   5.605  0.5580 -0.1200 -0.4547
 5506SOL    HW128151   3.941   1.994   5.641 -0.2998 -0.3623  0.1071
 5506SOL    HW228152   3.861   1.863   5.632 -0.0108  0.7520 -0.8176
 5507SOL     OW28153   1.456   0.948  17.636 -0.2890  0.9258  0.5692
 5507SOL    HW128154   1.519   0.964  17.706 -0.8746  0.7518  1.1397
 5507SOL    HW228155   1.506   0.968  17.557 -2.3295 -1.7061 -1.3986
 5508SOL     OW28156   0.136   3.084  11.796 -0.2057  0.4448 -0.1548
 5508SOL    HW128157   0.131   3.111  11.705  1.1340 -0.1111 -0.3903
 5508SOL    HW228158   0.042   3.100  11.809 -0.4027 -0.3752 -0.5856
 5509SOL     OW28159   2.880   2.259   0.126  0.1615 -0.4667  0.3127
 5509SOL    HW128160   2.790   2.230   0.108 -0.5003  1.0738  1.1495
 5509SOL    HW228161   2.924   2.224   0.049  1.6182  0.6087  0.6747
 5510SOL     OW28162   1.311   3.174   2.755  0.1858 -0.0930 -0.6515
 5510SOL    HW128163   1.351   3.098   2.712  1.4819 -0.8088  1.8471
 5510SOL    HW228164   1.222   3.143   2.773  0.7702 -1.5159 -0.2101
 5511SOL     OW28165   3.846   1.870   8.713  0.6453  0.3441  0.2449
 5511SOL    HW128166   3.881   1.894   8.627 -2.2103  0.1061 -0.9970
 5511SOL    HW228167   3.880   1.781   8.717  1.5897  0.7269  0.6435
 5512SOL     OW28168   2.376   4.575  11.218  0.1331 -0.1768 -0.0927
 5512SOL    HW128169   2.408   4.547  11.304 -0.3514 -0.2501  0.0661
 5512SOL    HW228170   2.380   4.494  11.168  0.8826 -0.8694  1.0915
 5513SOL     OW28171   3.609   1.260   1.376 -0.6352  0.5335  0.7655
 5513SOL    HW128172   3.569   1.203   1.441  3.3256 -1.2316  1.6162
 5513SOL    HW228173   3.693   1.283   1.415  0.1444 -3.4103  1.4238
 5514SOL     OW28174   1.153   4.307   6.210 -0.0800  0.1866 -0.1342
 5514SOL    HW128175   1.120   4.292   6.121  1.2815  1.1135 -0.7978
 5514SOL    HW228176   1.078   4.277   6.260 -0.7143  2.9605  0.5936
 5515SOL     OW28177   4.224   2.347   6.532 -0.2913  0.6678 -0.5948
 5515SOL    HW128178   4.304   2.361   6.582  0.9880 -0.8090 -2.2418
 5515SOL    HW228179   4.186   2.432   6.508 -2.1513 -0.2527 -0.9188
 5516SOL     OW28180   4.354   2.793   5.131 -0.5464 -0.3287  0.2605
 5516SOL    HW128181   4.361   2.887   5.113 -0.9025 -0.4630 -0.5949
 5516SOL    HW228182   4.296   2.756   5.064 -0.7636 -3.2812  2.1055
 5517SOL     OW28183   0.182   0.867   2.135  0.5359 -0.5078 -0.4541
 5517SOL    HW128184   0.192   0.841   2.043  1.0076  0.0631 -0.5648
 5517SOL    HW228185   0.268   0.844   2.168  1.3851  2.8255 -0.3138
 5518SOL     OW28186   0.991   1.921  10.156  0.4143 -0.2405  0.4217
 5518SOL    HW128187   1.024   1.998  10.202  0.1558  1.6452 -2.5901
 5518SOL    HW228188   0.927   1.959  10.096  1.7094  0.8148 -0.2839
 5519SOL     OW28189   1.763   1.443   9.519 -0.4551 -0.1950  0.0692
 5519SOL    HW128190   1.814   1.371   9.555  1.3921  0.9901 -0.1476
 5519SOL    HW228191   1.822   1.483   9.455  0.1891  1.7543  1.8609
 5520SOL     OW28192   1.581   3.964   7.100 -0.0913  0.1581 -0.2491
 5520SOL    HW128193   1.510   4.020   7.068 -0.8714  0.8482  2.7004
 5520SOL    HW228194   1.530   3.897   7.145  0.0943  0.2911  0.1536
 5521SOL     OW28195   1.971   4.094   8.784 -0.0484 -0.1307 -0.2375
 5521SOL    HW128196   1.937   4.030   8.847 -0.2609 -0.5745 -0.8030
 5521SOL    HW228197   2.043   4.047   8.742 -0.0357  0.2029 -0.5872
 5522SOL     OW28198   1.745   2.059   3.158 -0.3052  0.1377  0.1939
 5522SOL    HW128199   1.824   2.058   3.104 -1.6025  0.4168 -1.7120
 5522SOL    HW228200   1.785   2.076   3.243  1.3779 -0.1824 -0.5435
 5523SOL     OW28201   3.399   2.351   6.116  0.4795  0.2959 -0.0102
 5523SOL    HW128202   3.440   2.427   6.156  0.8527  0.3353 -0.4682
 5523SOL    HW228203   3.405   2.367   6.022 -0.3615  0.5521 -0.0261
 5524SOL     OW28204   2.705   1.338  17.001 -0.2146  1.0448 -0.3268
 5524SOL    HW128205   2.623   1.357  16.955 -0.8366  1.3817  0.9069
 5524SOL    HW228206   2.767   1.387  16.947  0.3622 -0.0126 -0.6275
 5525SOL     OW28207   0.187   3.913   9.647  0.2278 -0.0834  0.3908
 5525SOL    HW128208   0.227   3.913   9.560 -1.0931 -1.2775 -0.2201
 5525SOL    HW228209   0.146   3.827   9.659 -0.9191  0.4725  0.4878
 5526SOL     OW28210   0.067   1.399   6.807 -0.3273 -0.9607  0.3660
 5526SOL    HW128211   0.054   1.337   6.735  0.1793  2.0133 -2.2994
 5526SOL    HW228212   0.059   1.480   6.757 -0.6218  1.4372  4.3232
 5527SOL     OW28213   3.425   3.655   6.490 -0.3987  0.0733  0.0798
 5527SOL    HW128214   3.493   3.612   6.438 -1.4699 -1.1350 -0.3237
 5527SOL    HW228215   3.479   3.691   6.560  2.2355 -3.1252 -0.2552
 5528SOL     OW28216   1.108   1.513  10.372 -0.0138  0.0013  0.3104
 5528SOL    HW128217   1.135   1.584  10.313 -1.7886  2.7086  2.7245
 5528SOL    HW228218   1.175   1.445  10.360  1.1581  1.6529 -2.6502
 5529SOL     OW28219   2.552   2.780   6.838 -0.5007  0.2148 -0.0842
 5529SOL    HW128220   2.525   2.838   6.767  0.1769 -0.3284 -0.7825
 5529SOL    HW228221   2.532   2.824   6.921 -0.7825 -0.4612  0.2083
 5530SOL     OW28222   3.598   4.159   9.368  0.5783 -0.0253 -0.4371
 5530SOL    HW128223   3.663   4.227   9.349  2.0940 -1.4043 -0.2309
 5530SOL    HW228224   3.520   4.213   9.357  1.9097  2.1344  0.5822
 5531SOL     OW28225   0.243   1.032   9.178 -0.1361  0.0082  0.2058
 5531SOL    HW128226   0.206   1.119   9.196  0.1107 -0.2627  2.0652
 5531SOL    HW228227   0.301   1.008   9.250 -2.0521  0.2835  1.8555
 5532SOL     OW28228   2.405   2.163   7.354  0.0947  0.3932 -0.3758
 5532SOL    HW128229   2.326   2.143   7.403  3.2162 -3.7855  2.9386
 5532SOL    HW228230   2.470   2.116   7.407  0.5720 -1.7758 -2.8457
 5533SOL     OW28231   2.677   1.866   2.530  0.4140  0.2807 -0.0507
 5533SOL    HW128232   2.707   1.950   2.497  1.4231  0.3508  1.0561
 5533SOL    HW228233   2.594   1.901   2.562 -0.2856 -2.3780  1.1264
 5534SOL     OW28234   3.294   3.075   8.631 -0.1701  0.1540 -0.6523
 5534SOL    HW128235   3.265   3.161   8.601 -1.3746 -0.0294 -0.0479
 5534SOL    HW228236   3.248   3.017   8.571 -2.5611  0.7600  0.6000
 5535SOL     OW28237   4.457   2.631   7.048 -0.1621 -0.1006  0.0398
 5535SOL    HW128238   4.419   2.694   6.986 -2.4598 -1.8889 -0.3697
 5535SOL    HW228239   4.542   2.671   7.067  0.7445 -1.6435 -0.6883
 5536SOL     OW28240   4.568   2.591   1.866  0.0358  0.2426 -0.0353
 5536SOL    HW128241   4.478   2.623   1.867  0.3853  1.2149  0.8931
 5536SOL    HW228242   4.601   2.674   1.830 -1.2569  1.2419  1.0644
 5537SOL     OW28243   2.070   2.829  13.672 -0.1047 -0.2837 -0.4245
 5537SOL    HW128244   2.139   2.883  13.632  0.8626 -2.0926 -1.2379
 5537SOL    HW228245   2.092   2.846  13.764 -2.2202  2.7759 -0.4794
 5538SOL     OW28246   1.136   3.497   7.626 -0.1666 -0.2967 -0.0396
 5538SOL    HW128247   1.183   3.425   7.669  1.5195  0.6828 -0.2361
 5538SOL    HW228248   1.065   3.449   7.582 -2.4323  1.0060  2.2585
 5539SOL     OW28249   4.513   3.780   9.545  0.1371 -0.1737  0.2427
 5539SOL    HW128250   4.478   3.817   9.464 -0.1123 -1.2582 -0.1574
 5539SOL    HW228251   4.481   3.690   9.552 -1.6213  0.4423  0.2086
 5540SOL     OW28252   1.114   0.327   6.564  0.5585 -0.4629 -0.3421
 5540SOL    HW128253   1.165   0.360   6.490 -0.1550  2.5873  0.5262
 5540SOL    HW228254   1.122   0.399   6.626  1.2690 -2.7744  2.2428
 5541SOL     OW28255   1.161   3.556  15.834  0.2753 -0.0442  0.1767
 5541SOL    HW128256   1.080   3.532  15.879  0.1455 -2.2181 -1.2250
 5541SOL    HW228257   1.214   3.489  15.878  0.5218 -0.4449 -0.7290
 5542SOL     OW28258   4.045   1.445   6.844 -0.2896 -0.2922  0.3993
 5542SOL    HW128259   4.022   1.538   6.840  0.6405 -0.0950 -0.1055
 5542SOL    HW228260   4.066   1.417   6.755 -0.8647 -0.1223  0.2068
 5543SOL     OW28261   2.666   0.097   8.346  0.3773  0.8554 -0.3892
 5543SOL    HW128262   2.689   0.139   8.263 -0.1118  0.2895 -0.8102
 5543SOL    HW228263   2.750   0.105   8.391  0.2249 -0.4621  0.1173
 5544SOL     OW28264   4.241   4.701  13.913 -0.2473 -0.1560 -0.2288
 5544SOL    HW128265   4.316   4.661  13.959 -0.4309  0.2473  0.4148
 5544SOL    HW228266   4.216   0.017  13.985 -2.9676  0.4164 -1.6432
 5545SOL     OW28267   2.632   0.118  14.306 -0.1598  0.1915  0.5200
 5545SOL    HW128268   2.600   0.028  14.295  0.8127 -0.0206 -0.5978
 5545SOL    HW228269   2.649   0.145  14.216 -1.4618 -1.2299 -0.1457
 5546SOL     OW28270   4.525   2.389   5.284  0.7399  0.6573 -0.2463
 5546SOL    HW128271   4.529   2.304   5.327  0.9576 -0.0630 -1.6848
 5546SOL    HW228272   4.536   2.453   5.354 -1.4589 -1.0328  1.6519
 5547SOL     OW28273   1.923   4.452   1.752  0.1414  0.4363  0.0311
 5547SOL    HW128274   1.939   4.468   1.659 -0.2833  1.8580  0.2010
 5547SOL    HW228275   1.828   4.458   1.747  0.0509 -1.4506 -0.5863
 5548SOL     OW28276   1.108   4.729   7.460  0.5705 -0.0683 -0.0172
 5548SOL    HW128277   1.022   0.030   7.464  0.2726 -0.3629 -2.9392
 5548SOL    HW228278   1.157   0.036   7.393  0.6473  0.4303  0.4016
 5549SOL     OW28279   2.750   1.800  14.957  0.0679  1.0393 -0.2558
 5549SOL    HW128280   2.659   1.791  14.929  0.4713 -2.4108 -0.5139
 5549SOL    HW228281   2.794   1.832  14.878  1.1244  2.4848  0.9356
 5550SOL     OW28282   2.997   4.140   5.726 -0.6395  0.0648  0.1010
 5550SOL    HW128283   2.992   4.205   5.796 -0.7399  1.8538 -1.5713
 5550SOL    HW228284   3.027   4.200   5.657  0.4451 -2.0469 -1.2732
 5551SOL     OW28285   3.008   2.135   9.004  0.1926 -0.3791  0.9140
 5551SOL    HW128286   2.995   2.062   8.944 -3.4601  1.4842 -0.5878
 5551SOL    HW228287   3.103   2.149   8.998 -0.1016  0.8382 -0.9001
 5552SOL     OW28288   4.349   0.119   3.760 -0.1408  0.4028  0.6801
 5552SOL    HW128289   4.422   0.178   3.775  0.0914 -0.2932  2.2603
 5552SOL    HW228290   4.394   0.042   3.724 -2.4248 -0.3874 -0.4753
 5553SOL     OW28291   3.891   0.616   4.241 -0.6379 -0.4120 -0.0333
 5553SOL    HW128292   3.905   0.697   4.192 -0.6582  1.2262  2.7193
 5553SOL    HW228293   3.798   0.623   4.258  0.0723  2.3103  2.6738
 5554SOL     OW28294   2.847   1.009  13.161  0.0474 -0.5645 -0.3684
 5554SOL    HW128295   2.940   0.994  13.144  0.6943  0.6213  1.9605
 5554SOL    HW228296   2.824   1.009  13.069 -3.0865  0.5385  0.3996
 5555SOL     OW28297   3.703   3.070   4.351 -0.0669 -0.2188  0.4213
 5555SOL    HW128298   3.733   3.143   4.298  1.1416  0.3587  1.8878
 5555SOL    HW228299   3.765   3.010   4.310  0.1717  1.4589 -1.6518
 5556SOL     OW28300   4.190   0.126  10.645 -0.6678 -0.0832  0.2842
 5556SOL    HW128301   4.208   0.193  10.712 -2.6050 -0.2253  0.9482
 5556SOL    HW228302   4.132   0.079  10.705  0.4779 -2.4882 -0.4995
 5557SOL     OW28303   2.349   4.693   3.845  0.2644  0.2846 -0.3809
 5557SOL    HW128304   2.417   4.673   3.908 -0.5628 -0.5200  0.2590
 5557SOL    HW228305   2.403   4.721   3.771 -0.7941 -0.0642 -1.2964
 5558SOL     OW28306   3.008   4.089   8.276 -0.3005 -0.0457 -0.1919
 5558SOL    HW128307   2.972   4.171   8.244  0.3756  0.5069  0.4689
 5558SOL    HW228308   2.934   4.039   8.242 -1.3819  0.1841  1.8129
 5559SOL     OW28309   1.178   1.729  10.200  0.0752 -0.0848 -0.1954
 5559SOL    HW128310   1.103   1.788  10.189 -0.0041  0.0238  0.8863
 5559SOL    HW228311   1.232   1.793  10.245  0.9578 -1.4680  0.7038
 5560SOL     OW28312   1.896   4.010  12.603  0.1634 -0.1048  0.1606
 5560SOL    HW128313   1.903   4.071  12.676  0.2604 -2.7381  2.3732
 5560SOL    HW228314   1.812   3.969  12.621 -0.3378  0.8943  0.0655
 5561SOL     OW28315   3.405   0.296   3.850  0.2425  0.6818  0.0509
 5561SOL    HW128316   3.372   0.225   3.905 -1.7946  0.3253 -1.6469
 5561SOL    HW228317   3.322   0.334   3.818 -0.7294 -1.5576 -0.0718
 5562SOL     OW28318   4.330   4.112   1.743 -0.0519  0.4530  0.4122
 5562SOL    HW128319   4.360   4.053   1.811 -1.1844 -2.1237 -1.3120
 5562SOL    HW228320   4.257   4.056   1.717 -0.4428  1.3780 -0.5012
 5563SOL     OW28321   0.278   2.325   6.313 -0.2332  0.1911 -0.1820
 5563SOL    HW128322   0.367   2.295   6.297 -0.5290 -1.3746  1.1016
 5563SOL    HW228323   0.287   2.326   6.409 -0.3010 -2.3901 -0.1560
 5564SOL     OW28324   0.653   2.025   5.187  0.4769 -0.3290  0.4822
 5564SOL    HW128325   0.655   2.053   5.096  1.8187  2.5932  1.4200
 5564SOL    HW228326   0.569   1.980   5.187 -0.3722  1.2597  0.6381
 5565SOL     OW28327   2.807   2.310   9.018 -0.0898  0.0759 -1.0634
 5565SOL    HW128328   2.840   2.347   9.099  0.3960 -0.4317 -1.0263
 5565SOL    HW228329   2.844   2.221   9.020 -2.2061 -0.7919 -0.6283
 5566SOL     OW28330   1.071   3.048   2.767  0.6261 -0.7465 -0.2380
 5566SOL    HW128331   0.979   3.064   2.790  0.5677  0.4320 -1.3303
 5566SOL    HW228332   1.073   2.964   2.721 -0.8845 -1.0169  0.1879
 5567SOL     OW28333   1.372   2.283  10.810 -0.4394  0.0585  0.2698
 5567SOL    HW128334   1.412   2.224  10.874  0.9040 -0.2924 -0.8911
 5567SOL    HW228335   1.320   2.223  10.756 -1.1015  0.0653  0.8837
 5568SOL     OW28336   2.924   0.755   8.834  0.2489 -0.3121  0.2929
 5568SOL    HW128337   2.847   0.807   8.853  0.3177  0.0549 -0.4358
 5568SOL    HW228338   2.928   0.687   8.902  1.1251 -1.2895 -0.7307
 5569SOL     OW28339   2.406   1.902   6.498  0.2965  0.4400 -0.9871
 5569SOL    HW128340   2.386   1.992   6.521  1.8392  0.4461  0.3117
 5569SOL    HW228341   2.396   1.859   6.583  0.4430  1.0360 -0.6690
 5570SOL     OW28342   2.004   1.460   4.665 -0.0741  0.5355 -0.1457
 5570SOL    HW128343   2.027   1.548   4.694 -2.0051  1.7031 -2.1512
 5570SOL    HW228344   2.033   1.410   4.741 -0.9127  1.6016  0.8562
 5571SOL     OW28345   2.564   2.734   5.984 -0.3459  0.2092 -0.1100
 5571SOL    HW128346   2.647   2.776   5.961  0.4273 -1.6119 -0.6556
 5571SOL    HW228347   2.569   2.659   5.925 -2.6698 -2.0858  2.5878
 5572SOL     OW28348   1.735   4.307  15.666 -0.1278 -0.6674 -0.6977
 5572SOL    HW128349   1.810   4.367  15.660  1.1527 -2.2723 -0.6468
 5572SOL    HW228350   1.666   4.356  15.622 -0.1161  2.6600  3.0010
 5573SOL     OW28351   2.826   1.226  17.261 -0.4091  0.9192 -0.6670
 5573SOL    HW128352   2.796   1.261  17.177 -2.2296 -0.9121 -0.8065
 5573SOL    HW228353   2.744   1.240  17.308 -0.4209  1.1801 -0.7683
 5574SOL     OW28354   2.222   2.072   8.305  0.5974 -0.1721 -0.2759
 5574SOL    HW128355   2.195   2.015   8.233 -1.8492  0.0253  0.4738
 5574SOL    HW228356   2.175   2.152   8.280 -0.1406 -0.6103 -0.2909
 5575SOL     OW28357   3.863   1.956  10.291 -0.4573 -0.1603  0.3977
 5575SOL    HW128358   3.801   1.949  10.219  0.2303 -0.7431 -0.1344
 5575SOL    HW228359   3.875   1.866  10.321 -0.2147 -0.2191  0.1278
 5576SOL     OW28360   3.231   4.252   6.015  0.2855 -0.9316 -0.6740
 5576SOL    HW128361   3.248   4.160   5.995  2.3313 -0.1923 -2.2887
 5576SOL    HW228362   3.183   4.238   6.097 -0.2735 -1.2708 -1.0569
 5577SOL     OW28363   3.327   4.218   4.038  0.1290  0.4705 -0.1869
 5577SOL    HW128364   3.269   4.288   4.007 -1.8055 -1.2779 -0.5150
 5577SOL    HW228365   3.293   4.202   4.126  1.0767 -0.7623 -0.0451
 5578SOL     OW28366   4.493   2.199   9.240 -0.2002  0.1067 -0.5069
 5578SOL    HW128367   4.512   2.272   9.182 -2.3806  1.1785  0.1423
 5578SOL    HW228368   4.515   2.139   9.168  1.7477 -2.1772  1.9692
 5579SOL     OW28369   3.485   4.467   9.457 -0.5361  0.6601 -0.2067
 5579SOL    HW128370   3.403   4.515   9.449  0.8031  3.2615  1.8188
 5579SOL    HW228371   3.524   4.488   9.372  0.5294 -1.9010 -0.3408
 5580SOL     OW28372   1.248   0.673   7.939  0.2503  0.1384 -0.3936
 5580SOL    HW128373   1.158   0.705   7.945  0.4459  0.2832  1.7586
 5580SOL    HW228374   1.264   0.691   7.846 -0.5842 -0.0286 -0.5693
 5581SOL     OW28375   1.471   1.364   7.015 -0.1317 -0.6544  0.1346
 5581SOL    HW128376   1.557   1.325   7.033  1.0569  0.7212 -2.5472
 5581SOL    HW228377   1.495   1.456   7.008  0.2539 -0.8817 -1.5779
 5582SOL     OW28378   0.292   1.158   2.424 -0.0234  0.1404  0.3304
 5582SOL    HW128379   0.359   1.165   2.357 -0.7288 -1.4638 -0.5348
 5582SOL    HW228380   0.312   1.233   2.481 -0.3539  0.9243 -0.5809
 5583SOL     OW28381   2.778   0.046   3.651  0.2216 -0.2241 -0.1621
 5583SOL    HW128382   2.768   0.084   3.738  0.3164 -2.6728  0.9051
 5583SOL    HW228383   2.861   4.740   3.662  0.4468  0.3917  0.8010
 5584SOL     OW28384   3.630   2.946   9.770  0.1108 -0.2759 -0.2986
 5584SOL    HW128385   3.584   3.015   9.818 -0.0957 -1.8187  1.7381
 5584SOL    HW228386   3.661   2.896   9.846 -2.5616  1.6910  2.0789
 5585SOL     OW28387   2.957   4.359   8.686 -0.2198 -0.5501 -0.1874
 5585SOL    HW128388   2.994   4.289   8.741  0.2120  1.2546  1.8094
 5585SOL    HW228389   2.867   4.354   8.717  0.5031 -2.4518  1.6199
 5586SOL     OW28390   1.739   0.585  17.017  0.2626 -0.3141  0.0871
 5586SOL    HW128391   1.817   0.632  17.046  0.4268 -0.7371  0.3370
 5586SOL    HW228392   1.701   0.650  16.959 -0.9431  0.3844  1.6695
 5587SOL     OW28393   2.962   0.294   5.207 -0.0774 -0.2335  0.1023
 5587SOL    HW128394   2.963   0.378   5.253  1.4789  0.3155 -0.9400
 5587SOL    HW228395   2.916   0.243   5.274 -1.2282  0.0845 -0.4506
 5588SOL     OW28396   4.493   0.128   2.330 -0.0550 -0.4528  0.1051
 5588SOL    HW128397   4.484   0.048   2.382  0.8806 -1.8383 -1.8695
 5588SOL    HW228398   4.418   0.178   2.364 -1.0888 -1.7309 -0.2837
 5589SOL     OW28399   2.669   3.537  10.636 -0.3898  0.3836  0.6146
 5589SOL    HW128400   2.692   3.618  10.682  1.0790 -1.6447  3.4748
 5589SOL    HW228401   2.694   3.466  10.695  2.4402 -1.3784 -2.7012
 5590SOL     OW28402   4.336   1.601   1.564  0.0204 -0.9647 -0.1580
 5590SOL    HW128403   4.318   1.521   1.614  0.3629 -0.6814  0.4266
 5590SOL    HW228404   4.363   1.659   1.636 -1.4622 -1.6246  0.9231
 5591SOL     OW28405   3.831   1.149   0.704  0.4548  0.4779  0.1530
 5591SOL    HW128406   3.924   1.124   0.700  0.2025 -0.4528  0.0244
 5591SOL    HW228407   3.796   1.061   0.693 -1.5146  1.4218 -1.1683
 5592SOL     OW28408   2.598   3.989   5.551  0.6318  0.3218 -0.3219
 5592SOL    HW128409   2.552   4.059   5.598  1.3058 -0.8329  2.1038
 5592SOL    HW228410   2.565   3.912   5.598 -2.5767  2.0232  0.1970
 5593SOL     OW28411   0.258   4.232   8.750  0.0274  0.1934 -0.0353
 5593SOL    HW128412   0.275   4.221   8.656  0.0383 -0.2026  0.0146
 5593SOL    HW228413   0.179   4.285   8.745 -0.5603 -0.5955  0.9536
 5594SOL     OW28414   2.795   1.474   3.594 -0.2190  0.2139  0.5963
 5594SOL    HW128415   2.827   1.513   3.512  2.1023 -1.9969  0.4454
 5594SOL    HW228416   2.855   1.503   3.663 -0.3274 -0.5936  1.0332
 5595SOL     OW28417   3.550   1.158   5.652 -0.0361  0.6121 -0.7266
 5595SOL    HW128418   3.518   1.124   5.568  0.2922 -0.7127 -0.3123
 5595SOL    HW228419   3.617   1.218   5.620 -0.0171  0.3903 -1.1103
 5596SOL     OW28420   3.283   2.783   3.581  0.2243  0.6280  0.0112
 5596SOL    HW128421   3.313   2.760   3.669 -0.1937  0.1134  0.0209
 5596SOL    HW228422   3.360   2.744   3.540 -0.2707  1.0753 -1.3449
 5597SOL     OW28423   2.146   0.591   8.396 -0.5498 -0.3917  0.5307
 5597SOL    HW128424   2.177   0.670   8.352  2.0287 -2.0523 -0.6341
 5597SOL    HW228425   2.079   0.559   8.335  0.5095 -1.0375 -0.2981
 5598SOL     OW28426   4.367   1.411   7.280  0.0401  0.7322 -0.2795
 5598SOL    HW128427   4.387   1.352   7.207  3.7031  1.4923  0.0908
 5598SOL    HW228428   4.454   1.444   7.305 -1.6764  0.9525  5.4327
 5599SOL     OW28429   0.164   4.615   5.335  0.2933 -0.0937  0.1338
 5599SOL    HW128430   0.155   4.693   5.281 -0.4712  1.0922  1.9803
 5599SOL    HW228431   0.073   4.587   5.344 -0.3630  1.5183 -1.3272
 5600SOL     OW28432   1.398   1.972   6.619 -0.1184  0.4186  0.3077
 5600SOL    HW128433   1.317   2.021   6.634 -0.2841 -0.0134  0.8070
 5600SOL    HW228434   1.422   2.003   6.531  0.3479 -0.3037  0.1782
 5601SOL     OW28435   1.446   2.582   3.176 -0.0889  0.5328 -0.4599
 5601SOL    HW128436   1.351   2.593   3.182 -0.2168 -0.0664 -1.3544
 5601SOL    HW228437   1.468   2.670   3.207 -1.3285  0.9752 -0.8095
 5602SOL     OW28438   3.388   1.622   2.852  0.2826 -0.2560 -0.0336
 5602SOL    HW128439   3.377   1.676   2.774  0.9076 -1.7575 -1.1789
 5602SOL    HW228440   3.324   1.553   2.836 -0.0634 -0.0557  0.5069
 5603SOL     OW28441   0.469   3.139   6.654  0.6788  0.2532  0.2244
 5603SOL    HW128442   0.561   3.163   6.640  0.3882  1.2712  0.0676
 5603SOL    HW228443   0.466   3.166   6.746  0.2106  0.4706  0.1457
 5604SOL     OW28444   1.389   1.980  10.833  0.0648 -0.5594  0.3322
 5604SOL    HW128445   1.320   1.923  10.799 -0.1775 -0.5633  0.8283
 5604SOL    HW228446   1.393   1.953  10.925 -1.1146 -2.0369 -0.0545
 5605SOL     OW28447   1.610   0.337   7.495  0.3537  0.2149  0.2321
 5605SOL    HW128448   1.690   0.290   7.473 -0.1380 -0.5654  0.0951
 5605SOL    HW228449   1.586   0.384   7.416 -0.4200 -1.0855 -0.3182
 5606SOL     OW28450   1.535   0.998   6.730 -0.4196 -0.6610  0.1096
 5606SOL    HW128451   1.610   0.961   6.776 -0.5651 -2.2795 -0.9355
 5606SOL    HW228452   1.566   1.011   6.640  1.0023 -3.2576  0.2382
 5607SOL     OW28453   2.809   1.342   8.721 -0.5962 -0.1557  0.3687
 5607SOL    HW128454   2.733   1.396   8.697 -1.8217 -1.4164  1.4020
 5607SOL    HW228455   2.828   1.304   8.636  0.3590 -1.1902  1.0519
 5608SOL     OW28456   4.290   3.446   8.635  0.0703  0.8629 -0.0392
 5608SOL    HW128457   4.294   3.523   8.578 -3.5497  1.4106  0.4907
 5608SOL    HW228458   4.199   3.452   8.662  0.9705 -0.8513  3.2964
 5609SOL     OW28459   2.036   1.903  11.435 -0.1596  0.5168 -0.1373
 5609SOL    HW128460   1.956   1.954  11.425 -1.5829 -1.7871 -0.3857
 5609SOL    HW228461   2.014   1.837  11.500  1.3354 -0.1303 -0.2743
 5610SOL     OW28462   0.517   0.507   1.487 -0.4919 -0.1747  0.0645
 5610SOL    HW128463   0.546   0.419   1.467  0.9679  0.9060 -2.5826
 5610SOL    HW228464   0.434   0.496   1.535  0.0228 -0.7383  0.8173
 5611SOL     OW28465   4.501   1.822   2.686  0.0164 -0.3951 -0.2935
 5611SOL    HW128466   4.488   1.870   2.768 -2.8285  0.8480 -1.4785
 5611SOL    HW228467   4.450   1.872   2.623  0.5745 -0.4963 -0.8318
 5612SOL     OW28468   2.889   2.121   5.173  0.6166  0.7117  0.4969
 5612SOL    HW128469   2.804   2.084   5.148  0.7246  1.5282 -1.0675
 5612SOL    HW228470   2.909   2.079   5.257  1.6571 -0.2938 -0.2485
 5613SOL     OW28471   1.470   0.117  11.844 -0.1162 -0.3299  0.0508
 5613SOL    HW128472   1.393   0.099  11.789 -0.3584  0.7860  0.0310
 5613SOL    HW228473   1.523   0.174  11.789 -1.5396  1.0713  0.1391
 5614SOL     OW28474   0.563   4.510  11.119 -0.2680  0.4661 -0.0140
 5614SOL    HW128475   0.652   4.496  11.151 -0.5631 -2.2244 -0.3848
 5614SOL    HW228476   0.571   4.594  11.074 -3.0524  1.6151  1.6834
 5615SOL     OW28477   2.236   1.269   3.042  0.5795  0.0767  0.4907
 5615SOL    HW128478   2.228   1.183   3.085  0.9699  0.3386  1.0815
 5615SOL    HW228479   2.228   1.258   2.947  1.4373 -0.5741  0.4920
 5616SOL     OW28480   2.659   2.695  16.982 -0.1062  0.8108 -0.4035
 5616SOL    HW128481   2.643   2.603  17.003  0.1977  0.9366  0.3787
 5616SOL    HW228482   2.730   2.671  16.922  1.2416  1.0269  1.1161
 5617SOL     OW28483   1.865   2.967   5.528  0.3332 -0.1690  0.3850
 5617SOL    HW128484   1.780   3.004   5.505  0.3650  0.2707  0.9597
 5617SOL    HW228485   1.920   2.997   5.456  0.4418 -1.1821  0.0408
 5618SOL     OW28486   0.999   2.640  12.113  0.3056  0.4330 -0.1578
 5618SOL    HW128487   0.972   2.649  12.021  0.1812 -0.9385 -0.2591
 5618SOL    HW228488   0.941   2.698  12.162  3.1791  1.6997  1.7406
 5619SOL     OW28489   2.253   4.342   1.689 -0.1102 -0.6227  0.0749
 5619SOL    HW128490   2.169   4.295   1.691 -0.2294 -0.4064  0.2032
 5619SOL    HW228491   2.228   4.426   1.649 -1.2779 -1.0732 -0.1450
 5620SOL     OW28492   2.587   3.574  11.047 -0.1724 -0.3738  0.2914
 5620SOL    HW128493   2.661   3.630  11.071 -1.3196  0.7739  1.1214
 5620SOL    HW228494   2.535   3.644  11.007  0.2297 -0.5421 -0.5365
 5621SOL     OW28495   2.687   1.907  17.021 -0.0783  0.2853  0.2481
 5621SOL    HW128496   2.692   1.960  16.942  2.6728 -0.9579 -0.4061
 5621SOL    HW228497   2.608   1.945  17.060  0.8060  1.3929  0.9556
 5622SOL     OW28498   3.916   2.179   8.854  0.6362  0.2271 -0.1521
 5622SOL    HW128499   3.896   2.111   8.789  3.6075 -0.7847 -0.0420
 5622SOL    HW228500   3.842   2.188   8.914  1.8506  1.4924  1.1719
 5623SOL     OW28501   3.481   2.030  16.727  0.3509  0.9317 -0.0387
 5623SOL    HW128502   3.401   2.009  16.678  1.0672 -2.3077  0.2189
 5623SOL    HW228503   3.506   2.112  16.684 -1.3527 -0.0747 -2.9514
 5624SOL     OW28504   0.110   0.796  15.405 -0.2491 -0.0481 -0.2588
 5624SOL    HW128505   0.146   0.773  15.491 -1.5327 -0.3196  0.2106
 5624SOL    HW228506   0.024   0.754  15.408  0.7848 -2.0274  1.7580
 5625SOL     OW28507   2.055   0.380  15.678 -0.0917  0.0518  0.0195
 5625SOL    HW128508   2.028   0.455  15.732 -1.1481 -1.6859  1.9085
 5625SOL    HW228509   2.071   0.426  15.595 -0.3200  0.4492  0.1922
 5626SOL     OW28510   0.708   2.663   4.977 -0.8586  0.0061  0.1460
 5626SOL    HW128511   0.801   2.679   4.990 -0.2272 -2.8878 -0.8373
 5626SOL    HW228512   0.676   2.744   4.937 -0.1304 -0.9030 -2.2959
 5627SOL     OW28513   1.181   4.441   2.049  0.1923  0.0682  0.0988
 5627SOL    HW128514   1.199   4.490   2.129 -0.3839  1.1715 -0.4488
 5627SOL    HW228515   1.088   4.461   2.056  0.6756  2.3618 -0.0079
 5628SOL     OW28516   1.828   2.672   5.882  0.3271  0.4349 -0.2655
 5628SOL    HW128517   1.862   2.738   5.943  2.3731 -1.5828  0.7703
 5628SOL    HW228518   1.910   2.658   5.836 -0.0833  0.7537 -1.0826
 5629SOL     OW28519   0.084   3.277   9.632 -0.2769  0.9701  0.0800
 5629SOL    HW128520   0.131   3.195   9.643 -0.9831  0.7592  1.6247
 5629SOL    HW228521   0.122   3.326   9.559  0.5412  1.3626  0.7673
 5630SOL     OW28522   3.922   2.084   1.777 -0.1598 -0.5383  0.5982
 5630SOL    HW128523   3.930   2.069   1.872  1.6607  1.7370  0.8047
 5630SOL    HW228524   3.850   2.028   1.750  0.1170 -1.2183  1.2673
 5631SOL     OW28525   4.496   4.281   9.232  0.2474  0.4560 -0.0517
 5631SOL    HW128526   4.527   4.197   9.197  2.2657  1.1241  0.1396
 5631SOL    HW228527   4.425   4.253   9.288 -0.2135  3.0395  0.6567
 5632SOL     OW28528   3.368   3.221   0.652  0.6029 -0.5062 -0.2665
 5632SOL    HW128529   3.448   3.259   0.687 -0.1814  0.4943  0.4424
 5632SOL    HW228530   3.379   3.235   0.558 -3.0307  0.4022 -0.5885
 5633SOL     OW28531   3.270   3.997  16.276  0.0249 -0.4566 -0.0937
 5633SOL    HW128532   3.283   4.087  16.246  1.1611 -0.8832 -0.8671
 5633SOL    HW228533   3.265   3.945  16.196  0.4406  1.3351 -1.2962
 5634SOL     OW28534   3.744   4.098   7.122  0.8207  0.1044  0.2252
 5634SOL    HW128535   3.770   4.167   7.183  0.4810  0.5036 -0.0869
 5634SOL    HW228536   3.650   4.114   7.116  0.2860 -1.8824  3.2035
 5635SOL     OW28537   1.439   4.286  14.468  0.1781 -0.4972  0.2943
 5635SOL    HW128538   1.372   4.355  14.464 -0.7609 -1.4946 -1.1331
 5635SOL    HW228539   1.472   4.291  14.378 -1.0676  2.3687  0.0060
 5636SOL     OW28540   0.109   1.920   2.725 -0.2902 -0.3109 -0.3613
 5636SOL    HW128541   0.133   1.877   2.643  2.2663  0.0348  0.2048
 5636SOL    HW228542   0.078   1.847   2.779  0.5862  0.5280  1.2794
 5637SOL     OW28543   3.737   1.476  11.743 -0.0636 -0.5739  0.0152
 5637SOL    HW128544   3.778   1.402  11.696  1.6321 -0.1276  0.7905
 5637SOL    HW228545   3.685   1.515  11.672  0.8898 -0.9008 -0.8713
 5638SOL     OW28546   0.332   1.594   3.703  0.0427  0.8641 -0.1201
 5638SOL    HW128547   0.275   1.664   3.670 -0.2230  0.6222 -0.1786
 5638SOL    HW228548   0.410   1.608   3.650  0.2816 -0.2863 -0.0616
 5639SOL     OW28549   1.618   4.048   3.074 -0.2081  0.3241 -0.2597
 5639SOL    HW128550   1.587   4.000   3.151  1.8578 -1.2870 -0.4389
 5639SOL    HW228551   1.570   4.007   3.002  1.0807  0.5146 -1.2237
 5640SOL     OW28552   4.141   0.802  14.044 -0.2387  0.4455 -0.4714
 5640SOL    HW128553   4.115   0.714  14.017  0.9990  0.0271 -0.2746
 5640SOL    HW228554   4.095   0.823  14.125  1.2204  0.9595  0.2244
 5641SOL     OW28555   1.800   3.915   6.769  0.5612 -0.5741 -0.9170
 5641SOL    HW128556   1.769   4.004   6.755  0.2663 -0.6944 -1.0188
 5641SOL    HW228557   1.837   3.929   6.857 -1.4853 -1.7111  0.1238
 5642SOL     OW28558   1.875   3.733  10.436  0.1849 -0.4771 -0.0613
 5642SOL    HW128559   1.798   3.766  10.483  0.8138 -0.0465  0.6534
 5642SOL    HW228560   1.894   3.804  10.375  0.0421 -0.7481 -0.4212
 5643SOL     OW28561   1.097   1.969   2.437  0.5122  0.4678 -0.0993
 5643SOL    HW128562   1.087   2.030   2.510  0.1939  0.6601 -0.3032
 5643SOL    HW228563   1.005   1.977   2.411  0.3472  3.1631  1.2714
 5644SOL     OW28564   1.844   3.977  12.970  0.1403  0.5738  0.0800
 5644SOL    HW128565   1.896   4.005  13.045  1.9028 -2.6125  0.0724
 5644SOL    HW228566   1.846   4.058  12.919 -3.1772  0.1104 -0.7591
 5645SOL     OW28567   4.007   0.398   4.336 -0.2969 -0.2610  0.7111
 5645SOL    HW128568   3.969   0.483   4.315  0.6279  0.2812  1.2547
 5645SOL    HW228569   4.019   0.355   4.251  0.7479  0.9624  0.2458
 5646SOL     OW28570   4.611   0.821   5.226 -0.3345 -0.1096  0.4435
 5646SOL    HW128571   4.561   0.746   5.259 -0.1201  0.1857  1.4536
 5646SOL    HW228572   4.553   0.890   5.257  3.0041  1.6316  2.8465
 5647SOL     OW28573   2.306   2.182   5.551 -0.0622  0.2712 -0.1904
 5647SOL    HW128574   2.362   2.224   5.486  1.1105  0.6202  1.0233
 5647SOL    HW228575   2.307   2.090   5.525 -0.0926  0.7519 -1.9008
 5648SOL     OW28576   1.110   3.327   3.935 -0.3264  0.5725 -0.6471
 5648SOL    HW128577   1.155   3.335   3.851  0.8735  1.5269  0.0811
 5648SOL    HW228578   1.179   3.366   3.990  0.7451 -0.7926 -1.0132
 5649SOL     OW28579   3.239   2.595  15.735  0.8941  0.0461  0.2180
 5649SOL    HW128580   3.253   2.531  15.804 -0.3590 -1.1993 -0.6829
 5649SOL    HW228581   3.319   2.645  15.749  1.1748 -0.0007 -1.2405
 5650SOL     OW28582   3.202   1.726   6.265  0.0663 -0.0256  0.1539
 5650SOL    HW128583   3.198   1.673   6.186 -0.1747  0.6008 -0.2570
 5650SOL    HW228584   3.225   1.660   6.329 -0.1148  0.6473  0.9214
 5651SOL     OW28585   1.336   4.559   4.181 -0.1156  0.0669 -0.5781
 5651SOL    HW128586   1.326   4.468   4.154  0.8264 -0.6550  1.4799
 5651SOL    HW228587   1.258   4.595   4.139 -0.3562  0.3360  0.0990
 5652SOL     OW28588   1.482   1.302   6.256  0.1436 -0.3989  0.4879
 5652SOL    HW128589   1.566   1.336   6.224 -0.5708  3.5225  2.8742
 5652SOL    HW228590   1.495   1.278   6.347  0.2017 -0.3342  0.4967
 5653SOL     OW28591   4.060   3.352   7.877 -0.3784 -0.2402  0.3384
 5653SOL    HW128592   3.984   3.308   7.837  0.2278 -0.3245 -0.7361
 5653SOL    HW228593   4.058   3.431   7.823 -0.4794 -0.4656  0.0093
 5654SOL     OW28594   3.066   0.782  14.778  0.3929 -0.4870  0.0003
 5654SOL    HW128595   2.978   0.797  14.811  0.6303 -1.1443  0.9476
 5654SOL    HW228596   3.095   0.873  14.783  0.6698 -0.6744  1.8232
 5655SOL     OW28597   2.297   1.584   3.881 -0.5008  0.6696  0.1222
 5655SOL    HW128598   2.339   1.498   3.883  0.3191  1.0410 -1.0410
 5655SOL    HW228599   2.260   1.597   3.793  0.7653 -1.2699 -0.6880
 5656SOL     OW28600   0.042   2.192  12.452 -0.5699  0.6837 -0.2477
 5656SOL    HW128601   4.689   2.207  12.439 -0.3978  1.9600 -0.0163
 5656SOL    HW228602   0.051   2.137  12.374 -2.1140  4.0354 -2.7481
 5657SOL     OW28603   3.577   2.872   5.562 -0.0279  0.3920  0.6845
 5657SOL    HW128604   3.576   2.947   5.621 -0.2117  0.3100  0.7857
 5657SOL    HW228605   3.601   2.914   5.480  0.9908  1.0880  1.3452
 5658SOL     OW28606   4.515   2.302   7.327  0.2716  0.0605 -0.0386
 5658SOL    HW128607   4.509   2.215   7.364  2.0023  0.0816  0.3074
 5658SOL    HW228608   4.429   2.342   7.340  1.0359  1.6982  0.0060
 5659SOL     OW28609   0.537   2.833   7.941 -0.0498  0.4253  0.0557
 5659SOL    HW128610   0.577   2.748   7.923 -1.6470 -0.1034 -0.9912
 5659SOL    HW228611   0.486   2.815   8.019  1.3565 -1.3472  0.5482
 5660SOL     OW28612   3.059   3.479   4.825  0.8672 -0.3287  0.3466
 5660SOL    HW128613   2.965   3.496   4.821  1.2815  2.2355  1.7780
 5660SOL    HW228614   3.091   3.535   4.755  0.2770  3.7064  3.3392
 5661SOL     OW28615   2.599   3.937   6.039  0.0651 -0.1473 -0.8118
 5661SOL    HW128616   2.666   3.915   6.104 -1.0691  2.4321  1.2411
 5661SOL    HW228617   2.627   3.882   5.966 -1.4351 -1.1756 -0.6211
 5662SOL     OW28618   0.237   3.740  14.704 -0.3004 -0.5623  0.5186
 5662SOL    HW128619   0.167   3.709  14.646 -0.1872 -1.2773  0.7649
 5662SOL    HW228620   0.295   3.665  14.716  1.2918  0.7958  1.3711
 5663SOL     OW28621   3.927   4.217   6.832  0.0326  0.6685  0.2473
 5663SOL    HW128622   3.944   4.187   6.742  0.5738  1.2175  0.1716
 5663SOL    HW228623   3.928   4.134   6.880  0.2144  0.7807  0.4360
 5664SOL     OW28624   0.529   1.287  16.024  0.1833 -0.1003  0.4236
 5664SOL    HW128625   0.525   1.277  15.929  0.0774 -0.1352  0.4316
 5664SOL    HW228626   0.553   1.379  16.034  0.8436 -0.5595  3.0522
 5665SOL     OW28627   1.165   2.397   1.444 -0.4977  0.3444 -0.2887
 5665SOL    HW128628   1.074   2.417   1.423 -0.7404 -0.2138  0.2509
 5665SOL    HW228629   1.166   2.306   1.474 -0.3045 -0.5187 -2.8801
 5666SOL     OW28630   1.777   2.842   9.636  0.0508  0.2631 -0.3325
 5666SOL    HW128631   1.718   2.900   9.683 -1.0356 -1.2350  0.1505
 5666SOL    HW228632   1.722   2.827   9.559  2.6503 -0.7220 -2.0405
 5667SOL     OW28633   3.139   2.732   6.319  0.1886 -0.3108  0.0094
 5667SOL    HW128634   3.082   2.732   6.242 -0.0238 -1.0162  0.1653
 5667SOL    HW228635   3.173   2.820   6.307 -0.4668  0.1693  1.7687
 5668SOL     OW28636   4.118   2.537   3.328  0.3218 -0.2470 -0.6610
 5668SOL    HW128637   4.179   2.588   3.275 -0.7368  2.1583  0.4105
 5668SOL    HW228638   4.048   2.528   3.263 -3.6852  3.5595  3.0973
 5669SOL     OW28639   0.538   3.662  16.626 -0.8260  0.1873 -0.3446
 5669SOL    HW128640   0.508   3.588  16.574 -1.1424  1.2364 -1.6428
 5669SOL    HW228641   0.457   3.681  16.673 -1.6835 -2.3224 -0.8209
 5670SOL     OW28642   3.741   2.888   3.069  0.2580 -0.1462  0.0229
 5670SOL    HW128643   3.815   2.856   3.119  0.5072 -0.2680 -0.4174
 5670SOL    HW228644   3.686   2.809   3.072  1.6293 -1.0149  1.6465
 5671SOL     OW28645   2.488   0.136   1.526  0.0268 -0.2823  0.3167
 5671SOL    HW128646   2.415   0.092   1.483 -0.4208  0.8972 -0.1366
 5671SOL    HW228647   2.460   0.227   1.540  0.1706 -0.3762  1.2194
 5672SOL     OW28648   1.371   0.884  12.161 -1.1350 -0.1204 -0.7900
 5672SOL    HW128649   1.350   0.973  12.191  0.3545 -0.2391  0.6039
 5672SOL    HW228650   1.327   0.885  12.076 -1.3419  0.7363 -0.6696
 5673SOL     OW28651   2.483   0.229   3.201 -0.5507  0.1841 -0.2304
 5673SOL    HW128652   2.443   0.220   3.287 -0.5132 -0.6005 -0.2984
 5673SOL    HW228653   2.505   0.141   3.170  1.7471  0.4082  0.7773
 5674SOL     OW28654   2.728   1.633   6.875 -0.5784  0.0157 -0.2665
 5674SOL    HW128655   2.667   1.704   6.895 -0.7352 -0.3183  0.4526
 5674SOL    HW228656   2.666   1.567   6.905 -0.3446 -0.2311 -0.3334
 5675SOL     OW28657   3.258   1.226  10.722 -0.1662 -0.2210  0.3413
 5675SOL    HW128658   3.183   1.171  10.702 -1.3819  1.6400 -0.2441
 5675SOL    HW228659   3.255   1.239  10.817  0.5641 -0.1342  0.3535
 5676SOL     OW28660   1.511   0.466   0.990  0.0919  0.1022  0.0354
 5676SOL    HW128661   1.510   0.431   0.901 -0.9844  0.2210 -0.0023
 5676SOL    HW228662   1.593   0.515   0.986  0.5996 -0.8609 -1.3333
 5677SOL     OW28663   2.532   3.174   5.235 -0.0660 -0.0067 -1.1866
 5677SOL    HW128664   2.548   3.109   5.166  0.3062  0.4158 -1.5020
 5677SOL    HW228665   2.620   3.210   5.238 -1.1298  2.3005  2.1217
 5678SOL     OW28666   1.882   2.484   3.717 -0.2702  0.1270  0.1452
 5678SOL    HW128667   1.945   2.530   3.661  0.4756 -1.6216 -0.4857
 5678SOL    HW228668   1.903   2.514   3.805 -0.9756 -3.1519  1.4386
 5679SOL     OW28669   1.499   2.608   1.481  0.1682  0.0475 -0.0719
 5679SOL    HW128670   1.533   2.526   1.446  1.2140  0.8412 -0.9329
 5679SOL    HW228671   1.516   2.594   1.574  1.3234 -0.5667 -0.3764
 5680SOL     OW28672   2.265   0.888   7.663 -0.1813 -0.0359 -0.3887
 5680SOL    HW128673   2.315   0.842   7.730 -0.0327 -0.5056 -0.8291
 5680SOL    HW228674   2.187   0.832   7.665 -0.4128  0.2220 -2.2237
 5681SOL     OW28675   0.586   1.145   1.506  0.5728  0.2207 -0.6499
 5681SOL    HW128676   0.509   1.096   1.478 -1.5988  2.5096  1.1888
 5681SOL    HW228677   0.550   1.173   1.591  1.3260  0.6517 -0.4668
 5682SOL     OW28678   0.532   1.636  10.218 -0.0564  0.4868 -0.1011
 5682SOL    HW128679   0.535   1.731  10.210 -0.0356  0.5727  0.9735
 5682SOL    HW228680   0.483   1.634  10.300 -3.3803 -2.2174 -2.1200
 5683SOL     OW28681   4.022   3.074   6.476  0.2850 -0.6055  0.0184
 5683SOL    HW128682   4.063   3.149   6.519 -0.7735 -1.6313  2.7937
 5683SOL    HW228683   3.950   3.051   6.535 -1.2420  0.8554 -1.2902
 5684SOL     OW28684   4.709   4.325   4.713  0.1119  0.1841 -0.0521
 5684SOL    HW128685   4.716   4.272   4.793 -0.4822 -0.6513 -0.5553
 5684SOL    HW228686   0.059   4.348   4.692  0.5768  0.3154  2.0471
 5685SOL     OW28687   3.222   1.802   8.667  0.5919 -0.9398  0.1930
 5685SOL    HW128688   3.181   1.716   8.653  0.1793 -0.6453 -0.3751
 5685SOL    HW228689   3.247   1.804   8.575  1.6131 -1.6683  0.4510
 5686SOL     OW28690   2.013   0.942   3.946  0.1249 -0.0439 -0.8894
 5686SOL    HW128691   1.976   0.998   4.014  2.0638 -1.3004  1.2569
 5686SOL    HW228692   2.104   0.971   3.955  0.5753 -1.7405  0.0608
 5687SOL     OW28693   4.268   4.566  16.616 -0.1570 -0.1335  0.3732
 5687SOL    HW128694   4.360   4.580  16.640  0.1281  0.4385 -1.0757
 5687SOL    HW228695   4.253   4.475  16.642 -2.3793  0.1377  0.0419
 5688SOL     OW28696   3.650   2.424  17.479 -0.4037  0.4195 -0.0777
 5688SOL    HW128697   3.567   2.463  17.507  0.3969  1.5235  0.7250
 5688SOL    HW228698   3.715   2.491  17.498 -0.3893 -0.0904  1.6309
 5689SOL     OW28699   1.065   2.449   8.483  0.5060 -0.2894 -0.5328
 5689SOL    HW128700   1.068   2.447   8.578  2.2907  1.7441 -0.5684
 5689SOL    HW228701   0.993   2.511   8.471  2.0001  1.7247  0.9624
 5690SOL     OW28702   0.448   3.751   8.737 -0.1635  0.1775 -0.3637
 5690SOL    HW128703   0.405   3.679   8.692  0.3001 -1.4846  1.8486
 5690SOL    HW228704   0.492   3.712   8.812 -2.1784 -2.2129 -0.4075
 5691SOL     OW28705   0.632   0.838   9.152 -0.8237  0.0162 -0.0932
 5691SOL    HW128706   0.663   0.866   9.238 -0.3895 -2.9218  0.7258
 5691SOL    HW228707   0.619   0.743   9.160 -2.2544  0.1865 -0.5215
 5692SOL     OW28708   3.294   1.058   3.507  0.0443 -0.0154  0.2133
 5692SOL    HW128709   3.294   1.132   3.567  1.0199 -0.5495  0.8665
 5692SOL    HW228710   3.366   1.087   3.451 -0.5500  1.2840  0.1287
 5693SOL     OW28711   2.284   1.731   4.152  0.2533 -0.2688 -0.1616
 5693SOL    HW128712   2.298   1.691   4.066 -4.1279 -0.7638 -0.6269
 5693SOL    HW228713   2.353   1.687   4.203 -0.3289  1.0760  1.7799
 5694SOL     OW28714   3.073   1.912   2.192  0.1561  0.6273 -0.0250
 5694SOL    HW128715   3.007   1.848   2.167 -0.8047  1.7180 -0.2453
 5694SOL    HW228716   3.010   1.970   2.235  0.9004  0.7439  0.9208
 5695SOL     OW28717   1.591   1.316   8.756 -0.1262 -0.7693 -0.6947
 5695SOL    HW128718   1.666   1.372   8.738  0.5257 -1.8677 -1.3632
 5695SOL    HW228719   1.516   1.372   8.777  2.2989  1.6859  1.3608
 5696SOL     OW28720   3.061   3.599   5.835  0.4128 -0.0774 -0.1875
 5696SOL    HW128721   3.066   3.519   5.887  0.2012 -0.1034 -0.2062
 5696SOL    HW228722   3.124   3.658   5.877  0.7162 -1.9051  1.9175
 5697SOL     OW28723   1.206   2.696   5.610 -0.5734  0.4385 -0.0847
 5697SOL    HW128724   1.280   2.637   5.591  0.4108  0.9417  2.1870
 5697SOL    HW228725   1.240   2.785   5.600  1.0433 -0.2075 -0.3854
 5698SOL     OW28726   4.306   3.967   3.462  0.5486  0.2961  0.1835
 5698SOL    HW128727   4.283   3.874   3.467 -0.4348  0.5559  0.5337
 5698SOL    HW228728   4.277   3.992   3.374  2.0239  2.0247  0.2016
 5699SOL     OW28729   4.000   1.012   1.820  0.8880  0.2160 -0.3281
 5699SOL    HW128730   3.914   1.020   1.779  1.4397  2.6751 -1.0103
 5699SOL    HW228731   3.994   0.925   1.858  0.9216  0.5056  0.3415
 5700SOL     OW28732   3.833   1.437   0.794  0.0296  0.8334  0.1924
 5700SOL    HW128733   3.919   1.479   0.787  0.9786 -1.5341 -2.4713
 5700SOL    HW228734   3.854   1.360   0.846  2.1976  0.2722 -1.5504
 5701SOL     OW28735   1.486   2.472   2.904  0.1011 -0.0787  0.1290
 5701SOL    HW128736   1.460   2.491   2.994  0.3640  0.4468  0.0939
 5701SOL    HW228737   1.493   2.378   2.921 -0.1465 -0.0971  0.1280
 5702SOL     OW28738   3.420   2.301   7.898 -0.2710  0.4082  0.3588
 5702SOL    HW128739   3.383   2.213   7.895  0.2059  0.2715 -1.5400
 5702SOL    HW228740   3.413   2.322   7.805 -1.1884 -2.6162 -0.2501
 5703SOL     OW28741   2.309   2.501   0.852  0.1302  0.2132  0.1603
 5703SOL    HW128742   2.354   2.545   0.924  1.3705 -1.4210  0.3704
 5703SOL    HW228743   2.264   2.575   0.810  3.6926  2.1012 -0.3843
 5704SOL     OW28744   0.419   3.943  14.673  0.7466  0.2379 -0.2852
 5704SOL    HW128745   0.380   3.972  14.591 -1.5815 -0.7832  0.4502
 5704SOL    HW228746   0.364   3.865  14.690 -1.6728  2.2437  1.1247
 5705SOL     OW28747   0.176   2.957  13.443 -0.1646 -0.3353  0.3223
 5705SOL    HW128748   0.140   2.921  13.524 -1.7005 -0.0656 -0.2385
 5705SOL    HW228749   0.184   3.048  13.471 -0.8912 -0.8435  2.2038
 5706SOL     OW28750   4.501   2.201  16.353  0.1384  0.0262 -0.0470
 5706SOL    HW128751   4.521   2.289  16.319  0.8525 -0.4011 -0.7360
 5706SOL    HW228752   4.586   2.165  16.378 -0.5379  0.6079  3.1136
 5707SOL     OW28753   1.631   1.726   7.249  0.0418  0.3451 -0.0450
 5707SOL    HW128754   1.597   1.637   7.256 -0.7643  0.7190  0.8109
 5707SOL    HW228755   1.560   1.778   7.210  0.9566  2.6261  1.3304
 5708SOL     OW28756   0.194   3.503  16.547  0.5841  0.2415  0.5617
 5708SOL    HW128757   0.202   3.557  16.626  1.3914  0.5992  0.2421
 5708SOL    HW228758   0.286   3.478  16.534 -0.6626 -3.3103 -1.1355
 5709SOL     OW28759   2.653   0.587   0.669 -0.3214 -0.4336 -0.2204
 5709SOL    HW128760   2.683   0.673   0.641  1.1098 -1.1966 -0.9995
 5709SOL    HW228761   2.680   0.579   0.760 -2.1085  1.5241  0.4875
 5710SOL     OW28762   1.122   1.473   1.501 -0.0846 -0.5951 -0.6066
 5710SOL    HW128763   1.112   1.568   1.506  0.0233 -0.5263 -1.7250
 5710SOL    HW228764   1.185   1.460   1.571 -1.9862 -0.6862  1.0908
 5711SOL     OW28765   4.670   2.081   8.153  0.3066  0.1488 -0.3445
 5711SOL    HW128766   4.661   2.174   8.136 -0.1804 -0.0161 -1.0099
 5711SOL    HW228767   4.674   2.079   8.248  2.7447 -0.4837 -0.4607
 5712SOL     OW28768   2.585   2.615   9.659 -0.1117  0.0963  0.8456
 5712SOL    HW128769   2.509   2.671   9.644  0.9756  1.5101  0.6032
 5712SOL    HW228770   2.540   2.535   9.685 -0.4978  0.7435  2.1687
 5713SOL     OW28771   1.122   1.808   8.744 -0.5722  0.0408 -1.0098
 5713SOL    HW128772   1.081   1.758   8.674 -0.3090  0.1047 -1.2070
 5713SOL    HW228773   1.217   1.806   8.731 -0.3420 -3.4911  1.1621
 5714SOL     OW28774   3.460   3.982   3.980  0.2548  0.8410 -0.3152
 5714SOL    HW128775   3.396   4.050   4.001  1.2694  1.6964 -0.0194
 5714SOL    HW228776   3.473   3.937   4.063  0.1444  0.5116 -0.4717
 5715SOL     OW28777   2.176   4.332   2.291  0.0267  0.8420  0.3215
 5715SOL    HW128778   2.111   4.300   2.227  2.2496  0.3664 -1.6834
 5715SOL    HW228779   2.121   4.390   2.343  0.1280 -0.7994  2.2330
 5716SOL     OW28780   0.905   4.542  11.966 -0.3345 -0.3608  0.2404
 5716SOL    HW128781   0.979   4.527  12.025 -1.1061  0.9035  1.5287
 5716SOL    HW228782   0.946   4.539  11.880  1.0621 -0.1009  0.8922
 5717SOL     OW28783   4.690   1.466   3.448 -0.5712  0.1819 -0.3273
 5717SOL    HW128784   4.651   1.482   3.534  0.7328 -2.2694  0.7387
 5717SOL    HW228785   0.031   1.425   3.474 -0.7954  1.6400  2.6899
 5718SOL     OW28786   1.747   1.737   6.805  0.4133  0.4118  0.1388
 5718SOL    HW128787   1.697   1.690   6.872 -1.1264  1.3569 -0.3434
 5718SOL    HW228788   1.737   1.681   6.728  1.3980 -0.1052  0.3868
 5719SOL     OW28789   0.124   4.244   7.703 -0.3027 -0.4363 -0.2990
 5719SOL    HW128790   0.043   4.282   7.736 -0.1609 -0.4476  0.0610
 5719SOL    HW228791   0.179   4.322   7.698 -1.1651 -0.0286 -3.2090
 5720SOL     OW28792   1.550   4.662   0.594 -0.0310 -0.5794  0.1915
 5720SOL    HW128793   1.572   4.685   0.504  2.7727 -3.2936  0.1821
 5720SOL    HW228794   1.504   4.579   0.584  2.0098 -1.3681 -2.6436
 5721SOL     OW28795   2.964   0.492   4.192 -0.1966 -0.4516  0.3133
 5721SOL    HW128796   3.043   0.437   4.194  0.2500  0.2259  1.2193
 5721SOL    HW228797   2.972   0.523   4.282 -0.3593  0.5795 -0.0361
 5722SOL     OW28798   4.436   3.114   7.681  0.2386  0.0472  0.2886
 5722SOL    HW128799   4.516   3.110   7.733 -0.1716 -0.6531  0.8539
 5722SOL    HW228800   4.460   3.060   7.606  1.4034  1.4801 -0.3770
 5723SOL     OW28801   4.042   1.700  16.659 -0.2369 -0.0105 -0.5678
 5723SOL    HW128802   4.048   1.618  16.611 -0.3400 -0.0146 -0.5717
 5723SOL    HW228803   4.023   1.662  16.745  0.0942 -0.4082 -0.6676
 5724SOL     OW28804   2.596   0.446  13.907 -0.8027  0.3748  0.1585
 5724SOL    HW128805   2.538   0.519  13.929  1.0342  1.9052 -0.0258
 5724SOL    HW228806   2.540   0.401  13.844  0.5732  1.7376 -2.0129
 5725SOL     OW28807   2.898   2.701  11.779 -0.8858 -0.1718 -0.2882
 5725SOL    HW128808   2.907   2.792  11.752  0.1634 -0.1239  0.2062
 5725SOL    HW228809   2.930   2.657  11.700 -2.2022  1.3809 -1.6993
 5726SOL     OW28810   0.569   2.398   5.399  0.1624  0.0194  0.1018
 5726SOL    HW128811   0.662   2.417   5.387  0.2444 -0.5121 -0.1088
 5726SOL    HW228812   0.534   2.401   5.309  1.8852  0.2603 -0.5476
 5727SOL     OW28813   1.561   4.104   4.141  0.6557 -0.7876  0.1433
 5727SOL    HW128814   1.653   4.131   4.149  0.8343 -1.4750  0.3506
 5727SOL    HW228815   1.558   4.009   4.146  2.3366 -0.8074  0.8406
 5728SOL     OW28816   1.851   2.291  16.704  0.3626  0.3877 -0.0413
 5728SOL    HW128817   1.828   2.286  16.797  0.5109  2.3291  0.0968
 5728SOL    HW228818   1.815   2.377  16.683  1.4066  1.1030  1.0965
 5729SOL     OW28819   3.375   3.062   7.564 -0.0801 -0.9444 -0.2828
 5729SOL    HW128820   3.453   3.006   7.563  1.2517  0.9537 -2.8520
 5729SOL    HW228821   3.303   3.000   7.556  0.2273 -1.5259  1.5143
 5730SOL     OW28822   3.103   0.418  14.543 -0.6082  0.0741  0.1768
 5730SOL    HW128823   3.141   0.334  14.517  1.2362  0.9805 -0.0183
 5730SOL    HW228824   3.073   0.450  14.457  2.6803  2.3254 -0.1169
 5731SOL     OW28825   1.750   2.056   5.258 -0.0778  0.5553  0.1434
 5731SOL    HW128826   1.674   2.006   5.288 -0.2110  1.4140  1.2300
 5731SOL    HW228827   1.778   2.108   5.333  0.5425 -0.4003  0.5757
 5732SOL     OW28828   4.029   1.374  14.981  0.5164 -0.0631 -0.0514
 5732SOL    HW128829   3.985   1.290  14.996  0.8552 -0.5334 -1.6671
 5732SOL    HW228830   4.120   1.354  14.957  0.0444 -0.1843 -1.6738
 5733SOL     OW28831   0.296   2.290  13.149  0.2035 -0.1996 -0.3709
 5733SOL    HW128832   0.373   2.267  13.200  0.0142 -1.4486 -0.6616
 5733SOL    HW228833   0.312   2.382  13.129  1.4122 -0.1106  1.0317
 5734SOL     OW28834   1.560   1.043   8.370 -0.2016  0.0138 -0.5590
 5734SOL    HW128835   1.489   1.083   8.321 -0.4651  2.0345  1.4897
 5734SOL    HW228836   1.515   0.970   8.413 -0.1312  0.0385 -0.4424
 5735SOL     OW28837   3.877   1.776   2.635  0.2690  0.0203  0.3003
 5735SOL    HW128838   3.900   1.701   2.580  0.6614 -1.1720  2.0979
 5735SOL    HW228839   3.886   1.842   2.566  2.0191 -1.6854 -1.0805
 5736SOL     OW28840   3.813   2.380   3.371  0.3077  0.1577 -0.0608
 5736SOL    HW128841   3.882   2.334   3.323  2.0333  2.2017  0.4802
 5736SOL    HW228842   3.792   2.310   3.432  2.2471  2.7779  3.6500
 5737SOL     OW28843   4.107   0.136   0.033 -0.1236  0.8695 -0.3928
 5737SOL    HW128844   4.159   0.212   0.061  1.1849  0.1170 -0.7752
 5737SOL    HW228845   4.169   0.068   0.059 -0.9694  0.5851  0.8607
 5738SOL     OW28846   4.084   2.390  17.605 -0.0700 -0.5543  0.1544
 5738SOL    HW128847   4.086   2.296  17.625 -3.4651 -0.0640  2.6719
 5738SOL    HW228848   4.168   2.418  17.642  0.4996  0.0057 -1.5542
 5739SOL     OW28849   4.172   1.952  10.259 -0.1708  0.1707 -0.6012
 5739SOL    HW128850   4.079   1.933  10.254 -0.4113  1.0556  0.4113
 5739SOL    HW228851   4.191   2.022  10.322 -1.6621  1.2941 -1.4027
 5740SOL     OW28852   0.132   0.987   4.166 -0.1810 -0.1314 -0.7741
 5740SOL    HW128853   0.111   0.919   4.229  0.8978 -1.1154 -1.4941
 5740SOL    HW228854   0.212   1.034   4.190  1.7430 -1.1890 -5.0935
 5741SOL     OW28855   1.528   2.295   7.714 -0.2050 -0.0758 -0.9361
 5741SOL    HW128856   1.435   2.283   7.695 -0.5888  0.7125  0.4704
 5741SOL    HW228857   1.542   2.231   7.784 -1.0875  0.1135 -0.5910
 5742SOL     OW28858   1.691   1.507   3.877 -0.3063 -0.7547 -0.4289
 5742SOL    HW128859   1.715   1.416   3.894 -1.2340 -0.6489  1.3487
 5742SOL    HW228860   1.637   1.534   3.951 -2.1674  0.2834 -2.1698
 5743SOL     OW28861   3.169   2.812   9.702  0.5071 -0.4584  0.6397
 5743SOL    HW128862   3.137   2.726   9.728  0.6298 -0.6161  0.2682
 5743SOL    HW228863   3.226   2.786   9.630 -0.3474  0.6397 -0.4371
 5744SOL     OW28864   0.568   0.629   3.609 -0.5548  0.2523  0.3596
 5744SOL    HW128865   0.563   0.693   3.680  1.0959  0.8684 -0.0830
 5744SOL    HW228866   0.639   0.578   3.649 -0.5457 -1.2964 -1.6066
 5745SOL     OW28867   4.095   2.150   2.285  0.1290 -0.2656  0.7123
 5745SOL    HW128868   4.173   2.205   2.294  0.2731 -0.1794 -1.0397
 5745SOL    HW228869   4.021   2.206   2.309  0.4965  0.2607  0.6282
 5746SOL     OW28870   2.887   2.523   3.383 -0.3353  0.3060  0.5501
 5746SOL    HW128871   2.900   2.456   3.316  0.0018 -1.8575  2.7902
 5746SOL    HW228872   2.975   2.539   3.418 -0.1582 -0.1128  0.2921
 5747SOL     OW28873   1.596   0.202   9.579  0.0887  0.5249 -0.3083
 5747SOL    HW128874   1.550   0.146   9.516  0.4546 -1.5331  1.2479
 5747SOL    HW228875   1.684   0.208   9.541  0.7005  0.9881  1.1982
 5748SOL     OW28876   3.160   3.646   6.555 -0.2494 -0.1097  0.2144
 5748SOL    HW128877   3.250   3.655   6.523  0.5430  0.7254  2.6697
 5748SOL    HW228878   3.161   3.556   6.587 -0.8226 -0.3349 -0.3981
 5749SOL     OW28879   0.310   1.137   1.069 -0.0489 -0.4436 -0.3998
 5749SOL    HW128880   0.273   1.050   1.083  0.8267 -0.9245 -1.1178
 5749SOL    HW228881   0.227   1.184   1.058  0.9828  1.0643 -1.6991
 5750SOL     OW28882   4.462   0.676  10.173  0.2669 -0.4286 -0.1860
 5750SOL    HW128883   4.451   0.593  10.126  1.3547  0.2782 -1.6761
 5750SOL    HW228884   4.473   0.731  10.095 -0.9287 -1.0259 -0.7736
 5751SOL     OW28885   3.116   3.643   2.548  0.3463 -0.2209  0.2751
 5751SOL    HW128886   3.197   3.597   2.526  0.0004 -0.4652 -0.4655
 5751SOL    HW228887   3.107   3.624   2.642 -0.2372 -2.0858 -0.1690
 5752SOL     OW28888   4.539   1.285  16.337 -0.2103  0.1728 -0.6168
 5752SOL    HW128889   4.617   1.303  16.389 -0.2786  0.6495 -0.6739
 5752SOL    HW228890   4.492   1.233  16.401  1.9838 -0.4767  0.4667
 5753SOL     OW28891   3.522   1.967   5.662  0.1911  0.0203  0.4773
 5753SOL    HW128892   3.531   1.939   5.753  0.9258  0.5316  0.5650
 5753SOL    HW228893   3.572   1.894   5.626 -0.2442 -1.1890  2.3463
 5754SOL     OW28894   1.121   3.925   5.109 -0.0745  0.1857 -0.0507
 5754SOL    HW128895   1.115   3.934   5.014  0.7146  2.1537  0.0901
 5754SOL    HW228896   1.028   3.928   5.131 -0.0165  0.2687  0.1842
 5755SOL     OW28897   3.871   0.279   9.494 -0.2944  0.2083 -0.1772
 5755SOL    HW128898   3.962   0.299   9.516 -0.4783  1.5626 -0.6208
 5755SOL    HW228899   3.822   0.308   9.571  1.0674  1.3503  0.2567
 5756SOL     OW28900   3.253   0.293   2.741 -0.0587 -0.1140  0.5930
 5756SOL    HW128901   3.268   0.357   2.811 -1.2302 -1.6846  2.2876
 5756SOL    HW228902   3.258   0.351   2.665  0.9294 -1.2337 -0.1958
 5757SOL     OW28903   2.233   3.998   1.738 -0.0602 -0.0995 -0.5212
 5757SOL    HW128904   2.207   4.069   1.679 -2.1818 -0.2863  0.1857
 5757SOL    HW228905   2.223   4.046   1.820 -2.0146 -0.8688 -0.2991
 5758SOL     OW28906   2.737   0.743   9.261  0.1176  0.0965 -0.1756
 5758SOL    HW128907   2.832   0.753   9.266 -0.0020  0.6384  0.9437
 5758SOL    HW228908   2.722   0.799   9.185  1.5783  0.6066 -0.0991
 5759SOL     OW28909   4.339   2.827   3.881  0.0158  0.2248 -0.0891
 5759SOL    HW128910   4.382   2.751   3.841  0.1229 -0.3416  1.1110
 5759SOL    HW228911   4.407   2.895   3.872  0.5117 -0.1056  1.1698
 5760SOL     OW28912   3.124   0.054  11.928 -0.2799 -0.1979 -0.1800
 5760SOL    HW128913   3.064   0.112  11.976  0.8636 -0.4033  1.4893
 5760SOL    HW228914   3.165   0.116  11.868 -0.5046  0.5155  0.3923
 5761SOL     OW28915   2.607   2.116  11.765 -0.2086  0.2737  0.1913
 5761SOL    HW128916   2.658   2.197  11.760  1.5703 -0.8968 -0.4928
 5761SOL    HW228917   2.621   2.086  11.675 -1.2104  3.6766 -1.1387
 5762SOL     OW28918   2.525   1.050   3.158 -0.4621 -0.2507 -0.0653
 5762SOL    HW128919   2.517   1.145   3.156  1.7837 -0.0575 -0.1023
 5762SOL    HW228920   2.487   1.035   3.245 -1.5617  0.1276 -0.4840
 5763SOL     OW28921   2.242   4.199   1.945  0.3197 -0.1010 -0.2901
 5763SOL    HW128922   2.306   4.207   2.016 -1.9077  0.9377  1.5912
 5763SOL    HW228923   2.250   4.284   1.901 -2.5620 -0.3700 -1.3188
 5764SOL     OW28924   3.875   0.429   6.257  0.4567 -0.2683 -0.3580
 5764SOL    HW128925   3.899   0.336   6.265  1.8891  0.3201  2.3972
 5764SOL    HW228926   3.940   0.459   6.321 -0.2171  0.8644 -0.2019
 5765SOL     OW28927   3.442   3.923   8.934 -0.2096  0.0933 -0.2704
 5765SOL    HW128928   3.470   4.004   8.977 -0.8056 -1.7104  3.4706
 5765SOL    HW228929   3.486   3.859   8.989  0.1898  1.2479  0.7661
 5766SOL     OW28930   2.748   2.344  11.761  0.3845 -0.3654 -0.6049
 5766SOL    HW128931   2.836   2.306  11.760  0.0682 -1.1056 -0.5517
 5766SOL    HW228932   2.759   2.381  11.673  0.0068  3.1212  0.8265
 5767SOL     OW28933   4.584   0.967   2.282  0.0621 -0.1312 -0.1612
 5767SOL    HW128934   4.651   0.992   2.345 -1.8035  0.3866  1.6052
 5767SOL    HW228935   4.511   1.014   2.322 -0.6796 -0.5308 -1.0460
 5768SOL     OW28936   3.925   0.760   2.296 -0.1263 -0.0910  0.0553
 5768SOL    HW128937   3.912   0.716   2.380 -0.9375 -1.0314 -0.5663
 5768SOL    HW228938   4.009   0.722   2.271 -0.9756  0.4449 -3.6522
 5769SOL     OW28939   1.842   4.264   5.597  0.2893 -0.1765  0.6582
 5769SOL    HW128940   1.835   4.293   5.506 -1.9800  0.9249  1.1987
 5769SOL    HW228941   1.762   4.291   5.642 -0.6338 -1.1747 -0.3947
 5770SOL     OW28942   1.377   0.655   1.278 -0.0295 -0.1187  0.3068
 5770SOL    HW128943   1.358   0.563   1.261  0.1684 -0.3465  1.3435
 5770SOL    HW228944   1.436   0.640   1.352 -0.3224 -1.6784  0.2281
 5771SOL     OW28945   0.107   3.047   1.236  0.1272  0.1385  0.0393
 5771SOL    HW128946   0.053   3.056   1.158 -2.0102 -1.3394  1.3301
 5771SOL    HW228947   0.088   2.954   1.251 -0.9984  0.3061 -0.2907
 5772SOL     OW28948   0.321   1.983   7.851  0.5314  0.0471  0.2704
 5772SOL    HW128949   0.298   2.011   7.940 -1.1155 -0.2447 -0.0630
 5772SOL    HW228950   0.323   2.066   7.803 -1.5441 -0.8097 -1.2857
 5773SOL     OW28951   0.261   1.433   5.048 -0.3171 -0.2453  0.0425
 5773SOL    HW128952   0.194   1.400   4.988  1.1833  0.5105 -2.0153
 5773SOL    HW228953   0.247   1.371   5.120 -1.3408  0.6269  0.6115
 5774SOL     OW28954   1.361   1.640   4.701  0.2008  0.4378 -0.0765
 5774SOL    HW128955   1.409   1.688   4.768  1.2994  0.1870 -0.6723
 5774SOL    HW228956   1.271   1.649   4.733 -0.5763  0.8891 -2.3571
 5775SOL     OW28957   2.211   4.144   2.670 -0.0002 -0.5181  0.0203
 5775SOL    HW128958   2.137   4.148   2.730  0.7009 -0.6765  0.9034
 5775SOL    HW228959   2.256   4.067   2.705  0.4692 -0.2634 -0.0095
 5776SOL     OW28960   1.841   3.060  11.161  0.2427  0.7244 -0.2691
 5776SOL    HW128961   1.807   3.043  11.073  0.6034  0.6217 -0.3882
 5776SOL    HW228962   1.874   2.974  11.187  1.1563  0.8045 -1.1376
 5777SOL     OW28963   2.339   2.164   6.643 -0.3072  0.3400 -0.4862
 5777SOL    HW128964   2.357   2.229   6.575  2.8046 -0.1023 -0.0753
 5777SOL    HW228965   2.359   2.205   6.727 -0.0493 -0.4117 -0.1798
 5778SOL     OW28966   0.920   3.058   4.363 -0.6301 -0.7836 -0.3872
 5778SOL    HW128967   0.924   3.108   4.445  0.8759 -0.6255 -0.5616
 5778SOL    HW228968   0.975   3.116   4.311  1.1610 -1.0144  1.2288
 5779SOL     OW28969   4.662   1.072   2.052 -0.4304  0.0657  0.0125
 5779SOL    HW128970   4.639   1.028   2.134  0.2581  1.7299  1.0935
 5779SOL    HW228971   4.718   1.141   2.087 -0.6313  1.0117 -1.5732
 5780SOL     OW28972   4.400   0.413  15.781 -0.6363  0.0448 -0.1576
 5780SOL    HW128973   4.381   0.456  15.699  0.8193  1.8447  0.4491
 5780SOL    HW228974   4.424   0.491  15.832  0.0093  0.0897 -0.5314
 5781SOL     OW28975   2.242   1.924  17.533  0.4114  0.2296  0.4111
 5781SOL    HW128976   2.288   1.845  17.506  0.0495  1.2996 -3.2843
 5781SOL    HW228977   2.170   1.927  17.470  0.9927 -1.6131 -0.3369
 5782SOL     OW28978   2.603   1.487   4.897 -0.6041  0.2242  0.2447
 5782SOL    HW128979   2.647   1.402   4.904 -1.5968 -0.4597 -1.7141
 5782SOL    HW228980   2.674   1.549   4.879 -0.5651 -0.0319 -0.4640
 5783SOL     OW28981   4.539   0.148  12.836 -0.8535 -0.4510  0.2408
 5783SOL    HW128982   4.485   0.217  12.796 -3.0296 -2.3303 -0.0363
 5783SOL    HW228983   4.498   0.139  12.922 -1.6402  1.5912  0.0849
 5784SOL     OW28984   2.731   0.589   5.099  0.3417  0.4822 -0.0544
 5784SOL    HW128985   2.776   0.665   5.135  3.3475 -1.2675 -0.1023
 5784SOL    HW228986   2.737   0.526   5.171 -3.5744 -2.3819 -2.2279
 5785SOL     OW28987   2.917   2.638   4.102 -0.0128  0.6782  0.3866
 5785SOL    HW128988   2.963   2.560   4.133 -4.6867 -2.2010 -0.0429
 5785SOL    HW228989   2.942   2.693   4.176 -0.2052  1.0400  0.1821
 5786SOL     OW28990   1.866   3.028   6.469  0.2039  0.2509  0.7805
 5786SOL    HW128991   1.894   3.114   6.498  2.0921 -0.3133  0.6590
 5786SOL    HW228992   1.918   2.970   6.526  1.7680  2.3428  1.4783
 5787SOL     OW28993   1.997   0.662   5.313 -0.0563  0.1058 -0.0085
 5787SOL    HW128994   1.948   0.702   5.240  1.0438 -1.2674 -1.4942
 5787SOL    HW228995   2.020   0.734   5.371  0.7167 -0.7409  0.7219
 5788SOL     OW28996   2.668   0.386  14.664 -0.0716  0.3736  1.2134
 5788SOL    HW128997   2.617   0.410  14.741 -0.3517  1.5555  0.6695
 5788SOL    HW228998   2.757   0.411  14.687 -0.1359  1.0390  0.7494
 5789SOL     OW28999   0.319   2.882  11.768 -0.3398 -0.4354  0.7715
 5789SOL    HW129000   0.321   2.936  11.689 -0.0795  0.7698  1.5836
 5789SOL    HW229001   0.269   2.939  11.827  1.0942 -1.2769  2.8349
 5790SOL     OW29002   3.679   0.585  17.379 -0.1072 -0.5908  0.0552
 5790SOL    HW129003   3.665   0.498  17.342 -0.0438 -0.4117 -0.3939
 5790SOL    HW229004   3.688   0.560  17.471 -0.0931  1.2005  0.5375
 5791SOL     OW29005   0.767   2.723   3.539  0.7974  0.3334  0.0489
 5791SOL    HW129006   0.856   2.758   3.527 -0.1162  2.6882  0.0093
 5791SOL    HW229007   0.751   2.674   3.459  1.3396  1.1209 -0.5401
 5792SOL     OW29008   4.224   3.703   3.545  0.4654 -0.1422  0.3218
 5792SOL    HW129009   4.135   3.726   3.570  1.5829  2.1234  2.1661
 5792SOL    HW229010   4.234   3.617   3.587 -0.7287  0.8942  2.6948
 5793SOL     OW29011   3.546   2.046  17.327  0.3664  0.5832 -0.2547
 5793SOL    HW129012   3.530   2.140  17.318  2.5726  0.8412 -1.5134
 5793SOL    HW229013   3.636   2.044  17.296 -0.1112 -0.7222 -1.5579
 5794SOL     OW29014   1.473   2.688  10.061  0.1754 -0.2206 -0.3884
 5794SOL    HW129015   1.434   2.731   9.984  0.1055 -0.5335 -0.5301
 5794SOL    HW229016   1.563   2.660  10.044  0.1499 -0.0831 -0.7538
 5795SOL     OW29017   1.725   3.224   4.422  0.3874 -0.1093 -0.3154
 5795SOL    HW129018   1.801   3.282   4.419  0.1294  0.1978 -1.0977
 5795SOL    HW229019   1.732   3.206   4.515  0.4954  1.4184 -0.0396
 5796SOL     OW29020   0.484   0.735   8.670 -0.0547  0.3809  0.3088
 5796SOL    HW129021   0.442   0.692   8.744 -1.3555 -1.8047 -1.7136
 5796SOL    HW229022   0.482   0.662   8.609 -3.4837 -0.8276  1.8803
 5797SOL     OW29023   2.809   2.549   5.788  0.2074  0.1343  0.4613
 5797SOL    HW129024   2.715   2.534   5.800 -0.2830  2.4229 -0.4444
 5797SOL    HW229025   2.832   2.459   5.766  0.1432  0.7839 -2.3646
 5798SOL     OW29026   2.822   1.023   3.860  0.0603  0.0509  0.0100
 5798SOL    HW129027   2.883   0.965   3.906 -0.4212 -1.3564 -1.0885
 5798SOL    HW229028   2.839   0.985   3.773  0.5878  3.0129 -1.1779
 5799SOL     OW29029   1.117   0.585   2.823 -0.3661  0.1159  0.0301
 5799SOL    HW129030   1.052   0.597   2.892 -1.8801  0.1097 -1.3708
 5799SOL    HW229031   1.136   0.679   2.816  0.2355 -0.1144 -1.5058
 5800SOL     OW29032   0.322   1.025   9.476 -0.2587 -0.2236 -0.2131
 5800SOL    HW129033   0.254   1.060   9.533  0.4236  2.2771 -0.9321
 5800SOL    HW229034   0.392   1.090   9.467 -0.0376 -0.1457  2.0407
 5801SOL     OW29035   1.827   4.262   4.786 -0.1186  0.1845  0.8247
 5801SOL    HW129036   1.832   4.200   4.858 -2.6004  0.5582  1.3234
 5801SOL    HW229037   1.817   4.340   4.840  0.9783  0.4129  0.7041
 5802SOL     OW29038   2.168   3.488   8.010  0.3668  0.3555  0.0435
 5802SOL    HW129039   2.240   3.471   8.070 -0.4761  2.2938  1.5772
 5802SOL    HW229040   2.094   3.464   8.065 -0.0323  0.9349 -0.2444
 5803SOL     OW29041   0.003   4.537   2.831 -0.3036  0.0792  0.1873
 5803SOL    HW129042   4.713   4.478   2.763 -1.4406 -0.5422  1.2339
 5803SOL    HW229043   0.097   4.545   2.811 -0.8900  1.0594 -2.1715
 5804SOL     OW29044   0.332   2.384   5.656 -0.3213 -0.0936  0.1448
 5804SOL    HW129045   0.257   2.374   5.713 -0.9657  3.1363 -0.1472
 5804SOL    HW229046   0.410   2.358   5.705  0.5858  2.2207 -0.0461
 5805SOL     OW29047   4.600   3.288  17.372 -0.5545  0.3103 -0.9347
 5805SOL    HW129048   4.507   3.308  17.361 -1.0330 -1.4569 -0.1460
 5805SOL    HW229049   4.638   3.373  17.392  0.9808 -0.7319  0.5445
 5806SOL     OW29050   1.347   4.012   3.551 -0.6346 -0.3361  0.0165
 5806SOL    HW129051   1.414   4.024   3.619 -3.1268 -3.4840  3.0179
 5806SOL    HW229052   1.276   4.006   3.615 -0.9051  2.0720 -0.0611
 5807SOL     OW29053   3.870   3.112   5.361 -0.0370  0.0735 -0.1506
 5807SOL    HW129054   3.949   3.077   5.320  0.0981  1.0916 -0.7592
 5807SOL    HW229055   3.898   3.113   5.453  1.9067  1.3602 -0.7431
 5808SOL     OW29056   2.390   1.485  13.621  0.4405 -0.4460 -0.0708
 5808SOL    HW129057   2.384   1.581  13.629 -0.7572 -0.5016 -0.3078
 5808SOL    HW229058   2.467   1.479  13.564  0.2707 -3.8755  0.0902
 5809SOL     OW29059   3.092   3.368  15.462 -0.4520 -0.4397  0.0623
 5809SOL    HW129060   3.165   3.386  15.521  0.7152  1.3457 -1.9222
 5809SOL    HW229061   3.115   3.308  15.390  1.0616  0.4769 -0.2133
 5810SOL     OW29062   2.190   2.245   3.631 -0.0007 -0.2657 -0.0775
 5810SOL    HW129063   2.214   2.282   3.716  1.2606 -0.1247 -0.5069
 5810SOL    HW229064   2.214   2.316   3.571  1.2934 -0.2703  0.4378
 5811SOL     OW29065   2.695   3.138   5.947  0.1245 -0.1519  0.1323
 5811SOL    HW129066   2.749   3.157   6.024 -0.8250 -0.3999  0.8626
 5811SOL    HW229067   2.693   3.042   5.945  0.3478 -0.1840  1.4136
 5812SOL     OW29068   0.059   4.538  16.961  0.5695 -0.2507 -0.0064
 5812SOL    HW129069   0.126   4.471  16.960  0.6358 -0.1993  0.9607
 5812SOL    HW229070   4.718   4.496  16.936  0.1825  0.6731 -0.2850
 5813SOL     OW29071   3.922   0.486   3.052  0.2442  0.3934 -0.4981
 5813SOL    HW129072   3.961   0.466   2.967 -0.2378 -0.5519 -0.4939
 5813SOL    HW229073   3.995   0.465   3.110  0.1881  0.0729 -0.5435
 5814SOL     OW29074   1.051   2.429   7.126  0.5153 -0.0523 -0.0246
 5814SOL    HW129075   0.999   2.358   7.165  0.8379 -0.1693  0.1931
 5814SOL    HW229076   1.035   2.489   7.199  1.3259 -0.4899  0.5198
 5815SOL     OW29077   0.545   3.186   8.073  0.2846 -0.2759  0.5323
 5815SOL    HW129078   0.558   3.256   8.138  0.0643 -0.1752  0.4681
 5815SOL    HW229079   0.537   3.109   8.129 -2.3033 -0.2498  0.2149
 5816SOL     OW29080   2.841   4.496   2.001 -0.0361  0.0999  0.3790
 5816SOL    HW129081   2.877   4.462   1.919  1.0584 -0.3456  1.0388
 5816SOL    HW229082   2.766   4.548   1.972 -0.1572  0.7988  1.9277
 5817SOL     OW29083   3.235   0.495   7.439  0.1472  0.1493  0.2715
 5817SOL    HW129084   3.319   0.469   7.477  1.4967  1.3112 -1.9410
 5817SOL    HW229085   3.253   0.552   7.364  0.7258 -0.6710 -0.2103
 5818SOL     OW29086   2.251   3.156   3.184  0.1240  0.1678 -0.1739
 5818SOL    HW129087   2.289   3.212   3.252 -1.0384 -1.2884  1.6788
 5818SOL    HW229088   2.331   3.107   3.166 -0.4321 -1.1012  0.8106
 5819SOL     OW29089   2.349   3.878   2.136 -0.5937 -0.0130  0.0454
 5819SOL    HW129090   2.265   3.908   2.170 -0.8306 -1.3711  0.6222
 5819SOL    HW229091   2.393   3.961   2.115  1.8612 -1.0188  1.1935
 5820SOL     OW29092   0.758   2.174   8.816 -0.1473  0.3304 -0.2022
 5820SOL    HW129093   0.835   2.193   8.870  0.4130 -0.1206 -0.8356
 5820SOL    HW229094   0.689   2.168   8.882 -0.2438 -1.6876 -0.4784
 5821SOL     OW29095   1.494   0.897   8.961  0.1642  0.1157  0.2283
 5821SOL    HW129096   1.531   0.921   8.876 -1.9147  1.7922 -0.2051
 5821SOL    HW229097   1.449   0.979   8.984 -2.0936 -1.3317  0.9729
 5822SOL     OW29098   4.378   1.979   8.205  0.2472  0.3889  1.3367
 5822SOL    HW129099   4.302   1.922   8.216 -0.5304  0.9223 -1.1554
 5822SOL    HW229100   4.430   1.950   8.279  0.0902 -0.6844  1.0263
 5823SOL     OW29101   2.102   3.483  16.975  0.0696  0.3284 -0.5505
 5823SOL    HW129102   2.161   3.498  17.049  1.3115 -0.8476 -1.2952
 5823SOL    HW229103   2.153   3.512  16.899  1.3146 -1.4756 -0.4057
 5824SOL     OW29104   0.152   0.456   9.916  0.0359  0.5044  0.4089
 5824SOL    HW129105   0.199   0.465   9.999  0.2078 -0.8538  0.4685
 5824SOL    HW229106   0.222   0.404   9.876  0.2195 -0.0705  1.4665
 5825SOL     OW29107   2.112   0.852   5.468 -0.0657 -0.6040  0.4281
 5825SOL    HW129108   2.072   0.877   5.551 -1.3390  0.4148 -0.4942
 5825SOL    HW229109   2.197   0.826   5.503 -0.3345  0.2081  1.6744
 5826SOL     OW29110   0.055   0.113   1.805 -0.0868  0.9696 -0.4792
 5826SOL    HW129111   0.005   0.172   1.749 -2.5608  0.4898  1.2405
 5826SOL    HW229112   0.063   0.178   1.875 -0.3050  1.2721 -0.7394
 5827SOL     OW29113   4.226   2.857   7.929  0.1256 -0.3425 -0.6869
 5827SOL    HW129114   4.137   2.856   7.893  0.3120 -2.5392 -1.1298
 5827SOL    HW229115   4.245   2.951   7.931 -0.6523 -0.1762 -1.3657
 5828SOL     OW29116   1.287   0.876   4.516  0.0527 -0.1090  0.4442
 5828SOL    HW129117   1.376   0.897   4.544 -0.7328 -0.7635  3.4274
 5828SOL    HW229118   1.264   0.817   4.587  0.2315  0.0417  0.6287
 5829SOL     OW29119   3.229   2.001   7.532  0.2042  0.3246  0.1050
 5829SOL    HW129120   3.314   2.008   7.490 -0.2812  1.6630 -0.6349
 5829SOL    HW229121   3.195   1.916   7.503 -1.8266  1.3197 -0.4210
 5830SOL     OW29122   1.784   2.812   4.814 -0.2518  0.3154 -0.2722
 5830SOL    HW129123   1.714   2.876   4.800 -2.0531 -1.4675  0.5475
 5830SOL    HW229124   1.771   2.741   4.751 -1.2926 -0.0005  0.2832
 5831SOL     OW29125   3.448   0.283   5.588  0.1900 -0.6045  0.3165
 5831SOL    HW129126   3.481   0.201   5.551  1.2869 -0.5633  1.2120
 5831SOL    HW229127   3.467   0.269   5.680 -1.7480 -2.7151  0.3986
 5832SOL     OW29128   3.851   4.333  13.798  0.1329 -0.0450  0.1786
 5832SOL    HW129129   3.815   4.324  13.710  1.4040 -1.9796 -0.1471
 5832SOL    HW229130   3.927   4.391  13.795  0.8291 -1.0683 -1.9778
 5833SOL     OW29131   0.282   0.310   5.440 -0.1565  0.5158  0.3282
 5833SOL    HW129132   0.197   0.353   5.429  0.1883  1.0245 -0.3860
 5833SOL    HW229133   0.314   0.345   5.523  0.3503 -2.9133  1.5902
 5834SOL     OW29134   2.293   1.463  15.978 -0.1803 -0.4581  0.3226
 5834SOL    HW129135   2.221   1.486  15.920  0.7033 -1.9763 -1.3804
 5834SOL    HW229136   2.314   1.388  15.922  2.8597  0.7058 -0.0948
 5835SOL     OW29137   1.349   4.349   1.295 -0.4053 -0.3751  0.2701
 5835SOL    HW129138   1.344   4.414   1.366 -0.7200  2.5775 -2.4851
 5835SOL    HW229139   1.428   4.303   1.323 -0.5360  0.0447  1.3503
 5836SOL     OW29140   4.321   2.248   8.218  0.1062  0.2039  0.0242
 5836SOL    HW129141   4.344   2.155   8.208  2.9981  1.1874 -2.3833
 5836SOL    HW229142   4.241   2.244   8.270 -0.3401  1.4215 -0.5742
 5837SOL     OW29143   3.658   1.578   1.236 -0.2352  0.1467 -0.3613
 5837SOL    HW129144   3.703   1.595   1.319 -0.1785 -0.4165 -0.2823
 5837SOL    HW229145   3.652   1.483   1.229 -0.3618  0.0487  1.0031
 5838SOL     OW29146   3.490   0.675   2.763  0.2742  0.0367  0.2565
 5838SOL    HW129147   3.559   0.639   2.819  0.2589  0.1022  0.3172
 5838SOL    HW229148   3.479   0.758   2.810 -1.7292  0.5416 -1.1018
 5839SOL     OW29149   3.418   0.046  14.718 -0.4612  0.2838  0.0911
 5839SOL    HW129150   3.493   0.093  14.754  0.4206 -1.7870  0.9658
 5839SOL    HW229151   3.461   4.727  14.657 -2.5591 -0.5144 -0.5984
 5840SOL     OW29152   3.136   3.097   7.094 -0.0588 -0.4205  0.1200
 5840SOL    HW129153   3.206   3.058   7.147  0.2821 -0.5654 -0.4388
 5840SOL    HW229154   3.143   3.047   7.012  0.0374  0.0949 -0.1853
 5841SOL     OW29155   4.457   1.200   6.153 -0.2852 -0.5611 -0.4127
 5841SOL    HW129156   4.502   1.201   6.238 -0.5456 -0.2904 -0.2790
 5841SOL    HW229157   4.412   1.285   6.159 -0.3096 -0.6057  0.0803
 5842SOL     OW29158   2.553   3.021   2.265  0.0356 -0.1332  0.0712
 5842SOL    HW129159   2.601   2.958   2.212  0.4792 -0.7257  1.1813
 5842SOL    HW229160   2.477   3.039   2.209  2.4670 -0.1552 -3.2221
 5843SOL     OW29161   1.676   2.082  10.941  0.4407 -0.7363  0.2761
 5843SOL    HW129162   1.614   2.011  10.924 -1.4499  0.8548  0.6113
 5843SOL    HW229163   1.757   2.034  10.961  1.6874  0.8222 -1.0448
 5844SOL     OW29164   3.363   2.082   3.619 -0.0530  0.9334 -0.2124
 5844SOL    HW129165   3.404   2.158   3.660 -0.1522  0.7914  0.1569
 5844SOL    HW229166   3.307   2.128   3.557 -0.1221  0.5707 -0.4191
 5845SOL     OW29167   0.537   1.810   9.424  0.3275  0.2578  0.2839
 5845SOL    HW129168   0.459   1.757   9.439  0.8947 -0.2231  1.5856
 5845SOL    HW229169   0.581   1.789   9.507  1.9741  0.4608 -0.5402
 5846SOL     OW29170   2.118   0.649  11.567 -0.0185 -0.2635 -0.0439
 5846SOL    HW129171   2.156   0.736  11.571 -0.7838  0.1550 -1.6928
 5846SOL    HW229172   2.079   0.647  11.480  0.9026 -1.6050 -0.4231
 5847SOL     OW29173   0.526   3.607   4.234  0.4538  0.3103  0.6318
 5847SOL    HW129174   0.518   3.604   4.139  1.2746 -0.8538  0.6106
 5847SOL    HW229175   0.519   3.515   4.258 -3.2425  0.4030 -0.0415
 5848SOL     OW29176   1.965   0.715  17.057 -0.1439 -0.5983  0.0190
 5848SOL    HW129177   2.023   0.735  16.984 -1.7416  1.1828 -0.7560
 5848SOL    HW229178   1.967   0.795  17.109 -2.9561 -0.3929 -0.1651
 5849SOL     OW29179   4.474   4.485   6.076 -0.2548  0.1263  0.6956
 5849SOL    HW129180   4.474   4.431   5.996 -2.4949  1.9372 -0.5292
 5849SOL    HW229181   4.534   4.435   6.131  1.5599  1.2160 -0.3111
 5850SOL     OW29182   1.729   4.246   2.890 -0.0073  0.4193 -0.1964
 5850SOL    HW129183   1.711   4.326   2.938 -1.4796 -1.2302  1.9872
 5850SOL    HW229184   1.721   4.185   2.964  1.5217  0.2543 -0.1575
 5851SOL     OW29185   3.357   2.756   5.195 -0.6807  0.8495 -0.3250
 5851SOL    HW129186   3.358   2.852   5.203  2.2067  0.6810  1.1958
 5851SOL    HW229187   3.447   2.736   5.222 -0.6129 -0.0582 -1.2279
 5852SOL     OW29188   4.203   2.000   4.033 -0.0203  0.2727  0.1737
 5852SOL    HW129189   4.110   2.008   4.054 -0.1028 -0.7821  0.2084
 5852SOL    HW229190   4.238   2.030   4.117  0.9882 -2.2126  0.6405
 5853SOL     OW29191   1.827   1.696  12.927 -0.0948 -0.3877  0.0190
 5853SOL    HW129192   1.903   1.654  12.968 -1.0572 -0.3046  1.9053
 5853SOL    HW229193   1.784   1.626  12.877  1.5606 -0.5273 -1.2109
 5854SOL     OW29194   0.465   2.962   6.441  0.1396  0.2048  0.2635
 5854SOL    HW129195   0.436   3.033   6.383 -3.1259 -1.9879 -0.7788
 5854SOL    HW229196   0.447   2.998   6.528  0.5786 -0.2709  0.5498
 5855SOL     OW29197   2.941   0.834   4.005  0.1268  0.0719  0.1752
 5855SOL    HW129198   3.006   0.805   4.068 -0.0884 -1.5508 -0.3541
 5855SOL    HW229199   2.969   0.791   3.924 -3.5776 -0.6589 -0.7447
 5856SOL     OW29200   1.692   0.735   8.293 -0.3266  0.3320 -0.0069
 5856SOL    HW129201   1.619   0.797   8.302 -0.6603  0.1301 -1.4342
 5856SOL    HW229202   1.662   0.651   8.329  0.6190  0.6645  1.5708
 5857SOL     OW29203   2.998   1.028   9.065  0.0782 -0.2622 -0.0038
 5857SOL    HW129204   3.087   1.063   9.058  0.1196 -0.4890 -0.6233
 5857SOL    HW229205   2.948   1.077   8.999  0.8050  0.0361 -0.3361
 5858SOL     OW29206   2.473   4.202   2.912  0.1355  0.3962 -0.0504
 5858SOL    HW129207   2.414   4.150   2.857  0.4079 -0.5447  0.5531
 5858SOL    HW229208   2.469   4.287   2.867  0.7855  1.0757  1.1728
 5859SOL     OW29209   1.827   3.913   7.968  0.3941 -0.2342 -0.2153
 5859SOL    HW129210   1.755   3.850   7.962 -1.0599  0.9768  4.5143
 5859SOL    HW229211   1.905   3.858   7.959 -0.6103 -1.5495 -0.8063
 5860SOL     OW29212   3.563   0.505   5.234 -0.0688  0.4508 -0.0899
 5860SOL    HW129213   3.655   0.517   5.209  0.3377 -1.2560  0.5989
 5860SOL    HW229214   3.556   0.544   5.322 -0.5254  0.5875 -0.1926
 5861SOL     OW29215   3.989   2.785   4.703 -0.1431 -0.5789 -1.0477
 5861SOL    HW129216   3.993   2.722   4.631 -0.2099 -1.7409 -0.0380
 5861SOL    HW229217   3.946   2.738   4.774  1.1821  1.0519  0.8372
 5862SOL     OW29218   4.384   1.719  16.276 -0.0531 -0.1404  0.3562
 5862SOL    HW129219   4.351   1.805  16.250 -1.9883 -0.9804 -0.0411
 5862SOL    HW229220   4.393   1.735  16.370  0.9908 -2.3748  0.6218
 5863SOL     OW29221   0.459   3.087  14.304 -0.4280  0.5909  0.0826
 5863SOL    HW129222   0.372   3.119  14.328 -0.6077  0.2274 -0.0958
 5863SOL    HW229223   0.512   3.128  14.372 -0.3719  1.2212 -0.3472
 5864SOL     OW29224   3.733   4.665   2.508  0.5524  0.4242  0.0927
 5864SOL    HW129225   3.644   4.659   2.543  0.2488 -1.3154 -0.9805
 5864SOL    HW229226   3.742   4.592   2.447 -0.0080  0.5606 -0.1523
 5865SOL     OW29227   3.842   3.531  11.761 -0.0142  0.5317  0.0978
 5865SOL    HW129228   3.835   3.537  11.857 -1.3668  2.8007 -0.1345
 5865SOL    HW229229   3.933   3.554  11.746 -0.1254  1.7471  1.2020
 5866SOL     OW29230   0.675   3.191   7.577  0.2176  0.0167 -0.7179
 5866SOL    HW129231   0.676   3.161   7.668 -1.3832  2.3658  0.0722
 5866SOL    HW229232   0.583   3.209   7.559 -0.2952  0.2263  2.1798
 5867SOL     OW29233   3.926   2.345  16.256  0.1982  0.6808  0.0687
 5867SOL    HW129234   3.915   2.315  16.166 -0.6775 -0.0796  0.4324
 5867SOL    HW229235   3.935   2.260  16.299  1.3257 -0.4108 -2.3628
 5868SOL     OW29236   1.720   4.701   5.341  0.2037 -0.1280 -0.0445
 5868SOL    HW129237   1.740   4.615   5.305 -2.0885 -0.7145  0.0565
 5868SOL    HW229238   1.627   4.709   5.363  0.0894 -1.6694  0.0362
 5869SOL     OW29239   2.418   3.825   5.150  0.1918 -0.4013 -0.3239
 5869SOL    HW129240   2.343   3.769   5.171  0.6224 -1.1454 -0.7679
 5869SOL    HW229241   2.490   3.780   5.194  0.2597  0.9148  0.9102
 5870SOL     OW29242   1.104   3.200  17.105 -0.1669 -0.0136  0.1145
 5870SOL    HW129243   1.035   3.252  17.147  1.1051  2.7125 -1.1551
 5870SOL    HW229244   1.054   3.157  17.036 -1.6447  0.4642  0.8758
 5871SOL     OW29245   0.580   1.312   4.644 -0.1041  0.0956 -0.1775
 5871SOL    HW129246   0.576   1.351   4.731 -1.8846  0.1704 -0.3057
 5871SOL    HW229247   0.522   1.236   4.652  0.9391 -0.5139  1.6358
 5872SOL     OW29248   3.928   0.352   7.338 -1.1268  0.0867 -0.1543
 5872SOL    HW129249   3.978   0.371   7.417  0.8916  0.0122 -1.3942
 5872SOL    HW229250   3.838   0.338   7.366 -0.9434 -3.2641 -1.1721
 5873SOL     OW29251   4.052   3.682   7.321  0.3532 -0.5489 -0.1809
 5873SOL    HW129252   4.088   3.607   7.367  1.5954 -0.6849 -1.3881
 5873SOL    HW229253   3.976   3.713   7.370  0.5549  1.1167 -0.9254
 5874SOL     OW29254   0.975   3.617  12.511 -0.1134 -0.1977  0.0475
 5874SOL    HW129255   0.912   3.686  12.535  0.0835  0.8070 -2.3658
 5874SOL    HW229256   0.913   3.549  12.486  0.0369 -0.4702  0.4087
 5875SOL     OW29257   3.389   2.346  16.572  0.4939 -0.1529  0.0376
 5875SOL    HW129258   3.358   2.395  16.496 -2.0753  0.3690  1.4277
 5875SOL    HW229259   3.310   2.298  16.597 -1.9478  2.5975 -2.3973
 5876SOL     OW29260   0.116   4.649   7.323 -0.2713 -0.1825 -0.1020
 5876SOL    HW129261   0.051   4.580   7.335 -0.9961  0.3558 -0.9834
 5876SOL    HW229262   0.059   4.725   7.315 -0.8092 -0.6190 -0.3926
 5877SOL     OW29263   2.556   3.708   0.436 -0.6337 -0.6562 -0.2769
 5877SOL    HW129264   2.546   3.620   0.401  0.7865 -0.5418 -0.9322
 5877SOL    HW229265   2.573   3.688   0.528 -3.5848 -3.2189 -0.2935
 5878SOL     OW29266   1.189   2.500   2.752 -0.3415  0.5549  0.6767
 5878SOL    HW129267   1.249   2.533   2.819 -0.2966 -1.3399  1.5725
 5878SOL    HW229268   1.259   2.474   2.692 -0.2932 -1.1725  1.4931
 5879SOL     OW29269   3.362   4.706   7.679  0.3690  0.7131  0.6309
 5879SOL    HW129270   3.278   0.003   7.704 -0.8290 -2.5823  1.5502
 5879SOL    HW229271   3.360   4.627   7.733 -0.6892 -0.2633 -0.8286
 5880SOL     OW29272   2.645   3.428   7.481  0.4435  0.4365  0.3370
 5880SOL    HW129273   2.551   3.439   7.488  0.5285 -0.2455  2.5191
 5880SOL    HW229274   2.676   3.419   7.571  1.5127 -0.9617 -0.1593
 5881SOL     OW29275   1.702   3.286  12.210 -0.2295 -0.2152 -0.4595
 5881SOL    HW129276   1.791   3.261  12.234 -0.1015  0.4193 -0.2727
 5881SOL    HW229277   1.650   3.232  12.269 -0.9545  0.8451 -0.1213
 5882SOL     OW29278   1.384   3.840   7.283 -0.2530 -0.3207  0.2472
 5882SOL    HW129279   1.375   3.777   7.354 -1.0732  1.4467  1.7289
 5882SOL    HW229280   1.290   3.841   7.267 -0.1218  0.3519 -0.5101
 5883SOL     OW29281   3.288   1.536   6.467 -0.0443 -0.0091  0.1455
 5883SOL    HW129282   3.286   1.446   6.500  0.4098 -0.8678 -2.1922
 5883SOL    HW229283   3.295   1.580   6.551  0.8011  0.0635  0.0320
 5884SOL     OW29284   1.807   1.462   8.655 -0.2747  0.0317  0.5996
 5884SOL    HW129285   1.857   1.540   8.632 -1.1317 -0.5798 -3.2883
 5884SOL    HW229286   1.829   1.406   8.581  1.5390  2.1442 -0.4423
 5885SOL     OW29287   0.175   3.934   8.526  0.0148  0.1993 -0.3453
 5885SOL    HW129288   0.242   3.996   8.555 -1.4640  1.3849  0.5585
 5885SOL    HW229289   0.238   3.878   8.481  0.5074  0.3757  0.1249
 5886SOL     OW29290   1.757   0.846   2.974  0.2680  0.3193 -0.5139
 5886SOL    HW129291   1.753   0.767   3.027 -1.5977  0.6676 -0.1530
 5886SOL    HW229292   1.820   0.895   3.027  0.6432  0.6457 -1.2527
 5887SOL     OW29293   3.592   1.156  17.241  0.1491  0.3075  0.3706
 5887SOL    HW129294   3.576   1.246  17.213 -1.1136 -0.3084 -0.9042
 5887SOL    HW229295   3.498   1.137  17.245 -0.2074  2.0496  0.4200
 5888SOL     OW29296   2.986   0.239   2.878  0.1702  0.0879  0.5669
 5888SOL    HW129297   2.961   0.152   2.847  0.6843  0.6487 -1.3969
 5888SOL    HW229298   3.075   0.245   2.844 -1.0760 -0.1481 -2.7288
 5889SOL     OW29299   4.557   0.865   4.349  0.2257 -0.7659  0.4870
 5889SOL    HW129300   4.541   0.775   4.320  2.4056 -0.6830 -0.9622
 5889SOL    HW229301   4.470   0.902   4.334  0.1877 -0.5621  1.2597
 5890SOL     OW29302   2.943   0.378   9.887  0.5794 -0.0755  0.6368
 5890SOL    HW129303   2.889   0.309   9.925  0.8023 -1.0579 -0.8597
 5890SOL    HW229304   2.873   0.443   9.879  0.6030 -0.4322 -2.3786
 5891SOL     OW29305   3.348   0.823   7.666 -0.1944  0.1704  0.7313
 5891SOL    HW129306   3.441   0.845   7.672  0.4084 -2.1121 -0.3210
 5891SOL    HW229307   3.345   0.736   7.626 -0.1338 -0.1781  1.4811
 5892SOL     OW29308   3.686   0.105   5.196  0.1398 -0.3797 -0.2020
 5892SOL    HW129309   3.771   0.128   5.158 -0.3459  2.3830  0.3526
 5892SOL    HW229310   3.706   0.090   5.289 -0.5035  1.8440  0.3071
 5893SOL     OW29311   4.337   3.550   9.506 -0.1766  0.4766  0.9780
 5893SOL    HW129312   4.303   3.462   9.521  2.4023 -1.0304 -1.8401
 5893SOL    HW229313   4.268   3.592   9.556 -2.2647 -2.4626  0.5603
 5894SOL     OW29314   4.020   0.003  14.661 -0.8387 -0.3618 -0.0946
 5894SOL    HW129315   4.000   4.658  14.626  0.4565 -0.4722 -0.5511
 5894SOL    HW229316   4.115   0.003  14.674 -0.8758  2.8783  0.1142
 5895SOL     OW29317   4.418   2.195   1.550 -0.8136  1.0270 -0.2661
 5895SOL    HW129318   4.347   2.223   1.492 -1.0608  2.8243  0.9213
 5895SOL    HW229319   4.365   2.170   1.625 -1.5201  1.2557 -0.6882
 5896SOL     OW29320   1.076   1.710   6.231  0.7190  0.4859 -0.0662
 5896SOL    HW129321   1.165   1.672   6.227 -0.4861 -2.4949  1.1973
 5896SOL    HW229322   1.039   1.692   6.144  2.1243  3.4010 -1.2597
 5897SOL     OW29323   4.508   1.128  10.687 -0.2176 -0.3382 -0.2734
 5897SOL    HW129324   4.578   1.082  10.640  0.7220  0.6964  0.0996
 5897SOL    HW229325   4.565   1.199  10.719  0.6947 -1.5325  0.7664
 5898SOL     OW29326   1.891   1.060   4.156 -0.8384 -0.7551 -0.1702
 5898SOL    HW129327   1.882   1.131   4.218  0.0701  1.2761 -2.3528
 5898SOL    HW229328   1.827   0.998   4.191 -0.5817  0.7312  2.9501
 5899SOL     OW29329   2.569   1.570   9.462  0.1150  0.2242  0.1277
 5899SOL    HW129330   2.493   1.567   9.404 -0.0576 -1.1218  0.4106
 5899SOL    HW229331   2.535   1.632   9.527 -0.6337  0.5701 -0.5982
 5900SOL     OW29332   2.547   0.982   3.914 -0.1532 -0.1423 -0.3879
 5900SOL    HW129333   2.593   0.925   3.976  1.4419  0.2818 -1.1566
 5900SOL    HW229334   2.622   1.010   3.860 -2.4925  1.1376 -2.9435
 5901SOL     OW29335   4.111   4.097   4.949 -0.2577 -0.1120  0.2443
 5901SOL    HW129336   4.148   4.025   5.000  1.1874  1.2155  1.0562
 5901SOL    HW229337   4.053   4.133   5.016 -2.3494  0.4387 -1.8715
 5902SOL     OW29338   1.185   0.981  17.562 -0.3501  0.8962  0.1650
 5902SOL    HW129339   1.279   0.972  17.576 -0.4512 -0.0913  0.1917
 5902SOL    HW229340   1.178   1.074  17.538 -0.0659  0.8405 -0.1363
 5903SOL     OW29341   1.863   3.743  12.814 -0.6762  0.2716  0.6726
 5903SOL    HW129342   1.876   3.813  12.879 -0.8894 -0.0417  1.0571
 5903SOL    HW229343   1.796   3.784  12.759  0.0975 -0.0252 -0.4779
 5904SOL     OW29344   2.819   2.368   7.464 -0.1701  0.0167 -0.0833
 5904SOL    HW129345   2.891   2.415   7.421 -1.4579  1.4811 -0.6163
 5904SOL    HW229346   2.861   2.282   7.465 -2.5756 -1.1682 -3.7248
 5905SOL     OW29347   1.427   1.277   6.533  0.0702  0.1362 -0.0664
 5905SOL    HW129348   1.383   1.236   6.607  2.5217 -0.0822  1.2745
 5905SOL    HW229349   1.508   1.295   6.582  0.3953  0.8102 -0.8520
 5906SOL     OW29350   2.488   3.410   1.129 -0.4951  0.6998 -0.0754
 5906SOL    HW129351   2.434   3.411   1.209  0.9519 -0.1921  0.9194
 5906SOL    HW229352   2.476   3.501   1.105 -0.4437  0.9723  0.9040
 5907SOL     OW29353   0.819   1.285   6.972 -0.4012 -0.0275 -0.0592
 5907SOL    HW129354   0.835   1.325   7.058  2.1122  2.3943 -1.6832
 5907SOL    HW229355   0.902   1.294   6.925 -0.1958 -1.7652 -0.0519
 5908SOL     OW29356   3.826   4.377   2.031  0.0071  0.5714 -0.0527
 5908SOL    HW129357   3.756   4.389   1.968  0.0720 -0.7327 -0.3736
 5908SOL    HW229358   3.893   4.438   1.999 -0.5492  0.3624 -1.5873
 5909SOL     OW29359   0.902   2.099   6.070 -0.4395 -0.0784 -0.3429
 5909SOL    HW129360   0.918   2.068   6.159 -0.2000 -1.1502 -0.7532
 5909SOL    HW229361   0.818   2.144   6.075 -0.8741 -0.8805 -0.3190
 5910SOL     OW29362   0.061   0.584   5.385 -0.4579 -0.0528  0.3376
 5910SOL    HW129363   0.078   0.670   5.423 -0.3193 -0.1756  0.5574
 5910SOL    HW229364   0.089   0.609   5.298  0.4236 -1.4797  0.2098
 5911SOL     OW29365   0.576   4.334   2.877 -0.0510 -0.1424  0.4027
 5911SOL    HW129366   0.577   4.429   2.894  1.1069 -0.1709  0.5356
 5911SOL    HW229367   0.652   4.325   2.819 -1.5127 -3.6251 -0.9349
 5912SOL     OW29368   1.369   3.212   1.687  0.4446  0.2649  0.0105
 5912SOL    HW129369   1.448   3.232   1.636  0.2131  1.6972  0.2082
 5912SOL    HW229370   1.410   3.191   1.772  0.3496  0.1068  0.0169
 5913SOL     OW29371   4.059   4.230   8.385 -0.2497  0.2060  0.2474
 5913SOL    HW129372   4.016   4.215   8.301  2.0799  0.6228 -1.0069
 5913SOL    HW229373   3.988   4.190   8.436 -1.1786 -0.3266 -1.4680
 5914SOL     OW29374   1.347   4.270   5.870 -0.0665 -0.4855  0.0836
 5914SOL    HW129375   1.346   4.179   5.899 -0.8990  0.0143  1.6312
 5914SOL    HW229376   1.390   4.303   5.949  1.2727 -1.1559 -0.3728
 5915SOL     OW29377   2.209   0.861  10.286 -0.5011  0.3132  0.3301
 5915SOL    HW129378   2.228   0.827  10.374  0.6906 -2.2274 -0.8993
 5915SOL    HW229379   2.292   0.906  10.273  0.5123 -1.6779 -0.0406
 5916SOL     OW29380   2.079   0.707   4.602  0.2357 -0.3014  0.1657
 5916SOL    HW129381   2.093   0.796   4.631 -1.8281  0.1851 -0.3303
 5916SOL    HW229382   2.119   0.657   4.673  0.9804  0.2653  0.1358
 5917SOL     OW29383   3.372   2.816   1.868  0.2354 -0.1560 -0.5466
 5917SOL    HW129384   3.298   2.878   1.874 -0.9134 -1.8285  2.5744
 5917SOL    HW229385   3.356   2.763   1.946  0.4761  0.6530  0.0533
 5918SOL     OW29386   4.177   1.840   8.558  0.4054 -0.7545  0.1825
 5918SOL    HW129387   4.270   1.861   8.556  0.3992 -0.6844  0.6856
 5918SOL    HW229388   4.139   1.924   8.529  2.1516 -0.2649 -0.7013
 5919SOL     OW29389   2.116   0.779  13.657 -0.1645 -0.4604 -0.1110
 5919SOL    HW129390   2.193   0.755  13.707  0.7834 -0.9616 -1.8203
 5919SOL    HW229391   2.080   0.842  13.720  1.8387  1.4211 -0.8286
 5920SOL     OW29392   4.185   0.671   3.592 -0.0797 -0.0890  0.2953
 5920SOL    HW129393   4.201   0.753   3.546  3.0538 -0.8871 -0.0468
 5920SOL    HW229394   4.133   0.634   3.522  0.1751  1.4893 -0.7198
 5921SOL     OW29395   3.987   3.147   3.346  0.5407  0.3422  0.4597
 5921SOL    HW129396   3.962   3.068   3.393  0.3401 -0.2006 -0.5837
 5921SOL    HW229397   3.962   3.128   3.256  0.7358 -0.1970  0.5191
 5922SOL     OW29398   4.112   2.611  11.265 -0.0438 -0.1707 -0.1778
 5922SOL    HW129399   4.206   2.598  11.256  0.4144  3.2860 -0.3847
 5922SOL    HW229400   4.102   2.705  11.281 -3.1843 -0.0921 -2.5405
 5923SOL     OW29401   0.183   4.326   3.996  0.2853 -0.1264 -0.1141
 5923SOL    HW129402   0.195   4.313   3.902 -0.3575 -0.7601 -0.1014
 5923SOL    HW229403   0.251   4.271   4.036  0.2695 -0.7601 -0.9567
 5924SOL     OW29404   3.069   0.533  13.849 -0.6728 -0.0600  0.2991
 5924SOL    HW129405   3.074   0.556  13.942 -1.2269 -2.5089  0.9449
 5924SOL    HW229406   3.052   0.619  13.813  1.6607  0.0622 -0.4824
 5925SOL     OW29407   1.521   4.223   8.908 -0.2081 -0.0235 -0.5945
 5925SOL    HW129408   1.493   4.173   8.985 -1.6983  1.1703 -0.3592
 5925SOL    HW229409   1.594   4.267   8.950 -1.2653  0.4399  0.7560
 5926SOL     OW29410   3.423   0.337   4.745  0.4755 -0.2561 -0.5559
 5926SOL    HW129411   3.358   0.404   4.767  0.3402 -0.3140 -0.7798
 5926SOL    HW229412   3.408   0.272   4.813  1.8087  0.2575  0.2207
 5927SOL     OW29413   3.736   2.023   3.511  0.1599  0.3995 -0.0799
 5927SOL    HW129414   3.754   1.929   3.512  1.1071  0.5887  0.0147
 5927SOL    HW229415   3.681   2.035   3.433 -1.3019 -0.8805  0.7549
 5928SOL     OW29416   0.839   0.888   1.336  0.0698  0.2661 -0.1419
 5928SOL    HW129417   0.855   0.950   1.265  2.9648  0.5030  0.7254
 5928SOL    HW229418   0.761   0.931   1.370 -0.2343  2.5047 -3.7068
 5929SOL     OW29419   3.118   3.423  11.575 -0.3896  0.0044 -0.1943
 5929SOL    HW129420   3.142   3.480  11.648 -0.5289 -1.2788  0.8604
 5929SOL    HW229421   3.040   3.379  11.610 -0.4464  0.7354  0.6036
 5930SOL     OW29422   3.178   3.288  16.981  0.1958  0.1044  0.3292
 5930SOL    HW129423   3.114   3.241  17.034  0.0407 -0.5179 -0.4275
 5930SOL    HW229424   3.122   3.351  16.935  1.5858  1.6970  0.8022
 5931SOL     OW29425   1.706   2.107  16.547 -0.1307 -0.2769  0.7611
 5931SOL    HW129426   1.761   2.163  16.601  2.9201 -1.2919 -1.3056
 5931SOL    HW229427   1.674   2.040  16.608 -0.1826 -0.1249  0.9004
 5932SOL     OW29428   2.570   3.557   8.007  0.4182  0.1257  0.0118
 5932SOL    HW129429   2.633   3.491   8.034  0.5463  0.4554  0.5177
 5932SOL    HW229430   2.510   3.547   8.081 -0.4017 -1.1534 -0.8258
 5933SOL     OW29431   3.970   4.613   4.967 -0.4283  0.5984  0.0108
 5933SOL    HW129432   3.988   4.526   4.931  1.0316  0.5821  0.7719
 5933SOL    HW229433   3.925   4.577   5.043 -0.2439  2.1398  0.8564
 5934SOL     OW29434   1.549   2.431   3.427 -0.6767 -0.0333  0.0014
 5934SOL    HW129435   1.531   2.470   3.341  0.2153 -0.0850 -0.2069
 5934SOL    HW229436   1.623   2.375   3.402  1.1058  1.0216  3.0378
 5935SOL     OW29437   2.685   3.657   1.572 -0.0708  0.6583  0.3240
 5935SOL    HW129438   2.703   3.697   1.656 -0.2883 -1.1862  1.2594
 5935SOL    HW229439   2.590   3.653   1.569 -0.0952 -0.1849  2.5731
 5936SOL     OW29440   4.403   1.823   6.476  0.3604 -0.2061  0.0673
 5936SOL    HW129441   4.425   1.888   6.543  1.9800  0.8943 -1.5487
 5936SOL    HW229442   4.325   1.775   6.504  0.2911 -0.2175 -0.1499
 5937SOL     OW29443   3.063   0.382  16.489  0.0934  0.4480 -0.5480
 5937SOL    HW129444   3.062   0.444  16.562 -1.6737  0.4991 -0.6252
 5937SOL    HW229445   2.970   0.376  16.470 -0.3793  1.5263  1.5002
 5938SOL     OW29446   4.392   1.310  15.437 -0.1729  0.4184 -0.2035
 5938SOL    HW129447   4.421   1.366  15.508  1.2289  1.7978 -1.8720
 5938SOL    HW229448   4.297   1.306  15.449 -0.1889 -1.2675 -0.8917
 5939SOL     OW29449   3.671   0.320   2.321 -0.1546  0.0102  0.2664
 5939SOL    HW129450   3.600   0.305   2.384  0.0695 -3.2233 -0.2192
 5939SOL    HW229451   3.742   0.262   2.349  1.4985  1.5050 -0.8742
 5940SOL     OW29452   0.352   1.940   3.518  0.2438  0.1770  0.6547
 5940SOL    HW129453   0.288   1.872   3.495 -1.1907  1.9541 -0.5843
 5940SOL    HW229454   0.357   1.995   3.440  2.7628  0.8426  1.2835
 5941SOL     OW29455   0.403   0.953   3.316 -0.1497  0.2015 -0.1622
 5941SOL    HW129456   0.383   0.942   3.223  0.7203  0.8288 -0.4244
 5941SOL    HW229457   0.462   0.878   3.329 -0.7347 -0.1213  0.6232
 5942SOL     OW29458   1.941   4.111   1.842  0.6618  0.1196  0.0889
 5942SOL    HW129459   1.996   4.111   1.764  1.3349  1.4313  0.5638
 5942SOL    HW229460   1.861   4.108   1.788  0.9127 -0.5212 -0.2478
 5943SOL     OW29461   4.717   1.703   2.868 -0.2140 -0.2294 -0.2776
 5943SOL    HW129462   4.667   1.679   2.946  0.6483 -1.0007  0.0358
 5943SOL    HW229463   4.645   1.730   2.810  0.4421  0.0183 -0.9850
 5944SOL     OW29464   0.922   0.165   1.658  0.2593 -0.1866 -0.0049
 5944SOL    HW129465   0.945   0.115   1.579 -0.5277 -0.0547 -0.3264
 5944SOL    HW229466   0.909   0.254   1.625  2.1050  0.2218  0.4135
 5945SOL     OW29467   3.222   2.081   7.818 -0.7743 -0.1900 -0.3082
 5945SOL    HW129468   3.153   2.017   7.804 -1.1831 -0.1458  1.4228
 5945SOL    HW229469   3.243   2.094   7.726  1.7795  0.5793  0.3716
 5946SOL     OW29470   0.550   2.219   3.390 -0.0119  0.2341  0.2483
 5946SOL    HW129471   0.513   2.153   3.330  2.5294 -1.0832  0.1197
 5946SOL    HW229472   0.640   2.185   3.396  0.2804  1.3774  2.0704
 5947SOL     OW29473   4.127   3.924   9.417 -0.1028 -0.3834  0.3683
 5947SOL    HW129474   4.148   3.834   9.443 -0.4604 -0.8766 -1.0282
 5947SOL    HW229475   4.214   3.963   9.414 -0.8116  1.1379 -0.7862
 5948SOL     OW29476   4.186   3.222   1.626  0.0406  0.4544 -0.3640
 5948SOL    HW129477   4.104   3.270   1.619 -0.8507 -0.6683  2.3691
 5948SOL    HW229478   4.172   3.145   1.572  1.1811  0.0121 -0.0205
 5949SOL     OW29479   4.003   2.710  12.294 -0.1798 -0.2092  0.0478
 5949SOL    HW129480   3.985   2.733  12.385 -1.4569  0.3087 -0.3419
 5949SOL    HW229481   4.048   2.625  12.299 -0.2950 -0.2268  0.7377
 5950SOL     OW29482   1.871   3.073  17.338  0.0805  0.4891 -0.6274
 5950SOL    HW129483   1.921   3.149  17.311  0.0477  0.5070 -0.6380
 5950SOL    HW229484   1.792   3.109  17.298 -0.1862 -0.8815 -1.3473
 5951SOL     OW29485   2.816   4.163   7.937 -0.4226  0.0826  0.4534
 5951SOL    HW129486   2.763   4.165   7.857 -0.8700 -0.6349  0.7349
 5951SOL    HW229487   2.758   4.203   8.002 -0.4473  0.0178  0.4714
 5952SOL     OW29488   0.215   2.637  11.694  0.3729 -0.0289 -0.1177
 5952SOL    HW129489   0.242   2.718  11.736 -0.5467 -0.4013  1.2027
 5952SOL    HW229490   0.126   2.665  11.671  1.1601  0.0104 -3.1146
 5953SOL     OW29491   1.844   4.155   5.037  0.4794  0.6301 -0.5046
 5953SOL    HW129492   1.936   4.132   5.052  0.0386 -0.2737  0.8413
 5953SOL    HW229493   1.839   4.232   5.093 -1.5061  1.5936 -2.0136
 5954SOL     OW29494   4.718   0.957   8.391  0.1337  0.4310  0.0414
 5954SOL    HW129495   4.672   0.882   8.351  2.0185 -0.3803 -0.6239
 5954SOL    HW229496   4.726   1.011   8.312 -0.8113  0.1433 -0.2497
 5955SOL     OW29497   1.446   4.724   6.787  1.0259  0.1697 -0.4484
 5955SOL    HW129498   1.459   0.023   6.701  0.7653 -1.1566 -1.1009
 5955SOL    HW229499   1.534   4.699   6.814  0.9014  0.7379  0.4567
 5956SOL     OW29500   0.377   0.821   7.032 -0.4620 -0.1553  1.1126
 5956SOL    HW129501   0.368   0.899   6.978 -0.9187 -2.3996 -2.0485
 5956SOL    HW229502   0.286   0.791   7.035 -0.2966 -1.0101 -2.1677
 5957SOL     OW29503   0.891   1.520   4.679 -0.1674 -0.2386 -0.6247
 5957SOL    HW129504   0.880   1.520   4.774  2.3006  1.3517 -0.3253
 5957SOL    HW229505   0.811   1.566   4.657  0.7901  1.1541 -1.2127
 5958SOL     OW29506   1.810   0.569   2.806  0.4240 -0.7182 -0.3423
 5958SOL    HW129507   1.823   0.497   2.867 -1.1068  0.3576  1.2544
 5958SOL    HW229508   1.715   0.573   2.801  0.2349 -2.1735  2.0707
 5959SOL     OW29509   0.602   3.417   6.686 -0.6340 -0.0091  0.0457
 5959SOL    HW129510   0.560   3.464   6.758 -1.3294 -2.3156  1.1423
 5959SOL    HW229511   0.524   3.390   6.637 -0.6781  1.1061 -0.4910
 5960SOL     OW29512   4.716   2.965   2.488  0.7024 -0.2112  0.6549
 5960SOL    HW129513   4.730   2.906   2.562  0.0236 -1.0522  0.1151
 5960SOL    HW229514   4.727   3.054   2.521 -1.9001  0.6584 -0.7838
 5961SOL     OW29515   4.399   3.158  15.061  0.2157 -0.3792  0.1692
 5961SOL    HW129516   4.317   3.114  15.084 -0.3898  0.7517  0.1962
 5961SOL    HW229517   4.358   3.234  15.019  0.5507 -0.3406 -0.0858
 5962SOL     OW29518   3.616   1.143   9.091 -0.7415 -0.6963  0.5652
 5962SOL    HW129519   3.577   1.202   9.027 -3.9153 -2.4044  0.9283
 5962SOL    HW229520   3.698   1.116   9.048 -1.8265  1.0349 -2.5186
 5963SOL     OW29521   3.124   2.492   8.802  0.5159 -0.5581 -0.3565
 5963SOL    HW129522   3.061   2.552   8.842 -0.8534  0.3174 -3.8403
 5963SOL    HW229523   3.179   2.473   8.878 -0.9515  1.1929  1.1460
 5964SOL     OW29524   0.755   0.735   0.041 -0.0441  0.4105 -0.1412
 5964SOL    HW129525   0.713   0.817   0.015  0.9270  0.5361 -1.3088
 5964SOL    HW229526   0.795   0.749   0.127  0.4818 -1.6208 -0.0488
 5965SOL     OW29527   1.600   2.043   5.905  0.2063  0.4174 -0.2366
 5965SOL    HW129528   1.661   2.025   5.977 -0.0827  1.5821  0.2991
 5965SOL    HW229529   1.586   2.134   5.930  3.5850  0.1900  2.6024
 5966SOL     OW29530   3.329   2.003  11.159  0.3029 -0.4075 -0.2333
 5966SOL    HW129531   3.404   2.030  11.212 -0.2637 -0.2871  0.5104
 5966SOL    HW229532   3.257   2.031  11.215  1.3619  3.5482 -0.8377
 5967SOL     OW29533   1.614   3.496   6.757  0.6215  0.0983 -0.5869
 5967SOL    HW129534   1.528   3.537   6.749  1.5351  2.1448 -0.1889
 5967SOL    HW229535   1.616   3.471   6.849  0.2553 -1.6001 -1.0432
 5968SOL     OW29536   2.492   2.220   2.782 -0.1745 -1.0330 -0.7442
 5968SOL    HW129537   2.497   2.246   2.690 -1.3061  0.9367 -0.2569
 5968SOL    HW229538   2.539   2.294   2.820 -0.6032 -0.8646 -0.5418
 5969SOL     OW29539   2.103   1.924   2.336 -0.5255  0.2529  0.0588
 5969SOL    HW129540   2.044   1.992   2.368 -0.6301 -0.7466  1.9850
 5969SOL    HW229541   2.116   1.946   2.244 -0.8646  0.3713  0.0390
 5970SOL     OW29542   2.826   1.307   7.536  0.5586  0.2027 -0.4152
 5970SOL    HW129543   2.808   1.214   7.518  0.0853  0.2730 -0.3156
 5970SOL    HW229544   2.733   1.331   7.532  0.1554 -1.3980 -0.8852
 5971SOL     OW29545   2.158   0.005  10.385  0.2055 -0.1655 -0.2021
 5971SOL    HW129546   2.160   0.057  10.465  1.5418  1.0278 -1.0018
 5971SOL    HW229547   2.189   4.660  10.413  1.1454  0.9073  2.0502
 5972SOL     OW29548   2.372   2.935   2.453  0.0034 -0.2726 -0.0124
 5972SOL    HW129549   2.416   3.002   2.401  0.3101 -0.0789  0.4899
 5972SOL    HW229550   2.360   2.859   2.396  0.0825  1.6356 -2.5420
 5973SOL     OW29551   2.788   4.664  12.245  0.1606 -0.2486  0.0776
 5973SOL    HW129552   2.762   4.650  12.154  1.7329  0.7989 -0.5253
 5973SOL    HW229553   2.864   4.605  12.246 -0.6526 -1.2324  3.0264
 5974SOL     OW29554   3.797   3.880  12.378 -0.1112  0.2909  0.3538
 5974SOL    HW129555   3.708   3.915  12.377  0.4495  1.6530 -1.1115
 5974SOL    HW229556   3.787   3.801  12.431  1.9585 -0.9394 -1.1114
 5975SOL     OW29557   0.147   4.296   3.009  0.3069 -0.1450  0.1972
 5975SOL    HW129558   0.061   4.302   2.967  0.5288 -1.1905 -0.3918
 5975SOL    HW229559   0.128   4.247   3.089 -4.2002 -1.8363 -1.9144
 5976SOL     OW29560   2.096   3.512   0.983 -0.5342 -0.8124 -0.3132
 5976SOL    HW129561   2.156   3.568   0.934 -0.7539  1.3563  1.8707
 5976SOL    HW229562   2.010   3.545   0.957  1.3657  4.2413 -0.2058
 5977SOL     OW29563   3.441   1.151   5.127 -0.1111 -0.0857  0.6524
 5977SOL    HW129564   3.407   1.062   5.135  0.3240 -0.2189  0.9729
 5977SOL    HW229565   3.370   1.197   5.172  0.4960  0.2987  1.1947
 5978SOL     OW29566   3.273   4.259   3.156 -0.0259 -0.4309 -0.2470
 5978SOL    HW129567   3.344   4.239   3.094  0.3916  0.0745  0.0705
 5978SOL    HW229568   3.195   4.257   3.101 -0.6311  2.4004  0.5324
 5979SOL     OW29569   1.292   2.933   3.020  0.2129  0.1240  0.0745
 5979SOL    HW129570   1.206   2.964   2.991  0.6733  0.8223 -0.5578
 5979SOL    HW229571   1.285   2.921   3.115  2.3183 -2.8294 -0.1468
 5980SOL     OW29572   3.222   2.099   8.124 -0.0655 -0.1533 -0.1591
 5980SOL    HW129573   3.293   2.073   8.065 -1.3154 -2.3932 -0.6780
 5980SOL    HW229574   3.146   2.050   8.094  2.9811 -3.6560 -2.1094
 5981SOL     OW29575   3.792   0.136  15.721 -0.3664 -0.1233 -0.0502
 5981SOL    HW129576   3.835   0.062  15.762  1.0455  1.7195  1.7858
 5981SOL    HW229577   3.790   0.194  15.797 -2.5263 -0.4937  0.1903
 5982SOL     OW29578   0.302   1.539   9.053  0.1932 -0.5019  0.2802
 5982SOL    HW129579   0.246   1.514   8.979  1.3907 -0.3577 -0.6814
 5982SOL    HW229580   0.359   1.462   9.053 -0.4916 -1.0147 -1.2677
 5983SOL     OW29581   1.597   1.197   3.620  0.5206 -0.3322  0.4670
 5983SOL    HW129582   1.599   1.282   3.577  1.8280 -1.0461 -0.8540
 5983SOL    HW229583   1.573   1.216   3.711 -0.7636  0.0966  0.0389
 5984SOL     OW29584   3.523   4.661   3.036 -0.0574 -0.3658 -0.5026
 5984SOL    HW129585   3.546   4.675   3.127  0.7001 -1.6210 -0.4927
 5984SOL    HW229586   3.428   4.677   3.030  0.1044  0.1152 -1.7766
 5985SOL     OW29587   4.391   1.057   6.953  0.5193 -0.2207 -0.0543
 5985SOL    HW129588   4.353   1.109   6.882 -0.6734  0.1017  0.8110
 5985SOL    HW229589   4.314   1.023   7.000 -0.6230  1.2155 -0.8765
 5986SOL     OW29590   2.185   2.782   2.183  0.6307 -0.3978  0.3275
 5986SOL    HW129591   2.099   2.823   2.172  1.2237  0.8628  0.4366
 5986SOL    HW229592   2.178   2.756   2.275 -1.6248 -1.8676 -0.2443
 5987SOL     OW29593   0.925   0.153   2.224 -0.1001 -0.2851  0.3512
 5987SOL    HW129594   0.929   0.243   2.257 -0.9833 -0.1063 -0.0399
 5987SOL    HW229595   0.842   0.114   2.251 -1.3532  1.4551 -1.0733
 5988SOL     OW29596   1.583   2.549   5.965 -0.4880  0.6128 -0.3818
 5988SOL    HW129597   1.588   2.584   6.054  2.5498 -2.1775  0.5249
 5988SOL    HW229598   1.653   2.594   5.919 -0.7237 -0.6824 -1.9997
 5989SOL     OW29599   3.193   4.074  14.937 -0.3604  0.2192 -0.2126
 5989SOL    HW129600   3.102   4.103  14.932  0.1043  2.1182  2.5761
 5989SOL    HW229601   3.184   3.979  14.943 -0.9917  0.2359 -0.8801
 5990SOL     OW29602   1.016   1.617   2.451 -0.5800 -0.0827  0.0478
 5990SOL    HW129603   0.996   1.695   2.502 -1.1943 -0.1871 -0.0314
 5990SOL    HW229604   1.093   1.654   2.408 -0.9108 -2.4102 -2.5718
 5991SOL     OW29605   0.351   1.501   0.226  0.1775 -0.2601  0.6052
 5991SOL    HW129606   0.304   1.470   0.303 -2.4819 -2.6915 -1.9852
 5991SOL    HW229607   0.408   1.426   0.209  1.3243  0.6936  0.3093
 5992SOL     OW29608   4.150   2.997   1.526 -0.0608  0.1097  0.0382
 5992SOL    HW129609   4.080   2.940   1.495  1.7273 -0.2047 -3.3338
 5992SOL    HW229610   4.207   2.930   1.563 -0.1025  0.8131  1.3922
 5993SOL     OW29611   1.106   1.364   4.779  0.3074 -0.4205  0.3264
 5993SOL    HW129612   1.130   1.432   4.841 -1.1426 -0.9194  1.4317
 5993SOL    HW229613   1.044   1.400   4.715  1.4368 -1.8934 -1.5949
 5994SOL     OW29614   2.677   2.750   3.062  0.0057 -0.2046  0.8847
 5994SOL    HW129615   2.755   2.709   3.024 -1.2478 -2.2149  0.4998
 5994SOL    HW229616   2.707   2.771   3.151  0.2217  0.8749  0.5532
 5995SOL     OW29617   3.994   4.367   3.437  0.0609 -0.2613  0.0623
 5995SOL    HW129618   4.086   4.342   3.441 -0.4531 -2.0594  0.6103
 5995SOL    HW229619   3.986   4.390   3.345 -2.5282  0.5606  0.4793
 5996SOL     OW29620   4.595   3.071   3.115 -0.1028 -0.0246  0.6480
 5996SOL    HW129621   4.541   3.150   3.121  1.3538  1.1043 -0.9892
 5996SOL    HW229622   4.581   3.053   3.022  2.5798 -0.3111  0.3170
 5997SOL     OW29623   3.526   0.092   7.499  0.4189 -0.1712 -0.0012
 5997SOL    HW129624   3.460   0.064   7.562  1.9996 -0.8079  1.3989
 5997SOL    HW229625   3.575   0.012   7.482  0.2603  0.0614 -1.5271
 5998SOL     OW29626   4.606   4.024  10.202  0.0783 -0.5832 -0.4482
 5998SOL    HW129627   4.577   4.109  10.169 -0.4796 -0.0247  1.4522
 5998SOL    HW229628   4.670   4.055  10.267 -1.9283  1.7086  0.4592
 5999SOL     OW29629   1.858   2.802  11.276  0.0170  0.3604  0.3381
 5999SOL    HW129630   1.837   2.749  11.199 -0.8432 -1.4225  1.7823
 5999SOL    HW229631   1.949   2.786  11.302  0.5556  1.6532 -0.7682
 6000SOL     OW29632   0.771   0.412   7.019 -0.1746 -0.0758  0.0502
 6000SOL    HW129633   0.734   0.497   7.046  0.1288 -0.2196  0.9243
 6000SOL    HW229634   0.857   0.444   6.992 -0.1494 -1.1935 -1.1649
 6001SOL     OW29635   3.259   0.440   6.738 -0.6944 -0.1678 -0.5536
 6001SOL    HW129636   3.190   0.378   6.764  0.5207 -1.4858 -0.4734
 6001SOL    HW229637   3.324   0.386   6.693  0.0454  1.1216 -1.0057
 6002SOL     OW29638   2.653   1.594  14.353 -0.2441 -0.1426  0.0332
 6002SOL    HW129639   2.619   1.666  14.300 -2.0346 -0.0518  1.2971
 6002SOL    HW229640   2.624   1.520  14.299 -2.0909 -0.2064  1.0863
 6003SOL     OW29641   2.358   0.020   4.431 -0.3779 -0.2398 -0.3258
 6003SOL    HW129642   2.366   4.665   4.427 -0.5085 -0.3277  1.6671
 6003SOL    HW229643   2.274   0.024   4.386 -0.9093 -0.3859  0.6551
 6004SOL     OW29644   0.492   0.659  16.400  0.4920  0.2507 -0.3918
 6004SOL    HW129645   0.559   0.620  16.457 -0.9785 -1.8351 -0.0986
 6004SOL    HW229646   0.520   0.620  16.318 -0.7437  1.6752 -1.4794
 6005SOL     OW29647   4.451   0.435  12.165 -0.0351  0.1454 -0.0244
 6005SOL    HW129648   4.503   0.506  12.129  1.8542 -0.9358  0.5935
 6005SOL    HW229649   4.490   0.357  12.124 -0.5462  0.5964 -1.3637
 6006SOL     OW29650   2.774   3.408   4.867  0.2809  0.4051  0.3090
 6006SOL    HW129651   2.776   3.319   4.900  1.9740  1.1672  2.2421
 6006SOL    HW229652   2.713   3.436   4.935  1.7819  0.9935  1.3950
 6007SOL     OW29653   1.326   1.831   8.987 -0.1567  0.0913 -0.1343
 6007SOL    HW129654   1.288   1.917   9.004  1.3932  1.0254 -1.3645
 6007SOL    HW229655   1.290   1.773   9.054  0.8181  2.5747  2.5176
 6008SOL     OW29656   1.500   4.569  11.857 -0.3580  0.2688  0.0609
 6008SOL    HW129657   1.455   4.653  11.857 -0.6958  0.0803 -1.0878
 6008SOL    HW229658   1.458   4.520  11.786 -3.5805 -0.1640  2.2313
 6009SOL     OW29659   3.224   0.646   2.319 -0.2997 -0.2868  0.8426
 6009SOL    HW129660   3.317   0.642   2.298 -0.4121  0.3903  0.2058
 6009SOL    HW229661   3.172   0.684   2.248  0.1224  0.1038  0.7422
 6010SOL     OW29662   4.253   3.254   3.335 -0.4400  0.4244  0.1616
 6010SOL    HW129663   4.325   3.199   3.304 -1.7804 -0.8305 -0.7134
 6010SOL    HW229664   4.174   3.207   3.310  0.5814 -2.1054  1.6954
 6011SOL     OW29665   0.154   4.649   9.464 -0.1676 -0.3673 -0.4460
 6011SOL    HW129666   0.123   4.567   9.425 -1.2606 -0.0866 -0.1826
 6011SOL    HW229667   0.077   4.673   9.516 -0.4976 -2.2386 -0.0860
 6012SOL     OW29668   2.578   2.971   0.832 -0.0381  0.3159  0.1458
 6012SOL    HW129669   2.562   3.064   0.847 -1.5662 -0.1437  1.2680
 6012SOL    HW229670   2.627   2.973   0.750 -1.7811  3.8456 -0.8278
 6013SOL     OW29671   4.473   2.014  14.265  0.8704 -0.0547  0.5139
 6013SOL    HW129672   4.510   1.994  14.351  2.3817 -0.4418 -0.2212
 6013SOL    HW229673   4.435   1.928  14.246  0.5233  0.0303  0.8173
 6014SOL     OW29674   3.920   4.521  15.126 -0.3882  0.9626 -0.4180
 6014SOL    HW129675   3.881   4.557  15.206 -2.2747 -0.3553 -0.7363
 6014SOL    HW229676   3.864   4.542  15.051 -1.3540  1.2269  0.3732
 6015SOL     OW29677   2.578   1.313   3.579  0.0192 -0.0844 -0.0034
 6015SOL    HW129678   2.665   1.351   3.591 -0.8750  1.6031  1.2293
 6015SOL    HW229679   2.533   1.332   3.662 -2.2054 -2.3981 -0.6776
 6016SOL     OW29680   4.734   3.463   6.315 -0.1361  0.0336  0.2407
 6016SOL    HW129681   0.031   3.550   6.315 -1.3341  0.5598 -2.6930
 6016SOL    HW229682   4.721   3.452   6.221  2.0728  3.4162 -0.4554
 6017SOL     OW29683   3.557   2.596  14.134  0.3717  0.2236 -0.0082
 6017SOL    HW129684   3.517   2.679  14.109  0.4082  0.6022  1.2022
 6017SOL    HW229685   3.521   2.538  14.067  1.1647 -1.0277  0.6453
 6018SOL     OW29686   1.705   1.659   5.863  0.4785  0.2120  0.1522
 6018SOL    HW129687   1.707   1.710   5.782 -1.7769  0.8640  0.5048
 6018SOL    HW229688   1.779   1.698   5.909  0.3969  0.6551 -0.0915
 6019SOL     OW29689   1.967   3.278   6.604 -0.1701 -0.4369 -0.5374
 6019SOL    HW129690   1.995   3.333   6.677 -0.8049  1.4479 -1.7183
 6019SOL    HW229691   1.875   3.304   6.602 -0.0129  0.2010  1.1737
 6020SOL     OW29692   2.032   0.075   6.990  0.1555  0.3969  0.3603
 6020SOL    HW129693   2.035   0.101   7.082 -0.6456 -0.7777  0.7355
 6020SOL    HW229694   2.108   0.116   6.949  0.1594  0.0871  0.0596
 6021SOL     OW29695   1.940   0.195   6.452 -0.3331 -0.1996 -0.4385
 6021SOL    HW129696   1.991   0.116   6.433  1.5133  1.0416 -0.6826
 6021SOL    HW229697   1.935   0.245   6.370  0.9756  1.2596  0.3725
 6022SOL     OW29698   4.148   0.403   3.804 -0.2390 -0.1384 -0.3891
 6022SOL    HW129699   4.064   0.449   3.802  0.1997  0.7409  0.8994
 6022SOL    HW229700   4.158   0.369   3.893  0.6110  1.8042  0.2562
 6023SOL     OW29701   1.598   1.049   0.182  0.3063 -0.1673  1.2958
 6023SOL    HW129702   1.634   0.962   0.164 -1.6807 -0.7167 -0.0711
 6023SOL    HW229703   1.596   1.050   0.277 -0.3452 -2.6349  1.3011
 6024SOL     OW29704   1.802   2.267  16.980  0.2766 -0.0549  0.1968
 6024SOL    HW129705   1.854   2.321  17.040  2.2401 -0.4934 -1.1162
 6024SOL    HW229706   1.713   2.271  17.017  1.0827  1.0791  2.0163
 6025SOL     OW29707   0.253   3.421   4.331  0.6782 -0.0430  0.0934
 6025SOL    HW129708   0.166   3.391   4.303  0.5861 -1.2723  1.6846
 6025SOL    HW229709   0.299   3.436   4.249  0.5343  0.9111  0.1881
 6026SOL     OW29710   1.989   1.853   5.865  0.1370  0.4348 -0.0487
 6026SOL    HW129711   2.031   1.839   5.950  0.5793 -1.1693 -0.5190
 6026SOL    HW229712   1.938   1.930   5.889  0.4980  0.1608  1.6446
 6027SOL     OW29713   2.546   1.552   2.072  0.7422 -0.4108  0.1122
 6027SOL    HW129714   2.588   1.580   2.154 -2.4788  0.6447  1.3800
 6027SOL    HW229715   2.580   1.616   2.009 -0.4841 -0.7364 -0.8796
 6028SOL     OW29716   0.013   2.811   1.394 -0.3531  0.0679  0.4095
 6028SOL    HW129717   4.699   2.768   1.459 -0.2808 -1.0855 -0.2854
 6028SOL    HW229718   4.689   2.877   1.370 -1.6509 -1.4709 -0.2741
 6029SOL     OW29719   0.827   4.512  11.215 -0.4089  0.0337  0.0165
 6029SOL    HW129720   0.863   4.517  11.304  0.8946  1.0202 -0.5640
 6029SOL    HW229721   0.837   4.599  11.176 -1.2819 -0.4444 -1.2368
 6030SOL     OW29722   1.083   2.811   2.104 -0.3264  0.6425  0.5101
 6030SOL    HW129723   1.031   2.833   2.181 -0.9288  1.0617 -0.0201
 6030SOL    HW229724   1.125   2.732   2.137 -1.3025  0.8925  2.3376
 6031SOL     OW29725   4.444   4.298  15.048  0.5514  0.1904  0.2595
 6031SOL    HW129726   4.402   4.333  14.970  0.5065 -1.3217 -0.3865
 6031SOL    HW229727   4.527   4.345  15.049  1.0258 -0.6571  1.2676
 6032SOL     OW29728   4.149   1.827   2.789 -0.3082  0.5237  0.0714
 6032SOL    HW129729   4.057   1.827   2.765 -0.9379 -0.1879  2.4783
 6032SOL    HW229730   4.145   1.763   2.861 -2.8718  1.8684  1.1363
 6033SOL     OW29731   3.957   1.071  15.311  0.2315  0.1743  0.1305
 6033SOL    HW129732   3.970   1.103  15.222  0.3718 -2.3155 -0.7338
 6033SOL    HW229733   3.881   1.018  15.288  0.4888 -0.1729  0.0823
 6034SOL     OW29734   2.294   0.067   8.579 -0.7159 -0.5710  0.3141
 6034SOL    HW129735   2.323   0.098   8.493  1.7682 -1.2690  0.9053
 6034SOL    HW229736   2.265   4.717   8.572  0.2770 -0.7279 -1.6964
 6035SOL     OW29737   3.241   2.836  15.580 -0.2987 -0.0266 -0.4696
 6035SOL    HW129738   3.328   2.875  15.578 -0.9279  1.4885  1.6577
 6035SOL    HW229739   3.262   2.750  15.615 -1.0072 -0.0957 -0.2098
 6036SOL     OW29740   1.615   2.534   7.666 -0.1594 -0.0584 -0.2603
 6036SOL    HW129741   1.577   2.450   7.695 -0.3531 -0.8512 -2.8076
 6036SOL    HW229742   1.679   2.508   7.601  0.7340 -0.2452  0.6910
 6037SOL     OW29743   0.131   1.937   9.024  0.0511  0.0400  0.4498
 6037SOL    HW129744   0.123   1.842   9.010 -1.2616  0.3254 -0.7572
 6037SOL    HW229745   0.110   1.945   9.117 -0.1988  0.4865  0.3521
 6038SOL     OW29746   4.718   2.139   4.482 -0.5322 -0.7733  0.2332
 6038SOL    HW129747   0.033   2.154   4.558 -0.9019 -1.3270  0.6184
 6038SOL    HW229748   4.652   2.209   4.486 -0.4439 -0.5813 -1.5010
 6039SOL     OW29749   2.903   4.162   1.590  0.1715  0.4846  0.2182
 6039SOL    HW129750   2.859   4.100   1.648 -0.8581  0.8218 -0.2005
 6039SOL    HW229751   2.862   4.236   1.634  0.6286 -0.2331  1.8460
 6040SOL     OW29752   1.406   1.892   5.781 -0.8418 -0.1159 -0.1598
 6040SOL    HW129753   1.470   1.951   5.821 -2.1854  1.0889  0.2133
 6040SOL    HW229754   1.337   1.900   5.847 -0.3766 -1.1537  0.4573
 6041SOL     OW29755   0.681   3.947  16.259 -0.7331 -0.2861 -0.7611
 6041SOL    HW129756   0.720   4.018  16.208 -0.7950  0.9709  0.9832
 6041SOL    HW229757   0.702   3.871  16.204  1.2532 -0.2261 -0.0777
 6042SOL     OW29758   1.288   2.416   9.288  0.1473  0.1006 -0.0187
 6042SOL    HW129759   1.304   2.419   9.194 -2.0463 -0.1903 -0.4063
 6042SOL    HW229760   1.280   2.325   9.316 -2.4520  0.1300 -0.6488
 6043SOL     OW29761   4.493   0.727  11.020  0.3684 -0.1695  0.0372
 6043SOL    HW129762   4.574   0.772  11.046  0.9439 -2.0485  1.5407
 6043SOL    HW229763   4.484   0.782  10.942  0.1295  0.3164  0.4072
 6044SOL     OW29764   3.182   4.266   5.244  0.7127  0.4633 -0.5329
 6044SOL    HW129765   3.181   4.306   5.331  1.7493 -0.1394 -0.2506
 6044SOL    HW229766   3.275   4.272   5.222  0.5494 -0.5432 -1.4819
 6045SOL     OW29767   3.073   4.161  15.296  0.2917  0.1038 -0.3632
 6045SOL    HW129768   3.082   4.237  15.238 -0.7626 -1.1729 -2.2048
 6045SOL    HW229769   3.078   4.218  15.372 -1.0332  0.1800 -0.3328
 6046SOL     OW29770   4.072   1.610   3.327 -0.6489 -0.5195  0.1916
 6046SOL    HW129771   4.116   1.545   3.273  1.1587  0.5729  0.3476
 6046SOL    HW229772   4.046   1.668   3.256 -1.1720  0.8535  1.4826
 6047SOL     OW29773   0.625   2.656   2.419 -0.1976 -0.2204 -0.1239
 6047SOL    HW129774   0.630   2.575   2.471  2.8827 -1.4733 -2.3622
 6047SOL    HW229775   0.538   2.655   2.378  0.3700  1.2670 -1.3426
 6048SOL     OW29776   2.044   1.867   2.603 -0.0816 -0.0718  0.1066
 6048SOL    HW129777   2.106   1.915   2.658 -2.2603  1.9333  0.7903
 6048SOL    HW229778   2.091   1.869   2.519  1.4539  1.3412  1.0130
 6049SOL     OW29779   0.049   1.230  16.496 -0.9605  0.1559  0.0498
 6049SOL    HW129780   0.123   1.290  16.485 -0.0058 -0.9800  0.2137
 6049SOL    HW229781   0.094   1.145  16.499  2.3592  1.9038 -0.1004
 6050SOL     OW29782   0.416   0.000   5.003 -0.8276  0.6087  0.2458
 6050SOL    HW129783   0.423   0.075   5.063 -0.5433 -0.7954  1.9741
 6050SOL    HW229784   0.344   0.017   4.943  0.0401  1.6288 -0.5088
 6051SOL     OW29785   1.349   2.202   2.556 -0.0822  0.5932  0.2773
 6051SOL    HW129786   1.373   2.111   2.569 -0.4604  0.3588 -0.6380
 6051SOL    HW229787   1.257   2.198   2.584 -0.0814 -2.4477 -0.1388
 6052SOL     OW29788   0.547   2.295   5.769  0.2281 -0.1926  0.3143
 6052SOL    HW129789   0.602   2.288   5.691 -0.7546 -0.0765 -0.3826
 6052SOL    HW229790   0.608   2.296   5.844 -1.3302 -0.7135  1.5782
 6053SOL     OW29791   0.379   4.644   8.283 -0.2161 -0.0021 -0.1961
 6053SOL    HW129792   0.452   4.635   8.222 -0.7288 -0.9143 -0.6797
 6053SOL    HW229793   0.417   4.694   8.355  0.5885 -0.7790 -0.0709
 6054SOL     OW29794   3.713   3.673   3.144 -0.0417  0.2819  0.2795
 6054SOL    HW129795   3.705   3.747   3.083  0.8233  1.7260  1.9013
 6054SOL    HW229796   3.726   3.724   3.223 -1.0608 -2.5044  2.2387
 6055SOL     OW29797   0.661   0.769  11.115  0.0723 -0.4598  0.5039
 6055SOL    HW129798   0.581   0.821  11.117 -0.4628 -1.2481 -0.6211
 6055SOL    HW229799   0.626   0.684  11.144 -1.1158 -0.3833 -0.6974
 6056SOL     OW29800   1.656   1.393  17.251 -0.2351  0.2078  0.3632
 6056SOL    HW129801   1.586   1.353  17.303 -1.1276  1.2449 -0.0487
 6056SOL    HW229802   1.694   1.444  17.323 -0.2725  1.0070 -0.1857
 6057SOL     OW29803   2.217   3.952  14.639  0.4041  0.2289 -0.6569
 6057SOL    HW129804   2.271   3.924  14.712  1.3387  0.9203 -1.0883
 6057SOL    HW229805   2.240   3.882  14.577 -0.2519 -0.2415 -0.3800
 6058SOL     OW29806   1.090   4.212   7.726  0.0504 -0.1869  0.2322
 6058SOL    HW129807   1.064   4.300   7.698 -1.2722 -0.1336  1.6654
 6058SOL    HW229808   1.170   4.243   7.769 -1.0612  2.7592  0.1858
 6059SOL     OW29809   1.431   0.455   6.388  0.0857 -0.2091 -0.3279
 6059SOL    HW129810   1.458   0.370   6.353  1.6616 -0.5604  1.7964
 6059SOL    HW229811   1.345   0.464   6.345  0.5826  1.6783 -0.9141
 6060SOL     OW29812   2.180   3.536  15.303  0.4066  0.4660  0.1162
 6060SOL    HW129813   2.259   3.521  15.252  0.1529 -1.1459  0.2067
 6060SOL    HW229814   2.129   3.592  15.243  1.4103  0.4942 -0.7071
 6061SOL     OW29815   4.437   0.811   4.622  0.0453 -0.7302  0.0521
 6061SOL    HW129816   4.513   0.757   4.601  0.2469 -0.8333  1.0322
 6061SOL    HW229817   4.378   0.789   4.550 -0.1188 -0.9761  0.2605
 6062SOL     OW29818   2.826   0.841  14.874  0.2753  0.6842 -0.4036
 6062SOL    HW129819   2.747   0.892  14.855 -0.9447 -1.0233 -0.0011
 6062SOL    HW229820   2.842   0.875  14.962  0.5422 -3.0803  1.0073
 6063SOL     OW29821   4.133   4.634  16.185  0.8278 -0.3317  0.2880
 6063SOL    HW129822   4.094   4.720  16.168  0.1547 -0.8684 -0.8998
 6063SOL    HW229823   4.220   4.659  16.156  0.9379 -0.2730  0.6664
 6064SOL     OW29824   0.574   1.744   6.185  0.0714 -0.3319 -0.2006
 6064SOL    HW129825   0.662   1.709   6.194  0.4114  0.5575 -0.1000
 6064SOL    HW229826   0.564   1.775   6.275  2.8258  2.1373 -0.7482
 6065SOL     OW29827   3.879   2.903   3.448  0.7364  0.4776 -0.1614
 6065SOL    HW129828   3.869   2.807   3.450  1.5555  0.4223  1.0672
 6065SOL    HW229829   3.794   2.940   3.423  1.2501  0.6547 -1.6369
 6066SOL     OW29830   4.663   4.626   8.253  0.2512  0.0003  0.0276
 6066SOL    HW129831   4.657   4.612   8.159 -1.4086 -0.9435  0.2728
 6066SOL    HW229832   0.004   4.580   8.274 -0.2770 -1.1394 -0.3824
 6067SOL     OW29833   2.923   0.741   5.590  0.7130  0.0978 -0.0033
 6067SOL    HW129834   2.988   0.756   5.659  1.8449  1.2481 -1.3109
 6067SOL    HW229835   2.910   0.830   5.557  0.9771  0.1901  0.1386
 6068SOL     OW29836   1.085   4.509   6.909  0.2647  0.5073  0.1063
 6068SOL    HW129837   1.176   4.487   6.889 -0.1851  0.3834 -1.7818
 6068SOL    HW229838   1.054   4.440   6.968 -0.2912  1.0388  0.4491
 6069SOL     OW29839   2.629   3.347   5.801 -0.2892 -0.0890 -0.0668
 6069SOL    HW129840   2.669   3.281   5.857 -0.4939  0.3105  0.5477
 6069SOL    HW229841   2.688   3.335   5.726  0.7922 -1.7788  1.0458
 6070SOL     OW29842   1.413   0.037   9.451 -0.3468 -0.2951 -0.8175
 6070SOL    HW129843   1.370   4.733   9.524 -1.8797  2.5276  0.0226
 6070SOL    HW229844   1.397   4.724   9.373  0.8983 -0.4121 -0.9852
 6071SOL     OW29845   3.810   3.508   8.213  0.4597  0.3512  0.3228
 6071SOL    HW129846   3.835   3.423   8.177  2.0529  0.3948  1.3343
 6071SOL    HW229847   3.728   3.487   8.258  0.1555  0.3970 -0.2141
 6072SOL     OW29848   1.853   3.827   8.612 -0.4281  0.3282 -0.0264
 6072SOL    HW129849   1.828   3.853   8.701 -1.1780 -1.0749  0.1830
 6072SOL    HW229850   1.913   3.755   8.631 -0.7131 -0.2807 -1.3901
 6073SOL     OW29851   4.600   2.591   9.473 -0.0680  0.2747  0.3013
 6073SOL    HW129852   4.612   2.683   9.448 -1.1357  0.3756  0.1974
 6073SOL    HW229853   4.658   2.554   9.405 -0.7765 -1.1997  0.4979
 6074SOL     OW29854   3.902   1.117  17.154  0.1138 -0.2132 -0.4720
 6074SOL    HW129855   3.902   1.208  17.123 -2.0006  0.4555  1.4427
 6074SOL    HW229856   3.860   1.124  17.240  0.7441  3.3751 -0.4186
 6075SOL     OW29857   0.888   1.311   1.732  0.0819  0.2573  0.3801
 6075SOL    HW129858   0.887   1.333   1.639 -0.3344 -1.6471 -0.0645
 6075SOL    HW229859   0.962   1.252   1.727 -0.2858 -0.3387  1.8741
 6076SOL     OW29860   0.419   2.241   4.358  0.4444  0.0634  0.3160
 6076SOL    HW129861   0.453   2.156   4.330 -2.6159 -0.1216 -2.7863
 6076SOL    HW229862   0.348   2.265   4.299 -0.0390  0.3310  1.0061
 6077SOL     OW29863   2.643   2.853   9.524 -0.3320  0.1867 -0.2767
 6077SOL    HW129864   2.712   2.899   9.476 -0.2878  2.4463  1.9426
 6077SOL    HW229865   2.675   2.858   9.613 -0.5735 -1.5891 -0.0921
 6078SOL     OW29866   4.196   2.068   9.894 -0.2991  0.0160 -0.0841
 6078SOL    HW129867   4.112   2.020   9.894 -0.4277  0.2434 -0.3866
 6078SOL    HW229868   4.194   2.097   9.803 -0.8185  0.3094  0.0174
 6079SOL     OW29869   0.549   2.299  12.332  0.1094  0.2007  0.0763
 6079SOL    HW129870   0.476   2.299  12.269 -0.3523  1.5312  0.6073
 6079SOL    HW229871   0.606   2.366  12.292 -0.5878  0.2509 -0.8478
 6080SOL     OW29872   0.033   1.810   6.209  0.4463 -0.2488 -0.4133
 6080SOL    HW129873   0.116   1.846   6.180  0.7398  1.2643  2.2745
 6080SOL    HW229874   0.037   1.825   6.304  2.4734 -3.2616 -0.0015
 6081SOL     OW29875   0.364   1.987   0.059 -0.3934 -0.1060  0.1897
 6081SOL    HW129876   0.299   1.993   0.129  0.1539 -1.1866  0.7960
 6081SOL    HW229877   0.438   1.953   0.110  0.5192  0.6802 -0.5887
 6082SOL     OW29878   1.867   2.748   1.856  0.7940  0.2826  0.3411
 6082SOL    HW129879   1.913   2.681   1.907 -1.3661 -1.3123  0.2126
 6082SOL    HW229880   1.929   2.747   1.784 -0.6998 -3.1455 -0.8990
 6083SOL     OW29881   4.407   0.303   4.533  0.5902  0.4371 -0.1328
 6083SOL    HW129882   4.372   0.373   4.478  1.8050 -0.2819 -1.7940
 6083SOL    HW229883   4.495   0.281   4.503  1.3061  2.2074  0.6607
 6084SOL     OW29884   3.050   1.519   0.430 -0.2856 -0.3346  1.0872
 6084SOL    HW129885   3.006   1.502   0.347 -0.7046 -0.2004  1.2851
 6084SOL    HW229886   3.122   1.456   0.424  0.0796  0.2765 -1.2128
 6085SOL     OW29887   2.112   1.934   0.037  0.0458 -0.4314  0.2661
 6085SOL    HW129888   2.160   1.954  17.718 -0.1861 -1.1971 -0.0553
 6085SOL    HW229889   2.034   1.989   0.029  0.4813  0.6907  3.4941
 6086SOL     OW29890   1.643   1.843  11.730 -0.2536  0.4847 -0.5413
 6086SOL    HW129891   1.690   1.926  11.733 -2.5261  1.7353  1.3477
 6086SOL    HW229892   1.573   1.860  11.794  1.7999  1.2479  1.5056
 6087SOL     OW29893   3.588   1.091  13.291 -0.4252  0.2464 -0.0365
 6087SOL    HW129894   3.529   1.165  13.303 -0.6208  0.4581 -2.2155
 6087SOL    HW229895   3.669   1.137  13.267 -0.7650  0.2276 -1.2262
 6088SOL     OW29896   4.380   0.659  13.086  0.4137 -0.4031 -0.2645
 6088SOL    HW129897   4.451   0.704  13.130 -1.0084  1.1347  0.4503
 6088SOL    HW229898   4.400   0.683  12.995  2.6015 -3.1177 -0.5207
 6089SOL     OW29899   0.379   1.952  12.358 -0.1170 -0.2620  0.2607
 6089SOL    HW129900   0.299   1.909  12.388 -1.0026  1.7628  0.8046
 6089SOL    HW229901   0.387   1.912  12.271  0.6270  0.7542 -0.1447
 6090SOL     OW29902   3.857   1.172   4.024  0.0893 -0.1430 -0.1659
 6090SOL    HW129903   3.887   1.261   4.011  1.2142 -0.4336  0.4964
 6090SOL    HW229904   3.924   1.123   3.978  0.6795  0.0762  0.4640
 6091SOL     OW29905   4.046   1.241   3.222  0.1052  0.5747  0.2557
 6091SOL    HW129906   4.047   1.168   3.284 -0.9724  2.0813  2.0584
 6091SOL    HW229907   4.130   1.230   3.178  1.0259 -1.2157  2.4701
 6092SOL     OW29908   1.150   0.207   3.806 -0.3633 -0.0684 -0.3460
 6092SOL    HW129909   1.065   0.163   3.805  0.1060 -0.9908  0.4261
 6092SOL    HW229910   1.147   0.263   3.728 -0.3491 -1.9885 -1.7080
 6093SOL     OW29911   4.562   2.604  13.076  0.2106  0.4123 -0.1742
 6093SOL    HW129912   4.613   2.524  13.072  0.0472  0.3710 -1.5448
 6093SOL    HW229913   4.530   2.601  13.166  1.2931 -1.0966  0.1465
 6094SOL     OW29914   2.681   4.370   8.749 -0.3904 -0.5429 -0.1114
 6094SOL    HW129915   2.635   4.441   8.705  1.9693  0.2045 -1.3547
 6094SOL    HW229916   2.637   4.291   8.717 -0.0965 -1.2581  1.2140
 6095SOL     OW29917   2.945   0.975   4.279  0.4577  0.1940 -0.1981
 6095SOL    HW129918   2.919   1.013   4.194 -2.2054  1.0379  0.9942
 6095SOL    HW229919   3.010   0.906   4.263  1.2793  1.3951 -2.0855
 6096SOL     OW29920   1.567   2.750   3.587  0.1360  0.4586  0.7147
 6096SOL    HW129921   1.653   2.763   3.626  1.0639 -0.8960 -0.8763
 6096SOL    HW229922   1.555   2.836   3.545  1.4682  1.3307  2.1037
 6097SOL     OW29923   3.480   0.501  13.740  0.2467 -0.1594  0.0711
 6097SOL    HW129924   3.405   0.451  13.774 -0.9538  0.2873 -1.9074
 6097SOL    HW229925   3.480   0.461  13.653  0.2636  2.2134 -0.9998
 6098SOL     OW29926   3.895   4.724  15.918 -0.1734  0.0274 -0.1953
 6098SOL    HW129927   3.846   4.644  15.935 -2.1233  0.8160 -2.0982
 6098SOL    HW229928   3.857   0.045  15.980 -2.2646  0.8961 -2.3319
 6099SOL     OW29929   1.446   3.775   2.413 -0.2888 -0.0356 -0.4118
 6099SOL    HW129930   1.418   3.731   2.493 -0.6835 -1.8542 -1.5522
 6099SOL    HW229931   1.395   3.725   2.350 -0.7149 -2.1616  1.6098
 6100SOL     OW29932   2.009   0.062  12.008 -0.6004  0.0949  0.4442
 6100SOL    HW129933   1.974   0.040  12.095 -0.8176  3.3186  1.1664
 6100SOL    HW229934   2.104   0.062  12.023 -0.6555  1.2892  0.8074
 6101SOL     OW29935   2.296   0.455  11.901 -0.8915 -0.0995  0.8846
 6101SOL    HW129936   2.306   0.360  11.895  0.6692  0.3903 -4.2620
 6101SOL    HW229937   2.213   0.475  11.857 -1.3085 -2.1147  0.7587
 6102SOL     OW29938   2.118   2.016   7.204 -0.1739  0.3048 -0.1347
 6102SOL    HW129939   2.163   2.021   7.119 -0.7784  1.1312 -0.4037
 6102SOL    HW229940   2.028   2.036   7.178 -0.2818  1.4959  1.1612
 6103SOL     OW29941   1.348   2.868   1.748  0.2803  0.0161  0.1360
 6103SOL    HW129942   1.252   2.868   1.751  0.2875  0.9774  0.3157
 6103SOL    HW229943   1.363   2.951   1.794  0.4349  1.5880 -2.7312
 6104SOL     OW29944   2.432   3.128   0.158 -0.3449 -0.0826 -0.3015
 6104SOL    HW129945   2.485   3.206   0.142 -1.2321  0.8296  1.1350
 6104SOL    HW229946   2.371   3.131   0.085  0.3791 -0.0784 -0.9013
 6105SOL     OW29947   0.472   1.829   6.539  0.0348  0.0945  0.1882
 6105SOL    HW129948   0.519   1.759   6.584  0.6377 -0.9156 -2.0645
 6105SOL    HW229949   0.384   1.819   6.577 -0.3321 -0.1811 -0.7495
 6106SOL     OW29950   0.119   1.788   8.140 -0.5366 -0.0103 -0.0525
 6106SOL    HW129951   0.066   1.739   8.077  0.2573 -0.4477 -0.3741
 6106SOL    HW229952   0.085   1.875   8.119 -1.2316 -0.1530  0.4704
 6107SOL     OW29953   0.323   3.128   1.382 -0.2925  0.4986  0.0682
 6107SOL    HW129954   0.400   3.073   1.368  0.6145  1.1446  2.5613
 6107SOL    HW229955   0.257   3.086   1.327 -0.4983  0.3544  0.4309
 6108SOL     OW29956   0.546   3.152   5.082 -0.0283 -0.1584  0.0743
 6108SOL    HW129957   0.540   3.154   5.177  0.7573 -3.0893  0.1935
 6108SOL    HW229958   0.458   3.133   5.050  0.5208 -1.6025 -0.5648
 6109SOL     OW29959   1.395   2.626   9.432 -0.6751  0.3142 -0.0903
 6109SOL    HW129960   1.360   2.551   9.385 -1.6693  0.0925  1.0222
 6109SOL    HW229961   1.321   2.651   9.487 -1.6780  0.8816 -1.6994
 6110SOL     OW29962   1.529   0.453   4.641 -0.4206  0.3561 -0.6757
 6110SOL    HW129963   1.436   0.449   4.619 -0.1013  0.9728 -2.1630
 6110SOL    HW229964   1.572   0.377   4.602 -1.7890 -1.0590  0.5813
 6111SOL     OW29965   0.653   2.681  17.130 -0.0885 -0.2070  0.1303
 6111SOL    HW129966   0.648   2.746  17.200 -1.5091 -1.8390  1.5238
 6111SOL    HW229967   0.580   2.714  17.078  0.7272 -0.1208 -0.9635
 6112SOL     OW29968   0.036   0.833   1.622 -0.4264 -0.2598 -0.6718
 6112SOL    HW129969   0.023   0.927   1.614 -0.3491  0.0764  3.0125
 6112SOL    HW229970   4.701   0.803   1.573 -0.8608 -0.4242  0.0949
 6113SOL     OW29971   1.642   2.394  10.689  0.4104  0.4957  0.3083
 6113SOL    HW129972   1.731   2.400  10.726  1.0675  0.2871 -1.2628
 6113SOL    HW229973   1.598   2.336  10.751 -0.0574  1.3494  0.7738
 6114SOL     OW29974   4.056   1.369   0.358 -0.8396  0.3044 -1.2944
 6114SOL    HW129975   3.979   1.378   0.414  2.0889  0.2570  2.7607
 6114SOL    HW229976   4.122   1.421   0.405 -1.6908 -0.5907  0.8603
 6115SOL     OW29977   3.206   3.145   5.221  0.0977  0.1572 -0.3018
 6115SOL    HW129978   3.226   3.223   5.170 -2.3611  1.1590  0.2381
 6115SOL    HW229979   3.278   3.093   5.186 -0.4366 -0.6335 -0.2374
 6116SOL     OW29980   4.553   2.020   9.061 -0.5036 -0.4673  0.2240
 6116SOL    HW129981   4.497   1.951   9.027  0.8549 -1.8794  0.8615
 6116SOL    HW229982   4.627   2.026   9.001  0.8632  1.9046  2.1371
 6117SOL     OW29983   4.271   2.924   1.961 -0.4073  0.8608  0.3028
 6117SOL    HW129984   4.183   2.955   1.941 -0.0325  2.5906  1.3116
 6117SOL    HW229985   4.335   2.968   1.905 -1.7739  0.8425 -1.2492
 6118SOL     OW29986   0.899   1.695   6.862 -0.5813  0.1342  0.2528
 6118SOL    HW129987   0.890   1.788   6.840 -2.9705 -0.5149 -1.4894
 6118SOL    HW229988   0.878   1.696   6.956  3.0233 -1.7112  1.0773
 6119SOL     OW29989   4.701   1.486   8.629  0.0724 -0.3333  0.7014
 6119SOL    HW129990   4.633   1.474   8.563 -0.7326  0.2239  1.4356
 6119SOL    HW229991   0.040   1.490   8.576 -1.2318  3.9461 -0.9919
 6120SOL     OW29992   1.835   1.271   4.327 -1.0598  0.2523 -0.4288
 6120SOL    HW129993   1.743   1.260   4.302 -1.0389 -0.9987  0.0665
 6120SOL    HW229994   1.833   1.351   4.380 -1.6593 -1.1609  1.6667
 6121SOL     OW29995   2.630   0.518  17.055 -0.2310  0.3640 -0.4972
 6121SOL    HW129996   2.724   0.509  17.070 -0.4188 -1.2588 -0.2874
 6121SOL    HW229997   2.627   0.574  16.978 -0.0382  0.7502 -0.2244
 6122SOL     OW29998   3.594   3.805   5.539  0.1966  0.3041 -0.1343
 6122SOL    HW129999   3.627   3.877   5.486  1.8619  1.7760  2.8959
 6122SOL    HW230000   3.653   3.801   5.614  0.9651  1.4223 -0.6834
 6123SOL     OW30001   1.713   0.999  14.464  0.1042 -0.2099  0.5989
 6123SOL    HW130002   1.642   1.059  14.488 -0.8220 -1.8913  2.0682
 6123SOL    HW230003   1.670   0.919  14.495 -1.4463 -0.1165 -1.3111
 6124SOL     OW30004   4.665   4.710   5.974 -0.3618  0.7607 -0.2974
 6124SOL    HW130005   4.583   4.661   5.977  0.0088  0.2603  2.2688
 6124SOL    HW230006   4.732   4.652   5.937 -0.0362  0.5359  0.6338
 6125SOL     OW30007   2.040   0.939   7.874  0.7058  0.1440  0.5461
 6125SOL    HW130008   2.080   0.984   7.948 -1.1218  0.6385  1.2238
 6125SOL    HW230009   1.949   0.957   7.897  0.9677 -1.0510  2.5305
 6126SOL     OW30010   3.333   1.256   6.542 -0.3948 -0.3047  0.0547
 6126SOL    HW130011   3.357   1.190   6.477 -0.2986  1.6695 -1.9008
 6126SOL    HW230012   3.238   1.258   6.528 -0.5157  1.2541  1.1934
 6127SOL     OW30013   0.002   0.705  10.210  0.4582 -0.0593  0.7321
 6127SOL    HW130014   4.667   0.660  10.174 -0.0227  0.7666  0.7151
 6127SOL    HW230015   4.703   0.771  10.268  0.3305  0.6025 -0.1156
 6128SOL     OW30016   4.495   3.290  13.586 -0.7715 -0.5898 -0.0801
 6128SOL    HW130017   4.432   3.224  13.616 -2.4089  1.2378  0.4509
 6128SOL    HW230018   4.565   3.296  13.651 -0.3900  2.9802 -0.8328
 6129SOL     OW30019   4.321   4.737   2.585 -0.2700 -0.4006 -0.3539
 6129SOL    HW130020   4.249   4.712   2.528  0.7617 -3.4084 -0.3518
 6129SOL    HW230021   4.326   4.664   2.647  0.6871  1.2294  1.4977
 6130SOL     OW30022   1.034   2.514   3.361  0.5846  0.0934  0.0921
 6130SOL    HW130023   0.939   2.503   3.356  0.6996 -1.6308  1.7831
 6130SOL    HW230024   1.061   2.426   3.388 -1.0823 -1.2628 -2.6878
 6131SOL     OW30025   4.111   3.097  16.380  0.1709 -0.5398 -0.6379
 6131SOL    HW130026   4.168   3.152  16.328  1.1480 -2.4915 -1.6251
 6131SOL    HW230027   4.100   3.024  16.319 -2.9758 -1.5982  1.1754
 6132SOL     OW30028   0.218   3.952   5.242 -0.1148 -0.2916  0.0680
 6132SOL    HW130029   0.228   4.034   5.192 -0.3339  0.1391  0.7354
 6132SOL    HW230030   0.124   3.950   5.254  0.0006 -0.2488  0.9489
 6133SOL     OW30031   1.992   3.694   7.033 -0.3210  0.0017  0.2710
 6133SOL    HW130032   1.921   3.753   7.059 -0.1628  0.2344  0.1800
 6133SOL    HW230033   1.956   3.606   7.034 -0.7465  0.1411 -2.7940
 6134SOL     OW30034   0.602   1.232   8.714  0.0772 -0.4593 -0.8181
 6134SOL    HW130035   0.603   1.140   8.687 -0.5947 -0.0760 -2.1302
 6134SOL    HW230036   0.675   1.232   8.776  1.3432  2.0359 -2.3330
 6135SOL     OW30037   2.239   3.003   3.952  0.6959 -0.5082  0.1872
 6135SOL    HW130038   2.301   2.933   3.976 -1.3231 -2.4150 -0.1373
 6135SOL    HW230039   2.297   3.078   3.961 -0.6505  0.5204  0.1784
 6136SOL     OW30040   4.627   4.130   5.879 -0.1089  0.3202 -0.0617
 6136SOL    HW130041   4.587   4.210   5.843  0.1602  0.7082  0.4932
 6136SOL    HW230042   4.721   4.147   5.869 -0.1488 -1.3106 -3.3300
 6137SOL     OW30043   4.405   0.486   5.078  0.2443 -0.2826 -0.1915
 6137SOL    HW130044   4.480   0.469   5.135  0.1399  2.2781  0.7141
 6137SOL    HW230045   4.438   0.458   4.992  0.8784  2.8463 -0.9738
 6138SOL     OW30046   4.332   1.844   9.350  0.2394  0.1054  0.3416
 6138SOL    HW130047   4.375   1.776   9.402  2.4236  0.6695 -0.7201
 6138SOL    HW230048   4.262   1.871   9.409  0.6766 -2.0287  1.8101
 6139SOL     OW30049   1.367   1.399   1.671 -0.0389  0.2167 -0.6466
 6139SOL    HW130050   1.433   1.463   1.698 -0.0297 -0.2953  0.5229
 6139SOL    HW230051   1.406   1.312   1.674 -0.4456  0.1122  1.1156
 6140SOL     OW30052   0.072   2.692   7.562  0.1951 -0.0731 -0.1292
 6140SOL    HW130053   4.721   2.716   7.556 -0.2184 -1.2414  1.4682
 6140SOL    HW230054   0.090   2.624   7.497 -3.0224 -1.7397  0.7313
 6141SOL     OW30055   1.153   0.918  16.859  0.6834 -0.6294 -0.4004
 6141SOL    HW130056   1.174   0.825  16.849  1.3948 -0.3983 -0.9971
 6141SOL    HW230057   1.057   0.916  16.864  0.7611 -2.2044  0.4793
 6142SOL     OW30058   4.341   2.069   6.301 -0.9338  0.5494  0.7839
 6142SOL    HW130059   4.352   1.984   6.345  0.6371 -0.1959 -1.0015
 6142SOL    HW230060   4.329   2.041   6.210 -1.8805  1.6741  0.5784
 6143SOL     OW30061   0.803   3.685  11.488  0.1468  0.3992  0.1181
 6143SOL    HW130062   0.889   3.688  11.530  1.2842 -1.8479 -2.0376
 6143SOL    HW230063   0.773   3.595  11.504  0.7952  0.1216 -0.2173
 6144SOL     OW30064   1.000   3.053   4.947  0.2788 -1.2023  0.2225
 6144SOL    HW130065   0.994   3.149   4.943  1.7761 -1.1089  0.1580
 6144SOL    HW230066   1.075   3.049   4.887 -0.9712  2.3256 -1.5816
 6145SOL     OW30067   2.632   2.273   8.032 -0.0042  0.2552 -0.6850
 6145SOL    HW130068   2.589   2.304   8.112 -0.6269 -2.2340 -0.0526
 6145SOL    HW230069   2.602   2.342   7.973  2.1174  1.6257 -0.1777
 6146SOL     OW30070   2.509   4.109   2.110 -0.0343  0.1387 -0.3742
 6146SOL    HW130071   2.559   4.116   2.029 -0.4751  0.5614 -0.6139
 6146SOL    HW230072   2.549   4.178   2.162 -1.3056  0.8430 -0.3350
 6147SOL     OW30073   0.191   1.038   8.692  0.3867  0.0327  0.3937
 6147SOL    HW130074   0.244   0.968   8.653 -2.8153 -0.5456 -2.9680
 6147SOL    HW230075   0.214   1.023   8.783  0.2950 -0.7621  0.2809
 6148SOL     OW30076   2.444   3.644   3.359 -0.1382 -0.4393 -0.1902
 6148SOL    HW130077   2.472   3.736   3.362 -0.3068 -0.3731 -0.6597
 6148SOL    HW230078   2.387   3.643   3.436  0.9653  1.1714  0.6613
 6149SOL     OW30079   3.208   3.672  15.395 -0.6148  0.0608  0.2787
 6149SOL    HW130080   3.248   3.700  15.478 -0.1811 -1.3481  0.5453
 6149SOL    HW230081   3.116   3.685  15.415 -0.3177 -0.0467  1.7379
 6150SOL     OW30082   2.157   1.004   1.279  0.0780  0.8476  0.5493
 6150SOL    HW130083   2.094   0.938   1.308 -0.3167  2.2912  3.0443
 6150SOL    HW230084   2.242   0.969   1.306  1.2337  3.6194  0.5109
 6151SOL     OW30085   3.342   3.686   3.568  0.4084 -0.1639  0.5252
 6151SOL    HW130086   3.258   3.722   3.596  0.5203 -0.0903  0.7633
 6151SOL    HW230087   3.378   3.759   3.518 -1.9711  2.1846  2.2231
 6152SOL     OW30088   2.658   1.719   1.902  0.0043 -0.4277  0.0349
 6152SOL    HW130089   2.679   1.670   1.822  1.2622 -1.9125  1.2583
 6152SOL    HW230090   2.615   1.798   1.869 -1.1141 -1.1148 -0.1259
 6153SOL     OW30091   2.712   4.256   1.974  0.2442 -0.3148 -0.3272
 6153SOL    HW130092   2.755   4.336   2.004  0.6764  0.0577 -1.9317
 6153SOL    HW230093   2.655   4.288   1.904 -0.0295 -0.9163 -0.3721
 6154SOL     OW30094   2.955   1.640  13.769 -0.3125  0.2223 -0.4941
 6154SOL    HW130095   2.905   1.564  13.738 -3.0421  1.3176  1.1602
 6154SOL    HW230096   2.900   1.669  13.842  0.1320 -1.2574  0.4339
 6155SOL     OW30097   3.532   0.943   7.379 -0.6035 -0.2552 -0.1479
 6155SOL    HW130098   3.504   0.991   7.302  2.3925  2.5492  0.5141
 6155SOL    HW230099   3.555   0.858   7.341 -0.6114 -0.2825 -0.0920
 6156SOL     OW30100   3.997   3.148  14.180  0.2934 -0.5546 -0.1105
 6156SOL    HW130101   3.982   3.173  14.088 -0.3223 -0.1519  0.1032
 6156SOL    HW230102   4.052   3.071  14.165  2.4415  0.6921  1.4258
 6157SOL     OW30103   1.058   3.863   7.578  0.0517  0.0449  0.0259
 6157SOL    HW130104   1.082   3.951   7.549 -1.5192  0.0408 -1.3099
 6157SOL    HW230105   0.988   3.841   7.517 -1.4794 -2.9641  2.8684
 6158SOL     OW30106   1.681   0.398  13.666  0.0324  0.1321 -0.0369
 6158SOL    HW130107   1.728   0.473  13.630  1.7039 -0.3687  1.0898
 6158SOL    HW230108   1.712   0.395  13.756  0.4102  0.1182 -0.1689
 6159SOL     OW30109   1.249   3.828   6.961 -0.3376  0.0503 -0.2038
 6159SOL    HW130110   1.286   3.915   6.944 -1.1194  0.0418 -1.9024
 6159SOL    HW230111   1.242   3.817   7.056 -2.2989 -2.8037 -0.6864
 6160SOL     OW30112   4.405   4.639   5.801 -0.0448 -0.5222 -0.4448
 6160SOL    HW130113   4.347   4.660   5.875  0.2002  2.0704 -0.9931
 6160SOL    HW230114   4.412   4.719   5.750  0.0254  0.5566  1.2550
 6161SOL     OW30115   2.978   0.410   4.653 -0.1472  0.4909  0.0063
 6161SOL    HW130116   3.000   0.436   4.563 -2.0030 -0.8088 -0.8377
 6161SOL    HW230117   3.034   0.334   4.669 -3.9598 -2.2324  0.3785
 6162SOL     OW30118   1.100   3.383   4.618  0.3086  0.3415 -0.0901
 6162SOL    HW130119   1.137   3.381   4.707  0.6007 -2.7217 -0.2544
 6162SOL    HW230120   1.065   3.294   4.613  0.3666  0.2939  0.3465
 6163SOL     OW30121   2.561   0.849   4.576 -0.0734  0.1252 -0.0197
 6163SOL    HW130122   2.650   0.840   4.540 -0.8088 -1.4928 -1.4400
 6163SOL    HW230123   2.511   0.847   4.494  2.4382 -2.9712 -1.4992
 6164SOL     OW30124   1.902   1.760   4.222 -0.6279  0.2891 -0.5052
 6164SOL    HW130125   1.836   1.698   4.252 -0.9981  2.1732  2.5782
 6164SOL    HW230126   1.952   1.768   4.303  1.9225  0.3082 -2.0520
 6165SOL     OW30127   3.739   1.410  17.604 -0.1796 -0.3544 -0.3920
 6165SOL    HW130128   3.677   1.342  17.580 -0.8787  0.2277 -0.2196
 6165SOL    HW230129   3.817   1.360  17.580  0.2778 -0.5818  1.5185
 6166SOL     OW30130   2.325   2.707   0.521 -0.3442  0.2056  0.0228
 6166SOL    HW130131   2.262   2.685   0.590 -0.8307  2.3342  0.2663
 6166SOL    HW230132   2.346   2.619   0.490  0.5878  0.4642 -0.0508
 6167SOL     OW30133   1.735   2.751   5.639 -0.1920  0.0419 -0.8273
 6167SOL    HW130134   1.755   2.721   5.727  2.8466 -2.1947 -2.2774
 6167SOL    HW230135   1.807   2.814   5.630 -0.4804  0.6677  1.1177
 6168SOL     OW30136   3.141   1.132   2.877 -0.0754 -0.5907 -0.7208
 6168SOL    HW130137   3.114   1.154   2.967 -0.6486 -1.1656 -0.7568
 6168SOL    HW230138   3.156   1.038   2.880 -1.0206 -0.7503 -1.2265
 6169SOL     OW30139   4.312   0.212   2.076  0.0484  0.1747 -0.2238
 6169SOL    HW130140   4.355   0.167   2.149 -0.0487  0.5792  0.0851
 6169SOL    HW230141   4.248   0.145   2.052 -1.1720  0.5722  1.8971
 6170SOL     OW30142   0.048   0.365   2.573 -0.3284  0.6434 -0.0276
 6170SOL    HW130143   0.060   0.326   2.487  1.0272 -1.6547  1.2083
 6170SOL    HW230144   4.710   0.417   2.556  0.6430  2.1221  0.0208
 6171SOL     OW30145   0.151   1.162   5.071 -0.0976 -0.0355 -0.5836
 6171SOL    HW130146   0.067   1.202   5.094  0.2030  0.8029 -0.9374
 6171SOL    HW230147   0.119   1.103   5.004  1.3081 -2.2587  0.7070
 6172SOL     OW30148   4.338   3.518   6.690  0.1383 -0.4443  0.1395
 6172SOL    HW130149   4.401   3.450   6.666  0.1508 -0.3402 -0.1205
 6172SOL    HW230150   4.387   3.597   6.668 -2.5309  0.9356 -0.8531
 6173SOL     OW30151   0.994   1.752  13.894  0.1007 -0.0560 -0.1327
 6173SOL    HW130152   1.031   1.773  13.808  0.1529 -2.1240 -0.6356
 6173SOL    HW230153   1.072   1.731  13.946  1.6085  0.5656 -2.1205
 6174SOL     OW30154   3.483   0.778   6.274  0.2031 -0.0091  0.0706
 6174SOL    HW130155   3.540   0.751   6.346 -0.6877 -1.5361  0.1991
 6174SOL    HW230156   3.549   0.828   6.226  2.1074 -2.3643  0.2484
 6175SOL     OW30157   0.804   1.000   0.227  0.3034 -0.0680  0.1316
 6175SOL    HW130158   0.838   0.927   0.280  1.7948  2.3171  2.4492
 6175SOL    HW230159   0.864   1.064   0.264 -1.3330  0.7190  1.4213
 6176SOL     OW30160   4.432   1.947   5.782 -0.0441  0.6828  0.2944
 6176SOL    HW130161   4.459   1.876   5.840 -0.5548  0.3611  0.1447
 6176SOL    HW230162   4.349   1.910   5.750  1.7198 -0.7715 -2.5267
 6177SOL     OW30163   3.496   0.272   5.848  0.1036 -0.3308 -0.2070
 6177SOL    HW130164   3.418   0.223   5.873  0.5973 -0.7937  0.4269
 6177SOL    HW230165   3.521   0.316   5.929 -0.7895 -0.4476  0.1301
 6178SOL     OW30166   1.070   3.369   6.435 -0.2045 -0.2959  0.1528
 6178SOL    HW130167   1.041   3.356   6.344 -0.7286 -2.4111  0.6191
 6178SOL    HW230168   0.986   3.350   6.476  0.1498 -2.4634 -0.1015
 6179SOL     OW30169   0.519   0.745  17.572  0.1630 -0.0740 -0.2744
 6179SOL    HW130170   0.576   0.673  17.600 -1.8938 -1.7885 -0.4215
 6179SOL    HW230171   0.560   0.824  17.606  0.4819 -0.3704  0.0377
 6180SOL     OW30172   3.388   0.668   4.179  0.0868 -0.1303  0.1660
 6180SOL    HW130173   3.439   0.613   4.120 -0.6323 -0.7908  0.1426
 6180SOL    HW230174   3.457   0.728   4.207 -0.5536  0.4621  0.4819
 6181SOL     OW30175   2.924   1.254   7.227 -0.0381  0.0625 -0.3667
 6181SOL    HW130176   2.975   1.176   7.249 -0.0182  1.0466  3.0931
 6181SOL    HW230177   2.972   1.279   7.147 -0.4172  1.4230 -0.1800
 6182SOL     OW30178   3.195   0.493   5.058 -0.0991  0.0326 -0.5865
 6182SOL    HW130179   3.180   0.399   5.048  1.7633 -0.5900  2.4038
 6182SOL    HW230180   3.219   0.516   4.969 -1.7961 -3.2818 -1.8880
 6183SOL     OW30181   2.208   4.562   1.543  0.6247 -0.4118 -0.1293
 6183SOL    HW130182   2.148   4.634   1.524  0.7306  0.0094  1.1019
 6183SOL    HW230183   2.227   4.528   1.456  2.5176  1.7886 -0.5821
 6184SOL     OW30184   3.272   1.514   5.447 -0.1877  0.3955 -0.1596
 6184SOL    HW130185   3.359   1.513   5.409 -0.3944  0.9203 -0.6358
 6184SOL    HW230186   3.285   1.445   5.512 -0.3119  1.1438  0.6589
 6185SOL     OW30187   0.595   3.973   8.766  0.3199  0.5295 -0.0968
 6185SOL    HW130188   0.590   3.975   8.862 -0.4762 -0.0861 -0.1215
 6185SOL    HW230189   0.537   3.905   8.732  0.9293 -0.9623  1.8467
 6186SOL     OW30190   1.459   2.069  16.234 -0.7291  0.2550  0.5692
 6186SOL    HW130191   1.497   1.995  16.282  0.6871  1.7611  1.7719
 6186SOL    HW230192   1.408   2.108  16.305 -1.8767 -0.6806  0.2590
 6187SOL     OW30193   4.590   3.232   2.518  0.8273 -0.1708  0.4667
 6187SOL    HW130194   4.656   3.265   2.457 -1.8741  0.0976 -2.2906
 6187SOL    HW230195   4.523   3.208   2.454  1.0590  0.8638 -0.1594
 6188SOL     OW30196   2.974   3.680   2.178  0.1114  0.4166  0.2118
 6188SOL    HW130197   3.010   3.594   2.200 -0.8877  0.3820  1.7187
 6188SOL    HW230198   2.898   3.641   2.134  0.3004 -0.0158  0.2659
 6189SOL     OW30199   3.734   2.185   7.865  0.0238 -0.8634  0.3494
 6189SOL    HW130200   3.670   2.117   7.848 -0.7032 -0.1838  0.3534
 6189SOL    HW230201   3.807   2.123   7.869  1.9135  1.3780  0.6016
 6190SOL     OW30202   0.446   3.451   9.660 -0.9488  0.4776 -0.0663
 6190SOL    HW130203   0.428   3.359   9.638 -2.0053  0.2411  1.7670
 6190SOL    HW230204   0.364   3.485   9.696 -0.5799  2.3918 -1.0615
 6191SOL     OW30205   0.779   0.128   4.505 -0.0285  0.4160 -0.1640
 6191SOL    HW130206   0.793   0.097   4.415 -0.2598  1.2476 -0.4880
 6191SOL    HW230207   0.773   0.044   4.551 -1.2553 -0.3573 -1.7248
 6192SOL     OW30208   3.975   1.870   3.163 -0.0214  0.4933  0.0617
 6192SOL    HW130209   3.899   1.823   3.128  1.5349  0.4811 -3.2284
 6192SOL    HW230210   4.010   1.912   3.084  1.1117 -0.4399  0.0649
 6193SOL     OW30211   1.052   1.493  14.829 -0.3491 -0.2338  0.4065
 6193SOL    HW130212   1.053   1.499  14.734 -1.2404 -1.0642  0.3416
 6193SOL    HW230213   1.063   1.583  14.860 -2.3018 -0.8174  2.7670
 6194SOL     OW30214   2.384   2.493   1.243  0.4674  0.3435  0.1311
 6194SOL    HW130215   2.298   2.536   1.238  0.2804 -0.5047 -3.9245
 6194SOL    HW230216   2.439   2.570   1.228  1.2018 -0.2291 -0.0976
 6195SOL     OW30217   0.329   2.100   3.267 -0.3521 -0.6103 -0.4915
 6195SOL    HW130218   0.302   2.192   3.265 -0.2106 -0.6054 -2.0381
 6195SOL    HW230219   0.263   2.058   3.212  0.7549 -1.0642 -1.4567
 6196SOL     OW30220   2.223   0.719  10.522  0.0510 -0.2704 -0.2942
 6196SOL    HW130221   2.301   0.727  10.577 -1.5426 -1.9380  2.2323
 6196SOL    HW230222   2.163   0.693  10.592  0.0563 -1.0649 -0.5872
 6197SOL     OW30223   1.026   2.759   3.501 -0.0165 -0.6041  0.1592
 6197SOL    HW130224   1.039   2.666   3.486  0.4236 -0.4887 -0.1547
 6197SOL    HW230225   1.120   2.777   3.498 -0.1503  0.2369  0.7909
 6198SOL     OW30226   3.275   3.778   7.750 -0.2756 -0.2591  0.6544
 6198SOL    HW130227   3.233   3.710   7.802  1.1380  0.3981  2.6995
 6198SOL    HW230228   3.206   3.844   7.750 -0.5422 -0.5471 -0.8312
 6199SOL     OW30229   2.105   0.977   2.559  0.0183 -0.0733  0.6027
 6199SOL    HW130230   2.047   0.949   2.630  1.0996 -0.0595  1.4778
 6199SOL    HW230231   2.152   0.896   2.536 -0.6525 -0.7983  1.8001
 6200SOL     OW30232   0.378   0.648   8.909 -0.6099 -0.3914  0.0509
 6200SOL    HW130233   0.331   0.682   8.986  1.3000  2.3511 -0.0075
 6200SOL    HW230234   0.432   0.582   8.952 -1.1515 -0.5921  0.4331
 6201SOL     OW30235   1.802   1.447  12.799  0.1442 -0.0536  0.4885
 6201SOL    HW130236   1.889   1.415  12.820 -0.9849 -1.6703  2.6852
 6201SOL    HW230237   1.767   1.371  12.752  0.6452  0.2437 -0.3740
 6202SOL     OW30238   0.273   3.055   8.576 -0.1548 -0.2284  0.0314
 6202SOL    HW130239   0.184   3.027   8.555  0.3249 -0.6798 -1.4185
 6202SOL    HW230240   0.333   2.981   8.583 -1.9884 -1.7371 -0.1798
 6203SOL     OW30241   0.573   3.413   7.046 -0.5801  0.0450 -0.0177
 6203SOL    HW130242   0.533   3.470   6.980 -2.4838  0.2684  1.3244
 6203SOL    HW230243   0.664   3.440   7.052 -1.3910  2.9483 -0.5884
 6204SOL     OW30244   2.617   4.634   1.935  0.5057 -0.0896 -0.8541
 6204SOL    HW130245   2.565   4.599   1.863 -0.7881 -0.0892  0.0721
 6204SOL    HW230246   2.649   4.716   1.896 -1.6272  0.8108 -0.7314
 6205SOL     OW30247   3.250   3.257   5.734  0.5367 -0.4601  0.0523
 6205SOL    HW130248   3.238   3.163   5.723 -0.6202 -0.5107  1.7741
 6205SOL    HW230249   3.344   3.267   5.744 -0.0406  4.3090  0.7963
 6206SOL     OW30250   2.574   1.760   3.789  0.3900 -0.6650 -0.0937
 6206SOL    HW130251   2.641   1.705   3.831 -0.2525 -1.9968 -0.7940
 6206SOL    HW230252   2.494   1.735   3.836  0.7773 -1.8581 -0.0532
 6207SOL     OW30253   1.481   3.634   6.172 -0.0746 -0.3129  0.5985
 6207SOL    HW130254   1.426   3.654   6.248 -1.6824 -0.0518 -0.6562
 6207SOL    HW230255   1.508   3.721   6.142 -2.7281  0.6881  1.1929
 6208SOL     OW30256   1.906   4.181  12.801  0.4136  0.1679  0.1971
 6208SOL    HW130257   1.979   4.204  12.857  1.3692 -0.0905 -0.9274
 6208SOL    HW230258   1.898   4.259  12.747  1.7520 -1.1044 -1.8752
 6209SOL     OW30259   3.894   0.362   7.990  0.2574 -0.0295  0.0316
 6209SOL    HW130260   3.886   0.422   8.064 -2.9647  0.3889 -0.6576
 6209SOL    HW230261   3.987   0.340   7.990  0.7111  1.9579  1.5497
 6210SOL     OW30262   1.446   3.384   5.229  0.6214 -0.5616 -0.1012
 6210SOL    HW130263   1.410   3.326   5.295  0.7770  0.3361  0.7744
 6210SOL    HW230264   1.360   3.404   5.193  0.4452 -0.3533  0.4262
 6211SOL     OW30265   3.646   3.840  11.256  0.0593 -0.0693  0.1237
 6211SOL    HW130266   3.683   3.844  11.344  0.0347  0.4235  0.1147
 6211SOL    HW230267   3.633   3.745  11.258 -2.1321  0.2261  0.6493
 6212SOL     OW30268   0.740   0.588  14.614  0.0607  0.3437  0.9780
 6212SOL    HW130269   0.664   0.529  14.613  0.7918 -0.5709 -0.7386
 6212SOL    HW230270   0.692   0.667  14.638  0.2595  0.5320  0.7474
 6213SOL     OW30271   3.093   2.832   2.715  0.2336 -0.0418 -0.2124
 6213SOL    HW130272   3.187   2.851   2.714 -0.1008  1.6667  0.7811
 6213SOL    HW230273   3.052   2.911   2.681 -2.1794 -0.5755  1.4492
 6214SOL     OW30274   3.886   4.138  17.321  0.1961 -0.1223  0.1821
 6214SOL    HW130275   3.854   4.051  17.297 -0.9323  0.5546 -0.8163
 6214SOL    HW230276   3.802   4.184  17.314 -0.4852 -1.4466 -0.2626
 6215SOL     OW30277   3.061   2.114  14.738  0.4517  0.4182 -0.4884
 6215SOL    HW130278   3.072   2.028  14.696  0.3697  0.1838 -0.0264
 6215SOL    HW230279   3.124   2.119  14.810  1.3022 -0.2604 -1.1757
 6216SOL     OW30280   0.432   1.871   7.073 -0.2381 -0.0954  0.0069
 6216SOL    HW130281   0.495   1.821   7.022  0.4624  1.3076 -0.4997
 6216SOL    HW230282   0.481   1.946   7.105  0.1826 -0.4490  0.1838
 6217SOL     OW30283   1.257   0.974   2.141 -0.2665 -0.0158  0.4582
 6217SOL    HW130284   1.298   0.968   2.228 -2.0702  0.5741  1.3453
 6217SOL    HW230285   1.337   0.983   2.089 -1.9224 -0.1618 -2.1191
 6218SOL     OW30286   2.008   0.305  13.633 -0.4069  0.7156  0.2201
 6218SOL    HW130287   1.968   0.390  13.616  0.1690  0.9595  0.0805
 6218SOL    HW230288   1.977   0.301  13.724 -0.7015 -0.5670  0.0658
 6219SOL     OW30289   4.416   1.545   9.925 -0.1860 -0.1377 -0.0731
 6219SOL    HW130290   4.398   1.580   9.838  4.3800 -1.7055 -1.6173
 6219SOL    HW230291   4.366   1.605   9.981 -0.1469  1.7647 -2.0625
 6220SOL     OW30292   1.722   2.648   9.871 -0.2368  0.1572 -0.5748
 6220SOL    HW130293   1.679   2.580   9.819 -1.7601  0.5659  0.1682
 6220SOL    HW230294   1.694   2.730   9.831  0.9699 -0.3919 -2.5458
 6221SOL     OW30295   0.771   1.209   2.406  0.0986  0.2767 -0.0969
 6221SOL    HW130296   0.793   1.272   2.475 -0.6187  0.9862 -0.5144
 6221SOL    HW230297   0.801   1.252   2.325 -0.8927 -2.5395 -1.9493
 6222SOL     OW30298   1.116   3.085   0.742 -0.2125 -0.3591 -0.5260
 6222SOL    HW130299   1.055   3.014   0.722 -1.2170  0.8587 -1.8208
 6222SOL    HW230300   1.153   3.060   0.826 -0.3244 -0.9653 -0.6566
 6223SOL     OW30301   0.592   4.572   6.010 -0.0858 -0.1167  0.4890
 6223SOL    HW130302   0.584   4.533   6.098 -4.2998  0.2794  0.2779
 6223SOL    HW230303   0.501   4.599   5.999  0.8362  2.5589 -0.4417
 6224SOL     OW30304   3.201   1.930   2.793  0.4018 -0.1266 -0.3115
 6224SOL    HW130305   3.179   1.885   2.875 -1.1987  0.5068 -0.3815
 6224SOL    HW230306   3.143   2.007   2.791 -0.0319 -0.4090  0.9657
 6225SOL     OW30307   3.298   2.556   2.974 -0.0066  0.0658  0.0494
 6225SOL    HW130308   3.250   2.580   3.054 -2.1120 -0.0379 -1.2010
 6225SOL    HW230309   3.374   2.615   2.977 -1.7097  2.2600  0.1132
 6226SOL     OW30310   4.446   1.864  16.513 -0.0635 -0.1040  0.2495
 6226SOL    HW130311   4.496   1.934  16.470 -0.2564 -1.1549 -1.6387
 6226SOL    HW230312   4.439   1.899  16.603 -2.6920  2.1634 -0.8311
 6227SOL     OW30313   2.967   4.141   7.639  0.4409 -0.1326  0.2806
 6227SOL    HW130314   2.980   4.125   7.545  0.4924  1.7914 -0.0370
 6227SOL    HW230315   2.888   4.088   7.650 -1.4432  2.7728  0.7082
 6228SOL     OW30316   3.878   1.472   7.774 -0.9840 -0.1012  0.1931
 6228SOL    HW130317   3.901   1.402   7.713  2.5122  0.8899  0.3628
 6228SOL    HW230318   3.804   1.425   7.814 -2.1869 -0.7658 -2.8436
 6229SOL     OW30319   3.152   0.557   6.200 -0.0956 -0.2140  0.4012
 6229SOL    HW130320   3.098   0.542   6.278 -0.7044 -1.8344 -0.3355
 6229SOL    HW230321   3.087   0.565   6.131 -0.5344  0.8002  0.9347
 6230SOL     OW30322   0.904   1.144   6.603  0.6932  0.4227  0.5642
 6230SOL    HW130323   0.837   1.195   6.557  0.5217  0.0724  0.4259
 6230SOL    HW230324   0.921   1.204   6.676 -1.5491 -1.0794  2.3393
 6231SOL     OW30325   3.766   1.582   5.846 -0.1884  0.5583 -0.4284
 6231SOL    HW130326   3.763   1.490   5.818 -0.1946 -0.0963  1.7636
 6231SOL    HW230327   3.699   1.577   5.913 -1.6506  0.6153 -1.8825
 6232SOL     OW30328   3.237   1.784  11.364  0.2370  0.6698  0.0270
 6232SOL    HW130329   3.328   1.797  11.341  0.0899 -1.9998 -2.0507
 6232SOL    HW230330   3.255   1.717  11.431 -2.7402  0.6440  0.8412
 6233SOL     OW30331   1.785   3.846  11.454  0.0496 -0.3788 -0.0379
 6233SOL    HW130332   1.697   3.811  11.437 -0.3657  0.3701  0.5930
 6233SOL    HW230333   1.822   3.786  11.519  0.3650 -0.6137 -0.4323
 6234SOL     OW30334   4.671   0.333   8.631  0.3604  0.4364  0.1909
 6234SOL    HW130335   4.733   0.363   8.697  0.0916 -1.0648  1.1219
 6234SOL    HW230336   4.625   0.264   8.678  0.6041 -1.1786 -1.9759
 6235SOL     OW30337   1.978   2.623   3.422 -0.0228 -0.0106 -0.2893
 6235SOL    HW130338   1.956   2.665   3.339 -0.6276  0.6489  0.1962
 6235SOL    HW230339   2.036   2.688   3.462 -1.3297 -0.5324  2.5193
 6236SOL     OW30340   1.124   0.625   2.288  0.0185  0.0910 -0.8981
 6236SOL    HW130341   1.208   0.637   2.245  1.1920 -0.8117  1.1004
 6236SOL    HW230342   1.133   0.687   2.360  3.9945 -0.2272 -1.1038
 6237SOL     OW30343   2.297   3.848  15.211  0.4549  0.0034 -0.2368
 6237SOL    HW130344   2.220   3.795  15.189  0.0148  1.0094 -1.1276
 6237SOL    HW230345   2.287   3.846  15.306 -1.2653  2.2590 -0.3510
 6238SOL     OW30346   0.751   4.456  15.160  0.0883  0.6557  0.1235
 6238SOL    HW130347   0.747   4.363  15.137  2.1409 -0.1644  3.1067
 6238SOL    HW230348   0.828   4.453  15.217  0.6805  1.5308 -0.6344
 6239SOL     OW30349   2.334   0.236   7.541  0.7257  0.0436  0.1199
 6239SOL    HW130350   2.283   0.161   7.511  0.0944 -1.6106  5.4040
 6239SOL    HW230351   2.402   0.188   7.588  0.2601  0.1754  0.9186
 6240SOL     OW30352   3.644   1.629   4.726  0.3788  0.4105  0.6467
 6240SOL    HW130353   3.674   1.539   4.743 -0.0309 -0.3776 -2.6761
 6240SOL    HW230354   3.581   1.603   4.659  0.9138  1.8476 -0.3985
 6241SOL     OW30355   2.228   2.408  16.944 -0.3756 -0.3189 -0.4206
 6241SOL    HW130356   2.166   2.358  16.892  1.7382 -1.6077 -1.7210
 6241SOL    HW230357   2.204   2.381  17.033 -0.5120 -1.1224 -0.7019
 6242SOL     OW30358   0.155   1.523   1.989  0.0846 -0.3616 -0.5995
 6242SOL    HW130359   0.092   1.498   1.922  0.3553 -2.1539 -0.1810
 6242SOL    HW230360   0.157   1.446   2.045  0.8915 -0.5776 -0.9169
 6243SOL     OW30361   1.375   2.489   7.344 -0.3834  0.8312 -0.1217
 6243SOL    HW130362   1.335   2.411   7.382 -0.0730  0.8405  0.2256
 6243SOL    HW230363   1.448   2.514   7.400 -2.2039  1.0951  2.1330
 6244SOL     OW30364   4.056   4.688   6.219  0.3457 -0.5939 -0.1268
 6244SOL    HW130365   4.056   0.037   6.253 -2.2991 -0.9403  0.7807
 6244SOL    HW230366   4.113   4.698   6.142 -0.0269  0.9234 -0.2037
 6245SOL     OW30367   3.269   4.059  11.588  0.3159 -0.3643  0.0707
 6245SOL    HW130368   3.291   4.152  11.592 -1.5103  0.0542  0.5030
 6245SOL    HW230369   3.304   4.043  11.500 -0.4548  0.1523 -0.3260
 6246SOL     OW30370   3.532   0.352   7.906  0.4907 -0.1935  0.4568
 6246SOL    HW130371   3.571   0.433   7.940  0.3103 -1.0265  2.6373
 6246SOL    HW230372   3.545   0.291   7.979  0.9791  0.5412  0.9866
 6247SOL     OW30373   2.741   4.098   3.868 -0.0260  0.2203 -0.5125
 6247SOL    HW130374   2.764   4.011   3.900  0.7656  1.3284  2.0136
 6247SOL    HW230375   2.689   4.071   3.793  1.1372 -1.4549 -0.6942
 6248SOL     OW30376   2.469   0.943   2.119  0.1611  0.2227  0.3568
 6248SOL    HW130377   2.510   0.913   2.200 -1.8499 -4.0612 -0.2075
 6248SOL    HW230378   2.504   0.873   2.066 -2.8100 -0.2178 -1.0151
 6249SOL     OW30379   2.516   2.040   1.964 -0.0347 -0.4685  0.2863
 6249SOL    HW130380   2.601   2.054   2.006  0.6428 -0.2084 -1.1587
 6249SOL    HW230381   2.551   2.012   1.880  2.1684 -0.1285  1.0859
 6250SOL     OW30382   0.334   0.609   9.597  0.2538  0.2170  0.4064
 6250SOL    HW130383   0.306   0.667   9.668  0.3316  1.4646 -0.5853
 6250SOL    HW230384   0.405   0.563   9.641  0.2772  0.2503  0.4032
 6251SOL     OW30385   2.394   2.315   5.322  0.3010  0.2535 -0.3806
 6251SOL    HW130386   2.447   2.285   5.248  2.2682  1.0708  0.6857
 6251SOL    HW230387   2.309   2.330   5.281  0.3485 -1.2464 -1.0421
 6252SOL     OW30388   0.060   2.815   1.775  0.3424 -0.1657  0.1312
 6252SOL    HW130389   0.065   2.806   1.870 -2.8707 -2.5097  0.0702
 6252SOL    HW230390   0.095   2.730   1.748 -1.6020 -0.9133 -0.0206
 6253SOL     OW30391   2.899   0.287  13.661 -0.3707 -1.1393 -0.4818
 6253SOL    HW130392   2.807   0.312  13.674  0.0502 -0.1831  0.7061
 6253SOL    HW230393   2.917   0.314  13.571 -1.5445  1.8234  0.1573
 6254SOL     OW30394   1.670   3.536   2.540  0.2224  0.1238 -0.4265
 6254SOL    HW130395   1.750   3.578   2.573 -0.6790  0.2121  1.6572
 6254SOL    HW230396   1.666   3.459   2.597  3.4692  1.1655  1.1739
 6255SOL     OW30397   2.181   1.170   7.732  0.0415 -0.2066  0.4180
 6255SOL    HW130398   2.093   1.197   7.759  0.3999  0.6802  0.7145
 6255SOL    HW230399   2.179   1.077   7.750 -0.7600 -0.2444  0.1674
 6256SOL     OW30400   2.062   4.304   8.259  0.0658  0.1387  0.2508
 6256SOL    HW130401   1.980   4.325   8.303 -0.2825  1.7252 -1.1318
 6256SOL    HW230402   2.033   4.327   8.170  0.4478  1.5071  0.4817
 6257SOL     OW30403   2.005   2.056   4.563 -0.1040  0.4149  0.6948
 6257SOL    HW130404   2.023   1.977   4.512  0.3920  0.7059  0.4132
 6257SOL    HW230405   2.090   2.100   4.573  0.0796  0.0872  0.5706
 6258SOL     OW30406   3.293   4.619   1.545 -0.0658  0.6648  0.3087
 6258SOL    HW130407   3.252   4.601   1.629 -0.4416 -1.0168 -0.2360
 6258SOL    HW230408   3.224   4.627   1.479  1.2708 -3.9231 -1.6954
 6259SOL     OW30409   3.563   0.847   8.051  0.4822 -0.0849 -0.2178
 6259SOL    HW130410   3.513   0.827   8.130  0.6103  3.2133  0.7034
 6259SOL    HW230411   3.588   0.937   8.073 -2.2685  0.6731 -0.1664
 6260SOL     OW30412   0.567   4.719   3.410  0.0499 -0.1104  0.3205
 6260SOL    HW130413   0.587   0.065   3.444 -1.8436  0.8997 -1.1374
 6260SOL    HW230414   0.491   4.697   3.465 -0.2566  0.1360 -0.0002
 6261SOL     OW30415   1.774   4.193   2.371 -0.0611 -0.8129 -0.6677
 6261SOL    HW130416   1.828   4.218   2.297  1.7334  0.4853  1.0853
 6261SOL    HW230417   1.757   4.099   2.361 -1.2280 -0.8353  1.3558
 6262SOL     OW30418   0.600   4.036  13.347 -0.6793  0.1690 -0.3922
 6262SOL    HW130419   0.611   4.002  13.258  1.6301 -0.9222  0.2975
 6262SOL    HW230420   0.511   4.002  13.357 -0.2194 -1.2532 -1.1043
 6263SOL     OW30421   3.837   2.811   7.567 -0.0396  0.0868 -0.1413
 6263SOL    HW130422   3.744   2.810   7.586 -0.0277 -0.8126 -0.1489
 6263SOL    HW230423   3.842   2.732   7.513  0.6915  0.8963 -1.2677
 6264SOL     OW30424   1.510   4.024   9.769  0.0276  0.2137 -0.3735
 6264SOL    HW130425   1.582   3.968   9.739  1.2440  1.0067  1.0890
 6264SOL    HW230426   1.526   4.098   9.710  2.8339  0.9452  1.3041
 6265SOL     OW30427   0.690   1.610   3.277  0.3837 -0.1260  0.1179
 6265SOL    HW130428   0.607   1.656   3.268  0.7256  0.0203 -2.2649
 6265SOL    HW230429   0.741   1.682   3.314 -0.0210 -0.0198  0.4569
 6266SOL     OW30430   1.645   3.524   2.916  0.3809 -0.1318 -0.4485
 6266SOL    HW130431   1.645   3.462   2.989 -0.8793 -0.9091 -1.1132
 6266SOL    HW230432   1.647   3.465   2.841 -0.3175 -1.6940  0.7685
 6267SOL     OW30433   4.219   0.184  12.204  0.1054 -0.0659 -0.2066
 6267SOL    HW130434   4.207   0.278  12.216  0.1783 -0.0120 -0.5492
 6267SOL    HW230435   4.194   0.165  12.113  0.4132 -0.0890 -0.2887
 6268SOL     OW30436   0.010   3.416   5.978 -0.6801  0.1760 -0.3747
 6268SOL    HW130437   0.009   3.413   5.882  2.6500  1.1118 -0.4551
 6268SOL    HW230438   0.070   3.342   5.986 -1.3942 -0.3408  0.0879
 6269SOL     OW30439   2.874   0.701   8.296 -0.0381  0.3088 -0.5142
 6269SOL    HW130440   2.917   0.652   8.226 -0.7982  0.2187 -0.9105
 6269SOL    HW230441   2.930   0.678   8.370 -1.3136 -0.6518  0.1495
 6270SOL     OW30442   0.538   0.863   8.446  0.3726 -0.1355 -0.8391
 6270SOL    HW130443   0.446   0.880   8.424 -0.1946 -1.6910  0.3215
 6270SOL    HW230444   0.526   0.824   8.533 -1.6209  0.5706 -0.8061
 6271SOL     OW30445   0.918   2.115  13.413 -0.2673  0.6351  0.5249
 6271SOL    HW130446   0.877   2.172  13.478  1.3052  2.1019  0.2400
 6271SOL    HW230447   0.978   2.181  13.379  0.3628 -0.1317  0.1558
 6272SOL     OW30448   0.638   2.225   7.874  0.1366 -0.6903  0.2124
 6272SOL    HW130449   0.681   2.141   7.892 -0.3042 -0.8430  0.5623
 6272SOL    HW230450   0.650   2.280   7.951  0.7994 -1.2884  0.5288
 6273SOL     OW30451   3.610   1.619   8.075 -0.3499  0.2338  0.6151
 6273SOL    HW130452   3.522   1.606   8.110 -0.6105 -0.5598 -0.3430
 6273SOL    HW230453   3.618   1.714   8.087  2.1918 -0.0568  1.1055
 6274SOL     OW30454   4.639   3.549  10.912  0.3393 -0.1398  0.3089
 6274SOL    HW130455   4.717   3.583  10.867  1.0778  0.4638  2.0226
 6274SOL    HW230456   4.673   3.545  11.002  0.1624 -0.2114  0.3724
 6275SOL     OW30457   0.318   4.675  16.717  0.5367  0.2530  0.0718
 6275SOL    HW130458   0.342   4.691  16.626 -0.4917 -1.6074 -0.5291
 6275SOL    HW230459   0.237   4.724  16.727 -0.4661 -1.4295  0.2961
 6276SOL     OW30460   3.619   3.554  11.591 -0.0812 -0.2553  0.0602
 6276SOL    HW130461   3.569   3.483  11.632 -1.7710  0.7982 -0.1777
 6276SOL    HW230462   3.699   3.547  11.644 -1.0532  0.9946  1.6966
 6277SOL     OW30463   3.121   3.330  10.232 -0.0147 -0.4469 -0.0494
 6277SOL    HW130464   3.142   3.298  10.320 -1.6966 -0.4422  0.3522
 6277SOL    HW230465   3.130   3.247  10.184  1.9129 -0.4270  0.2767
 6278SOL     OW30466   4.675   3.886   9.006 -0.0361 -0.1328  0.2242
 6278SOL    HW130467   4.594   3.915   8.965 -0.9618 -0.6277  1.7118
 6278SOL    HW230468   4.721   3.848   8.931  1.1150  0.1643  0.7802
 6279SOL     OW30469   2.905   0.649   2.521 -0.1653 -0.2028 -0.2020
 6279SOL    HW130470   2.818   0.617   2.545 -1.3227  1.4186 -2.1449
 6279SOL    HW230471   2.960   0.571   2.518 -0.0362 -0.1356  0.4154
 6280SOL     OW30472   3.290   2.526  16.407 -0.1582  0.3273 -0.1037
 6280SOL    HW130473   3.239   2.548  16.484  1.3433  2.0266  0.3990
 6280SOL    HW230474   3.323   2.607  16.368  0.3479 -0.6228 -1.6755
 6281SOL     OW30475   0.095   1.159  16.195 -0.7414 -0.2025 -0.2955
 6281SOL    HW130476   0.083   1.238  16.143  2.1929  0.2152 -0.3561
 6281SOL    HW230477   0.080   1.190  16.283  1.6913 -1.1650  0.4739
 6282SOL     OW30478   1.319   2.380   5.725 -0.4555 -0.1664 -0.6182
 6282SOL    HW130479   1.338   2.440   5.653 -3.1027  0.7979 -0.4903
 6282SOL    HW230480   1.233   2.414   5.749  1.1704  1.6707  2.6575
 6283SOL     OW30481   2.166   2.318  17.305 -0.5400  0.3874 -0.7500
 6283SOL    HW130482   2.140   2.227  17.287 -0.7553  0.4677 -0.8511
 6283SOL    HW230483   2.186   2.321  17.398  0.2562  0.8153 -0.9341
 6284SOL     OW30484   2.588   0.857   2.353 -0.0995 -0.2979 -0.0916
 6284SOL    HW130485   2.593   0.762   2.367 -0.0391 -0.4273 -1.0304
 6284SOL    HW230486   2.682   0.870   2.340 -0.1232  0.8817  0.9493
 6285SOL     OW30487   2.641   0.530   8.230 -0.0912  0.3664 -0.7442
 6285SOL    HW130488   2.709   0.597   8.225  0.7123 -0.4110 -0.0731
 6285SOL    HW230489   2.609   0.543   8.319  0.5744  1.4978 -0.6708
 6286SOL     OW30490   0.972   2.678   9.140 -0.0772 -0.5294  0.0128
 6286SOL    HW130491   0.979   2.727   9.222  0.3751  2.2953 -1.7205
 6286SOL    HW230492   0.953   2.752   9.082 -0.2039  0.1156  0.8752
 6287SOL     OW30493   2.485   1.004   6.066 -0.2563 -0.9141  0.4803
 6287SOL    HW130494   2.442   0.995   5.981 -0.0501 -1.7376  0.4615
 6287SOL    HW230495   2.409   0.984   6.120 -0.4835  0.7658  0.7956
 6288SOL     OW30496   2.784   2.224  14.479 -0.3401  0.1015  0.5892
 6288SOL    HW130497   2.745   2.257  14.559 -1.0776 -2.7597  1.4223
 6288SOL    HW230498   2.850   2.163  14.513  0.4709 -0.4809 -2.0540
 6289SOL     OW30499   0.551   1.277   1.752 -0.5739 -0.7341  0.0186
 6289SOL    HW130500   0.615   1.215   1.788 -0.9334 -1.2573 -0.2510
 6289SOL    HW230501   0.593   1.362   1.768  1.2628 -1.5486 -0.4787
 6290SOL     OW30502   1.882   1.778   9.087 -0.1781  0.1275 -0.6449
 6290SOL    HW130503   1.788   1.791   9.098 -0.1233  1.6214 -1.8871
 6290SOL    HW230504   1.886   1.709   9.021 -0.5293  2.4859 -3.1475
 6291SOL     OW30505   3.891   3.825   9.668 -0.8427  0.2503 -0.1647
 6291SOL    HW130506   3.826   3.835   9.599  0.8422 -2.8959 -2.1858
 6291SOL    HW230507   3.826   3.826   9.738 -1.6588 -2.7328 -0.9163
 6292SOL     OW30508   3.793   2.544  16.113  0.0783 -0.6031  0.0286
 6292SOL    HW130509   3.735   2.499  16.176 -1.6983  1.7825  0.1096
 6292SOL    HW230510   3.867   2.488  16.133  0.3058 -1.3864 -3.1126
 6293SOL     OW30511   4.220   0.398   0.098 -0.5265  0.0282 -0.0565
 6293SOL    HW130512   4.183   0.431   0.180 -3.2499 -1.6782 -0.6065
 6293SOL    HW230513   4.306   0.371   0.132 -0.1230  0.5840 -0.6439
 6294SOL     OW30514   4.160   1.712   6.590 -0.4572 -0.1426  0.4066
 6294SOL    HW130515   4.108   1.755   6.657 -2.4078 -0.7421 -0.7089
 6294SOL    HW230516   4.089   1.710   6.525  0.2940  0.9282 -0.4471
 6295SOL     OW30517   2.042   0.602   4.355 -0.1436  0.7239  0.2820
 6295SOL    HW130518   1.971   0.666   4.349 -0.2262  0.5101 -0.8678
 6295SOL    HW230519   2.068   0.616   4.446 -1.8525  0.2580  0.8513
 6296SOL     OW30520   1.045   3.711   6.565  0.0810 -0.3717 -0.2236
 6296SOL    HW130521   0.984   3.761   6.511 -0.3401 -1.3413 -0.6300
 6296SOL    HW230522   1.114   3.679   6.507  1.0279 -1.5223  1.5432
 6297SOL     OW30523   4.512   1.926   7.974 -0.3601  0.4489 -0.3590
 6297SOL    HW130524   4.575   1.956   8.040 -2.9168  0.7210  1.9703
 6297SOL    HW230525   4.439   1.946   8.034  2.4349  0.6719  2.9879
 6298SOL     OW30526   4.371   1.189  15.796 -0.1192 -0.2712  0.0632
 6298SOL    HW130527   4.381   1.200  15.891  1.5842  1.8847 -0.3532
 6298SOL    HW230528   4.277   1.175  15.793  0.3174 -3.0467 -1.0755
 6299SOL     OW30529   4.405   3.706   4.555 -0.1689  0.4569 -0.0347
 6299SOL    HW130530   4.483   3.747   4.516 -1.0284  1.0694 -1.0905
 6299SOL    HW230531   4.438   3.655   4.629  1.5751  0.8175 -0.5496
 6300SOL     OW30532   3.288   4.317  10.809  0.4838 -0.2294 -0.3107
 6300SOL    HW130533   3.341   4.273  10.875  0.8151 -0.1253 -0.5056
 6300SOL    HW230534   3.229   4.373  10.861 -0.6872 -3.2380  1.5777
 6301SOL     OW30535   2.174   2.551  10.386  0.4218 -0.4289  0.4553
 6301SOL    HW130536   2.166   2.646  10.392 -0.8935 -0.5868  1.0751
 6301SOL    HW230537   2.086   2.537  10.352  1.1966 -0.9478 -1.3606
 6302SOL     OW30538   2.357   0.673   5.177 -0.3250 -0.4789  0.0473
 6302SOL    HW130539   2.436   0.724   5.194 -1.3533  0.8032  0.9675
 6302SOL    HW230540   2.302   0.750   5.165 -1.8298 -1.4510  0.7315
 6303SOL     OW30541   3.102   0.473   7.695  0.4153  0.5740 -0.0978
 6303SOL    HW130542   3.162   0.430   7.756 -0.6081 -1.1873 -0.3431
 6303SOL    HW230543   3.146   0.476   7.610  0.2244 -2.5605 -0.2837
 6304SOL     OW30544   4.245   0.476   9.098 -0.1669  0.5359 -0.5904
 6304SOL    HW130545   4.318   0.427   9.137 -1.8342 -1.8851 -0.5558
 6304SOL    HW230546   4.274   0.563   9.128 -0.8844  0.6309 -0.1873
 6305SOL     OW30547   3.030   4.542   3.523 -0.4068 -0.1062  0.1339
 6305SOL    HW130548   2.954   4.491   3.496 -0.6590  0.4448 -0.2077
 6305SOL    HW230549   3.071   4.485   3.589  0.4495 -1.7880 -1.8574
 6306SOL     OW30550   1.147   4.294  10.013 -0.1037  0.4864 -0.0966
 6306SOL    HW130551   1.090   4.226  10.051 -0.9234  0.6309 -1.0751
 6306SOL    HW230552   1.193   4.320  10.093  0.9478  0.3684 -0.6733
 6307SOL     OW30553   0.609   0.940   5.271 -0.0616  0.1773 -0.3893
 6307SOL    HW130554   0.580   1.024   5.236  0.5569  0.7369  0.4282
 6307SOL    HW230555   0.536   0.879   5.264  0.1644 -0.0892 -0.4049
 6308SOL     OW30556   1.218   2.595   8.205 -0.1750  0.3763 -0.2196
 6308SOL    HW130557   1.255   2.612   8.118 -0.3598  2.2443  0.0668
 6308SOL    HW230558   1.180   2.680   8.227  0.2679  0.7306 -0.8295
 6309SOL     OW30559   3.899   2.938   4.215  0.1077 -0.2168 -0.2482
 6309SOL    HW130560   3.963   3.003   4.184 -0.0677  0.2118  0.2916
 6309SOL    HW230561   3.838   2.926   4.142  0.1743  1.9086 -0.6709
 6310SOL     OW30562   1.028   0.925   4.392 -0.3227  0.2800 -0.3188
 6310SOL    HW130563   1.015   0.830   4.386 -3.9185  0.6337  1.7703
 6310SOL    HW230564   1.117   0.932   4.425 -0.3189 -0.0135 -0.2719
 6311SOL     OW30565   1.196   0.253   9.444 -0.6615 -0.2930 -0.2146
 6311SOL    HW130566   1.292   0.243   9.440 -0.6557  0.2891 -1.2812
 6311SOL    HW230567   1.155   0.168   9.460 -1.7730 -0.0206 -1.7387
 6312SOL     OW30568   3.846   0.223  14.660 -0.4362 -0.3071 -0.4176
 6312SOL    HW130569   3.897   0.142  14.654  0.9670  0.4185  1.7803
 6312SOL    HW230570   3.880   0.280  14.591 -1.6501  0.6846 -0.1850
 6313SOL     OW30571   4.640   3.288  16.567  0.1039  0.1875  0.3989
 6313SOL    HW130572   4.568   3.228  16.586 -0.0007 -0.0394 -0.7102
 6313SOL    HW230573   4.631   3.366  16.622 -2.6052  0.5899 -0.6011
 6314SOL     OW30574   4.224   0.635  13.635  0.3595 -1.0923 -0.2643
 6314SOL    HW130575   4.138   0.636  13.592 -1.0103  2.3635  2.5685
 6314SOL    HW230576   4.218   0.723  13.672  0.8965 -0.3070 -2.0290
 6315SOL     OW30577   1.841   2.581   7.799  0.0435 -0.3545 -0.4867
 6315SOL    HW130578   1.746   2.575   7.788 -0.0299  3.0988 -1.7364
 6315SOL    HW230579   1.859   2.548   7.711  0.3352 -2.1707  0.2480
 6316SOL     OW30580   0.685   1.847   8.958  0.0256  0.1257  0.1065
 6316SOL    HW130581   0.746   1.813   9.024  1.3503  0.6555 -0.8639
 6316SOL    HW230582   0.606   1.796   8.979 -0.0612 -0.4994 -1.8304
 6317SOL     OW30583   1.112   0.287   4.108 -0.1629 -0.5457 -0.8406
 6317SOL    HW130584   1.198   0.324   4.128 -0.4770 -0.5541  0.5197
 6317SOL    HW230585   1.143   0.221   4.045  0.2968 -2.2248  1.1060
 6318SOL     OW30586   3.151   3.341   7.990 -0.3831 -0.6733  0.6406
 6318SOL    HW130587   3.137   3.424   7.945 -0.3024 -2.6129 -2.9211
 6318SOL    HW230588   3.069   3.327   8.038 -2.8144 -1.0010 -3.5723
 6319SOL     OW30589   2.284   0.517  16.735 -0.2818 -0.4188  0.2219
 6319SOL    HW130590   2.227   0.457  16.784 -0.2182 -0.5886  0.0864
 6319SOL    HW230591   2.365   0.468  16.727  0.4065  0.5401  1.2979
 6320SOL     OW30592   0.042   1.586   6.583 -0.2751 -0.1004  0.0698
 6320SOL    HW130593   4.695   1.557   6.560 -1.2542  1.3596  2.0449
 6320SOL    HW230594   0.041   1.676   6.552 -1.9883 -0.2404 -0.2768
 6321SOL     OW30595   2.753   1.525   4.252 -0.3620  0.1704 -0.5110
 6321SOL    HW130596   2.792   1.461   4.312 -1.3963  0.4067  0.3972
 6321SOL    HW230597   2.672   1.480   4.229 -0.1936 -1.5422  2.3478
 6322SOL     OW30598   0.904   4.592  14.944  0.5720  0.3050  0.1636
 6322SOL    HW130599   0.978   4.590  15.004  1.2364  1.3077 -0.6313
 6322SOL    HW230600   0.829   4.598  15.004  1.1214 -2.0314  1.0861
 6323SOL     OW30601   0.543   1.327   0.181 -0.1146 -0.2926  0.5333
 6323SOL    HW130602   0.574   1.360   0.096 -0.7208 -1.7120 -0.2452
 6323SOL    HW230603   0.627   1.294   0.213  0.2083  0.3394  0.3443
 6324SOL     OW30604   1.432   3.323   9.213 -0.2929  0.2192  0.6220
 6324SOL    HW130605   1.493   3.277   9.270  0.6664  0.7671  0.0411
 6324SOL    HW230606   1.457   3.415   9.227  0.4500  0.1626 -0.3156
 6325SOL     OW30607   0.634   2.034  12.376  0.0857 -0.4923  0.3204
 6325SOL    HW130608   0.549   1.993  12.392 -0.5165  0.1225 -1.2147
 6325SOL    HW230609   0.598   2.122  12.358  1.3134 -0.2635 -1.0645
 6326SOL     OW30610   0.164   0.328   2.847  0.7969  0.3646  0.2620
 6326SOL    HW130611   0.196   0.252   2.896  1.1292  0.0299 -0.4720
 6326SOL    HW230612   0.225   0.319   2.774  0.2046 -0.5126 -0.1227
 6327SOL     OW30613   4.089   2.873   0.550 -0.1964 -0.0124 -0.4618
 6327SOL    HW130614   4.119   2.918   0.470 -1.2027 -0.5853 -1.1641
 6327SOL    HW230615   3.994   2.878   0.543 -0.0187  3.4764 -0.5591
 6328SOL     OW30616   0.048   1.286   4.205  0.1688  0.4203 -0.0698
 6328SOL    HW130617   0.055   1.201   4.160  1.7636 -0.2767  1.5014
 6328SOL    HW230618   0.130   1.295   4.252 -0.8818  3.2142  1.2055
 6329SOL     OW30619   2.631   3.471   4.000 -0.1366 -0.2258 -0.2224
 6329SOL    HW130620   2.656   3.413   3.927  0.1640 -0.9358  0.4354
 6329SOL    HW230621   2.686   3.452   4.076 -0.2824  1.5405  0.3199
 6330SOL     OW30622   0.227   1.679  12.845  0.2521  0.3041 -0.8062
 6330SOL    HW130623   0.155   1.738  12.866  0.0994 -0.2139  0.1636
 6330SOL    HW230624   0.304   1.721  12.881 -0.2774  0.0774  0.6018
 6331SOL     OW30625   2.652   2.174   9.661 -0.1670  0.9224 -0.5095
 6331SOL    HW130626   2.686   2.157   9.749  0.4649 -2.2365 -1.3655
 6331SOL    HW230627   2.734   2.160   9.615 -1.4779 -0.9564 -2.2558
 6332SOL     OW30628   3.011   2.265   5.704  0.1930  0.7632  0.4596
 6332SOL    HW130629   2.931   2.282   5.754 -0.7602  0.4817 -0.9635
 6332SOL    HW230630   2.993   2.177   5.670  0.9476  1.0264 -0.6361
 6333SOL     OW30631   2.374   0.850   9.238  0.2549 -0.6002 -0.1649
 6333SOL    HW130632   2.426   0.793   9.181  1.2590  0.8831 -0.7238
 6333SOL    HW230633   2.320   0.776   9.267  0.1317 -0.0277  1.0869
 6334SOL     OW30634   0.267   3.304   6.020  1.2085 -0.1728 -0.9305
 6334SOL    HW130635   0.328   3.377   6.016  2.5007 -1.3368 -2.3287
 6334SOL    HW230636   0.315   3.245   5.962  1.0252 -1.5460  0.3005
 6335SOL     OW30637   4.261   1.902   2.014  0.4507  0.4408  0.1840
 6335SOL    HW130638   4.283   1.900   2.107  0.5327  0.7114  0.1704
 6335SOL    HW230639   4.262   1.996   1.995 -0.5344  0.2337 -0.9165
 6336SOL     OW30640   4.591   4.076   6.491 -0.2561  0.7838 -0.4861
 6336SOL    HW130641   4.685   4.092   6.501 -0.1142 -0.2976 -0.0611
 6336SOL    HW230642   4.574   4.065   6.584  1.1187 -0.1277 -0.3294
 6337SOL     OW30643   3.595   0.544   6.637  0.5342 -0.1185  0.3371
 6337SOL    HW130644   3.654   0.559   6.563 -0.7024 -1.6857 -0.9742
 6337SOL    HW230645   3.528   0.605   6.607  0.1024 -0.8431 -0.1800
 6338SOL     OW30646   2.146   3.182   2.296  0.0505 -0.1798  0.0234
 6338SOL    HW130647   2.205   3.112   2.267  0.2515 -0.2624  0.6451
 6338SOL    HW230648   2.179   3.257   2.248 -2.3203  1.2730  0.6416
 6339SOL     OW30649   3.707   0.924   8.475  0.0154 -0.2503  0.0151
 6339SOL    HW130650   3.668   0.926   8.562 -1.1579 -0.0422 -0.5246
 6339SOL    HW230651   3.662   0.849   8.437  0.6491  0.3957 -2.0173
 6340SOL     OW30652   2.318   2.758   9.640 -0.2276 -0.3382  0.3064
 6340SOL    HW130653   2.325   2.853   9.652  3.5163 -0.8206  1.8867
 6340SOL    HW230654   2.247   2.750   9.704  1.3088 -0.9233  1.9482
 6341SOL     OW30655   2.342   3.183   1.025 -0.3255 -0.2529 -0.7114
 6341SOL    HW130656   2.251   3.159   1.004 -1.3482  2.4463  0.6781
 6341SOL    HW230657   2.356   3.272   0.992  2.1285  0.1882  1.5411
 6342SOL     OW30658   1.529   3.128  16.249 -0.0474 -0.1802 -0.0580
 6342SOL    HW130659   1.574   3.176  16.179  0.5118  1.3187  1.3404
 6342SOL    HW230660   1.598   3.070  16.282 -1.1682 -1.7238 -0.4328
 6343SOL     OW30661   3.018   3.975   1.407  0.0150 -0.1699 -0.6512
 6343SOL    HW130662   2.994   4.046   1.465  1.0085  0.4747 -1.0332
 6343SOL    HW230663   2.939   3.921   1.403 -1.9838  2.8560 -1.3383
 6344SOL     OW30664   2.011   3.127   8.184  0.4371 -0.3688 -0.0117
 6344SOL    HW130665   1.938   3.070   8.158  0.3928 -2.0586  3.8588
 6344SOL    HW230666   2.020   3.097   8.274 -2.0397 -0.1226  0.3333
 6345SOL     OW30667   3.270   1.814  15.659  0.1074 -0.5022 -0.0758
 6345SOL    HW130668   3.236   1.728  15.686  1.0004 -1.1609 -1.0442
 6345SOL    HW230669   3.328   1.836  15.732  0.8740 -1.7585 -0.3097
 6346SOL     OW30670   1.046   2.919   7.957 -0.5612 -0.0172  0.1319
 6346SOL    HW130671   0.959   2.946   7.987 -0.0006  0.1412  1.6671
 6346SOL    HW230672   1.093   2.991   8.000 -1.6911  1.6042 -1.3529
 6347SOL     OW30673   4.015   3.904  10.842  0.5598  0.1034  0.4046
 6347SOL    HW130674   3.945   3.920  10.905 -0.7709  2.3974 -1.6318
 6347SOL    HW230675   4.014   3.809  10.835 -1.6247  0.1269  0.5426
 6348SOL     OW30676   2.719   3.797  11.148  0.3876 -0.3244 -0.0398
 6348SOL    HW130677   2.802   3.837  11.174  0.4018 -0.4092  0.0449
 6348SOL    HW230678   2.667   3.855  11.203 -0.9699 -1.9520  0.4015
 6349SOL     OW30679   4.417   2.143   6.963  0.2072 -0.5367 -0.0077
 6349SOL    HW130680   4.411   2.109   6.873  1.5696 -0.9809  0.0756
 6349SOL    HW230681   4.506   2.109   6.973  1.0353  1.4313 -0.7770
 6350SOL     OW30682   3.767   2.702  14.518  0.1316 -0.4770  0.1622
 6350SOL    HW130683   3.803   2.700  14.430 -2.1156  0.8683 -0.7922
 6350SOL    HW230684   3.833   2.643  14.555  1.5972  1.0132 -0.1220
 6351SOL     OW30685   1.410   3.745   3.780  0.3193 -0.4096  0.1234
 6351SOL    HW130686   1.502   3.743   3.807 -0.7738  0.3490  4.0177
 6351SOL    HW230687   1.377   3.785   3.860 -0.5442 -1.1391  0.1336
 6352SOL     OW30688   1.468   4.167   1.766 -0.6681  0.5397  0.3051
 6352SOL    HW130689   1.502   4.137   1.850  0.7631  0.5858 -0.2551
 6352SOL    HW230690   1.374   4.174   1.786 -1.2324 -0.8212 -1.8932
 6353SOL     OW30691   1.335   4.103   7.025 -0.1996 -0.1694  0.0593
 6353SOL    HW130692   1.361   4.194   7.018  0.1420 -0.1574  1.5417
 6353SOL    HW230693   1.301   4.108   7.114 -1.2000 -0.1694 -0.3193
 6354SOL     OW30694   0.677   2.848   2.640 -0.2223 -0.2014  0.0949
 6354SOL    HW130695   0.625   2.802   2.574 -2.0808  1.8653  0.1265
 6354SOL    HW230696   0.755   2.885   2.598 -2.6430  1.4906 -2.8655
 6355SOL     OW30697   3.732   2.328   4.002  0.0534 -0.0085  0.4379
 6355SOL    HW130698   3.791   2.400   4.023 -1.1234  1.4160 -1.1118
 6355SOL    HW230699   3.723   2.337   3.907  1.4101 -1.0831  0.2211
 6356SOL     OW30700   2.469   4.719  13.992 -0.2832  0.2340 -0.0555
 6356SOL    HW130701   2.448   0.070  14.010  1.7288  0.6309  0.2749
 6356SOL    HW230702   2.476   4.683  14.081 -1.7095 -0.1147 -0.0878
 6357SOL     OW30703   2.425   4.307   1.481  0.3426 -0.1457  0.3710
 6357SOL    HW130704   2.353   4.304   1.543 -1.1161 -0.6027 -1.3325
 6357SOL    HW230705   2.375   4.282   1.403 -0.5687 -1.9881  1.5595
 6358SOL     OW30706   2.039   1.350   8.465  0.2426  0.0520  0.4957
 6358SOL    HW130707   1.995   1.273   8.500 -0.2540  0.8877  1.7071
 6358SOL    HW230708   2.123   1.343   8.510  0.2151  1.9172  0.8466
 6359SOL     OW30709   3.642   3.762   9.109  0.4338  0.0318 -0.4192
 6359SOL    HW130710   3.645   3.731   9.200 -0.1562  2.9915  0.6313
 6359SOL    HW230711   3.676   3.682   9.070 -1.3870 -0.3754 -1.1849
 6360SOL     OW30712   1.097   3.282   7.835  0.0387  0.4158 -0.5875
 6360SOL    HW130713   1.089   3.241   7.921 -3.2481 -1.9333 -1.9920
 6360SOL    HW230714   1.032   3.352   7.848  1.6903  2.2032 -2.0795
 6361SOL     OW30715   2.593   2.576   2.533  0.0205 -0.8057 -0.7632
 6361SOL    HW130716   2.653   2.631   2.483 -0.2486 -0.8167 -1.0941
 6361SOL    HW230717   2.571   2.632   2.607  1.1547 -0.2504 -0.8423
 6362SOL     OW30718   1.995   1.564  13.091  0.3974 -0.0171 -0.0046
 6362SOL    HW130719   2.045   1.529  13.165 -0.2803 -0.7651  0.0974
 6362SOL    HW230720   2.025   1.502  13.024  0.6371  0.3304 -0.2179
 6363SOL     OW30721   3.432   1.998  12.305 -0.0601 -0.3191  0.8035
 6363SOL    HW130722   3.406   2.088  12.287 -0.5029 -0.9811 -1.7718
 6363SOL    HW230723   3.454   2.006  12.398  0.2639 -0.6126  0.7536
 6364SOL     OW30724   3.231   1.026   5.780 -0.2284  0.6974  0.7967
 6364SOL    HW130725   3.285   1.014   5.703 -2.8066  2.6969 -1.3289
 6364SOL    HW230726   3.165   0.957   5.776 -0.8890  1.4396 -0.9765
 6365SOL     OW30727   4.075   0.628   9.777  0.2597  0.2153  0.0164
 6365SOL    HW130728   4.089   0.591   9.865 -0.0719  0.5195  0.1971
 6365SOL    HW230729   3.989   0.660   9.802 -0.5673 -0.3022 -2.2116
 6366SOL     OW30730   0.028   0.053   3.462 -0.0810  0.1919  0.4259
 6366SOL    HW130731   4.686   0.032   3.505  0.6369 -0.1985  1.6256
 6366SOL    HW230732   0.028   4.727   3.395  0.9078  2.5510 -1.9259
 6367SOL     OW30733   2.750   2.896  16.308 -0.0743  0.1182 -0.2351
 6367SOL    HW130734   2.749   2.890  16.404  0.8087 -0.4275 -0.2617
 6367SOL    HW230735   2.762   2.803  16.291  2.4393  0.0446  1.9192
 6368SOL     OW30736   1.516   0.572   6.734  0.2686 -0.2536  0.0728
 6368SOL    HW130737   1.505   0.597   6.643 -0.2312  0.6411  0.3702
 6368SOL    HW230738   1.446   0.624   6.775  0.6696 -0.4090  0.9646
 6369SOL     OW30739   4.678   4.367   0.503  0.1476  0.3161 -0.6209
 6369SOL    HW130740   4.734   4.359   0.580 -2.5891  1.4052  1.4850
 6369SOL    HW230741   4.617   4.433   0.536  1.8214  2.1729 -1.2487
 6370SOL     OW30742   3.047   2.659   6.747 -0.4517  0.0419 -0.5679
 6370SOL    HW130743   3.006   2.628   6.667 -0.5934 -1.0639 -0.0704
 6370SOL    HW230744   3.034   2.753   6.735 -1.5809 -0.1865 -1.1535
 6371SOL     OW30745   1.832   1.525  15.353 -0.2369  0.4663 -0.1028
 6371SOL    HW130746   1.869   1.560  15.434 -1.6217  0.3133  0.5973
 6371SOL    HW230747   1.797   1.441  15.382 -0.9211  0.8475  0.1713
 6372SOL     OW30748   0.300   0.376   7.400  0.3536 -0.3543 -0.1739
 6372SOL    HW130749   0.350   0.299   7.374 -0.3457 -2.1202  3.7591
 6372SOL    HW230750   0.367   0.444   7.410  1.0244 -1.1458  0.6372
 6373SOL     OW30751   0.948   3.486   8.265  0.5117 -0.3760  0.0822
 6373SOL    HW130752   1.019   3.469   8.327  1.3695  1.5389 -0.3671
 6373SOL    HW230753   0.879   3.461   8.327  0.8443  0.6312  0.8511
 6374SOL     OW30754   3.114   1.142   9.997  0.1186 -0.4238 -0.4378
 6374SOL    HW130755   3.032   1.152   9.949  0.3921  0.9233 -0.6188
 6374SOL    HW230756   3.094   1.081  10.068  1.2452  0.4322  0.6285
 6375SOL     OW30757   0.450   0.292   6.365 -0.2912 -0.2750 -0.1013
 6375SOL    HW130758   0.440   0.373   6.315 -4.0655  1.5366  3.5962
 6375SOL    HW230759   0.414   0.317   6.450 -0.0710  1.7946 -0.6096
 6376SOL     OW30760   3.133   2.629   9.999  0.2611 -0.4196  0.0701
 6376SOL    HW130761   3.057   2.671  10.039  1.1221  1.6198 -0.4312
 6376SOL    HW230762   3.094   2.550   9.961 -0.3997 -0.6523  1.2277
 6377SOL     OW30763   1.958   4.101  14.679  0.0685 -0.3151 -0.4536
 6377SOL    HW130764   2.052   4.090  14.695 -0.2825  2.0446  3.0574
 6377SOL    HW230765   1.935   4.011  14.657 -2.0434 -0.0111  0.5549
 6378SOL     OW30766   3.473   2.100   3.023 -0.1956  0.2216  0.5712
 6378SOL    HW130767   3.564   2.131   3.026 -0.4274  0.9596 -0.1126
 6378SOL    HW230768   3.462   2.070   2.933 -2.6410  1.4729  0.4361
 6379SOL     OW30769   1.714   3.298  16.108 -0.0450 -0.2822 -0.7123
 6379SOL    HW130770   1.749   3.292  16.019  1.3267 -0.6913 -0.1516
 6379SOL    HW230771   1.687   3.389  16.097 -1.0978 -0.5665 -0.4142
 6380SOL     OW30772   4.736   0.165   4.691 -0.4806  1.0749 -0.1179
 6380SOL    HW130773   4.669   0.097   4.704  0.6900 -0.2519 -0.9782
 6380SOL    HW230774   4.735   0.173   4.596 -0.8096 -1.4311 -0.3289
 6381SOL     OW30775   2.048   1.942   2.055 -0.1752 -0.0066  0.1967
 6381SOL    HW130776   1.954   1.931   2.071  0.2810 -1.8030  1.4883
 6381SOL    HW230777   2.048   1.917   1.962  4.2911 -0.3275  0.3050
 6382SOL     OW30778   3.348   3.534   3.178  0.0732 -0.0349  0.1778
 6382SOL    HW130779   3.425   3.518   3.123 -0.8288  1.0024 -1.3897
 6382SOL    HW230780   3.388   3.524   3.265  2.0212 -0.8632 -0.8173
 6383SOL     OW30781   4.104   3.943   5.313 -0.2418 -0.2180 -0.1550
 6383SOL    HW130782   4.060   3.965   5.396  0.3822 -0.6782  0.3032
 6383SOL    HW230783   4.130   3.852   5.329  0.3381 -0.0464 -0.1430
 6384SOL     OW30784   0.703   1.115   3.455  0.4223 -0.4257  0.0005
 6384SOL    HW130785   0.696   1.049   3.524 -0.5520  0.5119  0.7961
 6384SOL    HW230786   0.787   1.156   3.476  0.4240 -0.1507 -0.5500
 6385SOL     OW30787   4.434   3.496   9.027  0.4610  0.5683 -0.0956
 6385SOL    HW130788   4.377   3.545   9.085 -0.0202 -0.8117  0.5905
 6385SOL    HW230789   4.520   3.508   9.067  0.4766  0.2159 -0.0230
 6386SOL     OW30790   2.845   0.363   7.902 -0.6760  0.3913 -0.2670
 6386SOL    HW130791   2.881   0.276   7.889  0.8770  1.0486 -0.3389
 6386SOL    HW230792   2.822   0.390   7.813 -0.1161 -1.4997 -0.9892
 6387SOL     OW30793   1.902   2.102   5.715  0.1865  0.0686  0.8485
 6387SOL    HW130794   1.824   2.047   5.707  0.9742 -0.6198 -2.0327
 6387SOL    HW230795   1.874   2.180   5.763 -0.0145  0.8576 -0.5622
 6388SOL     OW30796   4.175   1.608   4.035 -0.4914 -0.8091  0.3158
 6388SOL    HW130797   4.141   1.671   3.971  1.7963  1.3534  1.2076
 6388SOL    HW230798   4.176   1.659   4.116 -0.0734 -0.6457  0.2100
 6389SOL     OW30799   0.538   3.198  12.575  0.5891  0.3512  0.0882
 6389SOL    HW130800   0.449   3.192  12.611 -0.4269  0.0335 -2.4537
 6389SOL    HW230801   0.569   3.111  12.600 -1.2203 -0.5116 -0.5947
 6390SOL     OW30802   2.109   1.376   2.474  0.2689  0.5456 -0.7622
 6390SOL    HW130803   2.105   1.468   2.446 -0.4234  1.0447  1.0269
 6390SOL    HW230804   2.189   1.341   2.434  0.7151  0.3331  0.3083
 6391SOL     OW30805   2.043   0.810   5.931 -0.0197 -0.2705 -0.1219
 6391SOL    HW130806   2.083   0.762   5.859  2.0400  2.3675 -0.7517
 6391SOL    HW230807   1.953   0.823   5.899  0.1960  0.0648 -0.6019
 6392SOL     OW30808   2.348   1.308  13.830  0.1188  0.3935  0.4447
 6392SOL    HW130809   2.292   1.351  13.894  0.6001  0.7276  0.6350
 6392SOL    HW230810   2.369   1.372  13.762  3.0020 -1.5911 -0.5495
 6393SOL     OW30811   4.480   2.211   5.017  0.0161 -0.7397 -0.4652
 6393SOL    HW130812   4.501   2.120   5.037 -1.5326 -1.8189 -3.7020
 6393SOL    HW230813   4.496   2.251   5.103  1.5475  1.2413 -1.6727
 6394SOL     OW30814   4.065   1.612   1.415  0.2347 -0.3554  0.0247
 6394SOL    HW130815   4.128   1.646   1.479 -1.0781  2.6827 -0.2494
 6394SOL    HW230816   4.086   1.521   1.397  0.9778  0.0959 -1.3457
 6395SOL     OW30817   4.718   1.971   0.251 -0.6448  0.0065 -0.0047
 6395SOL    HW130818   4.723   1.913   0.175 -0.0156  0.1212 -0.0540
 6395SOL    HW230819   0.069   1.997   0.250 -0.9001  0.8885 -0.8461
 6396SOL     OW30820   3.942   1.683  10.295 -0.6651 -0.3451  0.5141
 6396SOL    HW130821   3.959   1.595  10.328 -2.2525 -0.8007  0.1146
 6396SOL    HW230822   3.903   1.673  10.208  0.0828 -0.2917  0.1704
 6397SOL     OW30823   0.789   3.909  12.837  0.4678 -0.0110 -0.1833
 6397SOL    HW130824   0.788   3.858  12.756 -1.6972  2.2957 -1.6389
 6397SOL    HW230825   0.825   3.987  12.794  0.0862 -1.1552 -2.5937
 6398SOL     OW30826   0.094   0.151   8.450  0.3866  0.5633  0.2014
 6398SOL    HW130827   0.123   0.079   8.506  0.5439  1.1233  0.8509
 6398SOL    HW230828   0.131   0.232   8.486  0.3940  0.2156  0.9901
 6399SOL     OW30829   2.121   4.596   7.115  0.2610  0.1974  0.2991
 6399SOL    HW130830   2.076   4.673   7.080 -2.5994 -0.9427  1.5215
 6399SOL    HW230831   2.211   4.616   7.087 -0.0597  1.0925 -0.0815
 6400SOL     OW30832   2.088   2.896  10.000  0.0596 -0.9186 -0.8013
 6400SOL    HW130833   2.092   2.821   9.941 -0.8660 -0.0140 -2.0381
 6400SOL    HW230834   1.996   2.921   9.987  0.2974 -0.0846 -0.9315
 6401SOL     OW30835   0.488   0.120   0.596 -0.5506  0.2713 -0.2557
 6401SOL    HW130836   0.425   0.114   0.523 -0.0246  0.1440 -0.6959
 6401SOL    HW230837   0.559   0.158   0.545  1.2105  1.2805  2.9577
 6402SOL     OW30838   2.690   4.629   5.458 -0.2837 -0.5481  0.0817
 6402SOL    HW130839   2.760   4.593   5.404  0.3128 -0.6650  0.9275
 6402SOL    HW230840   2.711   4.601   5.547  2.6833 -0.9801 -0.7548
 6403SOL     OW30841   4.083   3.464   9.164 -0.0406 -0.4359 -0.0189
 6403SOL    HW130842   4.062   3.379   9.203  1.8156 -1.9235 -2.2695
 6403SOL    HW230843   4.037   3.517   9.229 -1.2357 -1.4807 -0.0146
 6404SOL     OW30844   3.401   3.430  10.009  0.2243 -0.6670  0.4670
 6404SOL    HW130845   3.375   3.474  10.089  2.4262 -2.1879  2.0231
 6404SOL    HW230846   3.316   3.441   9.966  1.9100 -2.1008 -3.2201
 6405SOL     OW30847   2.171   0.789  10.025  0.5291 -0.0675 -0.2162
 6405SOL    HW130848   2.266   0.780  10.023  0.3220 -1.5549 -2.5915
 6405SOL    HW230849   2.162   0.838  10.107  1.1750 -1.9037  0.9600
 6406SOL     OW30850   1.765   4.286  11.656  0.0217 -0.0788  0.1880
 6406SOL    HW130851   1.844   4.245  11.618  1.6577  0.0964  3.4161
 6406SOL    HW230852   1.805   4.373  11.654  1.2975 -0.7002 -1.6215
 6407SOL     OW30853   0.631   3.968  11.897 -0.2500 -0.6583 -0.0255
 6407SOL    HW130854   0.657   4.019  11.973 -1.2567  1.1442 -0.8916
 6407SOL    HW230855   0.577   4.028  11.846  0.5984 -0.1937 -0.3735
 6408SOL     OW30856   1.821   1.620  15.687 -0.2919  0.1191 -0.7214
 6408SOL    HW130857   1.744   1.576  15.652 -0.0966 -0.9544  0.2178
 6408SOL    HW230858   1.820   1.692  15.624  1.7998  0.2065 -0.6708
 6409SOL     OW30859   3.432   2.179  12.923 -0.1040  0.0991  0.1320
 6409SOL    HW130860   3.478   2.104  12.961  0.1493  0.9063  1.3951
 6409SOL    HW230861   3.398   2.223  13.000 -2.3849 -0.6911 -0.4009
 6410SOL     OW30862   3.482   3.812   4.187 -0.2067  0.6766  0.2435
 6410SOL    HW130863   3.409   3.824   4.248 -0.9388  2.6266 -1.0189
 6410SOL    HW230864   3.542   3.760   4.240  0.1290  0.4347 -0.3743
 6411SOL     OW30865   4.675   0.163   3.067  0.1785  0.2564 -0.2011
 6411SOL    HW130866   0.006   0.118   3.021 -0.2211 -0.2764 -0.3027
 6411SOL    HW230867   4.724   0.200   3.140  1.0959 -1.2652 -0.0345
 6412SOL     OW30868   3.187   0.386  13.638  0.1275  0.4299  0.8660
 6412SOL    HW130869   3.212   0.303  13.678  0.5357  0.8262  1.4221
 6412SOL    HW230870   3.141   0.434  13.706 -0.6370  1.4455 -0.3680
 6413SOL     OW30871   2.090   3.249   6.929  0.9533 -0.1221  0.3667
 6413SOL    HW130872   2.182   3.255   6.904 -0.0262  0.6626 -3.1657
 6413SOL    HW230873   2.065   3.160   6.905  2.3998 -1.0494  2.4213
 6414SOL     OW30874   4.301   3.635   9.243  0.1254 -0.1936 -0.1709
 6414SOL    HW130875   4.309   3.590   9.327 -0.6544 -0.2405 -0.1180
 6414SOL    HW230876   4.221   3.588   9.219  0.1865 -0.6576  0.5147
 6415SOL     OW30877   2.140   0.282   4.398  0.7096  0.1770 -0.1600
 6415SOL    HW130878   2.059   0.329   4.416  0.0503 -1.2213  0.5194
 6415SOL    HW230879   2.105   0.195   4.379  0.6003 -0.0869  1.2380
 6416SOL     OW30880   4.642   1.283   5.161  0.1421  0.6329  0.2394
 6416SOL    HW130881   4.601   1.197   5.174  2.4887 -0.3393  1.3214
 6416SOL    HW230882   4.575   1.322   5.105 -0.3542  0.4738  0.7170
 6417SOL     OW30883   0.306   3.309   5.160  0.1227 -0.2864  0.7302
 6417SOL    HW130884   0.328   3.282   5.249  2.4767 -0.2345  0.1695
 6417SOL    HW230885   0.262   3.229   5.130  1.9793 -0.8630 -0.4731
 6418SOL     OW30886   1.726   0.247   8.677 -0.1696  0.1683 -0.1240
 6418SOL    HW130887   1.657   0.303   8.642 -0.1340  0.5724  0.4328
 6418SOL    HW230888   1.687   0.160   8.676  1.5700 -0.6294  0.8996
 6419SOL     OW30889   2.526   1.187   7.067  0.5530 -0.2349 -0.9892
 6419SOL    HW130890   2.464   1.132   7.020 -0.0880  0.2030 -0.6511
 6419SOL    HW230891   2.479   1.184   7.150  0.4646  0.7774 -0.9929
 6420SOL     OW30892   1.876   3.840  17.278 -0.1202 -0.3512  0.5137
 6420SOL    HW130893   1.946   3.906  17.275 -0.9326  0.5211  0.7011
 6420SOL    HW230894   1.897   3.812  17.188  1.5408 -0.6857  1.0068
 6421SOL     OW30895   3.530   2.951   8.748 -0.4022  0.5042  0.0282
 6421SOL    HW130896   3.499   2.861   8.747  0.5979  0.1665 -0.5944
 6421SOL    HW230897   3.468   2.999   8.694 -0.6250  0.5770  0.3482
 6422SOL     OW30898   3.091   2.957   8.793 -0.5304 -0.2377 -0.3608
 6422SOL    HW130899   3.146   3.027   8.758 -0.1408  0.7570  2.2622
 6422SOL    HW230900   3.028   3.007   8.844 -1.8452 -1.6414 -0.6137
 6423SOL     OW30901   0.614   1.524   1.850 -0.7055  0.4364  0.8275
 6423SOL    HW130902   0.582   1.604   1.892 -2.2151  0.2277  0.0719
 6423SOL    HW230903   0.702   1.555   1.828 -0.1568 -0.7457  1.3653
 6424SOL     OW30904   3.211   0.438   3.551 -0.0761 -0.6501  0.2611
 6424SOL    HW130905   3.175   0.421   3.638  0.9937 -0.0023  0.8333
 6424SOL    HW230906   3.254   0.355   3.528 -0.1096 -0.8329  0.8688
 6425SOL     OW30907   3.398   1.971   9.533  0.4297  0.2298 -0.5811
 6425SOL    HW130908   3.350   1.912   9.591 -1.7662  1.8598 -0.7423
 6425SOL    HW230909   3.485   1.929   9.529  0.0937 -0.6334  1.0484
 6426SOL     OW30910   4.364   1.756   6.865 -0.5269 -0.1779 -0.0675
 6426SOL    HW130911   4.344   1.672   6.825  1.0039 -0.9889  0.8480
 6426SOL    HW230912   4.290   1.771   6.924 -3.4198 -3.2165 -2.9855
 6427SOL     OW30913   2.555   4.236   5.683  0.1234 -0.4859  0.1123
 6427SOL    HW130914   2.467   4.271   5.693  0.9976  1.1227  2.2256
 6427SOL    HW230915   2.577   4.225   5.775  1.4944 -1.8457 -0.3877
 6428SOL     OW30916   0.786   3.286   4.127 -0.5760 -0.5032 -0.3561
 6428SOL    HW130917   0.764   3.233   4.051  0.9823  2.0681 -2.6087
 6428SOL    HW230918   0.878   3.264   4.145 -0.4052  1.5643  1.3086
 6429SOL     OW30919   0.954   3.426   1.168  0.6169  0.0927  0.0567
 6429SOL    HW130920   0.890   3.381   1.223 -0.1126 -1.8688 -2.3991
 6429SOL    HW230921   1.037   3.388   1.197 -0.4706 -0.0505  2.9642
 6430SOL     OW30922   3.563   0.571   2.510  0.5541  0.3470 -0.1296
 6430SOL    HW130923   3.617   0.633   2.461  1.6353 -1.0082 -0.6443
 6430SOL    HW230924   3.541   0.613   2.593 -2.9215 -2.3146  0.3226
 6431SOL     OW30925   0.753   3.486  15.703 -0.8657 -0.3746 -0.4883
 6431SOL    HW130926   0.737   3.521  15.615 -1.0214  2.0934  0.5075
 6431SOL    HW230927   0.667   3.453  15.729 -1.1459  0.5875 -0.1904
 6432SOL     OW30928   1.058   4.627   6.080 -0.0804  0.1411 -0.1310
 6432SOL    HW130929   1.008   4.678   6.016  0.1357  0.0464 -0.3753
 6432SOL    HW230930   1.011   4.544   6.077 -0.0087  0.0730  0.7488
 6433SOL     OW30931   4.322   3.862  12.823  0.0735  0.1785  0.2201
 6433SOL    HW130932   4.237   3.907  12.822  0.1424  0.3649  1.9322
 6433SOL    HW230933   4.286   3.776  12.802  1.6411 -0.7772  1.5574
 6434SOL     OW30934   3.602   2.651  11.771 -0.2475 -0.0556 -0.0593
 6434SOL    HW130935   3.601   2.727  11.830  0.3481 -0.6345  0.6928
 6434SOL    HW230936   3.690   2.657  11.735 -0.2753 -0.0614 -0.1286
 6435SOL     OW30937   2.366   3.413   4.086  0.4810  0.4795 -0.0160
 6435SOL    HW130938   2.328   3.501   4.083  0.1477  0.1663 -4.5042
 6435SOL    HW230939   2.456   3.437   4.067  0.0645  1.5607 -0.6150
 6436SOL     OW30940   3.799   2.480   3.764  0.2147 -0.1214  0.0863
 6436SOL    HW130941   3.723   2.477   3.706 -0.0560  0.2295  0.4301
 6436SOL    HW230942   3.830   2.566   3.736  2.7412 -1.5203 -1.5060
 6437SOL     OW30943   4.348   4.434  12.180  0.0202 -0.3903  0.0820
 6437SOL    HW130944   4.386   4.457  12.095  0.2347 -0.1694  0.2379
 6437SOL    HW230945   4.340   4.521  12.219  1.5050 -1.6937  3.2982
 6438SOL     OW30946   1.681   4.503   9.309  0.4414 -0.3760  0.2463
 6438SOL    HW130947   1.730   4.420   9.308  0.4787 -0.3464 -0.4699
 6438SOL    HW230948   1.683   4.529   9.401 -0.8122  1.0413 -0.1309
 6439SOL     OW30949   4.381   3.626   4.844 -0.3767  0.0988  0.2178
 6439SOL    HW130950   4.390   3.623   4.939 -1.5655  0.0637  0.3353
 6439SOL    HW230951   4.438   3.700   4.825  1.3355 -1.4294 -0.5635
 6440SOL     OW30952   1.961   2.421   7.992  0.1299 -0.0880  0.3195
 6440SOL    HW130953   1.868   2.435   8.009  0.5420  1.8903  0.8814
 6440SOL    HW230954   1.968   2.502   7.941  1.8693 -0.6753 -0.3942
 6441SOL     OW30955   3.605   2.588   4.944  0.1585  0.1723  0.7047
 6441SOL    HW130956   3.609   2.684   4.941  1.6138  0.0796 -0.3998
 6441SOL    HW230957   3.527   2.557   4.899  0.4203  1.1755 -0.4446
 6442SOL     OW30958   4.519   1.452   8.442  0.6460  0.1983  0.0493
 6442SOL    HW130959   4.512   1.375   8.386 -0.7879 -0.6965  1.4496
 6442SOL    HW230960   4.496   1.523   8.382  1.5718  1.1133  0.7773
 6443SOL     OW30961   1.476   1.035   4.993 -0.3990  0.0210  0.4328
 6443SOL    HW130962   1.466   1.129   5.008 -0.0810 -0.0508  1.0734
 6443SOL    HW230963   1.386   1.003   5.005 -0.2935  0.1303  1.5072
 6444SOL     OW30964   4.310   3.679   8.370 -0.5125 -0.4247 -0.2174
 6444SOL    HW130965   4.322   3.603   8.313 -1.4635 -0.9412  0.2776
 6444SOL    HW230966   4.396   3.721   8.373 -0.6288 -0.3214  1.7945
 6445SOL     OW30967   1.964   1.335   4.032 -0.2957 -0.3436 -0.4889
 6445SOL    HW130968   1.885   1.311   3.983 -0.7254 -0.1025  0.0900
 6445SOL    HW230969   1.957   1.286   4.114 -0.5616  0.4866 -0.0210
 6446SOL     OW30970   1.020   0.152  11.513 -0.1738 -0.8083  0.0271
 6446SOL    HW130971   0.965   0.131  11.588  0.1811  0.9146  0.7727
 6446SOL    HW230972   0.989   0.241  11.493  3.5392  0.0471 -1.8388
 6447SOL     OW30973   3.100   2.877   5.456 -0.3809  0.1203 -0.3637
 6447SOL    HW130974   3.176   2.935   5.456  0.5029 -1.0612  2.0211
 6447SOL    HW230975   3.136   2.800   5.411 -0.0604  0.0439  0.0274
 6448SOL     OW30976   3.680   3.544   6.329  0.6187  0.4543 -0.0511
 6448SOL    HW130977   3.737   3.479   6.371  1.2274  2.0754  1.5837
 6448SOL    HW230978   3.717   3.624   6.366  1.5042 -0.8068  1.8229
 6449SOL     OW30979   0.799   2.487  16.303 -0.2249 -0.0961 -0.0052
 6449SOL    HW130980   0.810   2.426  16.230 -0.6560  2.9218 -2.5828
 6449SOL    HW230981   0.744   2.556  16.268  0.1759  0.2952  0.1300
 6450SOL     OW30982   0.501   2.496   7.690  0.0105  0.5674  0.4276
 6450SOL    HW130983   0.562   2.570   7.691  0.6933  0.0235 -1.3218
 6450SOL    HW230984   0.464   2.500   7.779  0.3359  1.4436  0.5291
 6451SOL     OW30985   1.427   2.553   4.787  0.7950 -0.4531 -0.6088
 6451SOL    HW130986   1.477   2.506   4.853  1.4430  0.5178 -0.4130
 6451SOL    HW230987   1.415   2.493   4.714 -2.1135 -0.1342 -0.4222
 6452SOL     OW30988   0.916   0.316   9.347 -0.2447  0.1511  0.0993
 6452SOL    HW130989   0.968   0.389   9.313 -0.3910  0.4589  0.5335
 6452SOL    HW230990   0.858   0.354   9.412 -2.0254  0.8458 -1.9090
 6453SOL     OW30991   4.069   2.918  16.154  0.2940 -0.2844 -0.5041
 6453SOL    HW130992   3.984   2.875  16.154  0.6108 -0.9051  1.5036
 6453SOL    HW230993   4.061   2.966  16.071  0.7103 -1.0520 -0.9859
 6454SOL     OW30994   3.795   3.585   2.782  0.2686 -0.1348 -0.1552
 6454SOL    HW130995   3.746   3.534   2.718 -1.1569 -1.4491  1.9859
 6454SOL    HW230996   3.845   3.510   2.814 -0.4315 -0.1470  0.9024
 6455SOL     OW30997   2.871   3.290   8.023 -0.5364 -0.4907 -0.1627
 6455SOL    HW130998   2.833   3.243   8.098 -0.9948 -0.0759 -0.1361
 6455SOL    HW230999   2.869   3.223   7.954  0.5765  0.7661 -1.4081
 6456SOL     OW31000   4.225   0.328   6.790 -0.2912 -0.2507  0.0671
 6456SOL    HW131001   4.320   0.318   6.800 -0.7597 -3.7190  1.2285
 6456SOL    HW231002   4.207   0.271   6.715  0.1709  1.2647 -1.1742
 6457SOL     OW31003   4.080   0.120   3.368  0.3099 -0.6433 -0.1263
 6457SOL    HW131004   4.090   0.163   3.453  1.5049 -0.4317 -0.3612
 6457SOL    HW231005   4.026   0.176   3.312  1.1945  0.0234 -0.3226
 6458SOL     OW31006   0.075   0.087  13.660  0.3476 -0.3258 -0.3112
 6458SOL    HW131007   0.049   0.176  13.637 -0.3056 -0.1182  1.1821
 6458SOL    HW231008   0.002   0.047  13.613 -0.2094  1.2797 -0.8064
 6459SOL     OW31009   1.061   1.843   3.810 -0.6291  0.0504 -0.1567
 6459SOL    HW131010   1.127   1.902   3.845  0.1088  0.0327 -1.5246
 6459SOL    HW231011   1.097   1.803   3.731 -1.0905 -0.5995 -0.0381
 6460SOL     OW31012   0.690   1.347  17.723  0.1125 -0.3061 -0.0378
 6460SOL    HW131013   0.701   1.261  17.683 -1.6876 -0.4137 -0.3013
 6460SOL    HW231014   0.664   1.406  17.653  1.1453  1.6658  1.2167
 6461SOL     OW31015   0.349   4.595   5.681  0.1853  0.1495 -0.0383
 6461SOL    HW131016   0.382   4.650   5.611 -0.1645  1.3351  0.7220
 6461SOL    HW231017   0.255   4.601   5.667  0.3668  0.6726 -0.9805
 6462SOL     OW31018   1.114   3.838   8.788  0.0998 -0.2254 -0.0524
 6462SOL    HW131019   1.206   3.843   8.762  0.5477 -3.3469  0.9554
 6462SOL    HW231020   1.114   3.924   8.830 -2.1344 -0.2329 -0.0141
 6463SOL     OW31021   0.432   1.986   8.322 -0.2864  0.0965  0.2868
 6463SOL    HW131022   0.419   2.010   8.414  2.9510  0.3325  0.6668
 6463SOL    HW231023   0.398   1.897   8.331  0.9825 -0.5383 -1.1887
 6464SOL     OW31024   3.244   1.653   9.503  0.1753  0.8216 -0.4481
 6464SOL    HW131025   3.177   1.617   9.444 -1.3162 -0.4298  2.0135
 6464SOL    HW231026   3.273   1.569   9.537 -2.1980  0.3241  0.3126
 6465SOL     OW31027   3.333   0.733   8.965 -0.0993 -0.2361  0.2483
 6465SOL    HW131028   3.351   0.818   8.924  0.9626 -0.4083  0.3571
 6465SOL    HW231029   3.410   0.734   9.022 -0.4226  1.8939  0.6420
 6466SOL     OW31030   3.954   3.122  17.307  0.3682  0.2619  0.1131
 6466SOL    HW131031   3.969   3.138  17.213  0.6199 -0.1619  0.0799
 6466SOL    HW231032   3.875   3.168  17.333 -1.4990 -2.7103 -0.3083
 6467SOL     OW31033   0.414   2.785   8.194 -0.4944  0.2120 -0.1006
 6467SOL    HW131034   0.467   2.714   8.230  2.7134  0.8924 -3.4873
 6467SOL    HW231035   0.336   2.730   8.187 -2.1378  2.7914 -1.7377
 6468SOL     OW31036   3.709   0.047   4.596 -0.1162 -0.0118 -0.3239
 6468SOL    HW131037   3.772   4.732   4.641  2.1733 -0.1048 -3.6058
 6468SOL    HW231038   3.776   0.092   4.545  1.5979 -0.5108  1.4877
 6469SOL     OW31039   1.574   3.835   2.144 -0.1759  0.5875 -0.1346
 6469SOL    HW131040   1.627   3.885   2.207 -0.5839 -0.1614  0.8062
 6469SOL    HW231041   1.542   3.766   2.201 -1.3248  0.8117 -0.5075
 6470SOL     OW31042   2.121   2.807  10.432 -0.1452  0.0678  0.1585
 6470SOL    HW131043   2.069   2.887  10.439  1.2330  0.9081  0.7748
 6470SOL    HW231044   2.207   2.845  10.450 -0.2238  0.7127 -0.8505
 6471SOL     OW31045   2.375   3.884   4.591  0.3195  0.0860  0.2922
 6471SOL    HW131046   2.410   3.966   4.628 -0.6562 -0.4175  2.3150
 6471SOL    HW231047   2.298   3.920   4.548 -0.5592  0.4249  2.1633
 6472SOL     OW31048   1.016   0.706  12.816  0.0762 -0.2909  0.2392
 6472SOL    HW131049   0.970   0.773  12.867  0.2075  0.0535 -0.0903
 6472SOL    HW231050   0.955   0.632  12.817  0.0596 -0.2679  0.9596
 6473SOL     OW31051   1.887   3.183   7.875  0.2752  0.1822 -0.1700
 6473SOL    HW131052   1.851   3.272   7.885  1.3408  0.4297  1.4373
 6473SOL    HW231053   1.806   3.134   7.860  0.3469  0.3833 -1.1776
 6474SOL     OW31054   0.214   0.783   1.844 -0.1548  0.1651  0.1522
 6474SOL    HW131055   0.147   0.796   1.776 -0.9011 -0.0900  0.8430
 6474SOL    HW231056   0.297   0.812   1.806 -1.1730  1.0363 -1.4208
 6475SOL     OW31057   4.025   4.000   5.597 -0.1813 -0.6925  0.5941
 6475SOL    HW131058   4.009   4.075   5.654 -0.5463 -1.4943  1.5609
 6475SOL    HW231059   3.966   3.934   5.634 -1.8367 -0.1605 -1.1245
 6476SOL     OW31060   4.633   2.685   9.104  0.2214  0.0495  0.1505
 6476SOL    HW131061   4.540   2.705   9.097  0.3347 -0.0111 -1.4937
 6476SOL    HW231062   4.667   2.702   9.017  1.5627 -2.4173  0.1961
 6477SOL     OW31063   3.421   1.005   4.723 -0.5367  0.0287  0.2624
 6477SOL    HW131064   3.333   0.986   4.756 -1.0446  1.2518 -0.3774
 6477SOL    HW231065   3.414   0.970   4.634  2.9882 -0.0578  0.0322
 6478SOL     OW31066   3.118   0.253  14.183 -0.6123 -0.4016 -0.7405
 6478SOL    HW131067   3.042   0.245  14.126 -0.2766  1.4491 -1.4501
 6478SOL    HW231068   3.193   0.238  14.125 -0.7995  0.6275 -1.2505
 6479SOL     OW31069   1.537   3.159   4.044  0.0472  0.9251  0.1181
 6479SOL    HW131070   1.585   3.129   3.966  0.4552  3.7268 -0.7399
 6479SOL    HW231071   1.476   3.223   4.006 -0.3834  1.5333  1.8426
 6480SOL     OW31072   1.407   2.602   3.841 -0.8432 -0.4489 -0.0253
 6480SOL    HW131073   1.466   2.557   3.780  1.0551  1.1229  0.6365
 6480SOL    HW231074   1.468   2.669   3.874 -0.6802 -1.5202  1.8347
 6481SOL     OW31075   3.774   0.069   4.197 -0.0637 -0.2720  0.3506
 6481SOL    HW131076   3.724   0.006   4.145 -2.6091  2.1811 -0.1370
 6481SOL    HW231077   3.841   0.101   4.137 -0.3762 -1.1699 -0.4688
 6482SOL     OW31078   2.791   3.250   5.288  0.0105 -0.3791  0.0289
 6482SOL    HW131079   2.805   3.344   5.280  1.8123 -0.5139  1.4845
 6482SOL    HW231080   2.875   3.217   5.319 -0.3361 -2.4941 -1.2889
 6483SOL     OW31081   1.460   2.430   8.012 -0.2947  0.0087 -0.2709
 6483SOL    HW131082   1.373   2.469   7.999 -0.0265  0.4181 -0.8422
 6483SOL    HW231083   1.442   2.346   8.054 -0.0704 -1.2543 -2.7280
 6484SOL     OW31084   2.467   2.491   9.980  0.4761 -0.0317  0.1531
 6484SOL    HW131085   2.492   2.400   9.995  0.1769 -0.3186 -1.0649
 6484SOL    HW231086   2.456   2.508   9.887  0.5395  0.7887  0.2944
 6485SOL     OW31087   3.495   0.173   4.473  0.1310 -0.3671  0.4368
 6485SOL    HW131088   3.477   0.234   4.545  1.2639  0.2937  0.1587
 6485SOL    HW231089   3.565   0.121   4.511  0.3607 -0.3060  0.1036
 6486SOL     OW31090   2.816   0.376  17.242  0.4006  0.3946  0.8459
 6486SOL    HW131091   2.875   0.450  17.252  1.8208 -0.3192 -2.2936
 6486SOL    HW231092   2.872   0.322  17.187  0.4441  1.4098 -0.0965
 6487SOL     OW31093   0.725   4.216  13.038 -0.1048 -0.1723 -0.1606
 6487SOL    HW131094   0.663   4.289  13.030  0.6366  0.6709  1.7125
 6487SOL    HW231095   0.809   4.260  13.047 -0.9873  1.2076  1.3078
 6488SOL     OW31096   3.077   4.387   0.895  0.4141  0.8912 -0.2504
 6488SOL    HW131097   2.993   4.415   0.858  0.1409  1.7403  0.9985
 6488SOL    HW231098   3.097   4.463   0.949 -3.5846  1.8442 -0.0878
 6489SOL     OW31099   3.314   1.594   6.722  0.2393  0.1087 -0.0886
 6489SOL    HW131100   3.322   1.579   6.816  2.3017 -0.8739 -0.4073
 6489SOL    HW231101   3.246   1.661   6.725 -1.7608 -2.0538  2.2024
 6490SOL     OW31102   4.490   4.239   9.670 -0.4842  0.0189  0.0465
 6490SOL    HW131103   4.538   4.288   9.736 -0.2817  1.7112 -1.3521
 6490SOL    HW231104   4.512   4.155   9.711  0.7299  0.5595  0.5037
 6491SOL     OW31105   2.083   2.171   6.446  0.3155 -0.3088  0.3511
 6491SOL    HW131106   2.069   2.131   6.532  0.8911  0.7050  0.9081
 6491SOL    HW231107   2.141   2.246   6.457 -2.0369  1.3203  1.5602
 6492SOL     OW31108   0.731   0.976   3.236 -0.8295 -0.1229  0.5456
 6492SOL    HW131109   0.706   1.038   3.304 -0.5501 -0.0895  0.6199
 6492SOL    HW231110   0.711   0.894   3.280 -1.1822  0.6747  1.8665
 6493SOL     OW31111   4.510   3.271   4.312  0.1222 -0.3163  0.2911
 6493SOL    HW131112   4.518   3.197   4.252  3.3557  0.9140 -0.8070
 6493SOL    HW231113   4.423   3.301   4.288  0.5275  0.6161 -0.0043
 6494SOL     OW31114   0.942   3.625   4.579  0.1074  0.6409  0.5278
 6494SOL    HW131115   1.008   3.556   4.569  1.1927  1.7339  0.1405
 6494SOL    HW231116   0.899   3.595   4.660 -0.4880 -0.3340 -0.1586
 6495SOL     OW31117   0.039   0.574   2.034  0.6807 -0.0012  0.6023
 6495SOL    HW131118   4.735   0.578   2.118 -0.5057 -1.9558  0.0742
 6495SOL    HW231119   0.016   0.657   1.992 -1.0934 -0.9719 -0.3442
 6496SOL     OW31120   1.015   0.441   7.458 -0.3546 -0.2976  0.4462
 6496SOL    HW131121   1.024   0.444   7.553 -1.5426 -0.5751  0.5662
 6496SOL    HW231122   1.047   0.528   7.434 -0.5179 -0.3200  0.1377
 6497SOL     OW31123   1.222   0.134   4.826 -0.1408 -0.0843 -0.1554
 6497SOL    HW131124   1.258   0.091   4.903  0.0893 -1.9979 -1.3215
 6497SOL    HW231125   1.162   0.064   4.798 -1.5121  0.8375  0.4933
 6498SOL     OW31126   3.220   1.740   3.689 -0.9263 -0.6475 -0.9256
 6498SOL    HW131127   3.293   1.678   3.683  0.5077  0.8734  0.3801
 6498SOL    HW231128   3.223   1.786   3.605  1.0968 -3.1395 -2.2006
 6499SOL     OW31129   1.233   4.087   2.107 -0.2410  0.0161  0.3313
 6499SOL    HW131130   1.188   4.164   2.143  0.0123  0.8375 -1.1192
 6499SOL    HW231131   1.239   4.127   2.020  0.4115  1.3687  1.0009
 6500SOL     OW31132   3.267   4.360   5.485  0.0420  0.2266  0.0167
 6500SOL    HW131133   3.192   4.420   5.487 -0.7952 -0.7896 -1.2695
 6500SOL    HW231134   3.276   4.337   5.577  3.0773 -3.0921 -1.1218
 6501SOL     OW31135   0.374   3.311   8.470  0.6030 -0.5457 -0.1619
 6501SOL    HW131136   0.336   3.223   8.466 -1.9386  0.3567  3.7513
 6501SOL    HW231137   0.465   3.284   8.476  0.8817  0.5647  0.5565
 6502SOL     OW31138   0.130   3.053  15.925  0.1150  0.7897  0.1719
 6502SOL    HW131139   0.125   3.064  15.830  2.6489  2.8354  0.2792
 6502SOL    HW231140   0.225   3.062  15.925  0.0006  2.1290 -0.8489
 6503SOL     OW31141   0.008   4.472   6.894 -0.2382 -0.1374 -0.0468
 6503SOL    HW131142   4.713   4.559   6.909  1.4750  0.3410  1.2685
 6503SOL    HW231143   0.103   4.477   6.906 -0.0514  1.3814 -2.2916
 6504SOL     OW31144   4.528   2.950   1.377 -0.5687 -0.3275 -0.2123
 6504SOL    HW131145   4.461   2.882   1.384  0.4092 -1.2706  0.0413
 6504SOL    HW231146   4.472   3.025   1.357 -0.9883 -0.6133 -0.1336
 6505SOL     OW31147   0.411   2.094  12.988 -0.1150  0.4498 -0.4930
 6505SOL    HW131148   0.346   2.131  13.047 -0.4248  1.2611 -1.3504
 6505SOL    HW231149   0.496   2.118  13.025 -1.0206 -0.4746  2.2051
 6506SOL     OW31150   2.104   2.091   6.120 -0.1810  0.1752 -0.4885
 6506SOL    HW131151   2.028   2.036   6.099 -0.0515 -0.9003  1.9344
 6506SOL    HW231152   2.075   2.127   6.204  0.2740 -1.1047  0.2132
 6507SOL     OW31153   2.375   3.622  13.068 -0.7118  0.5041  0.1984
 6507SOL    HW131154   2.420   3.607  13.151  0.6253  1.7022 -0.3010
 6507SOL    HW231155   2.423   3.562  13.011  0.9085  0.5081  1.5366
 6508SOL     OW31156   0.837   3.824   1.510  0.2622 -0.3759 -0.1719
 6508SOL    HW131157   0.788   3.749   1.476  1.0428 -0.6972 -0.5734
 6508SOL    HW231158   0.774   3.850   1.577 -0.1239  2.8858 -1.8399
 6509SOL     OW31159   2.387   1.145   7.274  0.4152  0.1142 -0.0962
 6509SOL    HW131160   2.350   1.057   7.265  0.1070  0.1941  0.4210
 6509SOL    HW231161   2.393   1.155   7.369  2.9441 -0.3722 -0.2069
 6510SOL     OW31162   3.951   3.010  14.427 -0.6248  0.2020  0.4202
 6510SOL    HW131163   4.046   2.998  14.419 -0.5321  0.2932  1.4819
 6510SOL    HW231164   3.945   3.105  14.436 -1.7073  0.2886 -1.2367
 6511SOL     OW31165   3.165   3.263   8.455 -0.4076  0.2370 -0.1428
 6511SOL    HW131166   3.094   3.245   8.517  0.0216 -0.9044  0.0404
 6511SOL    HW231167   3.190   3.350   8.484 -0.4257  0.1918  0.0097
 6512SOL     OW31168   2.281   1.742  13.318  0.1732  0.5478 -0.8391
 6512SOL    HW131169   2.347   1.681  13.285  1.2118  1.1550  0.0638
 6512SOL    HW231170   2.210   1.680  13.330  1.8549 -1.0395  1.1282
 6513SOL     OW31171   4.736   0.496   4.144  0.4056 -0.1126 -0.5216
 6513SOL    HW131172   4.724   0.495   4.049 -0.4043  0.1593 -0.4250
 6513SOL    HW231173   0.089   0.487   4.155  0.1251 -1.9845  0.3820
 6514SOL     OW31174   2.768   2.228   6.125 -0.0776 -0.0706  0.0859
 6514SOL    HW131175   2.843   2.211   6.181  1.2969  1.5799 -1.2527
 6514SOL    HW231176   2.696   2.219   6.188 -0.6918  1.4001 -0.3994
 6515SOL     OW31177   1.124   3.709   9.201 -0.2741 -0.2409 -0.1022
 6515SOL    HW131178   1.066   3.690   9.274  0.1901  1.7261  0.7884
 6515SOL    HW231179   1.097   3.800   9.183 -0.4085  0.4606  3.7590
 6516SOL     OW31180   3.863   3.439   2.018 -0.2972  0.1054  0.0972
 6516SOL    HW131181   3.788   3.384   1.996 -0.0735  0.3979 -1.3962
 6516SOL    HW231182   3.859   3.449   2.113 -1.9846 -3.8883  0.4765
 6517SOL     OW31183   2.866   1.785   4.996  0.0801  0.0808  0.1318
 6517SOL    HW131184   2.945   1.761   4.948 -0.3226  0.0890 -0.5376
 6517SOL    HW231185   2.808   1.817   4.926 -0.4395 -0.9960  0.0711
 6518SOL     OW31186   3.950   2.371   5.410  0.2751 -0.1752 -0.6089
 6518SOL    HW131187   3.870   2.410   5.444 -0.6896 -2.6291 -0.0890
 6518SOL    HW231188   3.924   2.279   5.412  2.0910 -0.6778 -0.1073
 6519SOL     OW31189   0.896   4.257  11.189 -0.1024  0.1171  0.4888
 6519SOL    HW131190   0.985   4.275  11.219  1.1983 -3.0238 -1.4500
 6519SOL    HW231191   0.857   4.344  11.186  2.3205  1.1901  1.0892
 6520SOL     OW31192   3.972   0.079   1.227 -0.4501 -0.1547 -0.1070
 6520SOL    HW131193   3.953   4.727   1.212  2.9925 -1.1059  1.5577
 6520SOL    HW231194   3.913   0.108   1.157  0.2140 -3.5853 -2.0726
 6521SOL     OW31195   3.861   2.089   6.221  0.4444 -0.0084  0.5514
 6521SOL    HW131196   3.905   2.138   6.152  0.2866 -0.9707 -0.2327
 6521SOL    HW231197   3.867   2.006   6.174 -0.6623  0.3056 -0.1536
 6522SOL     OW31198   2.840   0.605   2.841  0.3499  0.2482 -0.1903
 6522SOL    HW131199   2.818   0.521   2.800  0.5933 -0.4105  0.9995
 6522SOL    HW231200   2.873   0.566   2.923 -0.3886  0.9455  0.4400
 6523SOL     OW31201   0.037   4.505   4.462 -0.1383 -0.1295 -0.0148
 6523SOL    HW131202   0.130   4.518   4.484  0.4749 -1.3915 -1.8398
 6523SOL    HW231203   0.056   4.495   4.368 -0.4580  1.7136 -0.2799
 6524SOL     OW31204   1.398   3.677  13.030 -0.3586 -0.6378  0.5482
 6524SOL    HW131205   1.455   3.620  13.081 -0.8381 -0.3427  1.4262
 6524SOL    HW231206   1.328   3.702  13.090 -0.3154 -3.1697  1.6622
 6525SOL     OW31207   1.354   2.231   7.447 -0.2931 -0.2724  0.0976
 6525SOL    HW131208   1.437   2.185   7.431  0.6469  0.7008  2.2513
 6525SOL    HW231209   1.319   2.171   7.513  0.6009 -1.1803 -0.2525
 6526SOL     OW31210   2.096   3.996   3.807 -0.1126  0.1116  0.1185
 6526SOL    HW131211   2.109   4.079   3.854 -2.6955  1.0544 -0.8080
 6526SOL    HW231212   2.151   4.011   3.730 -0.1213  0.5702  0.1975
 6527SOL     OW31213   1.577   4.548   0.262  0.0716  0.6454 -0.1149
 6527SOL    HW131214   1.660   4.564   0.218  0.2500  1.3522  0.4880
 6527SOL    HW231215   1.560   4.456   0.238  1.8924  0.2040  0.3514
 6528SOL     OW31216   0.345   2.145   1.305  0.7205 -0.0257  0.2786
 6528SOL    HW131217   0.264   2.182   1.339 -0.7007 -2.4336 -0.4650
 6528SOL    HW231218   0.361   2.074   1.367 -0.3888  0.8140  1.5453
 6529SOL     OW31219   1.385   1.156   6.002 -0.5853  0.2151  0.1906
 6529SOL    HW131220   1.392   1.207   6.082 -2.0312 -0.8553  0.9986
 6529SOL    HW231221   1.400   1.066   6.031 -3.0194 -0.5873 -0.9978
 6530SOL     OW31222   3.825   1.156   2.071 -0.2644  0.0449  0.4422
 6530SOL    HW131223   3.755   1.105   2.030 -0.7718  3.2542 -2.6280
 6530SOL    HW231224   3.839   1.223   2.004  0.1738 -1.3507 -0.8541
 6531SOL     OW31225   2.538   0.439   3.377 -0.2340 -0.1435 -0.1349
 6531SOL    HW131226   2.499   0.414   3.293  1.4724  0.0758 -0.9988
 6531SOL    HW231227   2.601   0.369   3.391  0.3831  0.2594 -0.8896
 6532SOL     OW31228   4.669   2.893   4.418 -0.3132  0.0326  0.3390
 6532SOL    HW131229   4.618   2.827   4.465 -1.0492 -1.1364 -2.0632
 6532SOL    HW231230   4.674   2.971   4.472  1.7607 -0.4282  0.8455
 6533SOL     OW31231   3.174   2.868   6.962 -0.3500 -0.5849 -0.2486
 6533SOL    HW131232   3.097   2.885   6.908 -0.1735  0.0705 -0.2986
 6533SOL    HW231233   3.239   2.857   6.892  1.0122  0.0197  0.9201
 6534SOL     OW31234   2.924   4.703   2.817 -0.0626 -0.2023  0.4058
 6534SOL    HW131235   2.886   4.637   2.759  0.0064 -0.2412  0.4042
 6534SOL    HW231236   2.862   4.690   2.888  1.7062 -0.2120  1.9538
 6535SOL     OW31237   0.549   0.978   5.613  0.1646 -0.0823  0.1207
 6535SOL    HW131238   0.628   0.931   5.585 -0.4847 -0.7689 -0.5316
 6535SOL    HW231239   0.568   1.072   5.603  1.0103 -0.2252  0.3747
 6536SOL     OW31240   0.571   0.355   5.572  0.0063  0.3700  0.0603
 6536SOL    HW131241   0.634   0.381   5.640  0.0000  0.9890 -0.1689
 6536SOL    HW231242   0.627   0.288   5.532  1.2653  1.9364 -0.7942
 6537SOL     OW31243   1.620   0.748   1.791 -0.4569 -0.6433 -0.0268
 6537SOL    HW131244   1.691   0.691   1.820  0.4791  1.0435  1.0143
 6537SOL    HW231245   1.565   0.688   1.740 -1.2900  0.9728 -1.0258
 6538SOL     OW31246   3.124   1.552   9.274 -0.6040  0.0999  0.3287
 6538SOL    HW131247   3.104   1.588   9.187  2.7794 -0.4173 -0.6716
 6538SOL    HW231248   3.034   1.527   9.296 -0.8859 -0.7818 -1.7645
 6539SOL     OW31249   4.114   0.633  17.757  0.2586  0.3351  0.3976
 6539SOL    HW131250   4.139   0.558   0.051 -1.0741 -2.2462 -2.5115
 6539SOL    HW231251   4.045   0.593  17.703  1.7654 -0.7913 -0.6902
 6540SOL     OW31252   3.840   3.035   6.184  0.1132  0.1983 -0.1455
 6540SOL    HW131253   3.917   2.995   6.224 -0.7087 -0.6831  0.5567
 6540SOL    HW231254   3.827   3.112   6.241  0.7118  0.0412  0.2037
 6541SOL     OW31255   0.594   3.780   2.438  0.3346  0.2658  0.9405
 6541SOL    HW131256   0.664   3.738   2.487  1.2619  0.9547  0.2316
 6541SOL    HW231257   0.638   3.861   2.410 -1.1308  0.9513  0.5923
 6542SOL     OW31258   1.209   4.056   8.962  0.1508 -0.0598 -0.3418
 6542SOL    HW131259   1.286   4.000   8.964 -0.0439 -0.3611 -2.0398
 6542SOL    HW231260   1.199   4.061   9.058  0.8877 -2.6379 -0.1309
 6543SOL     OW31261   3.268   0.462   8.641 -0.1492  0.0529  0.6803
 6543SOL    HW131262   3.179   0.429   8.655 -0.2793  0.3789  0.6192
 6543SOL    HW231263   3.295   0.464   8.733  1.0731 -0.4543  0.3360
 6544SOL     OW31264   3.563   0.790   6.001  0.2411 -0.1761 -0.5042
 6544SOL    HW131265   3.510   0.820   5.927  1.3360  1.9083 -0.4299
 6544SOL    HW231266   3.511   0.728   6.052 -0.0013  1.0617  0.7370
 6545SOL     OW31267   0.065   1.714   3.207  0.0156 -0.0372 -0.0444
 6545SOL    HW131268   0.091   1.694   3.297 -2.1116 -0.3572  0.5159
 6545SOL    HW231269   4.710   1.720   3.211 -0.2201 -2.2920 -2.0459
 6546SOL     OW31270   3.076   3.309   1.533 -0.2763 -0.2751 -0.4909
 6546SOL    HW131271   3.029   3.281   1.612  1.4147  1.0993  0.9906
 6546SOL    HW231272   3.155   3.343   1.575 -0.2022 -2.2917  1.0418
 6547SOL     OW31273   0.319   1.893   4.137 -0.1738 -0.8550 -0.0405
 6547SOL    HW131274   0.336   1.946   4.059 -0.6815  0.8899  1.0571
 6547SOL    HW231275   0.389   1.933   4.188  0.9613  0.2326 -2.4559
 6548SOL     OW31276   3.706   2.623   6.192  0.2001  0.0252 -0.2739
 6548SOL    HW131277   3.691   2.674   6.113  1.8271 -1.9712 -1.8521
 6548SOL    HW231278   3.732   2.540   6.153  0.9640 -0.0095  0.3117
 6549SOL     OW31279   4.199   3.643   2.830  0.0967 -0.4339  0.0405
 6549SOL    HW131280   4.146   3.566   2.849 -0.5345 -0.1246 -0.4810
 6549SOL    HW231281   4.262   3.607   2.768  0.8047 -1.0906  1.1286
 6550SOL     OW31282   3.572   1.760   5.050  0.6323 -0.3585  0.5533
 6550SOL    HW131283   3.563   1.828   5.117  1.1478  1.1043 -0.8339
 6550SOL    HW231284   3.642   1.805   5.003  0.7805 -0.6799  0.4669
 6551SOL     OW31285   1.762   4.290  14.666  0.7077 -0.4011  0.1176
 6551SOL    HW131286   1.840   4.235  14.672  1.9185  1.3313  0.3555
 6551SOL    HW231287   1.755   4.303  14.572  0.1552 -0.0381  0.2061
 6552SOL     OW31288   1.104   4.056   0.707  0.0808 -0.2323  0.7984
 6552SOL    HW131289   1.173   3.999   0.741  0.0205 -0.3910  0.6546
 6552SOL    HW231290   1.104   4.118   0.780 -1.1264 -0.0003  0.6041
 6553SOL     OW31291   3.477   1.849   4.032 -0.1770  0.0802 -0.4366
 6553SOL    HW131292   3.517   1.827   3.947  1.5157 -1.2891  0.7077
 6553SOL    HW231293   3.482   1.945   4.033  2.2498 -0.0452 -0.6342
 6554SOL     OW31294   4.716   0.253  12.309 -0.0192 -0.0966  0.0179
 6554SOL    HW131295   4.721   0.268  12.215 -1.0933  1.9925  0.2927
 6554SOL    HW231296   0.064   0.227  12.334  0.6769  0.8333 -1.5091
 6555SOL     OW31297   0.582   4.245  11.833  0.0188 -0.1984  0.2351
 6555SOL    HW131298   0.640   4.295  11.775 -0.3809 -1.4512 -1.2508
 6555SOL    HW231299   0.612   4.266  11.921  0.8690  1.1795 -0.3845
 6556SOL     OW31300   2.262   0.807   8.269  0.9216 -0.0619 -0.8973
 6556SOL    HW131301   2.296   0.868   8.335 -0.5633  2.6270 -2.6252
 6556SOL    HW231302   2.244   0.877   8.207 -1.3591  0.9818  0.9528
 6557SOL     OW31303   0.168   4.132  13.542  0.0893  0.2972  0.0871
 6557SOL    HW131304   0.210   4.196  13.599 -1.2874 -0.6770  2.1960
 6557SOL    HW231305   0.186   4.172  13.457 -1.9092 -0.5547 -0.7450
 6558SOL     OW31306   2.691   0.427   1.813  0.2414 -0.5818  0.1877
 6558SOL    HW131307   2.618   0.401   1.869  0.2846  0.6245  0.7990
 6558SOL    HW231308   2.728   0.490   1.874 -1.2136  0.5416 -0.0742
 6559SOL     OW31309   3.839   0.250   3.172  0.2837  0.1130 -0.0813
 6559SOL    HW131310   3.756   0.224   3.132  0.7166  0.2352 -1.0605
 6559SOL    HW231311   3.867   0.326   3.121  1.9828 -0.2556  0.2948
 6560SOL     OW31312   3.050   2.573  15.488  0.1941  0.2444  0.5271
 6560SOL    HW131313   3.133   2.606  15.523 -0.2556  1.3570  0.5583
 6560SOL    HW231314   3.039   2.481  15.512 -1.0685 -0.0007 -0.9771
 6561SOL     OW31315   3.739   1.380   6.566 -0.1290  0.6550  0.5590
 6561SOL    HW131316   3.691   1.452   6.607  0.0753  1.0418  0.1216
 6561SOL    HW231317   3.692   1.302   6.596  1.1481 -0.8266 -1.3284
 6562SOL     OW31318   3.111   1.916  11.006  0.3374 -0.0430  0.2225
 6562SOL    HW131319   3.064   1.945  11.084 -1.0087  0.4560 -0.7590
 6562SOL    HW231320   3.196   1.919  11.049 -0.5307  0.2835  1.8844
 6563SOL     OW31321   0.536   0.552  16.148 -0.0841 -0.3455  0.1634
 6563SOL    HW131322   0.556   0.481  16.086  0.2270 -2.8213  3.1002
 6563SOL    HW231323   0.460   0.593  16.107  0.8187  2.5114  1.4069
 6564SOL     OW31324   3.032   2.890  15.445  0.3213 -0.3234 -0.4063
 6564SOL    HW131325   3.111   2.890  15.499 -1.4666 -1.7691  2.2543
 6564SOL    HW231326   3.020   2.797  15.425 -1.4906 -0.1419 -0.1946
 6565SOL     OW31327   2.716   0.459   6.301 -0.1680  0.8445  0.1777
 6565SOL    HW131328   2.770   0.537   6.308 -0.6374  1.0569  1.3175
 6565SOL    HW231329   2.769   0.392   6.343 -0.2515  0.2898 -0.5963
 6566SOL     OW31330   1.102   2.789   2.645  0.3870 -0.3990 -0.4782
 6566SOL    HW131331   1.169   2.751   2.588 -0.1875 -0.4878 -1.0973
 6566SOL    HW231332   1.081   2.719   2.707 -2.3066 -1.3918 -2.4913
 6567SOL     OW31333   3.987   0.632  13.896 -0.3312  0.1445 -0.0599
 6567SOL    HW131334   4.018   0.590  13.816 -2.4321  0.7268 -1.1631
 6567SOL    HW231335   3.926   0.565  13.925 -0.9902  0.2528 -1.1873
 6568SOL     OW31336   4.190   2.707  14.405 -0.0633 -0.1703  0.3619
 6568SOL    HW131337   4.191   2.797  14.437 -0.5367  0.1098 -0.4059
 6568SOL    HW231338   4.146   2.656  14.472 -1.6870 -1.3189 -1.5748
 6569SOL     OW31339   0.888   3.299  14.084 -0.8793  0.0479  0.2192
 6569SOL    HW131340   0.973   3.261  14.108  0.2109  2.3738  0.0060
 6569SOL    HW231341   0.872   3.342  14.168 -1.8040 -0.1663  0.1535
 6570SOL     OW31342   2.348   3.768   3.053  0.2757 -0.1073 -0.2712
 6570SOL    HW131343   2.305   3.806   3.129 -0.1148 -0.7554 -0.1690
 6570SOL    HW231344   2.434   3.750   3.093 -0.6535 -3.1158  0.4173
 6571SOL     OW31345   3.108   0.016   0.799 -0.1260 -0.2931 -0.4546
 6571SOL    HW131346   3.173   0.077   0.834 -1.4593  1.5330 -1.1948
 6571SOL    HW231347   3.163   4.708   0.737 -0.2594  2.2052 -2.5591
 6572SOL     OW31348   1.928   4.634   3.890  0.7599  0.2418 -0.4740
 6572SOL    HW131349   2.003   4.694   3.890  1.4451 -0.5780  4.4683
 6572SOL    HW231350   1.861   4.693   3.856  2.1334  1.6064 -0.7948
 6573SOL     OW31351   3.569   0.254   8.265  0.0455  0.7311 -0.0552
 6573SOL    HW131352   3.517   0.315   8.316  0.5678  0.4196  0.8594
 6573SOL    HW231353   3.656   0.294   8.276  0.8767 -0.6099 -1.6852
 6574SOL     OW31354   2.159   0.277  12.794  0.5476  0.7805 -0.3304
 6574SOL    HW131355   2.156   0.248  12.703  1.9220  0.6762 -0.3404
 6574SOL    HW231356   2.108   0.358  12.785  1.6743  1.4156 -1.0442
 6575SOL     OW31357   3.706   4.279   0.574 -0.2162  0.4551 -0.0239
 6575SOL    HW131358   3.731   4.228   0.496  2.6394  0.3964  0.9298
 6575SOL    HW231359   3.614   4.251   0.576 -0.1458  0.1968 -0.2948
 6576SOL     OW31360   4.229   2.784   2.460 -0.3593 -0.2285 -0.3441
 6576SOL    HW131361   4.250   2.823   2.375  2.0052  0.8643  0.7575
 6576SOL    HW231362   4.176   2.709   2.435 -0.0469  0.4463 -2.9968
 6577SOL     OW31363   4.159   0.878  13.757 -0.9403  0.3816  0.7129
 6577SOL    HW131364   4.145   0.971  13.776 -2.8866  0.1487  0.3892
 6577SOL    HW231365   4.130   0.834  13.837  1.1432  0.7274  1.6528
 6578SOL     OW31366   2.411   0.943   5.822 -0.3149  0.1462  0.0999
 6578SOL    HW131367   2.464   0.913   5.747 -1.5690 -1.4394 -0.1418
 6578SOL    HW231368   2.359   1.005   5.771  0.9230 -1.7637 -3.5101
 6579SOL     OW31369   2.244   4.303   3.626 -0.0643 -0.2161  0.5983
 6579SOL    HW131370   2.149   4.296   3.611 -0.0044  1.0374 -0.4457
 6579SOL    HW231371   2.260   4.393   3.599 -2.0550 -0.1720 -0.4874
 6580SOL     OW31372   1.112   1.128   1.732 -0.3723 -0.2173  0.0819
 6580SOL    HW131373   1.098   1.069   1.657 -1.1304 -1.7003  1.3846
 6580SOL    HW231374   1.208   1.124   1.737 -0.4547 -2.0612  0.2668
 6581SOL     OW31375   4.137   3.566  11.041 -0.2910 -0.5125 -0.4105
 6581SOL    HW131376   4.214   3.512  11.060 -1.3671 -1.3649  1.4726
 6581SOL    HW231377   4.165   3.602  10.956 -0.7263  2.6486  0.8169
 6582SOL     OW31378   0.427   3.251  11.592  0.1308  0.3449 -0.0757
 6582SOL    HW131379   0.380   3.199  11.657 -1.6648  2.3239  0.2085
 6582SOL    HW231380   0.516   3.216  11.591  0.1084  0.2390  1.8590
 6583SOL     OW31381   1.036   2.844   0.564 -0.0803 -0.3636 -0.3846
 6583SOL    HW131382   1.018   2.859   0.471  0.4791 -0.1846 -0.4696
 6583SOL    HW231383   0.975   2.773   0.583 -2.6560  1.4893 -1.6924
 6584SOL     OW31384   1.721   4.055   8.418 -0.0073 -0.2961 -0.1331
 6584SOL    HW131385   1.687   4.079   8.504  0.1654 -1.0891  0.1615
 6584SOL    HW231386   1.806   4.098   8.422  0.7804 -2.1129  2.5753
 6585SOL     OW31387   1.258   1.502   1.262  0.1672  0.0852  0.0575
 6585SOL    HW131388   1.204   1.491   1.340 -1.2779 -0.6953 -1.0472
 6585SOL    HW231389   1.331   1.555   1.295  0.8198 -0.7955  0.0212
 6586SOL     OW31390   0.566   0.752   7.631  0.6343 -0.6594  0.0148
 6586SOL    HW131391   0.518   0.796   7.702 -1.7399 -0.0291 -1.9770
 6586SOL    HW231392   0.573   0.824   7.569  0.1195 -0.5491  0.0803
 6587SOL     OW31393   2.787   3.975   1.728  0.0015  0.1806 -0.7442
 6587SOL    HW131394   2.780   3.897   1.784 -0.9711 -0.3140 -1.5425
 6587SOL    HW231395   2.713   3.968   1.667 -0.4691 -0.0108 -0.1549
 6588SOL     OW31396   1.347   0.536   7.076  0.4051  0.4645  0.2695
 6588SOL    HW131397   1.307   0.493   7.000  0.2423  2.8035 -0.9575
 6588SOL    HW231398   1.278   0.574   7.129 -3.2064 -3.7746 -1.3671
 6589SOL     OW31399   2.619   0.472   9.262 -0.0598  0.2741  0.2467
 6589SOL    HW131400   2.620   0.566   9.282  1.4549  0.4218 -0.5121
 6589SOL    HW231401   2.706   0.444   9.235  0.1687  0.2114  1.0517
 6590SOL     OW31402   3.720   3.260   9.085  0.4011  0.1745  0.0691
 6590SOL    HW131403   3.801   3.231   9.044  0.0516  1.8204 -1.7564
 6590SOL    HW231404   3.661   3.248   9.011  0.6706 -0.2517 -0.0780
 6591SOL     OW31405   3.040   1.191   5.043 -0.2062 -0.2296  0.0329
 6591SOL    HW131406   3.104   1.192   4.972 -0.7064 -1.0321 -0.4433
 6591SOL    HW231407   3.043   1.277   5.083 -1.1360  0.0263 -0.4531
 6592SOL     OW31408   2.644   0.578  16.350  0.1823 -0.0028 -0.1002
 6592SOL    HW131409   2.648   0.670  16.378  1.7297  0.1335 -0.7987
 6592SOL    HW231410   2.558   0.560  16.389  1.4003 -1.4357  1.9043
 6593SOL     OW31411   3.764   2.364   2.582 -0.4050  0.1145 -0.1744
 6593SOL    HW131412   3.727   2.302   2.646  0.2193 -0.8781 -0.7738
 6593SOL    HW231413   3.682   2.411   2.566  0.2550  0.8296 -1.4086
 6594SOL     OW31414   0.172   1.294   3.505  0.1381  0.1335  1.2715
 6594SOL    HW131415   0.256   1.299   3.461 -1.3676 -0.4067 -1.6463
 6594SOL    HW231416   0.204   1.296   3.596  1.8727  1.1895  0.6271
 6595SOL     OW31417   0.215   4.507   6.110 -0.1294  0.5845 -0.5280
 6595SOL    HW131418   0.136   4.552   6.079 -0.2289  0.8548  0.1283
 6595SOL    HW231419   0.239   4.455   6.033 -0.6122  0.2896 -0.4789
 6596SOL     OW31420   2.542   0.780   7.367 -0.3210  0.1425  0.0827
 6596SOL    HW131421   2.632   0.779   7.402  0.0462 -4.1551 -0.9241
 6596SOL    HW231422   2.548   0.767   7.272  0.5766 -2.8251  0.5309
 6597SOL     OW31423   2.621   3.968  14.063  0.0431  0.3363 -0.0782
 6597SOL    HW131424   2.605   3.962  13.968 -0.4438 -0.4104  0.0493
 6597SOL    HW231425   2.554   4.028  14.095 -0.2749 -0.3192  0.4919
 6598SOL     OW31426   3.114   3.660   3.086 -0.9752  0.3433 -0.2880
 6598SOL    HW131427   3.182   3.612   3.134  0.1226 -0.9100 -3.1418
 6598SOL    HW231428   3.039   3.655   3.146 -1.1404  1.7063 -0.3657
 6599SOL     OW31429   0.936   0.849  12.040 -0.1041  0.0818  0.0977
 6599SOL    HW131430   1.022   0.891  12.051  0.7720 -1.2304 -1.7732
 6599SOL    HW231431   0.929   0.850  11.945  1.3347 -1.9874 -0.0243
 6600SOL     OW31432   4.557   4.262  11.263 -0.2587 -0.2315 -1.3883
 6600SOL    HW131433   4.557   4.181  11.212 -0.0281 -1.2209  0.1923
 6600SOL    HW231434   4.603   4.334  11.218  1.1778  0.0732  0.6043
 6601SOL     OW31435   2.618   2.533   6.801 -0.0394  0.2079  0.6665
 6601SOL    HW131436   2.704   2.525   6.842 -0.4014  0.3229  1.4343
 6601SOL    HW231437   2.596   2.623   6.828  0.1927  0.0933  1.2352
 6602SOL     OW31438   1.924   2.156   2.391  0.3219 -0.0530  0.5440
 6602SOL    HW131439   2.010   2.182   2.358  0.4464 -0.0009  0.9113
 6602SOL    HW231440   1.873   2.196   2.321 -0.3764 -2.0257 -0.0723
 6603SOL     OW31441   0.267   3.132  12.388 -0.5382  0.2630  0.9047
 6603SOL    HW131442   0.184   3.095  12.359 -0.9279  2.3917 -0.7226
 6603SOL    HW231443   0.258   3.137  12.483 -0.7157  0.8505  0.8566
 6604SOL     OW31444   3.058   1.286   6.163  0.0416 -0.2339  0.0628
 6604SOL    HW131445   3.107   1.230   6.102  0.4035  3.0437 -2.6444
 6604SOL    HW231446   3.117   1.360   6.150  0.9067 -1.0239 -0.4764
 6605SOL     OW31447   3.577   2.622   5.286 -0.0379 -0.3804 -0.1234
 6605SOL    HW131448   3.594   2.531   5.261 -0.9989 -0.0817 -1.8727
 6605SOL    HW231449   3.640   2.677   5.240  1.6759 -2.2339  0.0015
 6606SOL     OW31450   1.395   3.098   6.903  0.0224  0.2148  0.2970
 6606SOL    HW131451   1.456   3.132   6.968  0.4097  0.0067  0.0405
 6606SOL    HW231452   1.321   3.157   6.920 -0.9040 -1.0293  0.6785
 6607SOL     OW31453   1.504   3.970  11.570 -0.7012 -0.6336 -0.1287
 6607SOL    HW131454   1.529   3.907  11.637  0.4524  0.7582  0.7500
 6607SOL    HW231455   1.410   3.953  11.564 -0.6789 -1.1224  0.9299
 6608SOL     OW31456   2.528   0.855   3.387  0.3286 -0.6391 -0.2379
 6608SOL    HW131457   2.585   0.799   3.334  1.5665  0.2916  0.1248
 6608SOL    HW231458   2.453   0.797   3.399 -0.9566  1.2393  0.7766
 6609SOL     OW31459   2.920   4.068  11.055  0.2783  0.1228 -0.0186
 6609SOL    HW131460   2.932   4.012  11.131  2.4377  1.4996  0.6788
 6609SOL    HW231461   2.946   4.001  10.992 -1.2977 -2.8284  2.4896
 6610SOL     OW31462   1.671   3.461  15.825 -0.2785 -0.7048 -0.0160
 6610SOL    HW131463   1.634   3.489  15.742  1.7462  1.3846 -0.2393
 6610SOL    HW231464   1.667   3.366  15.820 -0.6741 -0.6465 -0.7546
 6611SOL     OW31465   1.693   3.205   8.083  0.3387  0.3575  0.0324
 6611SOL    HW131466   1.702   3.148   8.008  0.7382  0.8325 -0.2831
 6611SOL    HW231467   1.600   3.213   8.064  0.4081  0.4620 -0.2568
 6612SOL     OW31468   4.212   1.498   2.762  0.2845 -0.1280  0.0894
 6612SOL    HW131469   4.130   1.509   2.714  0.3817 -2.4323 -0.6448
 6612SOL    HW231470   4.198   1.537   2.848 -3.3498 -0.6319 -0.2853
 6613SOL     OW31471   4.175   1.643  12.916 -0.2852 -0.2422  0.1337
 6613SOL    HW131472   4.141   1.732  12.910  2.8826  0.9279 -0.1239
 6613SOL    HW231473   4.174   1.609  12.827 -0.7861  1.9098 -0.6897
 6614SOL     OW31474   2.470   4.491   6.331  0.3010 -0.8821 -0.2483
 6614SOL    HW131475   2.450   4.579   6.298  1.7679 -0.4689 -0.0068
 6614SOL    HW231476   2.438   4.440   6.256  0.5284 -2.8308  0.9957
 6615SOL     OW31477   2.688   2.484   7.691  0.5107  0.3973  0.2033
 6615SOL    HW131478   2.731   2.495   7.606  1.7972 -2.3921  0.4939
 6615SOL    HW231479   2.722   2.558   7.740 -1.3887  0.3111  1.6404
 6616SOL     OW31480   4.031   1.852   7.327 -0.1289  0.6371  0.2182
 6616SOL    HW131481   4.114   1.831   7.370  0.7127 -1.1128 -2.2937
 6616SOL    HW231482   3.977   1.795   7.381 -0.0319  0.8635  0.5598
 6617SOL     OW31483   1.358   3.127  16.998  0.5379 -0.1837  0.1257
 6617SOL    HW131484   1.298   3.189  16.956 -0.1818 -0.9276  0.0449
 6617SOL    HW231485   1.311   3.110  17.079  0.7019  0.4578  0.3487
 6618SOL     OW31486   2.018   0.224   2.704  0.4582 -0.0706 -0.4553
 6618SOL    HW131487   1.983   0.242   2.617 -2.3421  0.5039  0.8030
 6618SOL    HW231488   2.108   0.255   2.690  0.4814  0.2282  0.3203
 6619SOL     OW31489   4.562   3.929  16.415 -0.1786  0.3937 -0.2878
 6619SOL    HW131490   4.497   3.975  16.469 -1.4974  1.1822 -2.5455
 6619SOL    HW231491   4.640   3.924  16.471  1.1948 -0.8797 -2.3064
 6620SOL     OW31492   2.251   2.446   4.624  0.6706  0.3723  0.4116
 6620SOL    HW131493   2.225   2.464   4.534 -2.6634 -2.1863  0.8638
 6620SOL    HW231494   2.316   2.516   4.635  1.1585  0.1312 -1.0216
 6621SOL     OW31495   0.298   0.398  11.230 -0.0305  0.1662 -0.2689
 6621SOL    HW131496   0.299   0.413  11.324 -1.2340  0.7579 -0.3558
 6621SOL    HW231497   0.206   0.392  11.207 -0.3842  0.4459  1.0878
 6622SOL     OW31498   2.598   2.094  16.402  0.5634  0.4772  0.0364
 6622SOL    HW131499   2.551   2.167  16.363  0.4542  0.2609 -0.2397
 6622SOL    HW231500   2.524   2.033  16.412 -0.3225  1.6843  0.9213
 6623SOL     OW31501   0.767   4.376  11.673 -0.2524 -0.1760  0.4521
 6623SOL    HW131502   0.782   4.330  11.591 -0.9389  1.6351 -0.6780
 6623SOL    HW231503   0.740   4.465  11.650 -1.0182 -0.9137 -1.5099
 6624SOL     OW31504   2.944   2.028   5.562 -0.0578 -0.2174  0.3556
 6624SOL    HW131505   2.945   1.935   5.540  0.8133  0.0336 -0.6654
 6624SOL    HW231506   2.852   2.045   5.539  0.1755 -1.9754 -1.7685
 6625SOL     OW31507   1.523   3.966   5.451 -0.3397 -0.0154 -0.1554
 6625SOL    HW131508   1.521   4.057   5.482 -0.1804 -0.7016  1.8722
 6625SOL    HW231509   1.486   3.984   5.364 -0.4759  2.7200  0.4666
 6626SOL     OW31510   2.642   2.633  14.598 -0.2478 -0.1197  0.3047
 6626SOL    HW131511   2.608   2.604  14.513 -0.3323  3.2847 -0.8208
 6626SOL    HW231512   2.690   2.557  14.632  3.6969  0.7549 -3.3363
 6627SOL     OW31513   0.784   0.565   5.181  0.0104 -0.1977  0.2388
 6627SOL    HW131514   0.707   0.517   5.211  0.4754 -0.9707  0.2091
 6627SOL    HW231515   0.822   0.497   5.125 -0.4612  0.8644 -1.3721
 6628SOL     OW31516   3.796   0.413  14.004  0.0676 -0.3136 -0.3473
 6628SOL    HW131517   3.771   0.402  14.096  1.1934 -0.8371 -0.1030
 6628SOL    HW231518   3.717   0.437  13.956 -0.2137 -1.8867 -0.6692
 6629SOL     OW31519   0.311   2.483   4.759  0.0873  0.2248  0.2302
 6629SOL    HW131520   0.218   2.509   4.761  0.1684  0.6585 -1.4017
 6629SOL    HW231521   0.313   2.398   4.715  0.8055  1.1299 -1.4849
 6630SOL     OW31522   1.805   1.246   5.681  0.5333  0.0041  0.2306
 6630SOL    HW131523   1.777   1.284   5.764  0.1527 -0.5650  0.3564
 6630SOL    HW231524   1.799   1.322   5.622 -2.1554  2.0613  3.1690
 6631SOL     OW31525   1.768   0.144   8.229 -0.2088  0.8780  0.2412
 6631SOL    HW131526   1.848   0.100   8.203 -1.7389 -1.3422 -0.6933
 6631SOL    HW231527   1.770   0.219   8.168 -1.6660  1.0635  0.4112
 6632SOL     OW31528   1.802   1.699   2.281  0.2307  0.0090 -0.3875
 6632SOL    HW131529   1.712   1.671   2.293 -0.0616  1.4404  0.7135
 6632SOL    HW231530   1.830   1.726   2.369  0.0398  0.9431 -0.6121
 6633SOL     OW31531   3.771   1.453  16.674  0.7923  0.3932 -0.2431
 6633SOL    HW131532   3.750   1.432  16.765  0.9149 -0.7458 -0.4788
 6633SOL    HW231533   3.831   1.379  16.666  0.2036 -0.2980  1.6148
 6634SOL     OW31534   3.218   2.174   5.960  0.0128 -0.5514  0.4833
 6634SOL    HW131535   3.173   2.123   6.028 -0.9491  0.5968  0.7071
 6634SOL    HW231536   3.281   2.197   6.029  1.9846 -0.8810 -1.2258
 6635SOL     OW31537   3.350   1.064   6.337  0.0826 -0.1984 -0.3365
 6635SOL    HW131538   3.289   1.002   6.296  0.8829  0.1942 -2.1296
 6635SOL    HW231539   3.357   1.126   6.265  1.4633 -0.2503 -0.2531
 6636SOL     OW31540   3.308   1.090   9.814 -0.0711  0.0475 -0.4087
 6636SOL    HW131541   3.239   1.099   9.880  0.6538 -0.1611  0.3708
 6636SOL    HW231542   3.261   1.038   9.748 -0.3167  1.1620 -1.1177
 6637SOL     OW31543   0.251   1.299  10.072 -0.5015 -0.2743  0.5345
 6637SOL    HW131544   0.247   1.295  10.168 -2.9062 -0.6135  0.4199
 6637SOL    HW231545   0.345   1.282  10.064 -0.8064 -1.0108 -1.3965
 6638SOL     OW31546   0.949   1.552   3.918  0.1991 -0.3030 -0.3072
 6638SOL    HW131547   0.960   1.478   3.978 -1.5817  0.0407  0.4682
 6638SOL    HW231548   0.969   1.517   3.831 -0.8336 -0.6148 -0.4271
 6639SOL     OW31549   3.746   2.048  15.869  0.0946  0.5308  0.9616
 6639SOL    HW131550   3.745   1.965  15.918  0.8154  0.0762  0.2201
 6639SOL    HW231551   3.812   2.020  15.805  0.5343 -0.7256  1.9354
 6640SOL     OW31552   1.073   2.460   5.868 -0.2521 -0.3083  0.2494
 6640SOL    HW131553   1.065   2.468   5.963 -0.0107  0.7496  0.1754
 6640SOL    HW231554   1.030   2.539   5.837 -3.1737 -1.5930  0.9956
 6641SOL     OW31555   4.021   1.884   2.250 -0.3488  0.2640 -0.0410
 6641SOL    HW131556   4.108   1.846   2.243  0.1174  1.6709 -1.7271
 6641SOL    HW231557   4.048   1.975   2.255  2.7593 -0.7340  1.7727
 6642SOL     OW31558   3.183   1.176   2.614 -0.2531 -0.1552 -0.2738
 6642SOL    HW131559   3.150   1.152   2.701 -0.4698  0.5482 -0.1666
 6642SOL    HW231560   3.120   1.246   2.601  1.0030  1.1377  0.6689
 6643SOL     OW31561   0.871   0.794   1.849 -0.0541  0.3365  0.0769
 6643SOL    HW131562   0.777   0.810   1.861 -0.3856 -2.5843  1.4392
 6643SOL    HW231563   0.915   0.817   1.931 -0.6432  0.8840  0.2443
 6644SOL     OW31564   2.339   1.043   8.380  0.1428 -0.0647  0.3891
 6644SOL    HW131565   2.373   1.090   8.304  0.6364  0.7975  1.1505
 6644SOL    HW231566   2.361   1.104   8.450  0.8852  1.1949 -0.9119
 6645SOL     OW31567   2.838   1.634   0.985 -0.0352 -0.1043  0.4370
 6645SOL    HW131568   2.840   1.728   1.001 -2.5071  0.4937 -2.6763
 6645SOL    HW231569   2.921   1.624   0.937  0.0173  0.0166  0.5006
 6646SOL     OW31570   0.812   3.642  16.704 -0.4456 -0.2672 -0.2429
 6646SOL    HW131571   0.724   3.657  16.669 -0.4273  2.0822  0.7343
 6646SOL    HW231572   0.857   3.723  16.681  0.3066 -0.3817  0.8230
 6647SOL     OW31573   3.255   0.606   6.961 -0.2754  0.7102 -0.0096
 6647SOL    HW131574   3.263   0.542   6.890 -0.1737  0.6837  0.0260
 6647SOL    HW231575   3.166   0.640   6.948  1.0334  4.5824  1.0532
 6648SOL     OW31576   3.181   3.530   8.694  0.2834  0.0885 -0.2812
 6648SOL    HW131577   3.216   3.451   8.733 -0.6952  0.0172  0.4505
 6648SOL    HW231578   3.212   3.597   8.754 -0.7339  0.3148  0.0003
 6649SOL     OW31579   0.438   0.086  17.575 -0.1705  0.7105  0.2337
 6649SOL    HW131580   0.349   0.088  17.540 -0.0753 -0.6138 -0.0943
 6649SOL    HW231581   0.481   0.163  17.537 -0.8163  1.7728  1.6392
 6650SOL     OW31582   2.431   2.486   7.337 -0.2661 -0.3823  0.4492
 6650SOL    HW131583   2.427   2.577   7.368  1.2807 -1.0224  2.5611
 6650SOL    HW231584   2.506   2.488   7.277 -0.1004 -1.7775  0.6042
 6651SOL     OW31585   0.963   1.594   5.563 -0.0217 -0.9653 -0.6363
 6651SOL    HW131586   0.923   1.576   5.648 -1.6303 -3.6056 -1.9659
 6651SOL    HW231587   1.018   1.666   5.595 -1.7701  0.1810 -0.1629
 6652SOL     OW31588   1.420   1.846  11.910  0.4965  0.4497  0.5374
 6652SOL    HW131589   1.451   1.908  11.977 -2.3123  3.8001 -1.2455
 6652SOL    HW231590   1.325   1.855  11.913  0.4105  0.3967 -2.1810
 6653SOL     OW31591   1.249   0.874   1.220  0.3120 -0.0142  0.3957
 6653SOL    HW131592   1.308   0.801   1.235 -1.8881 -2.2188 -1.7058
 6653SOL    HW231593   1.174   0.833   1.262  0.9084 -0.1197  1.3594
 6654SOL     OW31594   4.265   2.514   1.595 -0.0391 -0.0607 -0.3090
 6654SOL    HW131595   4.289   2.563   1.674  4.1785  0.9640 -2.2106
 6654SOL    HW231596   4.294   2.427   1.622  1.3693  0.2341 -0.8259
 6655SOL     OW31597   1.201   3.698   5.262  0.2913  0.2432 -0.8190
 6655SOL    HW131598   1.246   3.699   5.347 -0.4825 -0.9654 -0.3953
 6655SOL    HW231599   1.168   3.786   5.245 -0.5049 -0.0774 -0.9129
 6656SOL     OW31600   0.188   0.970   7.488 -0.6028 -0.1703  0.0622
 6656SOL    HW131601   0.212   0.883   7.457  2.1907  1.1179 -1.3396
 6656SOL    HW231602   0.169   0.954   7.581 -1.6187  4.6714  0.7115
 6657SOL     OW31603   4.346   0.114   4.184  0.5384 -0.3365  0.4840
 6657SOL    HW131604   4.436   0.117   4.150  1.2838 -0.4079  2.4439
 6657SOL    HW231605   4.336   0.019   4.177  0.6018 -0.4326  1.7981
 6658SOL     OW31606   3.480   4.439   2.824  0.1282  1.3156 -0.0946
 6658SOL    HW131607   3.503   4.517   2.875  1.6405  1.5076 -1.0635
 6658SOL    HW231608   3.543   4.373   2.851 -0.5902  0.6775  0.0147
 6659SOL     OW31609   2.676   1.346   9.583 -0.0496  0.1456 -1.1958
 6659SOL    HW131610   2.623   1.407   9.531 -0.4648  0.4081 -0.4734
 6659SOL    HW231611   2.622   1.329   9.660 -0.1354 -0.4364 -1.3888
 6660SOL     OW31612   3.373   2.597   6.501 -0.2662  0.2683 -0.1740
 6660SOL    HW131613   3.304   2.662   6.486 -0.1213  0.7621  1.3382
 6660SOL    HW231614   3.318   2.519   6.491  0.1407  0.2102 -1.8957
 6661SOL     OW31615   1.117   0.024   9.621  1.1023  0.3710  0.5053
 6661SOL    HW131616   1.037   4.714   9.609  2.5978 -1.8482 -0.0243
 6661SOL    HW231617   1.184   4.702   9.649 -0.9061 -1.1527  1.9591
 6662SOL     OW31618   2.836   4.404   1.720  0.5902  0.2548 -0.1272
 6662SOL    HW131619   2.834   4.434   1.629 -0.8761  0.1459 -0.1350
 6662SOL    HW231620   2.742   4.391   1.732  0.7372 -0.2217  0.5332
 6663SOL     OW31621   1.066   2.028  15.021  0.2996 -0.1276  0.0142
 6663SOL    HW131622   1.110   1.985  15.095  0.7105  1.4753  0.6854
 6663SOL    HW231623   1.129   2.097  15.000  0.3628  0.1611  1.1893
 6664SOL     OW31624   4.103   0.558   1.678 -0.2936 -0.0514  0.5792
 6664SOL    HW131625   4.022   0.581   1.633  0.4506  1.3359 -0.0444
 6664SOL    HW231626   4.079   0.498   1.749 -1.1473 -0.0599  0.2770
 6665SOL     OW31627   2.583   4.204  10.402 -0.7636 -0.0541 -0.8691
 6665SOL    HW131628   2.677   4.221  10.398 -1.1683  2.3337  0.0432
 6665SOL    HW231629   2.589   4.113  10.372  1.7944  0.3882 -1.6842
 6666SOL     OW31630   4.275   2.474   7.351 -0.2259  0.0576 -0.1255
 6666SOL    HW131631   4.280   2.479   7.255  1.1072 -1.7889 -0.1672
 6666SOL    HW231632   4.286   2.565   7.377  0.5708 -0.2342  0.5543
 6667SOL     OW31633   4.740   0.016  11.460  0.3111 -0.3724  0.1090
 6667SOL    HW131634   4.648   0.042  11.453  0.4517 -0.0030 -0.3419
 6667SOL    HW231635   0.013   0.049  11.549  1.1711  0.8717 -0.4826
 6668SOL     OW31636   4.544   3.403   0.808 -0.7209 -0.4611  0.6153
 6668SOL    HW131637   4.569   3.316   0.839 -0.8182  0.5506  3.4941
 6668SOL    HW231638   4.450   3.409   0.827 -0.5099 -0.0904  1.5220
 6669SOL     OW31639   1.500   1.544  17.050 -0.3200 -0.2788 -0.3756
 6669SOL    HW131640   1.573   1.511  17.103  0.9572  2.7559 -0.2179
 6669SOL    HW231641   1.458   1.464  17.017 -1.0391 -1.5266  3.6036
 6670SOL     OW31642   4.328   0.621   1.987 -0.4130 -0.6392 -0.1632
 6670SOL    HW131643   4.303   0.671   1.909  0.2250 -0.3036 -0.1546
 6670SOL    HW231644   4.377   0.544   1.959  0.0658 -0.8020  1.1260
 6671SOL     OW31645   0.700   4.453   5.130  0.1512 -0.2117  0.2503
 6671SOL    HW131646   0.631   4.462   5.064  0.9037  0.5717 -0.4294
 6671SOL    HW231647   0.769   4.412   5.078 -0.0555 -0.3377  0.0743
 6672SOL     OW31648   1.640   3.560  10.594  0.4100 -0.0737  0.3760
 6672SOL    HW131649   1.545   3.573  10.598  0.5267  1.0882 -0.6330
 6672SOL    HW231650   1.670   3.651  10.599 -0.1204  0.2145 -1.8773
 6673SOL     OW31651   0.385   3.271   1.743 -0.3438  0.1328  0.1360
 6673SOL    HW131652   0.401   3.253   1.835 -1.4475 -1.6711 -0.0231
 6673SOL    HW231653   0.338   3.190   1.720  0.1761 -0.3126  0.6444
 6674SOL     OW31654   4.633   3.891   9.769 -0.2898  0.7380  0.2532
 6674SOL    HW131655   4.592   3.860   9.688 -0.5441 -0.1000  0.7043
 6674SOL    HW231656   4.608   3.818   9.825  2.5376 -0.6240 -0.2814
 6675SOL     OW31657   3.127   4.658   6.034 -0.0607 -0.0559  0.2506
 6675SOL    HW131658   3.069   4.669   6.109  1.8270 -0.7388  1.7999
 6675SOL    HW231659   3.190   4.594   6.066 -2.0827 -2.9232 -1.4884
 6676SOL     OW31660   1.791   3.899   4.583  0.0447  0.0903  0.7124
 6676SOL    HW131661   1.715   3.892   4.640 -1.5559  1.7842 -1.2552
 6676SOL    HW231662   1.863   3.913   4.646  0.8892  1.1667 -0.4784
 6677SOL     OW31663   4.399   0.897   6.124  1.0500  0.3558  0.1550
 6677SOL    HW131664   4.456   0.973   6.114 -2.0092  2.5239 -0.9116
 6677SOL    HW231665   4.458   0.838   6.172  0.7438  1.3285  1.7145
 6678SOL     OW31666   0.664   0.426   0.836 -0.1869  0.4131 -0.5492
 6678SOL    HW131667   0.611   0.391   0.907 -0.1687 -0.0111 -0.7451
 6678SOL    HW231668   0.714   0.348   0.812 -2.0818 -0.6577 -1.0317
 6679SOL     OW31669   0.849   0.539  14.367  0.0663  0.0155  0.1207
 6679SOL    HW131670   0.846   0.617  14.312 -2.2505 -0.4021 -0.3604
 6679SOL    HW231671   0.822   0.579  14.450 -0.8912  1.9628 -1.1342
 6680SOL     OW31672   1.731   1.278  15.419  0.3023 -0.1109  0.1357
 6680SOL    HW131673   1.657   1.252  15.473 -0.6460 -0.3541 -1.2678
 6680SOL    HW231674   1.725   1.216  15.346 -0.4565  0.0920  0.0288
 6681SOL     OW31675   1.338   3.443  17.074 -0.4352  0.1437  0.0028
 6681SOL    HW131676   1.303   3.378  17.135 -1.7206  1.8738  1.0944
 6681SOL    HW231677   1.431   3.455  17.091 -0.2409 -0.9046 -0.3281
 6682SOL     OW31678   2.989   4.517   0.176 -0.9006  0.2801 -0.9908
 6682SOL    HW131679   2.987   4.501   0.270  0.5271 -0.4398 -1.0762
 6682SOL    HW231680   2.901   4.544   0.150 -0.9006 -0.2324 -1.5438
 6683SOL     OW31681   0.044   2.017   4.995  0.1521  0.3032  0.3499
 6683SOL    HW131682   0.123   2.006   5.047 -0.2948  0.6505  1.0953
 6683SOL    HW231683   0.028   2.110   5.014 -0.7373  0.4296 -0.9987
 6684SOL     OW31684   4.478   3.763   3.693 -0.0662  0.4438  0.2722
 6684SOL    HW131685   4.390   3.733   3.671  0.0244 -0.3563  1.0477
 6684SOL    HW231686   4.476   3.777   3.788 -2.0024 -1.0572  0.4697
 6685SOL     OW31687   2.786   0.846   6.929  0.4987  0.3845 -0.1312
 6685SOL    HW131688   2.693   0.831   6.911  0.3556  2.9952 -1.5032
 6685SOL    HW231689   2.789   0.938   6.903  1.2004  0.8973  1.8078
 6686SOL     OW31690   1.478   0.525   1.579 -0.8144  0.1699  0.0407
 6686SOL    HW131691   1.507   0.433   1.583  1.4675  0.9750  1.9360
 6686SOL    HW231692   1.383   0.516   1.569 -0.6889 -1.1612 -0.0170
 6687SOL     OW31693   4.076   3.507   6.850  0.6806 -0.2311 -0.5382
 6687SOL    HW131694   4.002   3.555   6.814  0.1437 -1.4181 -1.0204
 6687SOL    HW231695   4.152   3.515   6.792  0.8764 -0.7460 -0.3533
 6688SOL     OW31696   2.011   4.555  15.326 -0.4581  0.1470 -0.0617
 6688SOL    HW131697   1.989   4.470  15.365 -1.0586  0.7455  0.8970
 6688SOL    HW231698   2.092   4.545  15.276 -1.7526 -1.7309 -1.7780
 6689SOL     OW31699   4.335   3.118   1.275  0.3001  0.4678 -0.6173
 6689SOL    HW131700   4.277   3.143   1.347  1.7560  1.5666  0.1709
 6689SOL    HW231701   4.285   3.136   1.195  0.5507 -0.6513 -1.0313
 6690SOL     OW31702   0.143   4.064   6.107 -0.1589  0.3567  0.3012
 6690SOL    HW131703   0.128   4.120   6.030 -1.1233 -2.2275 -1.3733
 6690SOL    HW231704   0.185   4.133   6.158 -1.7988 -0.7311  3.0823
 6691SOL     OW31705   3.171   0.987  15.877  0.7925  0.1458  0.8890
 6691SOL    HW131706   3.228   1.035  15.817  1.3974  0.1020  1.4400
 6691SOL    HW231707   3.230   0.996  15.951  1.9918 -0.1574 -0.0288
 6692SOL     OW31708   0.206   0.159  12.717  0.0227 -0.3525 -0.3105
 6692SOL    HW131709   0.160   0.238  12.747  0.2350  0.9205 -3.3738
 6692SOL    HW231710   0.158   0.146  12.635 -1.4723  0.7159  0.3868
 6693SOL     OW31711   0.264   2.541  15.919  0.9926  0.3052  0.3062
 6693SOL    HW131712   0.195   2.490  15.877  0.9730  0.6078 -0.0276
 6693SOL    HW231713   0.325   2.552  15.847 -0.8477  3.8978 -0.6968
 6694SOL     OW31714   2.420   2.711   5.057 -0.2601 -0.3123  0.1285
 6694SOL    HW131715   2.333   2.719   5.098 -0.2277 -1.0914  0.3319
 6694SOL    HW231716   2.460   2.760   5.129  0.2195 -0.0128 -0.3416
 6695SOL     OW31717   1.318   2.362   6.373 -0.3559 -0.2456 -0.2385
 6695SOL    HW131718   1.275   2.370   6.458 -0.1515 -0.5024 -0.1106
 6695SOL    HW231719   1.303   2.450   6.340 -1.2103  0.9508  3.3180
 6696SOL     OW31720   2.553   2.222  10.043 -0.2161  0.8318 -0.1006
 6696SOL    HW131721   2.609   2.161  10.090  0.8328  2.3194  0.5591
 6696SOL    HW231722   2.537   2.163   9.969 -0.3752 -0.3628  0.8965
 6697SOL     OW31723   3.730   4.053   6.543  0.2970 -0.8457 -0.0501
 6697SOL    HW131724   3.816   4.091   6.559  0.4058 -1.9927  2.1186
 6697SOL    HW231725   3.663   4.120   6.535 -0.9346 -2.0719 -0.0327
 6698SOL     OW31726   4.443   2.491   6.081  0.4362  0.4851  0.2912
 6698SOL    HW131727   4.528   2.495   6.037 -0.2403  1.5632 -0.9363
 6698SOL    HW231728   4.455   2.416   6.139  0.3105  0.3129  0.0949
 6699SOL     OW31729   0.137   2.706   5.677 -0.5618 -0.3341 -0.0606
 6699SOL    HW131730   0.136   2.746   5.764 -1.7770  1.0237 -0.6815
 6699SOL    HW231731   0.091   2.623   5.681 -1.2386  0.1163  1.7481
 6700SOL     OW31732   0.453   2.019   2.395  0.9000  0.5359 -0.2979
 6700SOL    HW131733   0.546   2.044   2.391  0.8318  0.6898 -0.8268
 6700SOL    HW231734   0.443   1.946   2.333 -0.2863  0.1888  0.3158
 6701SOL     OW31735   4.278   0.081  13.469 -0.0623  0.3831  0.1092
 6701SOL    HW131736   4.303   0.173  13.459  0.2897  0.0184 -2.3676
 6701SOL    HW231737   4.266   0.075  13.564  0.8883  1.9252  0.3371
 6702SOL     OW31738   1.600   4.564   7.396 -0.2052  0.3858  0.3922
 6702SOL    HW131739   1.544   4.639   7.415  1.1608  1.6763 -0.6662
 6702SOL    HW231740   1.629   4.544   7.485 -0.8381  1.5742  0.8693
 6703SOL     OW31741   3.743   1.404   8.045 -0.4405  0.5673 -0.0373
 6703SOL    HW131742   3.704   1.492   8.042  0.2456  0.9509  2.6044
 6703SOL    HW231743   3.669   1.345   8.053  0.5426 -0.4914  1.1903
 6704SOL     OW31744   2.079   3.204  11.233 -0.2586 -0.3242  0.1604
 6704SOL    HW131745   2.027   3.259  11.292  0.0517  0.0184  0.1126
 6704SOL    HW231746   2.013   3.162  11.178 -0.9483 -0.6374  1.2362
 6705SOL     OW31747   0.578   2.898   3.682  0.5131 -0.1104  0.3629
 6705SOL    HW131748   0.642   2.879   3.613 -0.4222 -1.4515 -0.1246
 6705SOL    HW231749   0.598   2.830   3.746 -0.8105 -0.5684  0.2687
 6706SOL     OW31750   2.967   3.204   4.377  0.1074  0.4142  0.3964
 6706SOL    HW131751   3.013   3.143   4.434  1.5196  1.0137 -0.0943
 6706SOL    HW231752   2.933   3.270   4.438  0.7623 -0.2928  1.5110
 6707SOL     OW31753   1.256   4.460   5.155 -0.0220  0.1588  0.6664
 6707SOL    HW131754   1.315   4.460   5.230  1.1327 -0.8332 -0.2213
 6707SOL    HW231755   1.188   4.401   5.187 -1.1956  1.5131  0.6686
 6708SOL     OW31756   3.509   4.489   6.725 -0.0884 -0.3532 -0.5845
 6708SOL    HW131757   3.555   4.537   6.656 -1.0267  1.1611 -0.1600
 6708SOL    HW231758   3.571   4.456   6.789 -0.7349 -1.8072 -0.6994
 6709SOL     OW31759   3.397   2.805  16.374  0.1481 -0.8881 -0.3859
 6709SOL    HW131760   3.357   2.840  16.295 -0.8498 -1.1788 -0.0124
 6709SOL    HW231761   3.480   2.852  16.381  0.4910 -1.2522 -2.1104
 6710SOL     OW31762   4.428   3.363   1.566  0.3392 -0.5909  0.3210
 6710SOL    HW131763   4.343   3.324   1.586  1.8485 -3.6677  0.7386
 6710SOL    HW231764   4.464   3.373   1.655  1.5617 -0.9036 -0.1351
 6711SOL     OW31765   2.907   3.597   3.855  0.3301 -0.7088 -0.3162
 6711SOL    HW131766   2.826   3.647   3.858  0.3678 -0.5769 -1.5015
 6711SOL    HW231767   2.963   3.651   3.800  0.1822  1.0383  1.2473
 6712SOL     OW31768   3.145   0.888   4.499  0.3543  0.1092 -0.1292
 6712SOL    HW131769   3.095   0.966   4.477  0.0560  0.3090  1.2703
 6712SOL    HW231770   3.232   0.917   4.470  0.2523  1.0374  0.5095
 6713SOL     OW31771   0.536   4.236   8.704  0.0236 -0.1555 -0.0348
 6713SOL    HW131772   0.546   4.142   8.714 -0.2385 -0.2063 -0.2250
 6713SOL    HW231773   0.444   4.244   8.730 -0.0060  0.4489 -0.3266
 6714SOL     OW31774   3.811   1.332   1.849  0.0295 -0.0970  0.6874
 6714SOL    HW131775   3.799   1.421   1.882  0.9589 -0.4729  2.0222
 6714SOL    HW231776   3.756   1.345   1.772  0.2990 -2.1354  0.1413
 6715SOL     OW31777   2.414   0.254   5.736 -0.2678  0.2123  0.0060
 6715SOL    HW131778   2.443   0.184   5.678  1.7304  0.4234  0.7615
 6715SOL    HW231779   2.456   0.223   5.816 -2.7574  2.6362  2.2529
 6716SOL     OW31780   0.772   1.344  12.762  0.0820 -0.4957 -0.0335
 6716SOL    HW131781   0.807   1.344  12.673  1.9979  0.5588  0.7365
 6716SOL    HW231782   0.688   1.387  12.747 -0.0565  0.5343  3.6002
 6717SOL     OW31783   3.784   0.545   7.774  0.2068  0.2178  0.7321
 6717SOL    HW131784   3.793   0.475   7.839  0.8555  1.1736  1.6785
 6717SOL    HW231785   3.798   0.499   7.691  2.5445  0.5348  0.9596
 6718SOL     OW31786   2.443   1.930   2.678  0.1660  0.3109 -0.0954
 6718SOL    HW131787   2.448   1.966   2.766  1.0394  1.0499 -0.4428
 6718SOL    HW231788   2.365   1.978   2.648 -0.0100 -0.2654 -0.5719
 6719SOL     OW31789   2.221   2.507   5.178 -0.5139 -0.6496  0.8654
 6719SOL    HW131790   2.158   2.500   5.249  0.3483 -1.1234  1.5846
 6719SOL    HW231791   2.170   2.562   5.118  2.3095  2.0753  0.9617
 6720SOL     OW31792   3.669   0.693  12.635 -0.5957  0.5996  0.0791
 6720SOL    HW131793   3.723   0.619  12.605 -1.1409  0.0247  0.5059
 6720SOL    HW231794   3.594   0.668  12.581 -0.6322  1.0610 -0.0763
 6721SOL     OW31795   0.017   1.838  12.047  0.2080  0.4920 -0.0371
 6721SOL    HW131796   0.001   1.744  12.050 -0.1419  0.4705 -2.6864
 6721SOL    HW231797   0.027   1.850  11.953 -1.2535 -0.4864 -0.3181
 6722SOL     OW31798   0.464   4.031   5.344  0.2375 -0.1076 -0.9706
 6722SOL    HW131799   0.373   4.014   5.318  0.5412 -0.5543 -1.7316
 6722SOL    HW231800   0.467   4.123   5.316  1.6143  0.6118  1.4750
 6723SOL     OW31801   4.213   2.105   1.712 -0.0829 -0.3428 -0.1085
 6723SOL    HW131802   4.120   2.085   1.706  0.6252 -2.8997 -2.6406
 6723SOL    HW231803   4.215   2.136   1.803  0.3436  1.9362 -0.9033
 6724SOL     OW31804   4.349   1.461   6.135 -0.4461  0.2356  0.0206
 6724SOL    HW131805   4.293   1.486   6.209  0.2434 -0.3789  0.7365
 6724SOL    HW231806   4.418   1.527   6.125 -0.4185  0.0393 -1.1654
 6725SOL     OW31807   4.228   0.692   7.954  0.0052  0.3861  0.0469
 6725SOL    HW131808   4.259   0.713   8.042 -0.3522 -0.0364  0.2772
 6725SOL    HW231809   4.148   0.646   7.978 -0.2927  1.0993  0.4352
 6726SOL     OW31810   2.422   1.866   8.476 -0.6022 -0.0404  0.0791
 6726SOL    HW131811   2.350   1.814   8.439 -3.3535  2.5561  1.7781
 6726SOL    HW231812   2.483   1.861   8.402 -0.0643  0.3949  0.4952
 6727SOL     OW31813   0.072   3.275   1.874 -0.1294  0.5368 -0.6235
 6727SOL    HW131814   0.140   3.235   1.929  0.1158  1.2881 -0.3645
 6727SOL    HW231815   0.024   3.318   1.945  1.5829 -1.2609  1.6642
 6728SOL     OW31816   2.852   1.733   6.655 -0.7104  0.0394  0.5054
 6728SOL    HW131817   2.824   1.722   6.746  0.7610  0.8874  1.0575
 6728SOL    HW231818   2.817   1.654   6.614 -0.7761 -0.8232  2.2250
 6729SOL     OW31819   3.022   0.949   6.036 -0.4381  0.0393 -0.2772
 6729SOL    HW131820   3.015   0.963   6.131  0.1070 -0.3276 -0.1810
 6729SOL    HW231821   3.118   0.946   6.040 -0.4725 -0.0441  0.6484
 6730SOL     OW31822   4.190   1.500  12.604 -0.2956 -0.4079  0.0859
 6730SOL    HW131823   4.174   1.482  12.512 -1.3789  2.5322 -0.3041
 6730SOL    HW231824   4.132   1.439  12.650 -0.1730  0.3540  1.2564
 6731SOL     OW31825   0.692   0.400  11.265 -0.1945  0.0477 -0.3388
 6731SOL    HW131826   0.660   0.345  11.336 -0.7597 -1.8405 -2.0378
 6731SOL    HW231827   0.757   0.346  11.221 -1.0973 -1.9098  0.7562
 6732SOL     OW31828   3.805   2.337   7.194 -0.1173 -0.4256  0.1601
 6732SOL    HW131829   3.848   2.256   7.219 -0.5850 -0.2214  1.5937
 6732SOL    HW231830   3.714   2.320   7.218 -0.7313 -0.1551 -1.9512
 6733SOL     OW31831   0.830   3.175   6.181  0.0976 -0.4745 -0.1463
 6733SOL    HW131832   0.892   3.135   6.119  0.8048 -0.6061  0.6479
 6733SOL    HW231833   0.816   3.100   6.239 -0.8587 -0.1107  0.0966
 6734SOL     OW31834   0.209   0.883   6.661  0.0605  0.1746 -0.1436
 6734SOL    HW131835   0.221   0.966   6.613  0.6084 -0.6618 -1.4529
 6734SOL    HW231836   0.133   0.908   6.714 -0.1758  3.5330 -2.0427
 6735SOL     OW31837   2.505   4.643  12.942  0.0159  0.3459  0.1781
 6735SOL    HW131838   2.416   4.676  12.943  1.0155  3.0709  0.9478
 6735SOL    HW231839   2.549   4.677  13.020  1.7254 -1.6381  0.0946
 6736SOL     OW31840   1.738   4.456   5.245  0.4766  0.4169  0.2676
 6736SOL    HW131841   1.728   4.434   5.153  1.1609 -2.7415  0.9576
 6736SOL    HW231842   1.827   4.422   5.253  0.9010  1.7420  1.1136
 6737SOL     OW31843   0.384   2.299   2.763 -0.0468 -0.2132 -0.5060
 6737SOL    HW131844   0.340   2.243   2.827 -0.5916  2.1783  1.2246
 6737SOL    HW231845   0.355   2.259   2.682 -0.8443  0.2896 -0.4662
 6738SOL     OW31846   4.539   3.494  12.574  0.0535  0.3942  0.3198
 6738SOL    HW131847   4.451   3.494  12.613 -0.2175  1.4813 -0.3004
 6738SOL    HW231848   4.575   3.415  12.614 -1.0209  0.5350  1.5603
 6739SOL     OW31849   1.470   2.891   1.488  0.9185 -0.0931  0.3085
 6739SOL    HW131850   1.430   2.907   1.573  1.8293  1.3338  0.4635
 6739SOL    HW231851   1.547   2.845   1.521  0.9934  0.2607  0.6235
 6740SOL     OW31852   2.716   1.922   4.549 -0.2114  0.1680 -0.1374
 6740SOL    HW131853   2.719   1.827   4.536  0.5953  0.0609  0.7737
 6740SOL    HW231854   2.692   1.944   4.460 -0.8228 -0.1579 -0.0520
 6741SOL     OW31855   0.337   2.231   8.911  0.3834  0.2277 -0.3200
 6741SOL    HW131856   0.399   2.178   8.861 -1.6213  0.2479 -2.8109
 6741SOL    HW231857   0.399   2.288   8.957  1.2927 -0.7341 -0.3580
 6742SOL     OW31858   3.568   2.331  15.184  0.4310 -0.3336 -0.3557
 6742SOL    HW131859   3.650   2.379  15.183 -1.2381  2.5317  1.5173
 6742SOL    HW231860   3.529   2.361  15.266  0.6855 -1.4801  0.1903
 6743SOL     OW31861   3.185   4.718   2.013  0.2712  0.1517  0.1162
 6743SOL    HW131862   3.269   4.673   2.008  0.7199  1.1693 -2.0234
 6743SOL    HW231863   3.131   4.655   2.060  1.1946 -0.0799  0.8634
 6744SOL     OW31864   4.219   4.221   7.149  0.2811  0.3222 -0.3929
 6744SOL    HW131865   4.204   4.264   7.065 -1.3347  0.8002  0.1482
 6744SOL    HW231866   4.296   4.270   7.179 -0.1531  0.0327  1.1787
 6745SOL     OW31867   4.589   1.033  11.201 -0.0002  0.0747  0.4981
 6745SOL    HW131868   4.497   1.019  11.178  0.3300 -1.8980  0.3815
 6745SOL    HW231869   4.623   0.959  11.152  2.1626  0.0892  1.9548
 6746SOL     OW31870   3.397   3.284   2.796 -0.4155 -0.4213  0.0289
 6746SOL    HW131871   3.417   3.220   2.865  2.4168 -1.8177 -2.0872
 6746SOL    HW231872   3.317   3.324   2.831  0.0987  2.0665 -1.6360
 6747SOL     OW31873   1.618   0.826  16.224 -0.2820  0.3784 -0.2241
 6747SOL    HW131874   1.682   0.810  16.154  0.1332  0.6111  0.1009
 6747SOL    HW231875   1.647   0.917  16.234 -2.2562  0.8611  0.9737
 6748SOL     OW31876   2.585   1.555   7.726  0.3609  0.3132  0.1104
 6748SOL    HW131877   2.679   1.543   7.735  0.3126  0.3399  0.6488
 6748SOL    HW231878   2.576   1.484   7.663  3.4713  1.9553 -2.1455
 6749SOL     OW31879   0.929   1.025   8.768 -0.0172  0.0196  0.3760
 6749SOL    HW131880   0.898   1.097   8.822  1.4888 -0.2405  1.5996
 6749SOL    HW231881   0.926   0.958   8.836 -0.4613  1.3275  1.6653
 6750SOL     OW31882   2.168   2.099   3.954 -0.1269  0.1615 -0.6240
 6750SOL    HW131883   2.115   2.019   3.957  0.9220 -0.4511  1.5550
 6750SOL    HW231884   2.257   2.071   3.937 -0.9881 -2.8823 -0.1902
 6751SOL     OW31885   4.067   2.320  14.099 -0.5786 -0.2250  0.6064
 6751SOL    HW131886   4.131   2.356  14.160  1.8002  1.4606 -2.8848
 6751SOL    HW231887   4.094   2.228  14.097  0.3107  0.0220  1.8141
 6752SOL     OW31888   2.256   0.128   5.416 -0.0868  0.2449  0.2198
 6752SOL    HW131889   2.348   0.102   5.406 -0.5185 -1.4385  0.6609
 6752SOL    HW231890   2.218   0.151   5.331 -0.9652  0.9467  0.7976
 6753SOL     OW31891   0.940   3.242   6.898  0.3014  0.0565  0.7169
 6753SOL    HW131892   0.996   3.297   6.843 -0.4468 -0.0440 -0.1438
 6753SOL    HW231893   0.868   3.303   6.915 -0.8851 -0.6119 -1.9883
 6754SOL     OW31894   4.418   3.278   3.080 -0.0019  0.2797  0.0887
 6754SOL    HW131895   4.347   3.312   3.135 -0.0440  1.2388 -0.5505
 6754SOL    HW231896   4.368   3.280   2.999 -0.6433  0.6451  0.4920
 6755SOL     OW31897   1.022   2.851   4.181 -0.4041  0.5691 -0.1055
 6755SOL    HW131898   1.034   2.908   4.105  0.3796 -0.9120 -1.0932
 6755SOL    HW231899   0.981   2.908   4.246  0.8293 -1.2523  2.2840
 6756SOL     OW31900   3.098   1.563  12.545  0.0353 -0.7122  0.1589
 6756SOL    HW131901   3.025   1.501  12.542 -0.8013  0.3076 -0.3793
 6756SOL    HW231902   3.174   1.512  12.575  2.2517  1.7236 -1.3274
 6757SOL     OW31903   3.645   2.411  16.323 -0.2011  0.1974  0.2005
 6757SOL    HW131904   3.641   2.327  16.367  0.1375  0.1291  0.1034
 6757SOL    HW231905   3.663   2.471  16.396  1.1537 -1.0607  0.9097
 6758SOL     OW31906   1.393   4.427   1.574 -0.0591  1.0864 -0.4896
 6758SOL    HW131907   1.408   4.477   1.654  1.8726  0.0360 -0.1802
 6758SOL    HW231908   1.299   4.411   1.572 -0.0866  1.1074  0.4236
 6759SOL     OW31909   3.942   3.551   7.752  0.1670  0.2186 -0.2137
 6759SOL    HW131910   3.851   3.544   7.781 -0.0627  2.1208 -0.5011
 6759SOL    HW231911   3.955   3.637   7.712 -2.0251 -0.1160 -1.5777
 6760SOL     OW31912   3.860   3.966   2.410 -0.3573  0.1574  0.2106
 6760SOL    HW131913   3.878   3.883   2.367  0.1559 -0.3801  1.4741
 6760SOL    HW231914   3.845   4.025   2.336 -2.0837 -1.5141 -0.7768
 6761SOL     OW31915   3.128   3.290   7.442  0.0330 -0.3955 -0.3239
 6761SOL    HW131916   3.106   3.199   7.462  2.7247 -1.1257 -0.7373
 6761SOL    HW231917   3.092   3.337   7.517  0.8711  1.4605 -1.0647
 6762SOL     OW31918   2.000   1.243  14.783 -0.2704 -0.2266 -0.5184
 6762SOL    HW131919   2.036   1.160  14.815 -0.4154  0.6683  1.8991
 6762SOL    HW231920   1.925   1.255  14.840 -2.0509 -1.5716 -2.5761
 6763SOL     OW31921   2.867   3.869   6.121 -0.5435  0.2537  0.1598
 6763SOL    HW131922   2.907   3.828   6.198 -1.0198 -0.0329  0.2522
 6763SOL    HW231923   2.834   3.795   6.071  1.3492  0.6279 -1.6688
 6764SOL     OW31924   0.071   2.589   6.948  0.3460 -0.0534  0.3403
 6764SOL    HW131925   0.154   2.618   6.911  1.5436 -1.2139  2.0654
 6764SOL    HW231926   0.025   2.544   6.878  0.1848  1.2116 -0.3581
 6765SOL     OW31927   1.772   0.414   2.237  0.2416  0.0106  0.5686
 6765SOL    HW131928   1.681   0.387   2.221 -0.1673  0.7244  1.6863
 6765SOL    HW231929   1.774   0.496   2.189 -1.7520  1.0155  2.2031
 6766SOL     OW31930   2.001   3.873  16.773  0.7679 -0.0418 -0.1931
 6766SOL    HW131931   2.055   3.835  16.704 -0.8222  0.7845 -1.8560
 6766SOL    HW231932   2.068   3.872  16.841 -1.2520 -0.3277  1.8128
 6767SOL     OW31933   4.390   1.767  13.213 -0.0310 -0.3329  0.6871
 6767SOL    HW131934   4.464   1.761  13.153 -0.7404 -0.6971 -0.1438
 6767SOL    HW231935   4.383   1.863  13.218  0.4680 -0.3936  2.8554
 6768SOL     OW31936   4.189   2.996   8.529  0.7522 -0.3496  0.4967
 6768SOL    HW131937   4.129   2.977   8.457  0.9319 -0.2537  0.3204
 6768SOL    HW231938   4.230   3.076   8.497 -0.2217  0.3582  1.0117
 6769SOL     OW31939   4.258   3.417   4.685 -0.5753 -0.1711 -0.1394
 6769SOL    HW131940   4.291   3.490   4.736  0.3597 -0.9481  0.3722
 6769SOL    HW231941   4.221   3.362   4.754 -0.5666 -0.2905 -0.2287
 6770SOL     OW31942   3.638   4.065   9.072 -0.5023  0.1663 -0.1908
 6770SOL    HW131943   3.686   3.983   9.068  1.4966  1.3050  0.4957
 6770SOL    HW231944   3.646   4.085   9.166 -1.6246  0.5690 -0.1808
 6771SOL     OW31945   3.982   1.124   0.433 -0.2294 -0.2576  0.0702
 6771SOL    HW131946   4.042   1.141   0.505  0.9757 -0.6556 -0.8302
 6771SOL    HW231947   4.014   1.190   0.371 -1.4453  0.2241 -0.0452
 6772SOL     OW31948   2.273   3.554  17.217 -0.0527  0.3890 -0.6598
 6772SOL    HW131949   2.272   3.612  17.293 -2.2610  0.0551 -0.4222
 6772SOL    HW231950   2.230   3.477  17.254  0.6934  0.0375 -0.5233
 6773SOL     OW31951   1.951   0.032  12.799 -0.0572 -0.2351  0.0998
 6773SOL    HW131952   1.943   0.105  12.738 -1.6684 -0.7219 -0.2587
 6773SOL    HW231953   1.908   0.064  12.879  2.2918 -1.7120  1.9718
 6774SOL     OW31954   2.579   1.579  15.752  0.0962 -0.7764 -0.2507
 6774SOL    HW131955   2.516   1.575  15.681 -0.8220 -0.1529  0.5275
 6774SOL    HW231956   2.668   1.575  15.718  0.1063 -1.7740 -0.1023
 6775SOL     OW31957   3.788   0.907  11.154  0.5225 -0.2137 -0.4509
 6775SOL    HW131958   3.861   0.854  11.189  0.0245 -0.3061  0.4572
 6775SOL    HW231959   3.746   0.844  11.096 -0.1401 -0.7602  0.6191
 6776SOL     OW31960   3.622   2.942  15.714 -0.1386  0.0572 -0.2354
 6776SOL    HW131961   3.594   3.028  15.747 -0.8534  0.8018 -2.7373
 6776SOL    HW231962   3.579   2.941  15.628  0.6750 -3.6846 -0.5684
 6777SOL     OW31963   4.318   2.650   1.884 -0.0303 -0.5177  0.8726
 6777SOL    HW131964   4.243   2.600   1.915 -1.6251 -0.4387 -2.9048
 6777SOL    HW231965   4.307   2.735   1.926  0.0750  0.3909 -0.9725
 6778SOL     OW31966   4.688   1.830  14.506 -0.1240 -0.0396  0.3105
 6778SOL    HW131967   4.664   1.761  14.568 -0.0249  0.9718  1.4823
 6778SOL    HW231968   4.657   1.779  14.431 -2.1830  2.1465 -0.3069
 6779SOL     OW31969   1.015   4.201  10.264  0.2223  0.4730 -0.2145
 6779SOL    HW131970   1.103   4.214  10.299  1.2833  1.5882 -3.3306
 6779SOL    HW231971   1.002   4.107  10.278  1.6293  0.5456  1.5787
 6780SOL     OW31972   1.930   0.978   3.139  0.1141 -0.4324 -0.5672
 6780SOL    HW131973   1.910   0.946   3.227  0.2001 -2.5422 -1.3238
 6780SOL    HW231974   2.018   1.017   3.145 -0.7077  1.5580 -1.2925
 6781SOL     OW31975   1.432   4.354  16.811 -0.0273  0.1691 -0.4704
 6781SOL    HW131976   1.519   4.350  16.772 -0.6370  1.3802 -1.9750
 6781SOL    HW231977   1.366   4.344  16.742  0.9036 -1.0960 -1.1886
 6782SOL     OW31978   2.342   0.354   4.135 -0.0745  0.1707  0.2473
 6782SOL    HW131979   2.344   0.333   4.041  1.9239  2.6805 -0.2782
 6782SOL    HW231980   2.393   0.281   4.171 -0.0360 -0.2332 -0.6262
 6783SOL     OW31981   3.129   1.005   2.273  0.3528  0.9602  0.3319
 6783SOL    HW131982   3.124   1.096   2.303 -0.5629  0.8835  0.4243
 6783SOL    HW231983   3.047   0.966   2.303  1.7003 -1.2973  1.1221
 6784SOL     OW31984   3.613   0.218   8.594  0.8935  0.3683  0.3306
 6784SOL    HW131985   3.704   0.190   8.588  0.7330 -0.0165 -0.3688
 6784SOL    HW231986   3.621   0.297   8.647  0.9231 -0.8204  2.0927
 6785SOL     OW31987   1.528   3.160   7.122  0.3817 -0.0856 -0.3207
 6785SOL    HW131988   1.477   3.175   7.202 -0.5523 -0.4896 -0.8375
 6785SOL    HW231989   1.595   3.103   7.160  0.4405 -0.4869 -1.0314
 6786SOL     OW31990   4.095   1.156  15.816 -0.2777 -0.1687 -0.5079
 6786SOL    HW131991   4.032   1.228  15.824  0.1863  0.2166 -0.3558
 6786SOL    HW231992   4.050   1.072  15.806  0.2001 -0.4120 -0.6157
 6787SOL     OW31993   1.247   1.448   6.435  0.5679 -0.3653  0.3314
 6787SOL    HW131994   1.314   1.381   6.449  1.6593  0.8940  1.0152
 6787SOL    HW231995   1.169   1.395   6.415 -1.0447  1.5390  1.5691
 6788SOL     OW31996   2.958   2.532   3.838  0.3959 -0.1424  0.6149
 6788SOL    HW131997   2.961   2.436   3.832 -1.7568 -0.2406  1.2396
 6788SOL    HW231998   2.908   2.559   3.915  0.2341 -2.0032  1.1845
 6789SOL     OW31999   0.052   0.159  16.333  0.0580  0.4397 -0.1989
 6789SOL    HW132000   4.712   0.165  16.281  0.3152 -1.6762 -0.8170
 6789SOL    HW232001   0.027   0.159  16.426 -0.5086 -2.5881 -0.3605
 6790SOL     OW32002   1.708   1.177   3.138  0.3520 -0.4254  0.1725
 6790SOL    HW132003   1.789   1.191   3.089 -0.5703 -1.3797 -1.6065
 6790SOL    HW232004   1.731   1.224   3.219  0.9378  1.1366 -0.9036
 6791SOL     OW32005   1.331   0.737   5.212  0.0046  0.4228  0.3036
 6791SOL    HW132006   1.284   0.764   5.134  1.2807  1.5094 -0.0929
 6791SOL    HW232007   1.281   0.783   5.279 -2.4478 -2.4123  0.4087
 6792SOL     OW32008   4.435   0.377  12.738  0.5836  0.1121 -0.1518
 6792SOL    HW132009   4.412   0.467  12.759  0.5163  0.5911 -2.3008
 6792SOL    HW232010   4.431   0.358  12.644  0.5828  1.4547 -0.4136
 6793SOL     OW32011   3.381   0.124  12.136  0.3986  0.4812  0.1539
 6793SOL    HW132012   3.296   0.095  12.167  0.5062 -1.8166 -1.7296
 6793SOL    HW232013   3.428   0.114  12.219  1.5658  0.3710 -0.5160
 6794SOL     OW32014   2.351   1.745  17.298  0.1636  0.1256  0.3243
 6794SOL    HW132015   2.374   1.769  17.208  2.3259 -1.4032  0.4848
 6794SOL    HW232016   2.257   1.763  17.290 -0.3701 -2.6455  0.2669
 6795SOL     OW32017   3.539   0.467   4.045  0.3587 -0.0260  1.0406
 6795SOL    HW132018   3.556   0.409   4.119 -0.9488 -0.0824  1.3044
 6795SOL    HW232019   3.529   0.403   3.975  0.8367  0.1904  0.7792
 6796SOL     OW32020   0.700   0.774  10.610  0.2027  0.3796 -0.5149
 6796SOL    HW132021   0.625   0.823  10.580  0.2222  0.6079 -0.1867
 6796SOL    HW232022   0.671   0.761  10.700  1.0263  0.8612 -0.1779
 6797SOL     OW32023   3.979   1.104  10.875 -0.0759  0.2467 -0.1205
 6797SOL    HW132024   3.995   1.012  10.898  3.2464  0.4147 -1.7665
 6797SOL    HW232025   4.046   1.122  10.809  0.0384  2.6895  0.6856
 6798SOL     OW32026   0.168   4.190   8.256 -0.0439  0.0802 -0.1890
 6798SOL    HW132027   0.096   4.241   8.218 -0.3294  0.9839  1.5447
 6798SOL    HW232028   0.249   4.225   8.218  0.0111  0.2642  0.0928
 6799SOL     OW32029   3.255   1.987   7.155 -0.0145 -0.5669  0.1016
 6799SOL    HW132030   3.304   1.960   7.077  1.4889 -0.5753  1.0319
 6799SOL    HW232031   3.168   1.948   7.147 -0.2638  0.1942 -0.8388
 6800SOL     OW32032   4.067   2.576  15.227 -0.8800  0.5832 -0.4081
 6800SOL    HW132033   4.008   2.502  15.212  1.5163 -1.5026  0.4162
 6800SOL    HW232034   4.156   2.543  15.219 -1.0370  0.2958 -1.0321
 6801SOL     OW32035   4.682   3.238   0.363 -0.1533  0.3082  0.3269
 6801SOL    HW132036   4.610   3.209   0.420 -0.5358 -0.1632 -0.3876
 6801SOL    HW232037   4.644   3.313   0.318 -0.5216 -0.7308 -1.0825
 6802SOL     OW32038   3.685   3.202   4.735  0.2374  0.0225 -0.0290
 6802SOL    HW132039   3.607   3.249   4.764  1.6998  2.8201 -0.5615
 6802SOL    HW232040   3.751   3.267   4.760  0.5362  0.2026 -1.2703
 6803SOL     OW32041   4.713   0.319   1.979  0.2367  0.5224  0.6320
 6803SOL    HW132042   0.004   0.292   2.065 -0.7593 -1.3765  0.3970
 6803SOL    HW232043   0.016   0.405   1.976 -0.4221  0.7929 -0.8936
 6804SOL     OW32044   3.734   2.805   5.184  0.0717  0.4664 -0.1493
 6804SOL    HW132045   3.820   2.782   5.217  0.3840 -0.8546 -1.8684
 6804SOL    HW232046   3.751   2.886   5.136 -0.6060  1.3779  1.1420
 6805SOL     OW32047   4.455   3.668   2.144  0.3443  0.2760  0.2244
 6805SOL    HW132048   4.548   3.660   2.162  0.1248  1.1342  1.7250
 6805SOL    HW232049   4.457   3.756   2.108  0.6336 -0.0558 -0.5723
 6806SOL     OW32050   0.542   1.156   7.657 -0.4822 -0.1103 -0.4004
 6806SOL    HW132051   0.559   1.120   7.570  2.9449  0.9033 -0.1736
 6806SOL    HW232052   0.628   1.191   7.680 -1.6613  2.0077  0.7764
 6807SOL     OW32053   0.123   1.377   5.325 -0.3979 -0.0488  0.1216
 6807SOL    HW132054   0.035   1.344   5.310 -0.8533  1.2126  0.0565
 6807SOL    HW232055   0.128   1.400   5.418  0.2536 -0.6038  0.2254
 6808SOL     OW32056   3.768   4.281   8.341 -0.1553  0.1630 -0.2617
 6808SOL    HW132057   3.734   4.315   8.424  1.7073  0.1832  0.5059
 6808SOL    HW232058   3.752   4.356   8.284 -1.7153  0.8368  1.0577
 6809SOL     OW32059   4.391   0.443  10.057 -0.0273  0.5819 -0.0940
 6809SOL    HW132060   4.411   0.416   9.968 -1.0632 -0.2658 -0.0741
 6809SOL    HW232061   4.401   0.360  10.104  1.9628  0.7819 -0.2020
 6810SOL     OW32062   1.410   0.696   3.371  0.3823 -0.0993 -0.6918
 6810SOL    HW132063   1.420   0.602   3.356  0.5123  0.1784 -2.4650
 6810SOL    HW232064   1.419   0.692   3.466 -0.5086  0.6988 -0.5749
 6811SOL     OW32065   1.264   0.437  12.953  1.1423 -0.0952 -0.1065
 6811SOL    HW132066   1.292   0.490  13.028 -0.7579  0.2747  0.3594
 6811SOL    HW232067   1.276   0.508  12.890 -0.8477  0.1071 -0.2461
 6812SOL     OW32068   0.575   3.656   3.494 -0.1150 -0.0306  0.8189
 6812SOL    HW132069   0.578   3.745   3.459 -1.9009  0.1201  1.0666
 6812SOL    HW232070   0.660   3.652   3.538 -0.0923 -2.2664  0.6029
 6813SOL     OW32071   3.645   1.593  11.512  0.2019 -0.1698  0.1153
 6813SOL    HW132072   3.621   1.518  11.458 -0.4672  0.9781 -1.1724
 6813SOL    HW232073   3.615   1.660  11.451 -2.8884 -1.9709 -0.3315
 6814SOL     OW32074   4.213   1.784   9.853 -0.1776 -0.1349  0.0623
 6814SOL    HW132075   4.211   1.718   9.922  1.3843 -1.0188 -0.7294
 6814SOL    HW232076   4.271   1.844   9.899 -0.4463  1.3859 -1.5807
 6815SOL     OW32077   0.565   0.343  15.960  0.5516 -0.0522 -0.4195
 6815SOL    HW132078   0.603   0.296  15.886  1.1737 -1.9572  1.1305
 6815SOL    HW232079   0.475   0.312  15.969  0.9961 -1.0490  0.5956
 6816SOL     OW32080   0.764   3.378   2.434  0.4784  0.2392  0.0225
 6816SOL    HW132081   0.830   3.314   2.406 -0.0573 -0.4987  0.4526
 6816SOL    HW232082   0.699   3.373   2.364  0.6511  1.3512 -0.2120
 6817SOL     OW32083   2.965   1.992  16.997 -0.4666 -0.0161  0.3798
 6817SOL    HW132084   2.918   2.031  16.923 -0.4368  0.5770  0.6745
 6817SOL    HW232085   2.899   1.931  17.029  0.6233 -1.1806  0.4185
 6818SOL     OW32086   4.518   3.163   8.687  0.0188 -0.1451  0.1138
 6818SOL    HW132087   4.459   3.199   8.754 -1.5660 -1.8960 -0.3489
 6818SOL    HW232088   4.463   3.094   8.650 -0.1984 -1.2286  2.4336
 6819SOL     OW32089   0.332   1.469   7.162  0.5611  0.2393  0.1432
 6819SOL    HW132090   0.324   1.505   7.251 -1.4305 -1.1645  0.5036
 6819SOL    HW232091   0.379   1.387   7.177  3.1704  1.4427 -1.4173
 6820SOL     OW32092   3.867   3.578   3.709 -0.2545  0.2653  0.2731
 6820SOL    HW132093   3.846   3.551   3.799  1.7567 -2.2172  0.0104
 6820SOL    HW232094   3.864   3.498   3.657 -1.0514 -0.4130  1.3448
 6821SOL     OW32095   0.557   0.675   7.194  0.3980 -0.4655  0.1301
 6821SOL    HW132096   0.516   0.742   7.139 -0.7420 -0.1551  1.3531
 6821SOL    HW232097   0.522   0.598   7.150 -1.8812 -0.0948  1.2872
 6822SOL     OW32098   2.582   0.743   1.961 -0.5046 -0.3598 -0.3439
 6822SOL    HW132099   2.513   0.677   1.952 -1.8026  1.1137 -1.2116
 6822SOL    HW232100   2.602   0.757   1.869 -2.0519  0.9247 -0.4880
 6823SOL     OW32101   0.378   2.255   4.616  0.5083 -0.2910  0.0593
 6823SOL    HW132102   0.423   2.172   4.628  1.3737  0.2115  0.2917
 6823SOL    HW232103   0.380   2.252   4.520  0.5028  1.6972 -0.0037
 6824SOL     OW32104   0.539   2.938   8.890 -0.0441  0.2412 -0.0919
 6824SOL    HW132105   0.578   2.974   8.970 -0.5603 -0.5339  0.5209
 6824SOL    HW232106   0.532   2.847   8.921 -2.9547  0.4648 -0.1023
 6825SOL     OW32107   3.289   0.589  15.308 -0.5383  0.7099 -0.0906
 6825SOL    HW132108   3.314   0.512  15.358 -1.0325 -1.2925 -2.9341
 6825SOL    HW232109   3.213   0.571  15.253  0.9479 -1.4123 -1.4237
 6826SOL     OW32110   1.977   3.289  17.756 -0.0009 -0.5476  0.2763
 6826SOL    HW132111   2.056   3.234   0.001  0.2996  0.0597  2.0365
 6826SOL    HW232112   1.980   3.310  17.663  3.3800  1.3901  0.7990
 6827SOL     OW32113   3.092   4.305   1.919  0.1010  0.3650  0.2806
 6827SOL    HW132114   3.116   4.391   1.884 -0.2720  0.4798  0.3072
 6827SOL    HW232115   3.171   4.254   1.902  0.1374  1.4135 -2.7507
 6828SOL     OW32116   4.083   3.540  15.633  0.1007  0.2581 -0.6600
 6828SOL    HW132117   4.113   3.624  15.668 -1.3379 -0.5223  2.3926
 6828SOL    HW232118   4.050   3.490  15.707  1.8687  0.0021 -0.0257
 6829SOL     OW32119   1.050   2.770   8.335 -0.2355  0.1060  0.0871
 6829SOL    HW132120   1.006   2.854   8.318 -2.5922 -1.1969 -0.3354
 6829SOL    HW232121   1.055   2.779   8.430  0.2570  2.2836 -0.1364
 6830SOL     OW32122   4.113   3.309   2.647 -0.1825  0.0634  0.5645
 6830SOL    HW132123   4.090   3.325   2.739  0.7967  0.1852  0.7869
 6830SOL    HW232124   4.175   3.237   2.656 -0.7648 -0.3396  1.3701
 6831SOL     OW32125   2.874   0.874   2.345  0.2403  0.0482 -0.0994
 6831SOL    HW132126   2.860   0.931   2.421 -1.1652 -0.7545  0.2419
 6831SOL    HW232127   2.897   0.797   2.396  0.2118  0.2478  0.2223
 6832SOL     OW32128   3.298   0.074   4.308  0.4735  0.1238  0.3731
 6832SOL    HW132129   3.316   0.123   4.388  1.2440  1.5614 -0.6859
 6832SOL    HW232130   3.347   4.735   4.328  0.1597  0.1149  1.1302
 6833SOL     OW32131   3.311   1.978   6.192 -0.7605  0.6084 -0.2683
 6833SOL    HW132132   3.380   2.022   6.242 -0.9244  0.6955 -0.1182
 6833SOL    HW232133   3.303   1.894   6.238  1.3721  0.5538  0.0270
 6834SOL     OW32134   3.320   3.800   6.284 -0.2169 -0.1852 -0.2929
 6834SOL    HW132135   3.282   3.851   6.355 -1.5773 -1.2206 -0.2835
 6834SOL    HW232136   3.354   3.728   6.337  0.2611  0.0651 -0.2566
 6835SOL     OW32137   0.522   4.169   2.068  0.2068  0.1866 -0.1468
 6835SOL    HW132138   0.519   4.122   2.151 -0.1158  0.5939  0.0691
 6835SOL    HW232139   0.615   4.156   2.046 -0.1394 -1.4945 -0.6171
 6836SOL     OW32140   3.194   0.919   6.999  0.6005 -0.1942  0.2142
 6836SOL    HW132141   3.204   0.940   6.906 -0.0507 -0.2020  0.1459
 6836SOL    HW232142   3.123   0.856   7.004 -0.8077  1.6131  3.0533
 6837SOL     OW32143   0.311   2.806   2.728 -0.2390  0.5014 -0.8579
 6837SOL    HW132144   0.313   2.803   2.632 -2.1506  0.9888 -0.8994
 6837SOL    HW232145   0.334   2.715   2.749 -1.5014  0.5407  0.6431
 6838SOL     OW32146   0.755   0.101   9.826  0.7058 -0.2344 -0.0392
 6838SOL    HW132147   0.670   0.077   9.788  0.6166 -0.4775  0.3164
 6838SOL    HW232148   0.739   0.142   9.911  1.6376  0.6920 -0.3115
 6839SOL     OW32149   3.293   1.918   5.299 -0.4913  0.3068  0.0408
 6839SOL    HW132150   3.387   1.915   5.287 -0.4014 -2.3550  1.4445
 6839SOL    HW232151   3.250   1.991   5.255 -2.2610 -1.2233 -0.8205
 6840SOL     OW32152   0.798   3.135   5.328 -0.1519  0.5643  0.3255
 6840SOL    HW132153   0.796   3.039   5.322 -2.5331  0.7680 -1.9003
 6840SOL    HW232154   0.703   3.147   5.325 -0.0896  0.7501 -0.7076
 6841SOL     OW32155   1.871   0.222   4.052  0.6220 -0.1089 -0.3559
 6841SOL    HW132156   1.956   0.188   4.026  0.1956 -2.1722  0.9095
 6841SOL    HW232157   1.892   0.307   4.089  2.2309 -0.4414 -0.5414
 6842SOL     OW32158   0.602   1.619   6.667 -0.1767  0.3160 -0.3361
 6842SOL    HW132159   0.687   1.618   6.622  1.1849 -0.3331  2.2727
 6842SOL    HW232160   0.599   1.531   6.705 -0.0683  0.2885 -0.3902
 6843SOL     OW32161   4.524   1.523   6.488 -1.0762  0.0284 -0.4301
 6843SOL    HW132162   4.560   1.564   6.409  0.1062  0.7779  0.5165
 6843SOL    HW232163   4.448   1.482   6.446 -1.8207  0.0890  0.8361
 6844SOL     OW32164   0.828   1.973   7.080  0.1024  0.1219  0.2105
 6844SOL    HW132165   0.778   1.924   7.014 -0.4480  1.9153 -0.7000
 6844SOL    HW232166   0.801   2.064   7.069  0.2057  0.0914 -0.3083
 6845SOL     OW32167   4.182   2.096   4.532 -0.3561 -0.1822  0.3473
 6845SOL    HW132168   4.252   2.057   4.585 -2.2460 -0.5236  2.5946
 6845SOL    HW232169   4.222   2.101   4.445 -0.1275  0.8567  0.5055
 6846SOL     OW32170   4.245   2.157  17.489 -0.1398  0.0583 -0.3935
 6846SOL    HW132171   4.234   2.065  17.468  0.0267  0.0980 -0.6612
 6846SOL    HW232172   4.206   2.160  17.577 -0.2451  0.7949 -0.4580
 6847SOL     OW32173   2.339   4.623  10.742  0.3761 -0.1625 -0.0832
 6847SOL    HW132174   2.422   4.623  10.790 -0.9307  0.9787  2.1927
 6847SOL    HW232175   2.269   4.600  10.803 -1.0307 -1.0045 -2.0417
 6848SOL     OW32176   3.801   0.193   2.551  0.1253 -0.1994 -0.5138
 6848SOL    HW132177   3.773   0.111   2.510  1.2738 -1.4808  1.2778
 6848SOL    HW232178   3.786   0.171   2.643 -1.6755  0.8055 -0.5615
 6849SOL     OW32179   1.574   3.033   4.811  0.2814  0.0029 -0.1010
 6849SOL    HW132180   1.515   3.093   4.856  0.5613  0.3109 -0.1450
 6849SOL    HW232181   1.525   2.960   4.773  0.5606  0.4112 -1.2457
 6850SOL     OW32182   3.881   2.609   4.432  0.5120 -0.6236  0.0513
 6850SOL    HW132183   3.919   2.524   4.454 -0.5452 -1.1317 -0.0748
 6850SOL    HW232184   3.826   2.628   4.508  2.3815 -2.1124  1.7755
 6851SOL     OW32185   0.029   0.955   4.887  0.4137  0.3259 -0.3984
 6851SOL    HW132186   0.085   0.956   4.809  0.3584  0.6983 -0.4358
 6851SOL    HW232187   4.679   0.970   4.861 -0.0678 -1.5366  0.2225
 6852SOL     OW32188   2.771   2.853   7.431 -0.3288 -0.0044 -0.3293
 6852SOL    HW132189   2.835   2.897   7.374  0.3114 -0.0410  0.3513
 6852SOL    HW232190   2.720   2.801   7.369  0.5372 -0.8448 -0.3417
 6853SOL     OW32191   1.386   0.246   5.340  1.0363  0.2541  0.5555
 6853SOL    HW132192   1.423   0.334   5.338 -1.8864  1.5161  1.2708
 6853SOL    HW232193   1.293   0.263   5.326  0.8268 -1.8028 -0.6092
 6854SOL     OW32194   1.027   1.839  11.253 -0.0330 -0.0912 -1.0511
 6854SOL    HW132195   0.940   1.836  11.291  1.3377  0.1410  2.1181
 6854SOL    HW232196   1.036   1.934  11.248  2.0986 -0.2050  0.4314
 6855SOL     OW32197   1.344   4.393  11.694  0.6175  0.6193 -0.0591
 6855SOL    HW132198   1.273   4.346  11.650  1.8149 -0.0714 -1.2800
 6855SOL    HW232199   1.414   4.338  11.657 -1.8687 -1.5691 -1.5306
 6856SOL     OW32200   4.339   1.308   9.338 -0.5371  0.1250  0.5780
 6856SOL    HW132201   4.350   1.226   9.386 -0.9472  0.0307  0.5122
 6856SOL    HW232202   4.429   1.339   9.336  0.5069 -3.0122 -0.7849
 6857SOL     OW32203   3.942   1.478   4.258  0.4691 -0.5173 -0.2552
 6857SOL    HW132204   3.890   1.558   4.250 -0.4917 -1.0612  0.5832
 6857SOL    HW232205   3.963   1.450   4.169  0.2604 -1.9468  0.1426
 6858SOL     OW32206   4.737   2.944   6.850  0.4461 -0.4670 -0.2461
 6858SOL    HW132207   4.688   2.894   6.785 -1.6586 -1.1580  1.8934
 6858SOL    HW232208   0.044   2.997   6.787 -0.6370  0.3338 -0.3970
 6859SOL     OW32209   4.273   0.745   5.603  0.1351  0.1044 -0.1075
 6859SOL    HW132210   4.255   0.666   5.653 -0.1670 -1.2757 -2.3983
 6859SOL    HW232211   4.273   0.818   5.664  0.3396  1.3756 -1.6172
 6860SOL     OW32212   1.967   4.197   6.748 -0.1996  0.8130  0.2561
 6860SOL    HW132213   1.873   4.190   6.734 -0.2745  1.2531  0.5695
 6860SOL    HW232214   1.986   4.285   6.779  0.8576  0.0074  1.9156
 6861SOL     OW32215   1.233   1.547   9.745  0.3416  0.8436  0.4980
 6861SOL    HW132216   1.211   1.524   9.835  1.1336 -3.0867 -0.3024
 6861SOL    HW232217   1.328   1.537   9.750  0.4070  0.0468 -2.1704
 6862SOL     OW32218   3.836   0.702   9.976  0.1439  0.2655  0.1427
 6862SOL    HW132219   3.839   0.608   9.959 -1.8717 -0.2473  2.5535
 6862SOL    HW232220   3.899   0.711  10.048 -0.4860  0.3470  0.6764
 6863SOL     OW32221   3.583   2.743   5.982  0.5592  0.3793  0.3455
 6863SOL    HW132222   3.546   2.697   5.906  0.9863  0.6463 -0.0176
 6863SOL    HW232223   3.591   2.833   5.952 -0.9228  0.2062 -0.5905
 6864SOL     OW32224   2.339   1.055  10.627 -0.4084  0.1789 -0.4474
 6864SOL    HW132225   2.395   1.111  10.573  0.0689  0.5756  0.4632
 6864SOL    HW232226   2.378   1.057  10.715 -0.2798  0.7207 -0.5196
 6865SOL     OW32227   2.995   4.368   6.220  0.3849 -0.0391 -0.2282
 6865SOL    HW132228   2.899   4.373   6.222  0.2690 -1.5057 -2.1530
 6865SOL    HW232229   3.019   4.392   6.310 -2.1299  1.9323 -0.0779
 6866SOL     OW32230   0.082   3.541   1.324 -0.4237  0.2976  0.1356
 6866SOL    HW132231   0.145   3.505   1.386  0.0053  0.0405 -0.4463
 6866SOL    HW232232   4.735   3.537   1.362 -0.9158  1.5339 -0.8714
 6867SOL     OW32233   4.005   4.360   4.856  0.0547 -0.4115 -0.2233
 6867SOL    HW132234   4.055   4.288   4.817 -0.5041 -1.4122  0.8830
 6867SOL    HW232235   3.964   4.312   4.928 -1.8012  1.3214 -0.1288
 6868SOL     OW32236   0.013   0.296  14.373  0.3759 -0.1283  0.8014
 6868SOL    HW132237   4.692   0.332  14.436 -0.5099 -0.2841  0.0256
 6868SOL    HW232238   0.086   0.297  14.434  0.8617 -0.5266  0.2291
 6869SOL     OW32239   4.313   3.518   2.311  0.2519 -0.0309 -0.0339
 6869SOL    HW132240   4.341   3.562   2.230  0.1165  1.6673  0.8397
 6869SOL    HW232241   4.366   3.573   2.368 -3.1381  1.9282  1.1750
 6870SOL     OW32242   3.295   1.470   1.844  0.4564 -0.2674  0.2273
 6870SOL    HW132243   3.367   1.409   1.863  0.1595 -0.4241  0.8348
 6870SOL    HW232244   3.282   1.432   1.757 -1.5089 -1.0580  0.8882
 6871SOL     OW32245   2.750   0.278   2.341  0.6567 -0.2521  0.0896
 6871SOL    HW132246   2.792   0.240   2.264 -0.4515  0.0886 -0.6997
 6871SOL    HW232247   2.692   0.204   2.363  1.0001 -0.4754  0.2328
 6872SOL     OW32248   2.279   2.387   6.455 -0.5019  0.4942 -0.1731
 6872SOL    HW132249   2.340   2.454   6.486  1.3058 -1.6475  0.9832
 6872SOL    HW232250   2.278   2.398   6.360 -0.2919  1.6305 -0.0342
 6873SOL     OW32251   2.290   3.867   8.168 -0.7388 -0.3874  0.0672
 6873SOL    HW132252   2.256   3.805   8.103 -1.2545  0.2547 -0.2643
 6873SOL    HW232253   2.336   3.812   8.232 -0.4177 -1.0391 -0.7214
 6874SOL     OW32254   1.916   1.965   9.446 -0.9881 -0.0675  0.3925
 6874SOL    HW132255   1.912   1.987   9.539 -1.1937 -1.3160  0.6844
 6874SOL    HW232256   1.950   1.876   9.454  0.9391  0.5974 -0.4972
 6875SOL     OW32257   1.678   1.859  14.356  0.0245  0.0744  0.5588
 6875SOL    HW132258   1.681   1.770  14.390 -2.9243 -1.0612 -2.1498
 6875SOL    HW232259   1.697   1.905  14.438 -0.3985  1.1166  0.0757
 6876SOL     OW32260   2.364   3.415   4.999  0.7283  0.1948 -0.1936
 6876SOL    HW132261   2.400   3.458   4.921  1.7001  1.7893  1.1309
 6876SOL    HW232262   2.433   3.425   5.066  0.1087 -2.0635  0.7717
 6877SOL     OW32263   4.508   3.150   7.220  0.0284  0.6326  0.4314
 6877SOL    HW132264   4.576   3.133   7.155 -1.9157  1.4068 -1.7894
 6877SOL    HW232265   4.547   3.204   7.289  0.8835  1.8115 -0.9806
 6878SOL     OW32266   1.348   1.918   6.259 -0.3356  0.6365  0.1491
 6878SOL    HW132267   1.389   1.995   6.298 -0.4617  0.2941  0.9474
 6878SOL    HW232268   1.312   1.877   6.337  1.0966  2.2266  1.6278
 6879SOL     OW32269   1.014   4.142   2.729  0.1815  0.2207 -0.4055
 6879SOL    HW132270   0.992   4.063   2.778 -0.7065  0.0558 -1.0835
 6879SOL    HW232271   1.106   4.143   2.755  0.7497  1.4102 -2.4552
 6880SOL     OW32272   4.530   0.592  15.955  0.5140 -0.1211 -0.5203
 6880SOL    HW132273   4.558   0.680  15.978  0.3241 -0.4555  0.9699
 6880SOL    HW232274   4.613   0.563  15.919  0.2099 -2.3737  0.5700
 6881SOL     OW32275   0.675   4.404   9.291 -0.0444  0.6773 -0.6175
 6881SOL    HW132276   0.631   4.319   9.302  1.4880  0.1821  1.5626
 6881SOL    HW232277   0.760   4.376   9.326  0.5108  1.3924 -1.3939
 6882SOL     OW32278   4.558   0.635   1.741  0.1092  0.0374  0.4268
 6882SOL    HW132279   4.600   0.659   1.824 -1.6797  1.7961  0.8551
 6882SOL    HW232280   4.472   0.679   1.747  0.0090 -0.1347  0.2272
 6883SOL     OW32281   2.829   1.269   8.472  0.2450 -0.4967  0.8024
 6883SOL    HW132282   2.809   1.350   8.425  0.3991 -2.3913 -2.5896
 6883SOL    HW232283   2.767   1.213   8.425 -1.0548  0.7012  1.0586
 6884SOL     OW32284   1.314   0.009   3.275  0.0114 -0.3277 -1.1064
 6884SOL    HW132285   1.219   4.739   3.278  0.0822 -0.5508  0.3936
 6884SOL    HW232286   1.317   4.738   3.180  1.9468  2.3709 -1.3944
 6885SOL     OW32287   2.485   2.920  10.391  0.0648  0.4202  0.0632
 6885SOL    HW132288   2.453   2.928  10.301  1.7529  0.0288 -0.5740
 6885SOL    HW232289   2.560   2.861  10.389 -0.8556 -0.6367 -2.5617
 6886SOL     OW32290   2.927   2.922   8.329  0.5965  0.1489  0.3671
 6886SOL    HW132291   3.007   2.945   8.377  1.9164  1.6403 -2.5775
 6886SOL    HW232292   2.912   2.833   8.361  0.6254 -1.3398 -3.7541
 6887SOL     OW32293   3.414   1.180   0.356 -0.2662 -0.5003 -0.1402
 6887SOL    HW132294   3.375   1.258   0.393 -2.6360 -1.6973 -0.1497
 6887SOL    HW232295   3.346   1.114   0.363 -0.7531 -0.0666 -0.7521
 6888SOL     OW32296   3.532   2.751   2.163 -0.1228  0.0647  0.1503
 6888SOL    HW132297   3.537   2.847   2.161  0.4913  0.0650  2.3052
 6888SOL    HW232298   3.535   2.745   2.258  2.8463  0.0401  0.0638
 6889SOL     OW32299   0.151   3.183   5.579 -0.3109 -0.0116  0.3014
 6889SOL    HW132300   0.090   3.169   5.507 -0.2344 -2.0642  0.6325
 6889SOL    HW232301   0.130   3.115   5.644  1.1848 -0.0630  0.7450
 6890SOL     OW32302   0.146   4.521   8.350  0.6565  0.1564  0.7820
 6890SOL    HW132303   0.216   4.564   8.301 -1.0495  1.2042 -0.7683
 6890SOL    HW232304   0.154   4.556   8.439  0.4299  3.0034 -0.3094
 6891SOL     OW32305   2.573   4.379   1.079  0.2411  0.1299 -0.2112
 6891SOL    HW132306   2.614   4.377   1.165 -1.6505 -0.8138  0.6508
 6891SOL    HW232307   2.548   4.288   1.065 -0.8489  0.7065 -2.0289
 6892SOL     OW32308   2.964   0.210   4.932 -0.3383 -0.4341 -0.1737
 6892SOL    HW132309   2.984   0.202   5.026  0.8060  1.9430 -0.1972
 6892SOL    HW232310   2.913   0.291   4.941 -0.0558 -0.3590  0.8039
 6893SOL     OW32311   4.668   2.089  13.345 -0.2233 -0.2365  0.8005
 6893SOL    HW132312   4.729   2.089  13.271  0.9557  1.8088  1.7804
 6893SOL    HW232313   4.719   2.128  13.416  2.4123 -0.5104 -0.9672
 6894SOL     OW32314   2.591   2.703   3.540 -0.1695 -0.4074 -0.1313
 6894SOL    HW132315   2.681   2.713   3.573 -0.7057 -0.5418  1.3578
 6894SOL    HW232316   2.556   2.679   3.626  0.4137 -0.8466 -0.0142
 6895SOL     OW32317   1.845   3.493  14.255  0.1982  0.2087 -0.6024
 6895SOL    HW132318   1.780   3.522  14.190 -1.3701 -2.0172 -0.0320
 6895SOL    HW232319   1.923   3.485  14.201 -0.8502  2.5177 -2.4918
 6896SOL     OW32320   2.323   0.541  17.118  0.1249  0.0450  0.3720
 6896SOL    HW132321   2.335   0.634  17.140  2.4308 -0.5636  1.7074
 6896SOL    HW232322   2.409   0.530  17.077 -0.2350 -1.2731 -0.0439
 6897SOL     OW32323   3.634   4.167   4.844 -0.8921  0.5036 -0.9121
 6897SOL    HW132324   3.621   4.077   4.875  0.3199  1.4727  2.4420
 6897SOL    HW232325   3.680   4.154   4.761  2.4125  0.0169  0.9868
 6898SOL     OW32326   1.208   3.529   8.647 -0.1762 -0.5448  0.2766
 6898SOL    HW132327   1.153   3.476   8.704  0.4246 -1.4896 -0.0215
 6898SOL    HW232328   1.249   3.578   8.718 -1.5049 -1.8787  1.9764
 6899SOL     OW32329   0.290   1.026  12.943  0.2981 -0.2876 -0.2886
 6899SOL    HW132330   0.328   1.059  13.024  0.2030 -2.6522  0.7130
 6899SOL    HW232331   0.362   1.046  12.883  0.7673  2.0490  1.0550
 6900SOL     OW32332   1.701   2.484   8.076  0.6453 -0.1034  0.2168
 6900SOL    HW132333   1.609   2.483   8.049  1.5058 -2.0098 -2.6434
 6900SOL    HW232334   1.713   2.579   8.079  0.9683 -0.1131 -0.8295
 6901SOL     OW32335   2.481   2.838  15.024  0.1747 -0.4044  0.0335
 6901SOL    HW132336   2.479   2.819  14.930  0.4645  1.2381 -0.2922
 6901SOL    HW232337   2.414   2.780  15.060 -0.5773  1.6377  1.8537
 6902SOL     OW32338   1.250   2.016   3.871 -0.9387  0.2518  0.3165
 6902SOL    HW132339   1.191   2.091   3.863 -2.4527 -0.9184  0.7260
 6902SOL    HW232340   1.328   2.072   3.869 -1.8518  1.5837  1.9776
 6903SOL     OW32341   4.643   1.443   6.016 -0.2399 -0.1229  0.1635
 6903SOL    HW132342   4.645   1.505   5.943  1.7976 -0.2573  0.0981
 6903SOL    HW232343   4.575   1.382   5.988  0.4670 -1.5325  1.5156
 6904SOL     OW32344   1.618   1.404   5.875 -0.0911 -0.1830  0.1608
 6904SOL    HW132345   1.659   1.491   5.866 -0.4747  0.1875  2.1593
 6904SOL    HW232346   1.631   1.393   5.969 -1.3796 -1.2748  0.1978
 6905SOL     OW32347   2.669   0.808  16.556  0.1490  0.0659  0.3427
 6905SOL    HW132348   2.636   0.896  16.573  0.0484 -0.8036  4.7387
 6905SOL    HW232349   2.743   0.836  16.502 -1.6072  0.9479 -1.6125
 6906SOL     OW32350   1.139   4.337  13.393 -0.3352 -0.1368  0.3502
 6906SOL    HW132351   1.064   4.301  13.442 -0.4309 -1.4821 -0.7902
 6906SOL    HW232352   1.113   4.426  13.371 -1.0927  0.0304  1.8676
 6907SOL     OW32353   4.328   3.841   4.260 -0.2644  0.9687  0.3278
 6907SOL    HW132354   4.417   3.870   4.239  0.3665 -0.7393  0.6663
 6907SOL    HW232355   4.323   3.888   4.343  0.5294 -0.9868  1.4662
 6908SOL     OW32356   2.857   3.100   1.993  0.3352 -0.2239  0.1884
 6908SOL    HW132357   2.791   3.169   2.005 -0.7405 -1.2127  0.0146
 6908SOL    HW232358   2.802   3.035   1.949 -1.6292  0.3535  1.7368
 6909SOL     OW32359   2.734   2.764   4.926  0.0823 -0.3117 -0.2196
 6909SOL    HW132360   2.810   2.770   4.985 -0.0626  0.4333 -0.1028
 6909SOL    HW232361   2.696   2.852   4.920 -1.1741 -0.9190 -0.9518
 6910SOL     OW32362   3.280   1.956  10.758 -0.6119 -0.2544 -0.2656
 6910SOL    HW132363   3.247   1.965  10.848 -0.5163  3.1043 -0.5856
 6910SOL    HW232364   3.201   1.967  10.706 -1.7763 -0.6022  1.4301
 6911SOL     OW32365   1.274   0.880   6.369 -0.4146 -0.3722 -0.4027
 6911SOL    HW132366   1.246   0.895   6.460  0.6204  0.8584 -0.2759
 6911SOL    HW232367   1.196   0.846   6.325 -0.2353  0.6290 -1.4984
 6912SOL     OW32368   3.094   4.479   8.490 -0.0506  0.0983  0.1060
 6912SOL    HW132369   3.167   4.503   8.547 -1.7208  0.5889  1.9835
 6912SOL    HW232370   3.030   4.439   8.548  1.3664 -1.0806  0.8773
 6913SOL     OW32371   0.766   2.517   3.315  0.0919  0.4593 -0.0217
 6913SOL    HW132372   0.799   2.580   3.251 -0.2047  1.0451  0.4038
 6913SOL    HW232373   0.700   2.477   3.259 -1.3579  1.4340  0.9841
 6914SOL     OW32374   1.069   1.960   9.855  0.1355 -0.0254  0.1427
 6914SOL    HW132375   1.047   1.873   9.819  0.8702  1.0048 -2.8122
 6914SOL    HW232376   0.987   1.990   9.893 -0.3418 -1.1458  0.0111
 6915SOL     OW32377   2.831   0.771   6.282 -0.2562  0.2467 -0.1887
 6915SOL    HW132378   2.865   0.860   6.292 -1.8930  0.9185 -0.5762
 6915SOL    HW232379   2.750   0.801   6.240 -0.6348 -1.3531 -0.6111
 6916SOL     OW32380   0.499   1.433   8.402  0.2020 -0.4414  0.3135
 6916SOL    HW132381   0.497   1.337   8.406 -2.0117 -0.4730 -1.2089
 6916SOL    HW232382   0.420   1.456   8.450  0.0375 -0.0446 -0.1441
 6917SOL     OW32383   2.779   1.497   9.837  0.0430 -0.4485 -0.0935
 6917SOL    HW132384   2.792   1.546   9.755 -2.0202 -1.3234 -0.9411
 6917SOL    HW232385   2.687   1.484   9.815  0.4366 -0.6419 -1.6475
 6918SOL     OW32386   3.089   0.117   1.332  0.0290  0.3625 -0.4715
 6918SOL    HW132387   3.002   0.099   1.366  0.2136 -0.4778 -0.4562
 6918SOL    HW232388   3.117   0.026   1.324 -0.7012  0.2461 -1.6051
 6919SOL     OW32389   2.811   0.459   7.088 -0.1587 -0.2578 -1.0603
 6919SOL    HW132390   2.788   0.379   7.135  0.3226  0.3943  0.2935
 6919SOL    HW232391   2.721   0.491   7.085 -0.2543 -0.3355  1.1538
 6920SOL     OW32392   0.473   2.388   9.079  0.5497 -0.3191  0.4681
 6920SOL    HW132393   0.482   2.334   9.157  0.4359  0.0407  0.7295
 6920SOL    HW232394   0.563   2.416   9.061  0.5563 -0.7342 -0.1622
 6921SOL     OW32395   4.297   2.883   2.231  0.4922 -0.1914  0.3342
 6921SOL    HW132396   4.348   2.813   2.190  0.6186 -0.6804  1.3263
 6921SOL    HW232397   4.253   2.915   2.153  1.9484 -0.8114 -0.7538
 6922SOL     OW32398   3.234   0.772   1.611 -0.9337  0.7757 -0.2845
 6922SOL    HW132399   3.142   0.771   1.584 -0.8601  3.4516 -0.6577
 6922SOL    HW232400   3.219   0.734   1.697  0.3478  0.7203 -0.0822
 6923SOL     OW32401   1.157   3.776  17.617 -0.1145  0.1416  0.1442
 6923SOL    HW132402   1.169   3.804  17.526  1.0558 -3.2536 -0.7534
 6923SOL    HW232403   1.071   3.735  17.621 -0.4187  0.9562  2.0553
 6924SOL     OW32404   1.285   0.701  17.308 -0.0221  0.9084 -0.5597
 6924SOL    HW132405   1.329   0.724  17.227  0.2338 -0.1329 -0.7213
 6924SOL    HW232406   1.208   0.652  17.280  0.5510 -0.3233  0.0023
 6925SOL     OW32407   2.876   4.590   7.654 -0.0875 -0.1269  0.1078
 6925SOL    HW132408   2.825   4.630   7.584  0.3148 -1.1794 -0.7722
 6925SOL    HW232409   2.810   4.536   7.697  0.6659 -1.9917 -1.0868
 6926SOL     OW32410   4.590   3.211   9.397  0.5886 -0.1897  0.3943
 6926SOL    HW132411   4.667   3.157   9.415  1.0114  0.1589 -0.3675
 6926SOL    HW232412   4.585   3.274   9.469  0.5548 -0.8660  0.9871
 6927SOL     OW32413   1.279   3.334   6.124  0.1729  0.0593  0.8603
 6927SOL    HW132414   1.334   3.391   6.179  2.2407 -1.3932  0.3175
 6927SOL    HW232415   1.344   3.282   6.075 -1.2842 -0.7093 -0.2446
 6928SOL     OW32416   4.396   3.394   7.652 -0.0186 -0.5160  0.0903
 6928SOL    HW132417   4.396   3.303   7.682  0.5427  0.0422  1.7550
 6928SOL    HW232418   4.397   3.435   7.738 -0.2466 -0.9991  0.3280
 6929SOL     OW32419   0.758   1.718  12.662 -0.2682  0.0911 -0.0268
 6929SOL    HW132420   0.807   1.636  12.651  0.7130  1.0438 -2.8121
 6929SOL    HW232421   0.831   1.778  12.676  1.2972 -2.0852  1.2700
 6930SOL     OW32422   2.280   3.338   6.695  0.1444 -0.2671 -0.1994
 6930SOL    HW132423   2.338   3.364   6.624  0.7865  1.3201  0.9067
 6930SOL    HW232424   2.273   3.242   6.689  0.7426 -0.3461  0.3457
 6931SOL     OW32425   0.367   1.033   8.887 -0.2203 -0.6465  0.2583
 6931SOL    HW132426   0.329   0.957   8.931 -0.5118 -0.0144  1.1207
 6931SOL    HW232427   0.456   1.004   8.868 -0.0514 -0.4326  0.7004
 6932SOL     OW32428   0.725   0.108  14.119 -0.9039  0.2597  0.4912
 6932SOL    HW132429   0.660   0.169  14.085 -0.3431 -0.5006 -1.9306
 6932SOL    HW232430   0.681   0.073  14.196  1.1621  0.1781  1.6349
 6933SOL     OW32431   4.570   1.272   3.892  0.6556 -0.0478 -0.0921
 6933SOL    HW132432   4.555   1.321   3.974  1.2425 -1.8618  1.0910
 6933SOL    HW232433   4.663   1.250   3.900  0.0118 -2.5813  0.2855
 6934SOL     OW32434   2.836   3.089  15.452 -0.0888 -0.2679 -0.3233
 6934SOL    HW132435   2.753   3.041  15.460  1.3022 -3.1157 -2.7888
 6934SOL    HW232436   2.901   3.019  15.444  0.7844  0.4777  0.2258
 6935SOL     OW32437   1.349   1.597   1.943  0.1364  0.2553  0.7977
 6935SOL    HW132438   1.424   1.573   1.890 -1.0285  2.3313 -1.7605
 6935SOL    HW232439   1.340   1.520   2.000 -1.9192  0.7232  1.1022
 6936SOL     OW32440   2.530   3.998  11.070  0.6023 -0.3611  0.7524
 6936SOL    HW132441   2.550   4.074  11.014  2.2442 -0.2473  1.4808
 6936SOL    HW232442   2.527   4.036  11.158  2.4028  2.1536 -0.2579
 6937SOL     OW32443   0.723   3.921   8.540 -0.0715  0.1175  0.3604
 6937SOL    HW132444   0.702   4.009   8.508  1.4999  0.9232  1.5093
 6937SOL    HW232445   0.690   3.920   8.630 -0.7495  0.4412  0.1099
 6938SOL     OW32446   1.058   2.506   7.615 -0.1095 -0.9756  0.3113
 6938SOL    HW132447   1.124   2.552   7.666 -0.2672 -0.3218 -0.0751
 6938SOL    HW232448   1.014   2.446   7.676  0.9012 -0.1162  1.8771
 6939SOL     OW32449   2.199   3.955  11.195  0.1603 -0.0409  0.1478
 6939SOL    HW132450   2.172   3.924  11.109  0.1856 -1.9316  0.8268
 6939SOL    HW232451   2.152   3.906  11.262 -1.4543 -0.9916 -1.6959
 6940SOL     OW32452   2.972   0.484  17.009 -0.9024  0.0158 -0.0196
 6940SOL    HW132453   3.019   0.489  17.093  0.9809 -4.1702 -0.8257
 6940SOL    HW232454   2.990   0.570  16.970 -0.4333  1.1699  2.7368
 6941SOL     OW32455   0.439   0.375   5.032 -0.3746 -0.4415  0.4894
 6941SOL    HW132456   0.351   0.412   5.039  0.7816  2.4030 -0.2212
 6941SOL    HW232457   0.469   0.393   5.121  0.4842 -0.7330  0.2663
 6942SOL     OW32458   4.615   3.665   8.026 -0.3921 -0.5902  0.1236
 6942SOL    HW132459   4.576   3.666   8.114 -0.0534  0.4432  0.2590
 6942SOL    HW232460   4.691   3.720   8.043 -0.9311  0.7715 -1.9702
 6943SOL     OW32461   3.458   2.572   6.244  0.3452  0.3052  0.8017
 6943SOL    HW132462   3.548   2.599   6.225 -0.0768  2.3102  1.5604
 6943SOL    HW232463   3.453   2.586   6.339  1.8849 -1.9113  1.1872
 6944SOL     OW32464   4.195   2.670  12.016 -0.2617 -0.6758 -0.3962
 6944SOL    HW132465   4.244   2.592  12.042  0.9608  0.5424  0.8857
 6944SOL    HW232466   4.112   2.625  11.999 -1.7183  1.8839 -0.1306
 6945SOL     OW32467   1.830   4.470   3.711  0.2757  0.3327  0.1756
 6945SOL    HW132468   1.878   4.527   3.771  1.3727  0.6327 -1.0099
 6945SOL    HW232469   1.742   4.476   3.748 -0.6399 -2.7522 -1.4999
 6946SOL     OW32470   0.957   0.676   4.058 -0.4177 -0.2701  0.0463
 6946SOL    HW132471   0.893   0.650   3.992 -1.1570  2.5108 -0.3597
 6946SOL    HW232472   0.926   0.624   4.132  0.8612 -0.5333  0.4035
 6947SOL     OW32473   3.571   2.932   7.041 -0.2999 -0.3202  0.4675
 6947SOL    HW132474   3.607   2.846   7.064  1.0498 -0.0370 -0.5905
 6947SOL    HW232475   3.494   2.932   7.098  0.2255 -1.4307  1.2005
 6948SOL     OW32476   0.959   2.436   0.725  0.0686 -0.1566 -0.3322
 6948SOL    HW132477   1.015   2.364   0.756  1.0258  0.4093 -0.7332
 6948SOL    HW232478   0.936   2.458   0.815  1.2715 -0.7359  0.1191
 6949SOL     OW32479   0.703   2.693   2.868 -0.0486  0.0116  0.1105
 6949SOL    HW132480   0.716   2.730   2.781 -0.3268  0.7566  0.3809
 6949SOL    HW232481   0.617   2.727   2.893  0.2123  0.7079  0.0748
 6950SOL     OW32482   0.270   3.175  13.199 -0.6263 -0.5308  0.6622
 6950SOL    HW132483   0.254   3.125  13.280 -1.1938 -1.4215 -0.0060
 6950SOL    HW232484   0.222   3.251  13.233  0.0961 -0.1607  0.8706
 6951SOL     OW32485   2.706   1.208   5.047 -0.4342 -0.2768 -0.1536
 6951SOL    HW132486   2.612   1.190   5.047 -0.9110  2.2700  1.2784
 6951SOL    HW232487   2.721   1.273   5.114  0.5076 -1.7476  1.0594
 6952SOL     OW32488   2.597   3.018   4.871  0.0798 -0.6042  0.0649
 6952SOL    HW132489   2.582   3.057   4.785 -0.5664 -2.3043 -0.5882
 6952SOL    HW232490   2.509   3.045   4.900  0.3328  0.1807  0.1125
 6953SOL     OW32491   3.710   3.332   9.591 -0.4484 -0.1426  0.1074
 6953SOL    HW132492   3.632   3.291   9.628 -0.8101  1.0643  0.7010
 6953SOL    HW232493   3.686   3.329   9.498  1.8460 -1.6682 -0.4330
 6954SOL     OW32494   3.768   3.858  11.868 -0.1214 -0.1305 -0.3847
 6954SOL    HW132495   3.793   3.845  11.959 -4.8543 -0.6743  0.7909
 6954SOL    HW232496   3.776   3.953  11.879  2.2068 -0.3382 -0.2965
 6955SOL     OW32497   0.642   4.026   7.764 -0.0902  0.4861 -0.4142
 6955SOL    HW132498   0.644   4.040   7.859  0.9271 -2.5548  0.0011
 6955SOL    HW232499   0.553   3.992   7.763  0.0164  0.2306 -2.4751
 6956SOL     OW32500   1.106   3.291   9.459  0.0315 -0.1364 -0.0811
 6956SOL    HW132501   1.076   3.338   9.536  2.7632  1.0620  0.2480
 6956SOL    HW232502   1.097   3.198   9.479  1.1287 -0.3846 -0.7209
 6957SOL     OW32503   2.356   3.258   8.354 -0.2830  0.2980 -0.9059
 6957SOL    HW132504   2.381   3.330   8.413 -0.8890 -0.6195  0.4794
 6957SOL    HW232505   2.408   3.179   8.369 -0.7265  0.3667  1.0313
 6958SOL     OW32506   3.561   0.165   1.339 -0.8875 -0.0137  0.0799
 6958SOL    HW132507   3.623   0.100   1.305 -1.4613 -0.2245 -0.5700
 6958SOL    HW232508   3.522   0.115   1.410  2.3118 -1.3452  0.8975
 6959SOL     OW32509   1.767   0.541   7.130  0.3354 -0.1584  0.0055
 6959SOL    HW132510   1.759   0.453   7.092 -0.2828 -0.3183  0.5213
 6959SOL    HW232511   1.791   0.589   7.050 -2.1439  0.6999 -0.2020
 6960SOL     OW32512   2.135   3.123   4.260 -0.0751 -0.0582  0.2952
 6960SOL    HW132513   2.193   3.051   4.235  0.9851  1.2719 -1.0826
 6960SOL    HW232514   2.188   3.172   4.323  0.1314 -0.2495  0.2699
 6961SOL     OW32515   0.501   4.048   1.413 -0.3907 -0.6065  0.2319
 6961SOL    HW132516   0.415   4.018   1.382 -0.3743  1.4151 -1.7883
 6961SOL    HW232517   0.524   4.097   1.334 -3.1926 -0.9259 -0.7893
 6962SOL     OW32518   2.363   3.955   2.822 -0.3460  0.0745  0.2658
 6962SOL    HW132519   2.345   3.893   2.893  0.7270  0.9361  1.3002
 6962SOL    HW232520   2.456   3.935   2.807 -0.3788  0.2044 -0.0931
 6963SOL     OW32521   1.486   3.860  13.892  0.0886 -0.1562 -0.3676
 6963SOL    HW132522   1.437   3.793  13.844  1.0718 -1.1214 -0.0104
 6963SOL    HW232523   1.458   3.944  13.856 -0.6575  1.1274  3.1668
 6964SOL     OW32524   3.320   4.490   8.113  0.3929  0.0770 -0.4180
 6964SOL    HW132525   3.328   4.547   8.189 -0.2912 -0.6910  0.2368
 6964SOL    HW232526   3.319   4.411   8.166 -2.8565  0.1614 -0.3884
 6965SOL     OW32527   1.906   2.422   5.597 -0.2445  0.0747  0.0909
 6965SOL    HW132528   1.992   2.443   5.635  0.7772 -3.8071 -0.0828
 6965SOL    HW232529   1.868   2.396   5.681  1.1277 -1.8418  0.1275
 6966SOL     OW32530   2.904   0.431   3.059 -0.0953  0.5876  0.5956
 6966SOL    HW132531   2.859   0.382   3.128 -0.1751  2.3315  1.8003
 6966SOL    HW232532   2.946   0.363   3.006 -2.0151  1.2468 -1.7640
 6967SOL     OW32533   0.477   0.439   7.024  0.0669 -0.4156  0.2201
 6967SOL    HW132534   0.454   0.361   7.074 -0.9285 -0.5447 -0.4247
 6967SOL    HW232535   0.498   0.395   6.941  3.0902  0.9258  0.2861
 6968SOL     OW32536   3.271   0.509   4.352 -0.4832 -0.0134  0.1871
 6968SOL    HW132537   3.288   0.555   4.271 -0.4780  1.1766  0.8689
 6968SOL    HW232538   3.343   0.548   4.401  2.4975 -2.5039 -2.2222
 6969SOL     OW32539   1.154   3.500  11.605  0.0091  0.2082  0.1709
 6969SOL    HW132540   1.213   3.549  11.663  2.0077 -1.6472 -0.2827
 6969SOL    HW232541   1.158   3.405  11.619 -0.5550  0.1097 -0.3402
 6970SOL     OW32542   4.140   3.460   3.228 -0.5566 -0.1125  0.3199
 6970SOL    HW132543   4.055   3.416   3.228 -0.5329 -0.1721 -2.2288
 6970SOL    HW232544   4.194   3.403   3.283 -0.1229 -1.2154 -1.2425
 6971SOL     OW32545   0.939   0.861  11.128 -0.0526 -0.0919 -0.0837
 6971SOL    HW132546   0.987   0.849  11.210 -0.6779 -1.3530  0.1074
 6971SOL    HW232547   0.855   0.822  11.154 -0.8503  0.5174 -1.7315
 6972SOL     OW32548   3.025   3.454  16.830 -0.4467 -0.2780 -0.6893
 6972SOL    HW132549   2.952   3.504  16.793 -0.3482 -0.5639 -1.2604
 6972SOL    HW232550   3.087   3.527  16.833 -0.6650 -0.0732 -1.1446
 6973SOL     OW32551   4.700   0.435  17.389 -0.5788  0.4110 -0.6127
 6973SOL    HW132552   4.661   0.444  17.475  1.2510  1.9306  0.0593
 6973SOL    HW232553   0.013   0.513  17.401 -1.2790  0.7400  0.3807
 6974SOL     OW32554   0.395   4.192   4.097  0.1377 -0.0410 -0.0525
 6974SOL    HW132555   0.463   4.185   4.031  1.0935 -1.7402  1.1007
 6974SOL    HW232556   0.422   4.138   4.171  1.4926  1.3936  0.4948
 6975SOL     OW32557   0.674   1.937   8.140  0.1554  1.0037 -0.3554
 6975SOL    HW132558   0.593   1.959   8.186  0.1882  0.5637 -0.0876
 6975SOL    HW232559   0.730   1.910   8.213  1.4707 -1.3398 -2.2246
 6976SOL     OW32560   2.312   2.351   8.442  0.6233 -0.6947 -0.0365
 6976SOL    HW132561   2.299   2.438   8.482 -3.5876 -1.2099 -0.2369
 6976SOL    HW232562   2.224   2.315   8.453 -0.9161  3.6009  1.9218
 6977SOL     OW32563   1.556   0.639   4.852  0.4738 -0.2950 -0.4566
 6977SOL    HW132564   1.650   0.653   4.842  0.3922  1.1383  0.8483
 6977SOL    HW232565   1.541   0.563   4.795  0.8755  0.3491 -1.4233
 6978SOL     OW32566   4.445   4.225   3.272  0.5657  0.0210 -0.4662
 6978SOL    HW132567   4.394   4.166   3.216 -0.9238  0.2968  0.5818
 6978SOL    HW232568   4.402   4.310   3.259  0.3775  0.1824  1.2116
 6979SOL     OW32569   0.303   0.729   5.549  0.0981  0.5121  0.3649
 6979SOL    HW132570   0.325   0.821   5.531  1.5593 -0.3890 -2.4187
 6979SOL    HW232571   0.379   0.679   5.520  0.3838 -0.4817  2.8655
 6980SOL     OW32572   3.868   0.595  16.364 -0.0883  0.1703 -0.6696
 6980SOL    HW132573   3.916   0.671  16.395  0.6583 -1.0991  1.2599
 6980SOL    HW232574   3.792   0.643  16.329 -0.2746  0.4450  0.1105
 6981SOL     OW32575   4.059   0.802   3.339 -0.2188  0.1230 -0.3112
 6981SOL    HW132576   4.105   0.794   3.256 -2.5769 -0.2940 -1.5848
 6981SOL    HW232577   4.081   0.891   3.365  0.3880 -0.3412  0.7552
 6982SOL     OW32578   2.860   3.806   4.334  1.2089 -0.0801  0.0725
 6982SOL    HW132579   2.911   3.772   4.261 -0.4243 -1.7219 -0.3238
 6982SOL    HW232580   2.784   3.842   4.289  0.6777 -1.4815 -0.1771
 6983SOL     OW32581   2.510   0.807   3.035 -0.4279 -0.3414  0.0838
 6983SOL    HW132582   2.551   0.826   2.950  0.6230  1.4034  0.9889
 6983SOL    HW232583   2.534   0.885   3.085 -4.1743  1.4784 -0.9321
 6984SOL     OW32584   3.873   1.192   7.935  0.4218  0.0171 -0.5230
 6984SOL    HW132585   3.849   1.121   7.995  1.0112  0.1509 -0.1243
 6984SOL    HW232586   3.841   1.267   7.986 -0.8504 -0.1908 -1.0086
 6985SOL     OW32587   4.635   3.615   4.092 -0.1231  0.8138 -0.2878
 6985SOL    HW132588   4.670   3.533   4.057 -1.0124  0.9651 -1.5540
 6985SOL    HW232589   4.708   3.630   4.151  0.5278  0.0164 -0.9028
 6986SOL     OW32590   1.276   3.972  16.024 -0.1660  0.4524 -0.1158
 6986SOL    HW132591   1.347   4.016  15.977  1.5418 -2.1006  0.0813
 6986SOL    HW232592   1.216   3.952  15.953 -0.0194  0.0387 -0.1240
 6987SOL     OW32593   3.767   0.440   0.935  0.1203  0.9290  0.8675
 6987SOL    HW132594   3.769   0.478   1.022  0.3056  2.6998  0.0817
 6987SOL    HW232595   3.839   0.491   0.897  1.8880 -1.5153  0.8824
 6988SOL     OW32596   4.146   4.109  17.368 -0.6656  0.1944 -0.4481
 6988SOL    HW132597   4.162   4.201  17.346  2.0113  0.1560  1.3093
 6988SOL    HW232598   4.051   4.105  17.359 -1.0274  1.2323  2.9719
 6989SOL     OW32599   1.029   1.813  16.233  0.0296 -0.1679 -0.2734
 6989SOL    HW132600   0.982   1.730  16.236  0.3364 -0.3427 -0.3325
 6989SOL    HW232601   1.071   1.820  16.319 -1.7665  0.6200  0.5279
 6990SOL     OW32602   1.819   1.001  17.744 -0.1183 -0.2438 -0.2772
 6990SOL    HW132603   1.903   1.048  17.742 -0.1685 -0.1720 -0.6815
 6990SOL    HW232604   1.758   1.073  17.728  0.9995  1.1044  1.5059
 6991SOL     OW32605   3.475   3.596   6.825  0.0932 -0.2748  0.7544
 6991SOL    HW132606   3.445   3.684   6.848 -0.2637 -0.0775 -0.4473
 6991SOL    HW232607   3.405   3.540   6.858 -0.8399  0.6118  0.2823
 6992SOL     OW32608   3.467   2.321   8.937 -0.2089 -0.1466  0.2604
 6992SOL    HW132609   3.399   2.263   8.971 -2.2504  1.4249 -1.2037
 6992SOL    HW232610   3.434   2.398   8.983 -1.8653 -0.8535  0.2447
 6993SOL     OW32611   3.627   1.743   9.432  0.3963 -0.0050 -0.0065
 6993SOL    HW132612   3.673   1.660   9.445  1.2657  0.5692  0.6325
 6993SOL    HW232613   3.557   1.726   9.370 -1.2240  0.3432  1.7356
 6994SOL     OW32614   0.317   1.639  14.973  0.1894 -0.1906 -0.3008
 6994SOL    HW132615   0.238   1.683  14.940  0.2185 -0.3147 -0.5314
 6994SOL    HW232616   0.346   1.594  14.894  0.1131  0.5492 -0.7543
 6995SOL     OW32617   3.300   1.444   6.960 -0.0696 -1.0147  0.0705
 6995SOL    HW132618   3.209   1.472   6.968  0.2028 -0.3444  0.7719
 6995SOL    HW232619   3.313   1.428   7.053 -4.5076 -1.2898  0.6725
 6996SOL     OW32620   1.609   4.070   6.367  0.0922  0.3093 -0.2255
 6996SOL    HW132621   1.561   4.152   6.361 -0.6739 -0.0894  0.4352
 6996SOL    HW232622   1.584   4.045   6.456  0.3010  0.9029 -0.0011
 6997SOL     OW32623   0.971   3.393  15.535  0.0841 -0.0313  0.5364
 6997SOL    HW132624   0.934   3.467  15.584  1.1880  1.2102 -0.5217
 6997SOL    HW232625   0.909   3.376  15.464  0.8683  1.5702 -0.5230
 6998SOL     OW32626   4.134   1.736   7.063 -0.0014 -0.0059  0.6909
 6998SOL    HW132627   4.161   1.652   7.101  1.9231  0.6972  0.8646
 6998SOL    HW232628   4.095   1.777   7.140  0.7470 -1.0257  1.6114
 6999SOL     OW32629   1.560   4.542   9.084  0.7992 -0.1913  0.0101
 6999SOL    HW132630   1.641   4.582   9.053  0.3906  1.3614  0.9689
 6999SOL    HW232631   1.593   4.504   9.166  0.0426 -1.1864 -0.1341
 7000SOL     OW32632   0.864   1.321   7.974 -0.3831  0.5981  0.1036
 7000SOL    HW132633   0.901   1.290   7.891  0.8191 -2.0952  1.6411
 7000SOL    HW232634   0.804   1.252   8.002 -1.1524  1.1844 -0.0903
 7001SOL     OW32635   1.137   4.087   9.244 -0.0148  0.3053 -0.3492
 7001SOL    HW132636   1.169   4.046   9.324 -0.5658  0.0631 -0.2565
 7001SOL    HW232637   1.077   4.021   9.210 -0.9890  1.3747 -0.6943
 7002SOL     OW32638   3.825   2.835   8.953 -0.3525 -0.3610  0.1820
 7002SOL    HW132639   3.908   2.788   8.955 -1.3437 -2.0468  1.6545
 7002SOL    HW232640   3.826   2.849   8.859 -1.6727 -0.4695  0.1527
 7003SOL     OW32641   2.595   1.584   3.285 -0.1077 -0.0048 -0.1433
 7003SOL    HW132642   2.630   1.649   3.225 -0.7541  0.0511 -0.4563
 7003SOL    HW232643   2.567   1.635   3.361 -0.8315 -1.1817  0.3879
 7004SOL     OW32644   3.031   2.646   9.449 -0.1662  0.0080 -0.3531
 7004SOL    HW132645   2.985   2.657   9.532 -0.3255 -2.1537 -0.1489
 7004SOL    HW232646   3.023   2.735   9.415  0.4771  0.0414 -0.4053
 7005SOL     OW32647   3.984   3.567   1.816 -0.1356  0.4215  0.4243
 7005SOL    HW132648   3.940   3.538   1.737 -0.4823 -1.2581  1.2379
 7005SOL    HW232649   3.940   3.525   1.890  0.5183 -0.7279  0.1565
 7006SOL     OW32650   3.600   4.425   3.830 -0.3819  0.5286 -0.5174
 7006SOL    HW132651   3.634   4.336   3.838  0.7722  0.9974 -0.2540
 7006SOL    HW232652   3.515   4.408   3.789  1.0807 -0.1153 -3.2721
 7007SOL     OW32653   4.228   2.774   7.432 -0.5750  0.1743 -0.3197
 7007SOL    HW132654   4.214   2.768   7.337 -0.3315  1.8816 -0.4664
 7007SOL    HW232655   4.317   2.810   7.422  0.5909 -2.8897 -1.1060
 7008SOL     OW32656   1.909   4.174  13.263 -0.0442 -0.1279  0.5532
 7008SOL    HW132657   1.819   4.145  13.278  0.2058 -0.2575  1.8066
 7008SOL    HW232658   1.947   4.088  13.248 -0.4372  0.0891 -1.6152
 7009SOL     OW32659   2.738   1.342   5.289  0.2797 -0.0523 -0.7086
 7009SOL    HW132660   2.832   1.356   5.291  0.3887 -0.8368 -0.2971
 7009SOL    HW232661   2.714   1.430   5.258  1.7274  1.8634  3.5341
 7010SOL     OW32662   3.086   1.754   2.623 -0.0033 -0.7673  1.0805
 7010SOL    HW132663   3.140   1.735   2.547 -0.3965  0.5097  0.4976
 7010SOL    HW232664   3.140   1.801   2.686  2.8398 -0.8075 -1.3603
 7011SOL     OW32665   0.067   3.860   8.067 -0.6353 -0.2705  0.5788
 7011SOL    HW132666   0.149   3.872   8.116 -0.7176  1.0153  0.4152
 7011SOL    HW232667   0.094   3.921   7.998 -0.6326  0.3548  1.1394
 7012SOL     OW32668   0.865   1.559  10.491  0.1667 -0.0762 -0.3345
 7012SOL    HW132669   0.947   1.525  10.454 -0.0522 -1.5298  0.4913
 7012SOL    HW232670   0.831   1.607  10.415 -0.3790 -0.5904 -0.4179
 7013SOL     OW32671   0.970   0.824   8.183  0.0927  0.2200  0.1369
 7013SOL    HW132672   1.045   0.820   8.241  0.8640 -3.4351 -1.0970
 7013SOL    HW232673   0.902   0.808   8.249 -2.0306  1.7976 -1.6475
 7014SOL     OW32674   0.647   0.834  12.111  0.5711 -0.3493 -0.2793
 7014SOL    HW132675   0.609   0.862  12.028  2.0193 -0.4209 -0.9617
 7014SOL    HW232676   0.735   0.808  12.084  0.6246  2.3859 -2.7914
 7015SOL     OW32677   4.668   2.583   5.957  0.0897  0.1972 -0.5237
 7015SOL    HW132678   4.702   2.671   5.973  0.1631 -0.2446  1.7499
 7015SOL    HW232679   0.010   2.536   5.945  0.6267  1.0628 -0.2187
 7016SOL     OW32680   4.145   1.759  12.538  0.0118 -0.3854  0.1069
 7016SOL    HW132681   4.052   1.778  12.529 -0.1426 -0.1956  2.1590
 7016SOL    HW232682   4.152   1.669  12.571  1.1476 -0.1601  0.5054
 7017SOL     OW32683   1.686   0.242  12.864  0.4664  0.2220  0.7995
 7017SOL    HW132684   1.719   0.258  12.775 -0.8542 -0.4919  0.1873
 7017SOL    HW232685   1.762   0.258  12.919  0.6867  2.4292 -0.1345
 7018SOL     OW32686   4.115   1.092   7.907  0.1678 -0.2363 -0.4248
 7018SOL    HW132687   4.135   1.065   7.817 -2.9133  2.7218 -1.9882
 7018SOL    HW232688   4.026   1.127   7.901  1.0663  2.1567  0.4341
 7019SOL     OW32689   0.272   4.479   2.760  0.0086  0.7684  0.2241
 7019SOL    HW132690   0.295   4.513   2.673 -0.5166  0.5572  0.0045
 7019SOL    HW232691   0.302   4.389   2.753 -1.0637  0.3840  0.7363
 7020SOL     OW32692   1.974   2.522   8.668  0.5635 -0.2014  0.2893
 7020SOL    HW132693   1.978   2.497   8.576 -1.3198 -1.4174  0.5422
 7020SOL    HW232694   2.022   2.454   8.716 -0.6189 -1.7754 -0.7514
 7021SOL     OW32695   4.665   2.778   8.586 -0.3778  0.6609  0.4636
 7021SOL    HW132696   4.642   2.726   8.509  1.3898  2.0768 -0.9996
 7021SOL    HW232697   4.667   2.862   8.540 -2.5814  1.4636  1.8494
 7022SOL     OW32698   1.019   0.390   6.146  0.4240  0.6162  0.1146
 7022SOL    HW132699   1.048   0.302   6.168  1.2339  0.6322 -0.9068
 7022SOL    HW232700   1.047   0.411   6.057  1.5158  1.2918  0.6173
 7023SOL     OW32701   3.494   2.281   3.739  0.2081 -0.5243  0.7643
 7023SOL    HW132702   3.579   2.238   3.734  0.2678 -0.5892  2.4213
 7023SOL    HW232703   3.502   2.371   3.708 -1.1348 -1.1300 -1.3900
 7024SOL     OW32704   1.372   0.869   3.106 -0.1592  0.0184 -0.4552
 7024SOL    HW132705   1.427   0.833   3.176 -0.3015 -1.7735 -1.2696
 7024SOL    HW232706   1.407   0.958   3.101  1.8994 -0.8001 -0.7645
 7025SOL     OW32707   1.735   3.642   5.948 -0.3834 -0.2725 -0.4736
 7025SOL    HW132708   1.753   3.689   6.029 -0.6031  1.6149 -1.5266
 7025SOL    HW232709   1.777   3.560   5.975 -1.3143  0.1760  2.2899
 7026SOL     OW32710   0.833   3.561  12.874 -0.0552  0.2071 -0.4827
 7026SOL    HW132711   0.752   3.598  12.839  0.8227  2.5278 -0.0658
 7026SOL    HW232712   0.860   3.496  12.809 -1.2221 -1.9377  1.1927
 7027SOL     OW32713   3.523   4.331   7.437 -0.6679  0.2180  0.3954
 7027SOL    HW132714   3.470   4.283   7.501 -1.1804 -0.2060 -0.3504
 7027SOL    HW232715   3.554   4.396   7.500 -0.8683 -0.5237  1.2697
 7028SOL     OW32716   3.571   4.376  14.666  0.7084 -0.2171  0.1967
 7028SOL    HW132717   3.624   4.314  14.616  0.1396 -0.7324  0.2334
 7028SOL    HW232718   3.503   4.314  14.691 -0.0676  0.6726  0.3049
 7029SOL     OW32719   0.724   1.432   8.243 -0.3335  0.1242 -0.3117
 7029SOL    HW132720   0.644   1.456   8.289  1.3315  0.8827  2.2240
 7029SOL    HW232721   0.756   1.347   8.274 -0.8989 -0.3076 -0.9035
 7030SOL     OW32722   2.652   1.855   9.038  0.1872 -0.2247  0.0603
 7030SOL    HW132723   2.631   1.942   9.004 -0.5273 -0.3984  0.0546
 7030SOL    HW232724   2.574   1.833   9.089 -0.0238 -0.6106 -0.4243
 7031SOL     OW32725   3.871   4.666   7.749 -0.0071 -0.5049 -0.1158
 7031SOL    HW132726   3.787   4.707   7.765 -0.1632 -0.3210 -1.3900
 7031SOL    HW232727   3.894   4.644   7.839 -1.1101  0.3267  0.3680
 7032SOL     OW32728   2.592   1.139   4.586  0.0490 -0.0821 -0.5238
 7032SOL    HW132729   2.594   1.050   4.621 -0.4262  0.3243  0.5568
 7032SOL    HW232730   2.499   1.160   4.582 -0.3812 -1.7182  1.0597
 7033SOL     OW32731   1.331   3.960   8.630 -0.2237 -0.1057  0.0054
 7033SOL    HW132732   1.330   4.045   8.586  0.5050  0.6782  1.4966
 7033SOL    HW232733   1.253   3.920   8.592  0.1286 -1.5316  0.7755
 7034SOL     OW32734   4.518   0.875   3.250 -0.7811  0.0114  0.2032
 7034SOL    HW132735   4.468   0.800   3.220  0.0619  0.8087 -3.1776
 7034SOL    HW232736   4.444   0.932   3.268 -0.3473  0.5320  0.3383
 7035SOL     OW32737   2.109   0.020   3.411 -0.2322 -0.2592 -0.0778
 7035SOL    HW132738   2.050   4.688   3.394  1.0801 -1.2941 -0.1756
 7035SOL    HW232739   2.044   0.090   3.418  0.7524  0.6755 -0.3523
 7036SOL     OW32740   0.623   0.328   4.107  0.2631  0.3801  0.1186
 7036SOL    HW132741   0.634   0.372   4.023  1.4796  1.5734  0.9038
 7036SOL    HW232742   0.560   0.258   4.090  1.0288 -0.5728  1.1849
 7037SOL     OW32743   0.833   0.963   2.189 -0.2022 -0.0764 -0.2453
 7037SOL    HW132744   0.878   0.878   2.185 -1.9595 -0.9776 -0.8641
 7037SOL    HW232745   0.884   1.016   2.129 -2.3232  0.3350 -1.7012
 7038SOL     OW32746   1.691   4.644   0.830  0.4337 -0.2302 -0.3459
 7038SOL    HW132747   1.773   4.691   0.842 -0.4792  0.7672  2.1213
 7038SOL    HW232748   1.667   4.678   0.744 -1.0902  1.4976  0.7433
 7039SOL     OW32749   2.181   2.219   6.986 -0.5486  0.1696  0.1343
 7039SOL    HW132750   2.181   2.291   6.923  1.4644  0.0305 -0.0299
 7039SOL    HW232751   2.184   2.268   7.068  0.2975 -1.0212  0.8206
 7040SOL     OW32752   3.827   0.556   1.171  0.5148 -0.0791 -0.2954
 7040SOL    HW132753   3.909   0.513   1.195  0.7225  0.9466  0.8233
 7040SOL    HW232754   3.760   0.526   1.232  1.4371  1.4294  1.4715
 7041SOL     OW32755   0.916   2.296   7.740 -0.0328 -0.3652  0.1455
 7041SOL    HW132756   0.829   2.304   7.780 -1.8296  1.0399 -4.0214
 7041SOL    HW232757   0.927   2.201   7.742 -0.9620 -0.4450  1.8260
 7042SOL     OW32758   3.052   4.113   8.797 -0.0901 -0.0970 -0.1595
 7042SOL    HW132759   2.978   4.119   8.856 -0.7493  0.2425 -1.0193
 7042SOL    HW232760   3.003   4.084   8.720  1.9136  0.8841 -1.8317
 7043SOL     OW32761   0.950   2.056   3.556 -0.2113  0.1382 -0.5998
 7043SOL    HW132762   0.883   2.118   3.531  0.0828  0.3824 -0.7838
 7043SOL    HW232763   0.993   2.112   3.621  0.7746 -1.9474  0.5491
 7044SOL     OW32764   0.061   1.616  10.175  0.2920 -0.8441  0.0048
 7044SOL    HW132765   4.735   1.684  10.183  0.2109 -0.7885 -1.0980
 7044SOL    HW232766   0.137   1.673  10.158  0.9135 -0.8420  2.8846
 7045SOL     OW32767   0.177   3.124  10.264  0.1179 -0.2730 -0.3218
 7045SOL    HW132768   0.089   3.132  10.301 -0.2204 -1.9621 -0.7256
 7045SOL    HW232769   0.186   3.029  10.275 -0.4647 -0.1658  1.1030
 7046SOL     OW32770   3.927   1.077  15.026  0.3671 -0.1635  0.1201
 7046SOL    HW132771   3.938   1.062  14.932 -1.1725 -0.7432  0.0213
 7046SOL    HW232772   3.837   1.057  15.052 -0.2427  2.0628 -0.2708
 7047SOL     OW32773   3.143   1.060   3.983 -0.0828  1.1135  0.0081
 7047SOL    HW132774   3.212   1.120   4.008  1.4215  1.0438 -3.9073
 7047SOL    HW232775   3.194   1.001   3.927 -1.3782  0.2810 -0.3139
 7048SOL     OW32776   3.344   2.938   6.097 -0.0776 -0.4194 -0.5938
 7048SOL    HW132777   3.312   2.986   6.173  0.7985  1.3339 -1.3434
 7048SOL    HW232778   3.431   2.979   6.097  0.5099 -1.6604  0.2203
 7049SOL     OW32779   3.007   0.614   6.420  0.0496 -0.7358  0.8006
 7049SOL    HW132780   2.959   0.656   6.491  0.4699  0.4012  0.4011
 7049SOL    HW232781   2.964   0.665   6.352  2.4817  2.4683  1.6642
 7050SOL     OW32782   4.552   0.942  17.660 -0.7114  0.0218  0.3640
 7050SOL    HW132783   4.628   0.999  17.650 -0.8786  0.1428 -0.1753
 7050SOL    HW232784   4.484   0.999  17.695  0.0669  0.1758  1.6358
 7051SOL     OW32785   0.247   4.169   6.707 -0.7090 -0.0420 -0.2021
 7051SOL    HW132786   0.173   4.109   6.694 -0.8884  0.1385 -0.0033
 7051SOL    HW232787   0.207   4.253   6.685  2.3467  0.6577 -3.0194
 7052SOL     OW32788   4.279   1.553   5.568  0.2171 -0.2298 -0.2871
 7052SOL    HW132789   4.269   1.467   5.525  1.1872 -0.1196 -0.7311
 7052SOL    HW232790   4.330   1.610   5.510  1.2993 -1.7844 -0.8839
 7053SOL     OW32791   0.151   0.887   1.303  0.2806  0.0399  0.8724
 7053SOL    HW132792   0.136   0.871   1.210  2.0713  0.5644  0.4879
 7053SOL    HW232793   0.063   0.915   1.325  1.1184  2.6758  0.8706
 7054SOL     OW32794   0.825   2.755  12.299  0.0556 -0.2083 -0.1348
 7054SOL    HW132795   0.813   2.773  12.392  0.7795  0.3304 -0.1408
 7054SOL    HW232796   0.791   2.838  12.265  2.4873  0.1226 -1.8189
 7055SOL     OW32797   0.827   3.863   6.441  0.1241 -0.1911  0.2882
 7055SOL    HW132798   0.791   3.872   6.529  1.0736  0.2656  0.6341
 7055SOL    HW232799   0.849   3.955   6.429  2.8078 -0.7128  1.2419
 7056SOL     OW32800   2.610   0.827  11.747 -0.1172 -0.0651  0.1223
 7056SOL    HW132801   2.531   0.776  11.731  0.3865 -0.6958 -0.3568
 7056SOL    HW232802   2.639   0.797  11.834 -1.5148 -1.9661 -0.0924
 7057SOL     OW32803   2.957   1.529  10.038  0.3467  0.2101 -0.1828
 7057SOL    HW132804   2.889   1.507   9.974 -1.1040 -1.3307  1.9040
 7057SOL    HW232805   3.024   1.554   9.974  1.4023 -1.0556  0.4451
 7058SOL     OW32806   1.730   2.463   2.825  0.2144 -0.3275  0.3630
 7058SOL    HW132807   1.727   2.368   2.828  0.3763 -0.3654 -0.7208
 7058SOL    HW232808   1.638   2.478   2.847 -0.0237  2.0988 -2.2273
 7059SOL     OW32809   0.990   4.478   5.630 -0.1421 -0.4462 -0.3855
 7059SOL    HW132810   0.999   4.531   5.551  1.8507  1.1031  0.8987
 7059SOL    HW232811   0.938   4.541   5.680 -0.7910 -2.4892  1.5523
 7060SOL     OW32812   1.253   2.180   4.679 -0.1634 -0.7572 -0.6084
 7060SOL    HW132813   1.229   2.228   4.758  0.2712 -0.2806 -0.7645
 7060SOL    HW232814   1.303   2.246   4.630 -0.5617 -0.5010 -0.6697
 7061SOL     OW32815   2.033   0.359   5.939 -0.1525  0.2157  0.0786
 7061SOL    HW132816   2.074   0.375   5.853  3.7794 -0.2160  1.8933
 7061SOL    HW232817   1.945   0.345   5.905  0.0249  0.9456 -0.7131
 7062SOL     OW32818   2.463   3.882   4.871 -0.1909 -0.0327 -0.2166
 7062SOL    HW132819   2.460   3.849   4.961 -0.3368  2.4763  0.7058
 7062SOL    HW232820   2.406   3.828   4.817 -3.1722  1.6528  1.2420
 7063SOL     OW32821   3.716   2.673   4.631  0.5504 -0.6102  0.3407
 7063SOL    HW132822   3.710   2.767   4.649  1.1358 -0.3859 -0.6377
 7063SOL    HW232823   3.629   2.649   4.601  0.1649  1.3034 -0.0719
 7064SOL     OW32824   2.455   3.245  12.484 -0.1881  0.1823 -0.3714
 7064SOL    HW132825   2.375   3.295  12.499  0.7299  2.2161 -2.3420
 7064SOL    HW232826   2.454   3.186  12.560 -0.7286 -0.3944 -0.8361
 7065SOL     OW32827   1.475   3.740  15.085 -0.1670  0.0182  0.1390
 7065SOL    HW132828   1.527   3.810  15.046 -2.7717  0.8869 -1.7606
 7065SOL    HW232829   1.472   3.685  15.007 -0.1912 -0.0186  0.1655
 7066SOL     OW32830   2.475   0.597   3.580  0.2362  0.2093 -0.4733
 7066SOL    HW132831   2.392   0.645   3.579  0.4383  0.5544 -1.0833
 7066SOL    HW232832   2.467   0.557   3.493 -0.2058  0.1182 -0.3914
 7067SOL     OW32833   2.504   2.374   3.580  0.0818 -0.5167 -0.6429
 7067SOL    HW132834   2.534   2.312   3.514  1.2844  0.0752 -0.6732
 7067SOL    HW232835   2.423   2.400   3.536 -0.3582 -1.0576 -0.1480
 7068SOL     OW32836   1.903   3.940  10.264  0.2216  0.2211  0.3240
 7068SOL    HW132837   1.975   3.915  10.206  0.0651  0.1678  0.1498
 7068SOL    HW232838   1.945   4.014  10.308  1.6155  0.0532 -0.7436
 7069SOL     OW32839   2.050   0.294  13.159 -0.7438  0.8657 -0.7276
 7069SOL    HW132840   2.014   0.379  13.132  0.0938  1.2685 -0.6139
 7069SOL    HW232841   2.096   0.319  13.239 -0.3420 -0.2597 -0.6135
 7070SOL     OW32842   2.889   1.918  14.437 -0.3526 -0.6457 -0.0179
 7070SOL    HW132843   2.977   1.952  14.419 -0.0630 -0.6511  1.3241
 7070SOL    HW232844   2.904   1.824  14.436  0.8052 -0.4417 -1.2227
 7071SOL     OW32845   4.153   4.333   2.623  0.9475 -0.3347 -0.4257
 7071SOL    HW132846   4.058   4.334   2.620  0.8391  0.9461  3.8853
 7071SOL    HW232847   4.161   4.250   2.575 -4.8585 -1.3045  0.3120
 7072SOL     OW32848   2.254   3.589   2.885 -1.3505 -0.2546 -0.5168
 7072SOL    HW132849   2.274   3.673   2.926  0.7080 -0.6287 -0.7414
 7072SOL    HW232850   2.319   3.600   2.815 -0.6787  2.5427  0.5575
 7073SOL     OW32851   1.327   2.138  16.830 -0.4598  0.1663  0.0772
 7073SOL    HW132852   1.364   2.155  16.744 -1.6150 -0.7742 -0.6082
 7073SOL    HW232853   1.253   2.198  16.830 -1.1061 -0.6511 -0.6413
 7074SOL     OW32854   1.588   3.147  13.182 -0.8805  0.1822 -0.2642
 7074SOL    HW132855   1.609   3.237  13.207  1.0742 -0.7245  1.3164
 7074SOL    HW232856   1.657   3.101  13.229  0.1507  0.7566 -1.2160
 7075SOL     OW32857   1.227   1.249  14.815  0.2735 -0.0634  0.1904
 7075SOL    HW132858   1.173   1.327  14.827  0.3441  0.0529 -0.2401
 7075SOL    HW232859   1.244   1.249  14.721  1.0315 -0.1269  0.3285
 7076SOL     OW32860   4.620   1.446  14.843 -0.5220 -1.0283  0.1637
 7076SOL    HW132861   4.666   1.362  14.844  2.4696  0.6267  2.1284
 7076SOL    HW232862   4.530   1.415  14.850 -0.6413 -1.4453 -3.1393
 7077SOL     OW32863   1.728   1.222  11.969  0.1732  0.3644 -0.1300
 7077SOL    HW132864   1.717   1.265  11.884  2.7287  0.8153 -0.2162
 7077SOL    HW232865   1.711   1.130  11.947  0.9393 -0.0819  1.1718
 7078SOL     OW32866   2.479   2.779  16.448 -0.3500 -0.3512  0.2328
 7078SOL    HW132867   2.469   2.872  16.431 -0.1761 -0.2762  0.5432
 7078SOL    HW232868   2.571   2.782  16.475  0.1676 -2.4784 -1.1984
 7079SOL     OW32869   1.938   2.452   7.246 -0.2035  0.0211 -0.1713
 7079SOL    HW132870   1.855   2.406   7.240  0.6220 -1.5426  0.3355
 7079SOL    HW232871   2.008   2.386   7.244 -0.3303 -0.0865 -1.1405
 7080SOL     OW32872   1.194   0.868   5.385  0.3684  0.3330  0.0368
 7080SOL    HW132873   1.179   0.896   5.476 -0.3133  0.8887 -0.2482
 7080SOL    HW232874   1.131   0.798   5.368  0.9545 -0.0753 -0.4401
 7081SOL     OW32875   0.639   4.497   3.263  0.2892  0.2304  0.3616
 7081SOL    HW132876   0.598   4.569   3.311  0.6832  2.7608 -3.0818
 7081SOL    HW232877   0.643   4.533   3.174 -0.7570  0.2618  0.3260
 7082SOL     OW32878   1.312   2.553  10.271 -0.0894  0.7149  0.1270
 7082SOL    HW132879   1.336   2.608  10.197 -0.2554 -2.5275 -2.3127
 7082SOL    HW232880   1.395   2.562  10.318  0.1743 -1.8203  0.1758
 7083SOL     OW32881   1.424   4.133  12.278 -0.0828  0.4950  0.6368
 7083SOL    HW132882   1.442   4.043  12.308  1.3067  0.5333 -0.0690
 7083SOL    HW232883   1.354   4.133  12.213 -1.3849 -1.2875  2.0216
 7084SOL     OW32884   2.602   1.421   6.088 -0.5936 -0.5701 -0.2119
 7084SOL    HW132885   2.512   1.441   6.063 -0.1691  0.8816 -0.5717
 7084SOL    HW232886   2.590   1.434   6.183  0.6304  0.3327 -0.1794
 7085SOL     OW32887   2.043   1.934  13.603  0.0024  0.4447 -0.4387
 7085SOL    HW132888   2.056   1.963  13.513 -2.1273  0.2672 -0.8098
 7085SOL    HW232889   1.978   1.868  13.576  0.5692 -0.2970 -0.0018
 7086SOL     OW32890   2.231   3.505   1.347  0.7451 -0.3211  0.4295
 7086SOL    HW132891   2.159   3.523   1.287  0.1609 -1.0133  0.9213
 7086SOL    HW232892   2.225   3.410   1.349 -1.4869 -0.2204 -1.3826
 7087SOL     OW32893   4.209   0.527  15.084  0.1516  0.0613 -0.0867
 7087SOL    HW132894   4.157   0.510  15.005 -1.1108  0.3540  0.6871
 7087SOL    HW232895   4.276   0.582  15.044 -0.5320  0.8876 -0.0883
 7088SOL     OW32896   0.242   0.752   9.407 -0.1990  0.0909  0.6437
 7088SOL    HW132897   0.268   0.834   9.448  0.9982 -0.4052  0.8510
 7088SOL    HW232898   0.268   0.687   9.471  1.7169  0.3713  0.1337
 7089SOL     OW32899   2.021   4.203   4.578 -0.2357  0.1219 -0.3686
 7089SOL    HW132900   2.039   4.110   4.592 -0.0800  0.1420 -0.4307
 7089SOL    HW232901   1.943   4.211   4.632  0.8052 -0.2848  1.1973
 7090SOL     OW32902   0.342   4.075   1.864  0.2267  0.2987 -0.3414
 7090SOL    HW132903   0.278   4.036   1.923 -0.5115  1.3155 -0.4655
 7090SOL    HW232904   0.415   4.096   1.923  0.7580 -0.6061 -0.6855
 7091SOL     OW32905   2.139   1.460   7.059 -0.0658  0.5905  0.3743
 7091SOL    HW132906   2.088   1.388   7.095 -0.5666 -0.1880 -1.8847
 7091SOL    HW232907   2.073   1.523   7.030 -0.0886  0.3574 -0.0728
 7092SOL     OW32908   1.387   3.265  10.759  0.0856 -0.5811 -0.1810
 7092SOL    HW132909   1.480   3.283  10.774 -0.3106  0.0813  1.4511
 7092SOL    HW232910   1.361   3.240  10.847 -1.6783  1.4872 -0.1341
 7093SOL     OW32911   0.294   2.623   8.953 -0.2652  0.7759 -0.1677
 7093SOL    HW132912   0.274   2.693   9.016  2.0970 -0.3187  1.7775
 7093SOL    HW232913   0.389   2.622   8.965 -0.5871  1.9518  2.6017
 7094SOL     OW32914   3.870   1.598  13.061  0.1805  0.6238 -0.0028
 7094SOL    HW132915   3.857   1.650  12.981  0.8539  1.4344  0.4214
 7094SOL    HW232916   3.917   1.657  13.119  0.3387  0.6645 -0.1723
 7095SOL     OW32917   0.237   4.510   9.858 -0.0178 -0.0076 -0.3741
 7095SOL    HW132918   0.305   4.446   9.881 -0.2625 -0.1916 -0.1690
 7095SOL    HW232919   0.217   4.498   9.765 -0.2433  0.4881 -0.3923
 7096SOL     OW32920   3.789   1.761   3.501  0.3933  0.2164 -0.0244
 7096SOL    HW132921   3.778   1.697   3.431 -1.0520 -0.3082  0.6784
 7096SOL    HW232922   3.854   1.716   3.555 -0.7652  0.0357  1.2115
 7097SOL     OW32923   0.900   0.918   6.398 -0.1442 -0.1028  0.1483
 7097SOL    HW132924   0.817   0.966   6.400 -0.8905 -1.4668  2.5382
 7097SOL    HW232925   0.931   0.922   6.308  0.7337  1.6915  0.5286
 7098SOL     OW32926   1.624   3.232   1.477 -0.0658  0.2455 -0.3398
 7098SOL    HW132927   1.617   3.156   1.419  0.5217  0.0762 -0.1921
 7098SOL    HW232928   1.696   3.202   1.532  0.0172  0.6604 -0.2228
 7099SOL     OW32929   4.163   0.337   5.484  0.5287  0.0300  0.6345
 7099SOL    HW132930   4.186   0.322   5.392  2.3488 -0.5288  1.1883
 7099SOL    HW232931   4.144   0.431   5.485  1.7047  0.2820 -0.9274
 7100SOL     OW32932   3.869   1.203   9.927  0.0428 -0.0381  0.2043
 7100SOL    HW132933   3.825   1.131   9.972 -2.8023  0.2120 -2.1946
 7100SOL    HW232934   3.930   1.234   9.993  1.1878 -1.7734 -0.0263
 7101SOL     OW32935   0.772   0.449   5.740 -0.4175 -0.1338  0.0173
 7101SOL    HW132936   0.777   0.424   5.832  2.9557  0.2128 -0.0618
 7101SOL    HW232937   0.862   0.437   5.711  0.1884  1.9426  1.0596
 7102SOL     OW32938   4.202   4.213   9.250 -0.3037  0.0364 -0.5248
 7102SOL    HW132939   4.242   4.142   9.198  3.2443  2.4801 -1.1412
 7102SOL    HW232940   4.232   4.190   9.338 -0.7910 -0.3133 -0.4496
 7103SOL     OW32941   3.369   3.660  12.022  0.4310 -0.1118  0.2091
 7103SOL    HW132942   3.424   3.707  11.959  0.8699 -2.5977 -1.2606
 7103SOL    HW232943   3.418   3.642  12.102  2.4668  1.4526 -0.6875
 7104SOL     OW32944   3.671   0.318   3.773  0.0218  0.3434  0.1561
 7104SOL    HW132945   3.586   0.275   3.771  0.2518 -0.1074 -0.0788
 7104SOL    HW232946   3.725   0.246   3.740 -0.2517  0.4460 -0.5239
 7105SOL     OW32947   3.282   1.020   7.853 -0.0285  0.1817  0.0294
 7105SOL    HW132948   3.287   0.956   7.782  0.1213  1.5783 -1.2124
 7105SOL    HW232949   3.355   1.077   7.828 -0.3982  0.6085 -0.0689
 7106SOL     OW32950   1.488   3.389   3.393  0.5404 -0.0124 -0.3940
 7106SOL    HW132951   1.503   3.300   3.363 -0.6260  0.5795 -2.7815
 7106SOL    HW232952   1.394   3.404   3.386  0.4625  0.9279  2.3485
 7107SOL     OW32953   0.872   4.615   9.959 -0.1103 -0.0920 -0.3812
 7107SOL    HW132954   0.888   4.654  10.045  1.2618 -0.0918 -0.6338
 7107SOL    HW232955   0.849   4.696   9.913 -0.4803 -0.0687 -0.1446
 7108SOL     OW32956   4.709   0.241   5.933 -0.1378 -0.2140 -0.0447
 7108SOL    HW132957   0.030   0.259   6.004 -2.5624 -0.4969  2.1623
 7108SOL    HW232958   4.680   0.151   5.945  2.7516 -1.2302 -0.7782
 7109SOL     OW32959   4.257   0.808   7.340  0.0788  0.1279  0.4695
 7109SOL    HW132960   4.352   0.809   7.353  0.0454 -0.8140  0.8415
 7109SOL    HW232961   4.247   0.713   7.331  2.0990 -0.0338 -0.1458
 7110SOL     OW32962   3.393   1.778  12.526 -0.2510 -0.1346 -0.3718
 7110SOL    HW132963   3.448   1.853  12.549  0.1160 -0.1337 -1.2484
 7110SOL    HW232964   3.344   1.783  12.608  1.5567 -0.1596  0.7300
 7111SOL     OW32965   3.087   0.074   5.538 -0.3070 -0.3521 -0.7714
 7111SOL    HW132966   3.093   0.126   5.618 -0.6674 -1.9756  0.3061
 7111SOL    HW232967   3.109   0.141   5.473  1.7155  1.2347  1.5866
 7112SOL     OW32968   1.054   0.460   7.726  0.3448  0.3719 -0.4944
 7112SOL    HW132969   0.991   0.499   7.786 -2.1744 -3.7554 -0.4353
 7112SOL    HW232970   1.125   0.443   7.788  0.1045 -0.2126 -0.3808
 7113SOL     OW32971   4.244   3.808  14.272  0.0736 -0.1518  0.3247
 7113SOL    HW132972   4.148   3.802  14.265 -0.0318 -0.1989  1.8511
 7113SOL    HW232973   4.261   3.898  14.244  0.6208  0.8300  3.8216
 7114SOL     OW32974   3.969   3.170  14.878 -0.0204 -0.7936  0.1460
 7114SOL    HW132975   4.019   3.090  14.863  1.4719  0.2574 -0.5262
 7114SOL    HW232976   4.045   3.226  14.889 -0.4215 -0.4251  1.0471
 7115SOL     OW32977   3.432   2.490   4.463  0.3589 -0.0035 -0.1833
 7115SOL    HW132978   3.351   2.439   4.465 -0.9269  2.0693  0.3150
 7115SOL    HW232979   3.474   2.465   4.381 -2.6999  0.5075 -1.9057
 7116SOL     OW32980   0.949   4.466   8.264 -0.0112 -0.3542 -0.1551
 7116SOL    HW132981   1.027   4.471   8.319 -0.7061 -3.4517  1.1395
 7116SOL    HW232982   0.979   4.440   8.177 -0.0593 -0.8388 -0.0294
 7117SOL     OW32983   3.544   1.185   3.471 -0.0573 -0.0778 -0.2745
 7117SOL    HW132984   3.594   1.123   3.524  4.2366  1.9946 -1.9043
 7117SOL    HW232985   3.619   1.234   3.438 -0.1883  0.9415  0.9846
 7118SOL     OW32986   1.069   4.280   8.075  0.2093  0.3116 -0.7702
 7118SOL    HW132987   1.063   4.193   8.114 -1.1455  0.6328 -0.2782
 7118SOL    HW232988   1.007   4.276   8.002 -0.8456  0.6014  0.1087
 7119SOL     OW32989   0.461   3.350   7.773  0.1716 -0.0610  0.6917
 7119SOL    HW132990   0.475   3.258   7.794  3.4203  0.2312 -0.1366
 7119SOL    HW232991   0.444   3.345   7.679  0.8019 -1.2417  0.6363
 7120SOL     OW32992   3.209   4.527  15.682  0.3813  0.7199 -0.0793
 7120SOL    HW132993   3.156   4.588  15.630 -0.0055 -0.1616 -0.7389
 7120SOL    HW232994   3.268   4.487  15.618 -0.7381  0.1042 -0.7496
 7121SOL     OW32995   1.419   1.683   3.045 -0.6347 -0.0967 -0.0033
 7121SOL    HW132996   1.453   1.629   3.117  0.5831 -0.8334 -1.1468
 7121SOL    HW232997   1.442   1.773   3.069  0.4503 -0.6416  0.9795
 7122SOL     OW32998   2.992   2.994   2.204 -0.0991  0.1119 -0.2919
 7122SOL    HW132999   2.915   2.977   2.258 -0.5781  2.7318 -0.1453
 7122SOL    HW233000   2.946   3.036   2.132 -2.0558 -1.6478 -0.0668
 7123SOL     OW33001   0.188   4.697   4.022 -0.3195 -0.0596  0.0419
 7123SOL    HW133002   0.191   0.030   3.961  0.0985  0.3240  0.5244
 7123SOL    HW233003   0.155   4.636   3.956 -0.6505  0.2786 -0.1077
 7124SOL     OW33004   0.372   3.570   5.138  0.0321  0.1185 -0.1560
 7124SOL    HW133005   0.384   3.476   5.149 -2.0041 -0.3053 -1.5121
 7124SOL    HW233006   0.442   3.594   5.078 -1.1082  0.4002 -1.3809
 7125SOL     OW33007   3.606   2.478   3.225  0.0418 -0.1681 -0.2312
 7125SOL    HW133008   3.536   2.415   3.245 -2.2046  1.5155 -2.8212
 7125SOL    HW233009   3.677   2.456   3.285 -0.2833  0.1234  0.2616
 7126SOL     OW33010   0.129   1.903   8.657  0.0113  0.6765 -0.0000
 7126SOL    HW133011   0.171   1.908   8.743 -1.8260  0.1033  0.9219
 7126SOL    HW233012   0.192   1.953   8.605 -1.0524  1.5493 -0.4615
 7127SOL     OW33013   4.637   1.095   8.599  0.1466 -0.0289 -0.0220
 7127SOL    HW133014   4.659   1.039   8.524  0.9277  0.4408 -0.1428
 7127SOL    HW233015   4.723   1.135   8.612  0.3681 -0.7566  0.7214
 7128SOL     OW33016   2.045   4.428   6.877  0.0259  0.1063 -0.1403
 7128SOL    HW133017   2.130   4.405   6.915  0.3092  0.6209 -0.4670
 7128SOL    HW233018   2.070   4.483   6.802 -1.8105 -0.5835 -1.2579
 7129SOL     OW33019   2.891   0.414   3.529  0.8702  0.1026 -0.0921
 7129SOL    HW133020   2.983   0.402   3.507  1.3048  2.1290  0.5864
 7129SOL    HW233021   2.853   0.341   3.480 -1.3792  2.2339 -1.5536
 7130SOL     OW33022   2.397   0.412   4.495  0.5383 -0.0229 -0.3736
 7130SOL    HW133023   2.336   0.391   4.424 -1.4722  2.5880  0.5393
 7130SOL    HW233024   2.467   0.456   4.447  1.2922 -1.1367 -0.3038
 7131SOL     OW33025   4.345   0.148   8.363  0.2812  0.1370 -0.6490
 7131SOL    HW133026   4.434   0.159   8.397  0.2366  0.8966 -0.7777
 7131SOL    HW233027   4.351   0.065   8.315 -1.7986 -0.0321 -0.6209
 7132SOL     OW33028   1.519   0.292   0.781  0.0931 -0.1118 -0.5148
 7132SOL    HW133029   1.561   0.244   0.710  0.7500 -1.7807  0.9792
 7132SOL    HW233030   1.472   0.221   0.826 -2.9632  1.6519 -0.9976
 7133SOL     OW33031   3.344   4.237  16.135 -0.2427 -0.4400 -0.2975
 7133SOL    HW133032   3.337   4.325  16.098 -2.2467  0.0534  1.2585
 7133SOL    HW233033   3.421   4.208  16.085 -0.4782 -0.2776 -0.7545
 7134SOL     OW33034   3.943   0.687   9.506  0.2457  0.1510  0.2958
 7134SOL    HW133035   3.877   0.743   9.549 -1.4205 -0.9417 -0.8143
 7134SOL    HW233036   3.960   0.619   9.571 -1.3371 -1.5122 -1.0164
 7135SOL     OW33037   2.087   3.825   1.180  0.5934 -0.1888 -0.3103
 7135SOL    HW133038   2.125   3.853   1.097  3.3527  0.4709  1.1724
 7135SOL    HW233039   2.059   3.909   1.217 -0.2375 -1.2666  1.4756
 7136SOL     OW33040   0.502   3.602   8.980  0.0325 -0.1294 -0.3831
 7136SOL    HW133041   0.531   3.638   9.064 -1.6747 -3.7794  1.7716
 7136SOL    HW233042   0.417   3.567   9.009 -0.3454  0.6163 -0.6092
 7137SOL     OW33043   1.788   4.516   9.917 -0.0693  0.8543 -0.6495
 7137SOL    HW133044   1.755   4.426   9.906  2.5738 -0.0949 -0.7541
 7137SOL    HW233045   1.777   4.531  10.011  1.1874  1.3611 -0.5888
 7138SOL     OW33046   2.480   3.606  14.679 -0.6325 -0.4577 -0.0508
 7138SOL    HW133047   2.563   3.586  14.722  0.8887  0.8588 -2.4193
 7138SOL    HW233048   2.456   3.517  14.653  0.1322 -0.9615  0.9577
 7139SOL     OW33049   3.105   4.462   4.418 -0.3871  0.0095  0.2898
 7139SOL    HW133050   3.035   4.488   4.477 -1.3659 -1.0452 -0.4028
 7139SOL    HW233051   3.112   4.542   4.365  0.1147 -1.9041 -2.5524
 7140SOL     OW33052   1.875   1.779   4.505  0.1229 -0.2013  0.3256
 7140SOL    HW133053   1.959   1.749   4.539  0.3433  1.4248  1.1773
 7140SOL    HW233054   1.811   1.746   4.569  0.3139 -0.1135  0.5627
 7141SOL     OW33055   0.995   0.318  14.334 -0.2480 -0.5968  0.0845
 7141SOL    HW133056   0.974   0.293  14.244 -2.7362 -1.0304  0.7709
 7141SOL    HW233057   0.932   0.389  14.345  0.6449  0.2616 -0.3444
 7142SOL     OW33058   2.684   0.403   6.723  0.5503  0.3242 -0.7989
 7142SOL    HW133059   2.738   0.339   6.770  0.5005  0.1528 -0.9736
 7142SOL    HW233060   2.640   0.447   6.796 -2.9508 -2.3823 -1.2492
 7143SOL     OW33061   1.133   4.532   9.858 -0.7252 -0.0118 -0.3849
 7143SOL    HW133062   1.154   4.471   9.928 -2.6894 -1.1371 -0.7682
 7143SOL    HW233063   1.039   4.546   9.874 -0.3805  1.5337  0.2120
 7144SOL     OW33064   1.646   2.655   2.681  0.7936  0.1155  0.5513
 7144SOL    HW133065   1.571   2.688   2.730 -0.0697 -0.4195 -0.4096
 7144SOL    HW233066   1.683   2.584   2.732  3.0125  0.5989 -0.3873
 7145SOL     OW33067   3.035   3.727   9.713  0.0676 -0.1415  0.2906
 7145SOL    HW133068   3.100   3.782   9.670 -0.1096  1.0994  1.6144
 7145SOL    HW233069   2.961   3.788   9.717 -0.3669 -0.6984  0.8607
 7146SOL     OW33070   1.740   0.899   7.398 -0.3422 -0.6066  0.7252
 7146SOL    HW133071   1.669   0.848   7.437  0.4791 -1.0315  1.6558
 7146SOL    HW233072   1.798   0.902   7.474 -0.3476 -0.3687  0.7199
 7147SOL     OW33073   3.430   2.256   0.649 -0.6769 -0.1107  0.4052
 7147SOL    HW133074   3.336   2.264   0.632 -0.9101  0.5670  1.9814
 7147SOL    HW233075   3.466   2.312   0.580  2.6990  0.0905  2.3677
 7148SOL     OW33076   1.512   4.045  14.133 -0.3306 -0.2930  0.2117
 7148SOL    HW133077   1.502   3.957  14.097 -1.2021 -0.2757  0.4017
 7148SOL    HW233078   1.592   4.044  14.186  0.7994  1.0466 -1.4764
 7149SOL     OW33079   0.850   3.478  16.244 -0.3840 -0.3180  0.2586
 7149SOL    HW133080   0.899   3.552  16.280 -2.1551  1.5108 -1.0155
 7149SOL    HW233081   0.829   3.505  16.154 -2.4690 -2.1411  0.2102
 7150SOL     OW33082   3.554   4.011   3.730 -0.3017  0.2754 -0.3666
 7150SOL    HW133083   3.617   3.940   3.714 -1.1783 -0.5700 -0.0205
 7150SOL    HW233084   3.539   3.996   3.823 -0.2738 -1.2625 -0.6154
 7151SOL     OW33085   0.988   1.963   5.376 -0.2020  0.3531  0.5093
 7151SOL    HW133086   0.929   2.038   5.374 -2.1086 -1.1836 -1.5555
 7151SOL    HW233087   1.015   1.965   5.468 -1.8329 -0.8209  1.0294
 7152SOL     OW33088   3.604   0.906   8.749 -0.0775 -0.2720 -0.4852
 7152SOL    HW133089   3.607   0.811   8.759 -1.6096 -0.2122  0.5816
 7152SOL    HW233090   3.687   0.932   8.788 -0.3298 -0.5683  0.2551
 7153SOL     OW33091   3.279   3.098   5.497  0.0102 -0.2284 -0.0128
 7153SOL    HW133092   3.319   3.149   5.427 -1.0467  1.6630  0.7540
 7153SOL    HW233093   3.358   3.087   5.552 -0.9633 -2.3738  0.9696
 7154SOL     OW33094   3.649   3.045   6.810 -0.1174 -0.4548  0.1230
 7154SOL    HW133095   3.615   2.994   6.884  1.4734 -1.7181 -0.0071
 7154SOL    HW233096   3.582   3.110   6.792  1.7693  1.8410  1.4333
 7155SOL     OW33097   0.103   4.376  10.107 -0.7328 -0.0396 -0.3533
 7155SOL    HW133098   0.118   4.396  10.200  1.1890  0.0963 -0.6887
 7155SOL    HW233099   0.154   4.443  10.061  0.5245 -0.2481  0.7211
 7156SOL     OW33100   3.441   0.734   8.273  0.2699  0.4579 -0.0756
 7156SOL    HW133101   3.440   0.748   8.367 -0.7793  0.9570 -0.1591
 7156SOL    HW233102   3.352   0.702   8.259  0.5523 -0.9022  1.2196
 7157SOL     OW33103   2.447   2.826  13.915  0.0224 -0.1473 -0.2666
 7157SOL    HW133104   2.456   2.858  14.005 -2.9180 -1.5967  0.5574
 7157SOL    HW233105   2.355   2.847  13.899  0.1438  1.4133  1.1413
 7158SOL     OW33106   2.592   1.969  15.994  0.8172  0.5550 -0.4960
 7158SOL    HW133107   2.497   1.974  15.996  0.7103 -1.2465 -0.5103
 7158SOL    HW233108   2.620   2.060  15.991  0.4240  0.7314  1.2342
 7159SOL     OW33109   0.957   0.313   8.774 -0.2030 -0.6419 -0.3045
 7159SOL    HW133110   0.948   0.218   8.774 -0.0099 -0.6662 -1.9698
 7159SOL    HW233111   1.014   0.326   8.850 -0.7987  0.5141 -0.0553
 7160SOL     OW33112   2.492   4.063   6.645 -0.0955 -0.0980 -0.1145
 7160SOL    HW133113   2.459   4.123   6.579  4.2592  2.5396  0.0896
 7160SOL    HW233114   2.409   4.036   6.684  0.7539 -0.8885  1.1842
 7161SOL     OW33115   4.582   0.988   0.733  0.0934  0.4218 -0.0646
 7161SOL    HW133116   4.657   0.964   0.679  0.0350  0.0396  0.0251
 7161SOL    HW233117   4.618   1.034   0.808  1.9577  0.8901 -1.2497
 7162SOL     OW33118   0.970   3.289   7.523 -0.1322  0.6892  0.5925
 7162SOL    HW133119   0.879   3.298   7.553 -0.0496  0.6749  0.8503
 7162SOL    HW233120   0.966   3.269   7.430 -0.6822 -1.3668  1.0476
 7163SOL     OW33121   3.621   3.819   5.174  0.2616  0.2431 -0.1728
 7163SOL    HW133122   3.668   3.893   5.212  1.2506  0.1576 -1.2621
 7163SOL    HW233123   3.640   3.833   5.081  0.5936 -1.7995 -0.4172
 7164SOL     OW33124   4.101   3.905   5.912 -0.2203  0.1825 -0.0106
 7164SOL    HW133125   4.013   3.904   5.950  0.7082  2.9450  2.1446
 7164SOL    HW233126   4.132   3.815   5.926  0.2939  0.2798 -0.5131
 7165SOL     OW33127   0.090   2.829   5.907  0.5783  0.9269 -0.7079
 7165SOL    HW133128   0.029   2.896   5.938 -0.0030 -0.3096  0.8444
 7165SOL    HW233129   0.173   2.873   5.928  1.9070 -1.7654 -0.2381
 7166SOL     OW33130   0.124   1.831   0.053 -0.7752  0.3794 -0.2268
 7166SOL    HW133131   0.202   1.877   0.021 -0.6875 -0.1818 -0.8189
 7166SOL    HW233132   0.150   1.744   0.023 -0.8568  0.1082  0.4900
 7167SOL     OW33133   2.790   1.007   3.166 -1.0630  0.5339 -0.0391
 7167SOL    HW133134   2.696   1.027   3.166 -0.9795  0.8844  1.3335
 7167SOL    HW233135   2.809   0.923   3.207 -1.7047  0.9055  1.0055
 7168SOL     OW33136   1.853   3.265   2.256 -0.3024  0.3107 -0.3653
 7168SOL    HW133137   1.927   3.208   2.277 -0.2086  0.0953 -1.2914
 7168SOL    HW233138   1.893   3.352   2.251 -0.1148  0.1978 -0.8451
 7169SOL     OW33139   4.371   4.603   3.660 -0.3481  0.3029 -0.6047
 7169SOL    HW133140   4.334   4.601   3.572  0.0286 -1.7231 -0.7150
 7169SOL    HW233141   4.429   4.527   3.656 -0.2730  0.3336 -0.1114
 7170SOL     OW33142   0.406   0.298  16.411  0.1966 -0.1178 -0.7088
 7170SOL    HW133143   0.365   0.377  16.376  3.1359  1.7744  0.0997
 7170SOL    HW233144   0.490   0.331  16.442 -0.8265  0.0609  1.8782
 7171SOL     OW33145   1.077   1.727   1.595  0.0110 -0.0785  0.1367
 7171SOL    HW133146   1.031   1.810   1.581  3.4039  1.5664 -1.1845
 7171SOL    HW233147   1.106   1.735   1.686 -0.9313  1.7287  0.2838
 7172SOL     OW33148   2.443   1.229  16.183 -0.3462  0.3368  0.4870
 7172SOL    HW133149   2.434   1.257  16.092 -1.9634 -0.7594  0.2908
 7172SOL    HW233150   2.458   1.137  16.161 -0.6430  0.2003  0.8509
 7173SOL     OW33151   1.105   4.714   4.651 -0.5571  0.0902 -0.7623
 7173SOL    HW133152   1.133   4.628   4.620 -1.0356 -0.7515  1.1213
 7173SOL    HW233153   1.015   4.696   4.678 -0.8149  0.1220 -1.6228
 7174SOL     OW33154   3.990   3.578   9.415  0.3370  0.5026 -0.3767
 7174SOL    HW133155   4.031   3.595   9.500 -2.4207 -0.9725  1.2546
 7174SOL    HW233156   3.896   3.584   9.431  0.9348 -0.9513  3.7543
 7175SOL     OW33157   2.479   2.429   7.856  0.4264  0.1497 -0.4110
 7175SOL    HW133158   2.402   2.426   7.799  0.6053  2.1705 -0.7892
 7175SOL    HW233159   2.550   2.470   7.806  0.9998 -1.4840 -0.9117
 7176SOL     OW33160   1.684   2.291   7.232  0.2605 -0.7176  0.2864
 7176SOL    HW133161   1.649   2.251   7.312  3.8117 -2.8399  0.7722
 7176SOL    HW233162   1.672   2.218   7.171  1.9360 -0.8208  0.0831
 7177SOL     OW33163   3.304   2.667   6.050  0.2562 -0.5540  0.2214
 7177SOL    HW133164   3.377   2.647   6.108  1.5570  0.0121 -1.2062
 7177SOL    HW233165   3.320   2.761   6.040 -2.2458 -0.1642 -0.0132
 7178SOL     OW33166   3.932   2.968   8.693  0.1131 -0.0192  0.0060
 7178SOL    HW133167   4.005   2.955   8.633  1.6390 -0.5380  1.9463
 7178SOL    HW233168   3.890   2.884   8.673  0.4564 -0.2317  0.1788
 7179SOL     OW33169   1.916   3.690   2.425  0.4177 -0.7099  0.4915
 7179SOL    HW133170   1.899   3.753   2.495  0.7076 -1.5592  1.3150
 7179SOL    HW233171   1.939   3.606   2.463 -0.3892 -1.5127 -0.8154
 7180SOL     OW33172   2.571   1.243  10.170  0.4370 -0.5742 -0.2903
 7180SOL    HW133173   2.522   1.267  10.091  1.3113  0.4158 -0.5384
 7180SOL    HW233174   2.661   1.236  10.138  0.9178  1.0849  0.7092
 7181SOL     OW33175   3.634   1.986  12.861 -0.1583  0.9863 -0.2676
 7181SOL    HW133176   3.548   1.958  12.828  0.9090 -0.1607 -2.0565
 7181SOL    HW233177   3.685   1.909  12.883 -1.0600  0.0889 -1.2814
 7182SOL     OW33178   3.634   4.236   2.939  0.1580 -0.3335  0.3429
 7182SOL    HW133179   3.584   4.171   2.889 -2.1019  1.3863  0.3181
 7182SOL    HW233180   3.710   4.237   2.882  0.1062 -2.3326  0.2366
 7183SOL     OW33181   3.863   2.836   1.918  0.5625  0.1372 -0.2869
 7183SOL    HW133182   3.893   2.759   1.869 -1.4857 -0.6481 -0.2948
 7183SOL    HW233183   3.948   2.870   1.947  1.2460  0.5182 -2.7291
 7184SOL     OW33184   1.349   1.859   2.789 -0.5665  0.0818  0.2028
 7184SOL    HW133185   1.303   1.795   2.844  0.1960 -0.8769 -0.2667
 7184SOL    HW233186   1.327   1.941   2.832 -0.6942  0.6234 -0.9044
 7185SOL     OW33187   1.679   3.767   7.571 -0.1137 -0.5574 -0.3212
 7185SOL    HW133188   1.632   3.788   7.651  0.6029  1.2864 -0.3814
 7185SOL    HW233189   1.657   3.840   7.512 -1.1377  0.1435  0.9318
 7186SOL     OW33190   0.992   4.065   5.972 -0.0836 -0.3136  0.2402
 7186SOL    HW133191   0.967   4.127   5.904 -0.3334 -1.7904 -1.0369
 7186SOL    HW233192   0.908   4.065   6.018  0.0142 -0.1918  0.4160
 7187SOL     OW33193   4.103   2.925  14.009  0.2020 -0.7061 -0.1642
 7187SOL    HW133194   4.148   2.871  13.944 -0.6317 -1.0930 -0.4291
 7187SOL    HW233195   4.019   2.883  14.026  0.3733 -0.8520  0.3093
 7188SOL     OW33196   3.319   1.222   4.379 -0.3102 -0.2955  0.0941
 7188SOL    HW133197   3.357   1.304   4.348 -0.4076 -0.1599  0.3425
 7188SOL    HW233198   3.229   1.233   4.348  0.0539  1.2490 -0.4433
 7189SOL     OW33199   2.835   0.032  16.056 -0.1239 -0.0520  0.0899
 7189SOL    HW133200   2.903   4.712  16.025 -0.1018 -0.4033  0.8337
 7189SOL    HW233201   2.803   0.076  15.977 -1.3491 -1.9806 -0.5097
 7190SOL     OW33202   0.698   0.938  15.560  0.3720  0.0626 -0.1758
 7190SOL    HW133203   0.694   1.034  15.560 -2.0168 -0.0310  0.7602
 7190SOL    HW233204   0.791   0.925  15.573  0.4206 -0.6442 -1.2470
 7191SOL     OW33205   0.912   3.899   7.814  0.1433 -0.0247  0.0402
 7191SOL    HW133206   0.954   3.875   7.731  2.1555  2.3064  0.4068
 7191SOL    HW233207   0.851   3.970   7.795  0.6440  0.5502  0.6058
 7192SOL     OW33208   0.416   1.171   5.900  0.0586  0.2667 -0.3715
 7192SOL    HW133209   0.455   1.230   5.964  0.0880 -0.0189 -0.1236
 7192SOL    HW233210   0.471   1.093   5.910 -1.6109 -0.4105  3.6431
 7193SOL     OW33211   4.104   2.293   4.228  0.5310  0.1932 -0.6729
 7193SOL    HW133212   4.066   2.210   4.198  1.8037 -0.0014 -1.7583
 7193SOL    HW233213   4.194   2.266   4.246  0.3583 -0.3546 -0.6252
 7194SOL     OW33214   2.262   4.407  14.745 -0.4708 -0.1827 -0.4640
 7194SOL    HW133215   2.309   4.353  14.681  1.1188  1.2944 -0.5402
 7194SOL    HW233216   2.232   4.343  14.809 -0.2751  0.4719  0.2751
 7195SOL     OW33217   1.043   1.983   2.862 -0.3129  0.7019 -0.3479
 7195SOL    HW133218   1.007   1.931   2.933  0.3885 -0.7645 -1.0522
 7195SOL    HW233219   1.118   2.025   2.904  1.2861  0.1810 -2.6551
 7196SOL     OW33220   3.343   3.000   5.799  0.2583  0.2762 -0.2573
 7196SOL    HW133221   3.439   2.994   5.797  0.3495  1.0106  1.6295
 7196SOL    HW233222   3.323   2.996   5.892  2.0051  1.9555  0.2040
 7197SOL     OW33223   1.465   4.568   4.973 -0.0752  0.1560  0.0615
 7197SOL    HW133224   1.421   4.563   5.058 -1.6584 -2.4187 -0.8954
 7197SOL    HW233225   1.487   4.660   4.986  1.1325 -0.2719  1.0488
 7198SOL     OW33226   2.509   3.713   5.795 -0.0784  0.5251 -0.6768
 7198SOL    HW133227   2.456   3.634   5.788 -1.8347  1.4592  2.0637
 7198SOL    HW233228   2.588   3.696   5.743 -0.4086 -2.7929 -0.0711
 7199SOL     OW33229   2.850   0.096   7.831  0.1221  0.2938  0.3797
 7199SOL    HW133230   2.853   0.069   7.740  0.0549  0.1233  0.4270
 7199SOL    HW233231   2.898   0.025   7.875 -0.6985 -0.5587 -0.1116
 7200SOL     OW33232   4.580   2.891   9.722 -0.2610 -0.0980  0.0535
 7200SOL    HW133233   4.629   2.937   9.654 -2.0740  0.3314 -0.9556
 7200SOL    HW233234   4.581   2.959   9.789 -1.6611 -0.0522  0.0130
 7201SOL     OW33235   0.511   2.018   3.723 -0.5938  0.3262  0.3584
 7201SOL    HW133236   0.444   1.988   3.661 -1.8062  1.1507  1.2606
 7201SOL    HW233237   0.453   2.053   3.791  1.4694 -1.7197  3.2084
 7202SOL     OW33238   1.381   0.455  10.475 -0.2170 -0.1482  0.3303
 7202SOL    HW133239   1.290   0.478  10.492  0.0646  0.6724  0.7728
 7202SOL    HW233240   1.420   0.536  10.442  0.2683  0.7231  3.0334
 7203SOL     OW33241   0.810   4.365   5.379 -0.0144 -0.2848  0.4700
 7203SOL    HW133242   0.756   4.406   5.447 -0.8748 -1.2748  0.3731
 7203SOL    HW233243   0.745   4.368   5.309  0.4757 -0.2406  0.0165
 7204SOL     OW33244   1.122   3.592   8.931 -0.4971 -0.1680  0.0412
 7204SOL    HW133245   1.102   3.637   9.013 -0.1190  0.2394 -0.0886
 7204SOL    HW233246   1.119   3.671   8.877 -1.7638 -0.1717  0.1121
 7205SOL     OW33247   2.350   2.175  12.368 -0.5164 -0.0339 -0.1631
 7205SOL    HW133248   2.362   2.081  12.355 -0.0802 -0.1001  0.7230
 7205SOL    HW233249   2.308   2.202  12.287  0.0126  0.1658 -0.3714
 7206SOL     OW33250   3.950   1.415   9.749  0.0527  0.0890 -0.2517
 7206SOL    HW133251   4.035   1.390   9.714  1.9670 -0.5674  4.8143
 7206SOL    HW233252   3.938   1.339   9.806 -1.8263  1.7302  1.5620
 7207SOL     OW33253   0.556   0.305   2.892  0.1001 -0.5729 -0.3263
 7207SOL    HW133254   0.568   0.357   2.812  0.2948 -0.3575 -0.1559
 7207SOL    HW233255   0.503   0.230   2.863  1.2021 -0.9357 -1.3875
 7208SOL     OW33256   2.979   0.811   1.450 -0.4980  0.2162 -0.5874
 7208SOL    HW133257   2.894   0.770   1.432  0.4411 -0.2918 -3.8717
 7208SOL    HW233258   3.031   0.758   1.390 -1.4458 -0.0650 -1.1606
 7209SOL     OW33259   1.043   4.041   8.210 -0.1871  0.4483  0.1548
 7209SOL    HW133260   0.999   3.958   8.193 -1.1972  1.4972 -2.2607
 7209SOL    HW233261   1.045   4.036   8.306 -1.7811 -1.8855  0.0805
 7210SOL     OW33262   0.807   3.286  15.315  0.0630 -0.0628 -0.3827
 7210SOL    HW133263   0.721   3.310  15.280  0.5148 -0.8123 -2.0299
 7210SOL    HW233264   0.855   3.311  15.236  0.7703 -1.2177 -0.3310
 7211SOL     OW33265   1.100   0.233   3.497  0.3759 -0.1982 -0.5876
 7211SOL    HW133266   1.161   0.306   3.499 -2.7335  2.4005 -1.0110
 7211SOL    HW233267   1.096   0.241   3.402  2.4908  1.9316 -0.4814
 7212SOL     OW33268   4.724   3.907   5.011  0.4644 -0.2121  0.2254
 7212SOL    HW133269   4.648   3.883   4.958  0.4331  1.6967 -0.5931
 7212SOL    HW233270   0.057   3.899   4.951 -0.3978 -2.3632 -0.5401
 7213SOL     OW33271   0.590   0.787   1.847 -0.0614 -0.5416 -0.1775
 7213SOL    HW133272   0.524   0.818   1.786 -0.6607 -1.3467  0.0542
 7213SOL    HW233273   0.565   0.849   1.916 -0.0993 -2.2324  1.3399
 7214SOL     OW33274   1.002   3.859  10.357  0.4826  0.4925  0.3634
 7214SOL    HW133275   0.911   3.862  10.389  1.5164 -0.8956  3.4708
 7214SOL    HW233276   0.991   3.883  10.265  3.0022  3.2577  0.7875
 7215SOL     OW33277   0.895   2.853   8.957 -0.4376  0.0956  0.1859
 7215SOL    HW133278   0.911   2.849   8.863  1.9808  1.6203  0.5156
 7215SOL    HW233279   0.885   2.948   8.965  2.9577  0.4836 -0.3078
 7216SOL     OW33280   0.845   4.605   4.675 -0.3667 -0.4051 -0.0654
 7216SOL    HW133281   0.763   4.638   4.712 -0.9708 -0.5923 -1.2320
 7216SOL    HW233282   0.818   4.515   4.658 -0.1346 -0.0746 -2.1516
 7217SOL     OW33283   2.029   1.722   3.765 -0.2726  0.0253 -0.5888
 7217SOL    HW133284   2.029   1.747   3.857  0.0687 -1.2062 -0.2577
 7217SOL    HW233285   2.063   1.804   3.732  0.1873 -0.6037 -1.6759
 7218SOL     OW33286   2.015   4.029  14.158  0.7301 -0.5300  0.1409
 7218SOL    HW133287   2.101   4.028  14.202 -0.0298 -1.1193  1.6112
 7218SOL    HW233288   2.012   4.119  14.126  0.7819 -0.3856  0.5403
 7219SOL     OW33289   0.567   3.891   3.836 -0.0198 -0.0860 -0.1615
 7219SOL    HW133290   0.533   3.881   3.747  0.0446  1.0952 -0.3280
 7219SOL    HW233291   0.522   3.815   3.874  1.3374 -0.1263  1.3558
 7220SOL     OW33292   1.647   2.572  15.690 -0.4996 -0.2154 -0.1000
 7220SOL    HW133293   1.672   2.634  15.758  0.3205  0.1298 -0.7155
 7220SOL    HW233294   1.560   2.543  15.719 -0.6266 -0.3675 -0.6286
 7221SOL     OW33295   4.581   2.073   1.971 -0.3013 -0.7582 -0.0594
 7221SOL    HW133296   4.538   2.150   1.933 -0.8680 -1.6825 -1.2843
 7221SOL    HW233297   4.565   2.012   1.899  0.4138 -1.0244  0.0111
 7222SOL     OW33298   4.677   3.318   9.145 -0.4086 -0.0260  0.1666
 7222SOL    HW133299   4.636   3.283   9.224 -0.5480  0.4068  0.2839
 7222SOL    HW233300   4.714   3.400   9.175 -0.1121 -0.6418  1.4701
 7223SOL     OW33301   0.015   3.329   4.243  0.1014 -0.0997 -0.3876
 7223SOL    HW133302   0.016   3.270   4.167 -0.0321 -0.8144  0.1646
 7223SOL    HW233303   4.665   3.317   4.269  1.3758 -4.4439  2.0861
 7224SOL     OW33304   1.586   1.551   1.798  0.1572 -0.5206  0.0656
 7224SOL    HW133305   1.585   1.638   1.837 -0.3643 -1.6977  2.7153
 7224SOL    HW233306   1.676   1.526   1.823  0.3227 -0.1052 -0.1118
 7225SOL     OW33307   2.706   4.372   6.211  0.2482 -0.2361  0.6203
 7225SOL    HW133308   2.659   4.455   6.214 -1.1602 -1.0413  0.9248
 7225SOL    HW233309   2.678   4.338   6.296  0.7148 -1.7383  0.1763
 7226SOL     OW33310   4.065   3.556  15.954 -0.4699 -0.0176 -0.1584
 7226SOL    HW133311   4.129   3.588  16.018  0.9021 -1.4995 -0.7946
 7226SOL    HW233312   4.027   3.641  15.935  0.2814  0.5244  0.7352
 7227SOL     OW33313   4.225   3.182   7.247 -0.0633  0.4893 -0.5191
 7227SOL    HW133314   4.293   3.141   7.301 -1.5124  0.2365  1.1146
 7227SOL    HW233315   4.190   3.108   7.197 -2.6779  0.7663  0.8914
 7228SOL     OW33316   4.124   3.464   7.103  0.2886  0.0391  0.6171
 7228SOL    HW133317   4.098   3.482   7.013  2.9148 -2.5965 -0.6976
 7228SOL    HW233318   4.196   3.403   7.085 -0.9696 -1.2223 -0.0691
 7229SOL     OW33319   1.475   2.599  16.264  0.3108  0.3297  0.2201
 7229SOL    HW133320   1.533   2.648  16.323  1.6766 -0.4908 -0.4450
 7229SOL    HW233321   1.537   2.546  16.213 -0.7420  0.0650 -0.7805
 7230SOL     OW33322   4.351   4.019   4.472 -0.3402  0.1765 -0.1993
 7230SOL    HW133323   4.437   4.061   4.469 -0.6466  0.8586  0.5829
 7230SOL    HW233324   4.306   4.102   4.489  1.2642  0.6134  1.9193
 7231SOL     OW33325   4.144   1.426   7.425 -0.0789 -0.2343 -0.2596
 7231SOL    HW133326   4.160   1.376   7.505 -1.1848 -0.3658 -0.1269
 7231SOL    HW233327   4.231   1.439   7.388  0.7855 -0.7097  1.6353
 7232SOL     OW33328   4.415   3.607   5.418 -0.1017 -0.0155  0.1047
 7232SOL    HW133329   4.440   3.637   5.505  3.1164 -1.0166 -0.4864
 7232SOL    HW233330   4.501   3.574   5.392 -0.8108 -0.0246 -2.2274
 7233SOL     OW33331   2.323   1.499   5.906 -0.1648 -0.1146 -0.4134
 7233SOL    HW133332   2.286   1.429   5.960  2.2706 -0.1654  1.1887
 7233SOL    HW233333   2.247   1.533   5.860 -0.8213 -0.5922  0.3158
 7234SOL     OW33334   1.701   0.487   6.493  0.1786  0.3081  0.7323
 7234SOL    HW133335   1.615   0.449   6.476 -1.3409  3.3086  1.6866
 7234SOL    HW233336   1.720   0.472   6.585  0.7673  2.7350  1.0191
 7235SOL     OW33337   0.502   0.801  14.195 -0.4218 -0.1431 -0.4360
 7235SOL    HW133338   0.453   0.758  14.264  0.2259  0.4623  0.3946
 7235SOL    HW233339   0.465   0.762  14.116 -0.3497  1.1401 -1.1107
 7236SOL     OW33340   0.881   2.543  17.176 -0.0366  0.4759  0.3724
 7236SOL    HW133341   0.808   2.584  17.130 -1.6421  1.0779  3.4944
 7236SOL    HW233342   0.838   2.466  17.213 -0.7522  0.9641  0.5584
 7237SOL     OW33343   3.299   2.157  13.460 -0.1730 -0.2180 -0.3265
 7237SOL    HW133344   3.261   2.151  13.547  0.5709 -0.4148 -0.0231
 7237SOL    HW233345   3.269   2.073  13.424 -0.3077 -0.0329 -0.6525
 7238SOL     OW33346   2.992   2.430   6.381  0.1374  0.7341  0.0344
 7238SOL    HW133347   2.988   2.338   6.356 -0.4694  0.1971  2.0955
 7238SOL    HW233348   3.060   2.470   6.327  1.9615 -1.7267  0.5065
 7239SOL     OW33349   3.913   1.471   4.810 -0.2778 -0.2469  0.1459
 7239SOL    HW133350   3.867   1.491   4.892 -2.8559  0.6207 -1.5082
 7239SOL    HW233351   3.894   1.377   4.805  0.7644 -0.6217  3.4446
 7240SOL     OW33352   4.650   1.480   7.335  0.5018 -0.2759  0.2380
 7240SOL    HW133353   4.691   1.424   7.400 -0.1233 -0.6929  0.2761
 7240SOL    HW233354   4.681   1.454   7.248  0.5703 -1.4302  0.6110
 7241SOL     OW33355   3.648   0.169  14.844  0.5273 -0.4662  0.4780
 7241SOL    HW133356   3.716   0.177  14.778  0.1520 -3.8106 -0.3433
 7241SOL    HW233357   3.698   0.190  14.923  1.0806  4.4121 -1.2151
 7242SOL     OW33358   2.554   1.149   4.285  0.2482 -0.1003 -0.0749
 7242SOL    HW133359   2.592   1.157   4.372  1.8399  0.2088 -0.8124
 7242SOL    HW233360   2.516   1.061   4.289 -0.8925  0.2642 -2.2190
 7243SOL     OW33361   0.581   2.617  15.388  0.2079  0.3793  0.0855
 7243SOL    HW133362   0.624   2.655  15.312 -0.5338  1.6000  0.2702
 7243SOL    HW233363   0.637   2.651  15.458 -0.3674  0.8250  0.3369
 7244SOL     OW33364   0.705   2.303   2.266 -0.1480 -0.1990  0.3637
 7244SOL    HW133365   0.696   2.307   2.170  0.4487  1.3339  0.3708
 7244SOL    HW233366   0.768   2.374   2.279 -1.3930  0.8509  0.6718
 7245SOL     OW33367   4.300   3.871  17.394  0.0349 -0.4438  0.1767
 7245SOL    HW133368   4.248   3.951  17.383  1.0489  0.0969 -0.7677
 7245SOL    HW233369   4.289   3.818  17.315  1.6536  2.2321 -1.9001
 7246SOL     OW33370   4.219   3.971   7.809 -0.5787  0.7340 -0.0186
 7246SOL    HW133371   4.266   3.977   7.892 -3.6778  0.1614  1.7786
 7246SOL    HW233372   4.187   4.061   7.800  2.8273  2.0505  0.8399
 7247SOL     OW33373   1.982   3.932   6.451 -0.0345  0.2487 -0.3437
 7247SOL    HW133374   2.073   3.918   6.476 -0.2340  0.2130  0.3510
 7247SOL    HW233375   1.948   3.842   6.459 -0.5505  0.8531  4.1861
 7248SOL     OW33376   0.906   4.352   4.902  0.4300 -0.0761 -0.0953
 7248SOL    HW133377   0.881   4.367   4.811  0.8238 -0.7772 -0.3216
 7248SOL    HW233378   0.936   4.261   4.890  2.6955  1.0391 -2.9270
 7249SOL     OW33379   2.332   0.742  13.808  0.6630 -0.0574 -0.6116
 7249SOL    HW133380   2.332   0.681  13.881 -0.7214 -0.3504 -0.8734
 7249SOL    HW233381   2.361   0.825  13.846  0.9495 -0.1714 -0.5777
 7250SOL     OW33382   3.020   0.190   5.756 -0.1669  0.4799 -0.4938
 7250SOL    HW133383   3.087   0.145   5.808 -0.5756 -0.7883 -1.0770
 7250SOL    HW233384   2.988   0.252   5.821  0.1529 -0.7693  0.8664
 7251SOL     OW33385   1.929   0.496   1.483 -0.6198 -0.0224  0.0847
 7251SOL    HW133386   1.977   0.558   1.428 -2.0814  0.5128 -0.5829
 7251SOL    HW233387   1.843   0.533   1.465  0.0186  1.1629 -0.5126
 7252SOL     OW33388   0.332   1.004   5.436 -0.3200 -0.0106 -0.6080
 7252SOL    HW133389   0.404   1.017   5.498 -0.0761 -1.3933 -0.5827
 7252SOL    HW233390   0.350   1.074   5.373 -1.6073  1.6439  0.8854
 7253SOL     OW33391   3.841   1.285   1.511 -0.1777 -0.4326  0.0702
 7253SOL    HW133392   3.912   1.221   1.499  0.2919 -0.2645  2.0353
 7253SOL    HW233393   3.897   1.362   1.514  2.0909 -2.0055 -1.4284
 7254SOL     OW33394   0.829   2.442   2.916  0.0480 -0.0616 -0.0052
 7254SOL    HW133395   0.789   2.528   2.904  0.3557 -0.0589 -1.0232
 7254SOL    HW233396   0.768   2.410   2.982 -1.0489  0.8975 -0.5530
 7255SOL     OW33397   0.788   1.235   6.153  0.3171 -0.3947  0.4882
 7255SOL    HW133398   0.793   1.229   6.248  0.4222  2.1986  0.6305
 7255SOL    HW233399   0.824   1.153   6.118 -1.7581 -1.7555  1.5953
 7256SOL     OW33400   1.530   4.601  12.140 -0.1554 -0.1163 -0.3957
 7256SOL    HW133401   1.547   4.512  12.171  0.7437  0.8667  1.9195
 7256SOL    HW233402   1.488   4.591  12.055 -2.0652  0.8390  0.4483
 7257SOL     OW33403   4.489   2.239   9.712 -0.0510  0.2431  0.4178
 7257SOL    HW133404   4.472   2.333   9.712 -1.2450  0.0253  2.2169
 7257SOL    HW233405   4.433   2.219   9.637 -0.4728  1.0271  0.5310
 7258SOL     OW33406   3.070   2.481   2.775  0.5719 -0.4228  0.1338
 7258SOL    HW133407   3.135   2.504   2.841 -0.0830  1.8641 -0.0347
 7258SOL    HW233408   3.111   2.504   2.691 -0.1221 -1.9216 -0.6227
 7259SOL     OW33409   1.905   0.223   7.883  0.2031 -0.0032  0.1013
 7259SOL    HW133410   1.891   0.271   7.965 -1.3361 -2.6046  1.3656
 7259SOL    HW233411   1.985   0.269   7.860 -0.1237 -0.4288 -1.8893
 7260SOL     OW33412   4.710   4.033   8.401 -0.1910 -0.1289 -0.0829
 7260SOL    HW133413   0.029   3.985   8.459 -0.1324  1.9801  1.6083
 7260SOL    HW233414   0.031   4.090   8.355 -0.7966  1.2883  0.8357
 7261SOL     OW33415   2.083   3.016   9.434  0.3823  0.1060  0.0067
 7261SOL    HW133416   2.178   3.022   9.446  0.5814 -1.4541 -0.8233
 7261SOL    HW233417   2.084   2.981   9.345 -2.6893 -1.8398  0.7236
 7262SOL     OW33418   1.213   4.450   3.207  0.2624  0.0977 -0.4192
 7262SOL    HW133419   1.249   4.384   3.148  1.8290  2.2196 -1.8306
 7262SOL    HW233420   1.269   4.452   3.285 -0.7448 -0.1061  0.3199
 7263SOL     OW33421   3.395   0.209   3.494 -0.4831 -0.0509  0.3303
 7263SOL    HW133422   3.404   0.121   3.531 -3.0745  0.7086  2.7860
 7263SOL    HW233423   3.439   0.266   3.557 -0.7789  0.2394  0.2792
 7264SOL     OW33424   2.449   3.699   1.949 -0.5011  0.2253 -0.4852
 7264SOL    HW133425   2.444   3.767   2.016  0.6429 -0.3485  0.1821
 7264SOL    HW233426   2.362   3.662   1.968 -1.0575  1.3890 -0.7851
 7265SOL     OW33427   1.314   2.679   2.487 -0.1162  0.2479  0.4652
 7265SOL    HW133428   1.296   2.661   2.394 -0.7782  0.3662  0.5674
 7265SOL    HW233429   1.348   2.594   2.513  0.8648  0.3404 -0.5022
 7266SOL     OW33430   1.750   0.430   4.244  0.2132 -0.5406 -0.3122
 7266SOL    HW133431   1.789   0.370   4.308 -1.0518 -1.5304 -0.4839
 7266SOL    HW233432   1.718   0.503   4.297 -3.0026 -1.6984 -0.6534
 7267SOL     OW33433   4.131   0.361  16.294 -0.5892  0.2259 -0.2558
 7267SOL    HW133434   4.161   0.335  16.381  0.8286 -1.4652 -1.2549
 7267SOL    HW233435   4.208   0.332  16.246 -1.1346 -0.2747 -0.8305
 7268SOL     OW33436   1.190   1.704   6.475  0.0772 -0.2460 -0.0720
 7268SOL    HW133437   1.229   1.619   6.453  0.3345 -0.1001 -0.1895
 7268SOL    HW233438   1.131   1.707   6.400 -0.4720  0.4643  0.3927
 7269SOL     OW33439   3.680   4.497   2.225  0.0944 -0.3706  0.1151
 7269SOL    HW133440   3.606   4.439   2.241 -2.0604  2.4721  0.5118
 7269SOL    HW233441   3.723   4.447   2.156 -2.0525 -0.1167 -1.4088
 7270SOL     OW33442   1.756   1.222   3.913  0.5869 -0.3401  0.4187
 7270SOL    HW133443   1.772   1.134   3.946 -0.3936 -0.4199  0.6903
 7270SOL    HW233444   1.662   1.227   3.933  0.1498 -1.6402 -1.2086
 7271SOL     OW33445   3.783   3.035   8.011 -0.0343  0.3839 -0.7630
 7271SOL    HW133446   3.714   2.988   8.059  0.0176  0.0396 -1.0268
 7271SOL    HW233447   3.858   2.979   8.032 -1.2963 -1.5161 -1.2817
 7272SOL     OW33448   2.036   0.127  15.624  0.2704  0.0039  0.3044
 7272SOL    HW133449   1.974   0.088  15.686 -0.0873 -1.1653 -0.7895
 7272SOL    HW233450   2.030   0.221  15.640 -0.4962  0.5036 -2.9064
 7273SOL     OW33451   0.807   0.835   2.849 -0.5031 -0.0622 -0.2268
 7273SOL    HW133452   0.721   0.876   2.849 -0.2288  0.5209  0.7594
 7273SOL    HW233453   0.819   0.798   2.762  1.8975  0.4338 -0.1269
 7274SOL     OW33454   0.897   3.029   5.924 -0.1844 -0.2062  0.1982
 7274SOL    HW133455   0.838   3.045   5.851  1.7306  2.0617 -0.8211
 7274SOL    HW233456   0.971   2.998   5.872 -1.0504 -2.0968  0.0602
 7275SOL     OW33457   0.021   0.385  15.013 -0.0926 -0.1843 -0.1547
 7275SOL    HW133458   0.061   0.457  15.061 -1.6611  0.7226 -0.1906
 7275SOL    HW233459   4.710   0.343  15.081 -0.2701  0.3622  0.0469
 7276SOL     OW33460   0.432   1.464   4.147 -0.0336  0.1802 -0.5111
 7276SOL    HW133461   0.374   1.536   4.120  2.4843  2.9937  1.5982
 7276SOL    HW233462   0.396   1.452   4.235 -1.5915  1.6132 -0.9432
 7277SOL     OW33463   1.328   2.956   5.121 -0.2975 -0.6208  0.4960
 7277SOL    HW133464   1.279   2.953   5.204 -0.3416  1.1456  0.5461
 7277SOL    HW233465   1.377   2.875   5.135  2.9796  1.6033  2.1877
 7278SOL     OW33466   4.336   2.777  10.268  0.4634 -0.1004  0.0450
 7278SOL    HW133467   4.363   2.693  10.231  3.6660  0.6941  0.5680
 7278SOL    HW233468   4.396   2.841  10.231 -0.7127 -0.8901 -3.2385
 7279SOL     OW33469   2.564   2.638   9.032 -0.5288 -0.2210 -0.2670
 7279SOL    HW133470   2.558   2.690   9.112  0.0590 -0.1439 -0.2746
 7279SOL    HW233471   2.543   2.555   9.075 -0.8257 -0.2348 -0.4369
 7280SOL     OW33472   4.023   1.175   7.016  0.0520 -0.1884 -0.2637
 7280SOL    HW133473   4.032   1.082   6.995  0.4027 -0.1393 -0.3216
 7280SOL    HW233474   4.024   1.171   7.112 -0.6815 -1.5779 -0.3024
 7281SOL     OW33475   0.157   3.156   4.668 -0.1290 -0.3373  0.0155
 7281SOL    HW133476   0.144   3.250   4.685 -2.2733 -0.7800  0.8531
 7281SOL    HW233477   0.077   3.129   4.623 -1.3879  2.4387  0.5851
 7282SOL     OW33478   4.487   2.284   1.850 -0.6777 -0.2753 -0.1133
 7282SOL    HW133479   4.527   2.356   1.899 -0.8561 -0.6782  0.6302
 7282SOL    HW233480   4.549   2.291   1.777 -0.5532  2.3585  0.2265
 7283SOL     OW33481   3.456   3.003   5.138 -0.4087 -0.0968  0.3175
 7283SOL    HW133482   3.511   2.948   5.083 -0.6355  0.0866 -0.0881
 7283SOL    HW233483   3.518   3.028   5.207 -1.6007 -1.0785  1.7595
 7284SOL     OW33484   1.107   3.039   7.309  0.3007  0.0384 -0.2079
 7284SOL    HW133485   1.060   3.092   7.246 -0.1540  1.9497  1.7372
 7284SOL    HW233486   1.108   2.958   7.257  1.5801 -0.6960  0.9463
 7285SOL     OW33487   3.563   1.842   2.181 -0.5077 -0.0207  0.6148
 7285SOL    HW133488   3.518   1.881   2.256  1.4287  0.0368  1.7642
 7285SOL    HW233489   3.509   1.766   2.162 -1.3402  0.8685 -0.5591
 7286SOL     OW33490   1.586   1.863  13.686 -0.4908  0.1966  0.1310
 7286SOL    HW133491   1.510   1.812  13.660 -0.1067 -0.0146 -0.6005
 7286SOL    HW233492   1.571   1.863  13.780 -0.2931  0.6502  0.1626
 7287SOL     OW33493   3.350   2.169   3.970 -0.0270  0.5537 -0.0974
 7287SOL    HW133494   3.434   2.147   4.010 -0.0918 -0.7941 -0.7187
 7287SOL    HW233495   3.383   2.156   3.881  0.5221 -1.2524  0.3840
 7288SOL     OW33496   2.803   2.218   4.777  0.4507  0.1797  0.4859
 7288SOL    HW133497   2.816   2.291   4.716 -0.2287  0.0510  0.1916
 7288SOL    HW233498   2.847   2.148   4.728 -0.2983  0.7454 -1.0022
 7289SOL     OW33499   2.601   0.593  17.331  0.4408  0.2181  0.0870
 7289SOL    HW133500   2.619   0.544  17.251 -0.9571  0.6095 -0.4761
 7289SOL    HW233501   2.641   0.538  17.398 -0.1528  0.8050  0.9111
 7290SOL     OW33502   1.436   0.751   2.672  0.4020 -0.5796 -0.0662
 7290SOL    HW133503   1.447   0.716   2.584 -3.6319 -0.4458 -0.6622
 7290SOL    HW233504   1.497   0.824   2.669 -1.3368  0.9541  1.4821
 7291SOL     OW33505   4.401   4.483   4.091 -0.0616 -0.0487  0.3500
 7291SOL    HW133506   4.381   4.414   4.027  1.0430  2.3961 -2.5639
 7291SOL    HW233507   4.311   4.501   4.118  0.6071 -0.2477  2.7215
 7292SOL     OW33508   0.286   4.530   7.851 -0.2174 -0.0193  0.0955
 7292SOL    HW133509   0.373   4.491   7.866  0.3992  0.6498 -1.8401
 7292SOL    HW233510   0.286   4.610   7.904 -1.3600  0.1273 -0.1329
 7293SOL     OW33511   1.541   1.936  15.193  0.6072 -0.1091  0.3457
 7293SOL    HW133512   1.450   1.906  15.189  0.8684 -0.7594 -0.4945
 7293SOL    HW233513   1.583   1.895  15.118 -4.1847 -3.2597 -0.6321
 7294SOL     OW33514   4.034   4.575   5.577 -0.5093  0.2967 -0.5598
 7294SOL    HW133515   4.093   4.646   5.548  0.2473 -0.5501 -1.0861
 7294SOL    HW233516   3.983   4.613   5.648 -0.5949 -0.5364 -0.1815
 7295SOL     OW33517   0.513   3.131  13.459  0.2713  0.2585  0.2618
 7295SOL    HW133518   0.521   3.211  13.407 -1.5619  1.6253  2.0669
 7295SOL    HW233519   0.598   3.125  13.502  0.3931  1.6700  0.2047
 7296SOL     OW33520   3.896   0.826   2.673 -0.2090 -0.1195 -0.5979
 7296SOL    HW133521   3.822   0.836   2.612 -1.9572  0.9279  1.6825
 7296SOL    HW233522   3.953   0.761   2.633 -0.1867 -1.1193  1.0789
 7297SOL     OW33523   3.609   0.517   6.980  0.1837  0.6249 -0.3056
 7297SOL    HW133524   3.601   0.432   6.937 -1.7413  1.5197 -1.7071
 7297SOL    HW233525   3.550   0.573   6.929 -1.1740  0.3491  0.9495
 7298SOL     OW33526   1.716   3.332   6.583  0.1497 -0.0923  0.6619
 7298SOL    HW133527   1.665   3.358   6.660 -0.9881 -0.1375 -0.0810
 7298SOL    HW233528   1.654   3.324   6.512 -0.0874  0.4697  0.8026
 7299SOL     OW33529   0.481   2.651  16.716 -0.7603  0.3932 -0.1469
 7299SOL    HW133530   0.496   2.640  16.810 -0.9147 -3.0688 -0.5377
 7299SOL    HW233531   0.385   2.657  16.714 -0.8198 -0.4048  0.5615
 7300SOL     OW33532   3.916   4.604   4.691 -0.6599  0.0652  0.3678
 7300SOL    HW133533   3.902   4.625   4.783  0.6048 -0.3832  0.6679
 7300SOL    HW233534   3.992   4.546   4.700 -0.9136 -0.1483  1.0944
 7301SOL     OW33535   0.674   3.655   8.401 -0.1009 -0.1939 -0.2832
 7301SOL    HW133536   0.706   3.737   8.438 -1.1144 -0.2270  0.6659
 7301SOL    HW233537   0.750   3.600   8.420 -0.4688  0.1779  2.2147
 7302SOL     OW33538   4.326   1.579   2.319  0.5332 -0.0772 -0.2017
 7302SOL    HW133539   4.388   1.526   2.368  1.4725 -0.0730 -1.3909
 7302SOL    HW233540   4.285   1.512   2.265 -0.1753  0.4731 -0.3577
 7303SOL     OW33541   1.695   2.271   4.879 -0.2274 -0.0101 -0.0915
 7303SOL    HW133542   1.629   2.340   4.865 -0.1833  0.0669  0.0802
 7303SOL    HW233543   1.706   2.237   4.790 -1.1332  0.8158 -0.5298
 7304SOL     OW33544   4.039   2.952   9.234  0.0988  0.6557  0.0022
 7304SOL    HW133545   4.003   2.916   9.315  0.3187  1.5951  0.5193
 7304SOL    HW233546   4.122   2.903   9.229 -0.9066 -1.0558  0.0616
 7305SOL     OW33547   2.191   4.358  14.028 -0.3788 -0.0682 -0.2555
 7305SOL    HW133548   2.276   4.313  14.024 -0.0731  0.3245  2.1115
 7305SOL    HW233549   2.196   4.410  13.947  3.5895 -3.3534 -2.1346
 7306SOL     OW33550   0.041   3.995   6.701  0.4403 -0.7402 -0.1187
 7306SOL    HW133551   0.004   3.967   6.785  0.8188 -0.7506  0.0447
 7306SOL    HW233552   0.034   3.913   6.652 -1.1563 -1.1963  0.8576
 7307SOL     OW33553   4.001   1.185   7.315 -0.6638  0.2387 -0.5567
 7307SOL    HW133554   4.052   1.126   7.371 -1.4143  0.7052  0.6157
 7307SOL    HW233555   4.023   1.271   7.351  1.4237 -0.5174 -0.0519
 7308SOL     OW33556   0.606   4.628   3.016  0.1509  0.0550  0.4241
 7308SOL    HW133557   0.563   4.707   3.048 -0.4723  1.0589 -2.9384
 7308SOL    HW233558   0.677   4.655   2.958  0.5705  2.1281  1.9098
 7309SOL     OW33559   4.617   1.769   8.614  0.1353 -0.5081 -0.0099
 7309SOL    HW133560   4.704   1.793   8.646 -0.8853  3.0271  0.1101
 7309SOL    HW233561   4.619   1.674   8.624  0.2586 -0.4116  0.8742
 7310SOL     OW33562   2.603   0.542   3.070 -0.3948  0.2779 -0.4384
 7310SOL    HW133563   2.545   0.611   3.039 -1.3809 -0.7396 -0.8536
 7310SOL    HW233564   2.639   0.591   3.144  0.0561 -0.9118  0.1330
 7311SOL     OW33565   2.170   4.665   6.678 -0.4272 -0.2131  0.3694
 7311SOL    HW133566   2.236   4.722   6.639  0.8576 -1.4160  0.7641
 7311SOL    HW233567   2.230   4.613   6.732  1.9502  0.1145 -1.9208
 7312SOL     OW33568   3.009   3.119  11.912 -0.2159 -0.7292 -0.4744
 7312SOL    HW133569   2.988   3.132  12.005  1.7515 -0.1274 -0.0957
 7312SOL    HW233570   3.105   3.116  11.907 -0.0650 -0.2568  1.7362
 7313SOL     OW33571   0.056   4.107   9.790  0.3657 -0.4716  0.0817
 7313SOL    HW133572   4.731   4.037   9.793 -0.7894  0.6203  0.0567
 7313SOL    HW233573   0.114   4.059   9.731 -0.0146  0.6100 -1.1713
 7314SOL     OW33574   0.038   0.732   3.725  0.0029  0.1448 -0.4239
 7314SOL    HW133575   4.699   0.767   3.687  1.4312  0.6683 -2.9579
 7314SOL    HW233576   0.091   0.715   3.647  0.2811  1.3273 -0.4891
 7315SOL     OW33577   3.241   0.249  11.781  0.2450 -0.0377 -0.1280
 7315SOL    HW133578   3.161   0.279  11.737  1.9451  0.1315 -3.0987
 7315SOL    HW233579   3.302   0.312  11.744 -0.0541  0.3882  0.0978
 7316SOL     OW33580   0.639   4.653   1.003  0.3043 -0.4277 -0.2558
 7316SOL    HW133581   0.560   4.638   1.055 -0.1576 -1.9281 -1.3972
 7316SOL    HW233582   0.606   4.689   0.921  1.4575  0.2497 -0.4323
 7317SOL     OW33583   4.236   4.723  16.830 -0.1702 -0.0018 -0.2105
 7317SOL    HW133584   4.229   4.702  16.736  1.3740  1.4507 -0.6428
 7317SOL    HW233585   4.263   0.073  16.831 -0.0685 -0.0301 -0.4542
 7318SOL     OW33586   0.981   3.320   0.753  0.0678 -0.1810 -0.3264
 7318SOL    HW133587   1.052   3.258   0.769  2.6234  3.4830  2.6911
 7318SOL    HW233588   0.961   3.320   0.660  1.1777  1.2871 -0.5708
 7319SOL     OW33589   1.910   3.858   4.273 -0.4787 -0.5947  0.1475
 7319SOL    HW133590   1.938   3.767   4.277 -0.8883 -0.7831 -1.1767
 7319SOL    HW233591   1.838   3.859   4.210  0.0067  1.2476 -0.3899
 7320SOL     OW33592   2.464   1.732   8.720  0.1382  0.3135  0.5231
 7320SOL    HW133593   2.437   1.746   8.629  0.9988 -0.1092  0.2075
 7320SOL    HW233594   2.457   1.821   8.754 -0.8557  0.6463 -0.5296
 7321SOL     OW33595   0.780   1.029   9.599 -0.2392 -0.4422  0.3854
 7321SOL    HW133596   0.844   1.007   9.667 -0.1236  0.4964  0.5744
 7321SOL    HW233597   0.702   1.036   9.654  0.7603  1.0738  1.5837
 7322SOL     OW33598   3.347   1.453   4.282 -0.4921 -0.1899  0.2582
 7322SOL    HW133599   3.434   1.431   4.249 -0.2874  1.2684 -0.1612
 7322SOL    HW233600   3.326   1.520   4.217 -1.2865  0.0101  0.7273
 7323SOL     OW33601   2.470   2.340  11.414 -0.1673 -0.1361 -0.2689
 7323SOL    HW133602   2.485   2.322  11.321 -0.9227 -3.0966  0.1677
 7323SOL    HW233603   2.438   2.429  11.425 -1.3762 -0.9861  3.1278
 7324SOL     OW33604   0.560   0.993   2.027  0.4566 -0.0378  0.1606
 7324SOL    HW133605   0.637   1.024   1.979  1.1368  0.6082  1.6614
 7324SOL    HW233606   0.543   1.063   2.089  2.1243  0.2309  0.3131
 7325SOL     OW33607   4.383   1.164   3.567 -0.1238 -0.3298  0.2012
 7325SOL    HW133608   4.422   1.089   3.611 -0.9883 -0.4714  0.7225
 7325SOL    HW233609   4.458   1.211   3.530  0.4462 -1.8442 -0.5302
 7326SOL     OW33610   1.986   4.419   0.802  0.0642 -0.2744  0.1343
 7326SOL    HW133611   2.042   4.494   0.821  0.7558 -1.3066  2.2428
 7326SOL    HW233612   2.004   4.404   0.710 -1.1213  0.3674 -0.2015
 7327SOL     OW33613   2.639   4.407  17.674 -0.4105 -0.6583 -0.4638
 7327SOL    HW133614   2.686   4.428  17.755 -0.9687  1.4028 -0.6850
 7327SOL    HW233615   2.700   4.436  17.606 -1.9888  2.9246 -0.3060
 7328SOL     OW33616   3.141   0.155   6.435 -0.4519  0.4730 -0.2922
 7328SOL    HW133617   3.126   0.166   6.529  1.2766 -1.2969  0.2074
 7328SOL    HW233618   3.229   0.117   6.432 -2.0765 -3.0270 -3.6613
 7329SOL     OW33619   0.906   3.171   4.606  0.0449 -0.6152  1.1321
 7329SOL    HW133620   0.833   3.184   4.666 -0.1910 -4.3628  1.6510
 7329SOL    HW233621   0.980   3.164   4.667  0.1653 -1.2888  0.9129
 7330SOL     OW33622   3.676   3.413   7.081  0.2452 -0.9212 -0.2233
 7330SOL    HW133623   3.729   3.333   7.076  0.3760 -0.7059 -2.6881
 7330SOL    HW233624   3.707   3.452   7.162 -1.7421  0.0856  0.0576
 7331SOL     OW33625   3.488   0.816   3.508 -0.2805 -0.7814  0.1351
 7331SOL    HW133626   3.482   0.871   3.430 -1.8379 -0.2143  0.6469
 7331SOL    HW233627   3.403   0.772   3.519  0.3373 -1.9248  0.2949
 7332SOL     OW33628   0.810   3.680   4.999  0.2349 -0.2428 -0.6411
 7332SOL    HW133629   0.715   3.690   5.001  0.1096 -0.9722 -4.5443
 7332SOL    HW233630   0.841   3.763   5.037 -1.5251 -1.1468  2.7503
 7333SOL     OW33631   2.348   2.021   4.808 -0.6469  0.7146 -0.2286
 7333SOL    HW133632   2.291   2.065   4.746 -3.0138 -1.6829  0.2609
 7333SOL    HW233633   2.421   2.082   4.820 -1.2246  1.0519  1.5628
 7334SOL     OW33634   4.497   3.379   6.443  0.0573 -0.6791 -0.0091
 7334SOL    HW133635   4.452   3.457   6.410 -0.1544 -1.0978 -0.7059
 7334SOL    HW233636   4.586   3.384   6.406  0.6487 -1.3677  1.3209
 7335SOL     OW33637   0.655   1.421   1.478 -0.0651  0.4641  0.0080
 7335SOL    HW133638   0.611   1.337   1.491  0.3410  0.0761 -1.1412
 7335SOL    HW233639   0.742   1.398   1.445 -0.9279  0.3369 -2.1442
 7336SOL     OW33640   1.334   1.459  13.752  0.4268 -0.0747  0.0271
 7336SOL    HW133641   1.374   1.441  13.667  0.9705  0.1906  0.2317
 7336SOL    HW233642   1.417   1.469  13.797  0.2337 -1.5184  0.6930
 7337SOL     OW33643   1.143   2.406  11.821 -0.2157  0.4151  0.2222
 7337SOL    HW133644   1.099   2.352  11.887 -0.1913 -0.5763 -0.5746
 7337SOL    HW233645   1.192   2.337  11.776  1.1675  0.5090  1.5915
 7338SOL     OW33646   0.062   4.725   5.626 -0.6585 -0.2409 -0.1121
 7338SOL    HW133647   0.109   4.706   5.544 -0.5618 -2.7839  0.5417
 7338SOL    HW233648   4.732   0.034   5.585  0.9443 -0.7099 -3.5089
 7339SOL     OW33649   4.477   2.400  11.514 -0.3417  0.4905 -0.1281
 7339SOL    HW133650   4.451   2.355  11.433 -0.0388  0.4013 -0.1758
 7339SOL    HW233651   4.566   2.425  11.490 -0.9876  1.8505 -1.0902
 7340SOL     OW33652   2.784   4.736   1.128 -0.1683 -0.0323  0.1530
 7340SOL    HW133653   2.764   4.740   1.035  1.5697  0.9964 -0.1706
 7340SOL    HW233654   2.760   0.082   1.160 -0.1500 -1.2221  3.3884
 7341SOL     OW33655   0.511   2.721   1.639 -0.0704  0.0603  0.4356
 7341SOL    HW133656   0.470   2.760   1.717  0.2408  0.0845  0.5846
 7341SOL    HW233657   0.445   2.741   1.573  1.3473  0.9263 -0.7011
 7342SOL     OW33658   0.936   0.205   5.574  0.1925 -0.1633  0.4539
 7342SOL    HW133659   0.891   0.173   5.652  0.3044 -0.3375  0.4492
 7342SOL    HW233660   1.026   0.212   5.606 -0.3004 -0.4025  1.8880
 7343SOL     OW33661   1.165   0.625  13.584 -0.0806  0.7040  0.9379
 7343SOL    HW133662   1.133   0.612  13.495  1.2934  2.3626  0.2131
 7343SOL    HW233663   1.089   0.670  13.621  0.5836  2.9870 -0.5086
 7344SOL     OW33664   2.619   2.211   9.388 -0.0837  0.1486 -0.0666
 7344SOL    HW133665   2.655   2.163   9.462  0.6791  0.6753 -0.0966
 7344SOL    HW233666   2.598   2.143   9.325 -0.4765 -0.7512  1.0347
 7345SOL     OW33667   3.257   4.614   3.799 -0.9097 -0.3062  0.3362
 7345SOL    HW133668   3.332   4.673   3.794 -0.9244 -0.0551  2.8613
 7345SOL    HW233669   3.301   4.538   3.760 -1.0498 -0.9897  1.4723
 7346SOL     OW33670   0.365   2.393   4.030  0.2143 -0.3410  0.4808
 7346SOL    HW133671   0.379   2.434   3.944 -1.1243  1.2658  1.0313
 7346SOL    HW233672   0.444   2.426   4.072  0.1104 -0.9476  1.1601
 7347SOL     OW33673   0.111   0.410   6.776 -0.3270  0.0371 -0.5832
 7347SOL    HW133674   0.099   0.364   6.859  0.1189 -0.1613 -0.6241
 7347SOL    HW233675   0.146   0.491   6.815  0.0953  0.3693 -1.6652
 7348SOL     OW33676   0.849   0.319   2.583 -0.5483 -0.5263  0.7109
 7348SOL    HW133677   0.870   0.235   2.624  1.6235 -1.7975 -2.9948
 7348SOL    HW233678   0.928   0.328   2.529 -0.1720 -2.2073  0.9818
 7349SOL     OW33679   0.579   3.081  11.819  0.2126 -0.3508 -0.4113
 7349SOL    HW133680   0.619   3.102  11.735  0.1303  1.1471 -0.0643
 7349SOL    HW233681   0.650   3.023  11.846  1.1714 -0.4200 -3.0732
 7350SOL     OW33682   1.124   1.884  14.562  0.3066 -0.4199  0.1021
 7350SOL    HW133683   1.180   1.900  14.486  0.2137 -2.1416 -0.3285
 7350SOL    HW233684   1.042   1.862  14.517  0.8267 -1.7262 -0.2276
 7351SOL     OW33685   4.678   3.759   6.245 -0.3400  0.0538  0.4577
 7351SOL    HW133686   4.610   3.708   6.201 -0.9447  0.2158  1.2049
 7351SOL    HW233687   4.654   3.846   6.213  0.6295 -0.2891 -1.1971
 7352SOL     OW33688   0.835   3.736   5.657 -0.3015 -0.2697 -0.5772
 7352SOL    HW133689   0.915   3.787   5.643 -1.5949  1.1441 -2.8737
 7352SOL    HW233690   0.771   3.802   5.682 -1.9070 -1.8031 -0.6306
 7353SOL     OW33691   0.928   1.597   8.265 -0.0122  0.1160  0.1735
 7353SOL    HW133692   0.847   1.546   8.268 -0.0866  0.2628  0.7728
 7353SOL    HW233693   0.903   1.684   8.235  1.2799  0.0587 -1.0965
 7354SOL     OW33694   1.633   2.173   8.864  1.0175  0.4966 -0.2439
 7354SOL    HW133695   1.629   2.130   8.778 -1.2441 -0.1663  0.1794
 7354SOL    HW233696   1.613   2.261   8.831  0.4497  0.1401 -0.8592
 7355SOL     OW33697   1.068   2.158   2.638  0.3959  0.4769  0.1060
 7355SOL    HW133698   1.041   2.112   2.717 -0.9894 -0.5950 -1.0108
 7355SOL    HW233699   0.996   2.220   2.625  0.1299  0.7095  2.7680
 7356SOL     OW33700   1.988   2.556   1.992 -0.0192 -0.8425  0.1192
 7356SOL    HW133701   2.036   2.526   1.915 -1.5391  0.4362 -1.3086
 7356SOL    HW233702   2.034   2.514   2.065  1.5368 -0.0816 -0.4291
 7357SOL     OW33703   1.511   3.665   4.471 -0.2014 -0.0614  0.1979
 7357SOL    HW133704   1.470   3.589   4.430 -1.4308  0.8393 -0.2493
 7357SOL    HW233705   1.487   3.644   4.561 -3.0733  1.0989 -0.2771
 7358SOL     OW33706   3.192   3.223  11.371  0.0574  0.0314 -0.3496
 7358SOL    HW133707   3.182   3.139  11.416 -0.6091  0.7179  0.7733
 7358SOL    HW233708   3.201   3.283  11.445 -1.6669  0.0842 -0.1899
 7359SOL     OW33709   2.693   3.761   7.372 -0.2232 -0.0847 -0.2813
 7359SOL    HW133710   2.782   3.796   7.373  0.1765 -1.0764 -1.8298
 7359SOL    HW233711   2.643   3.824   7.425 -0.7749 -1.3464  0.7144
 7360SOL     OW33712   3.029   0.474   1.543 -0.0031  0.3301  0.2145
 7360SOL    HW133713   3.079   0.404   1.583 -1.0829 -0.1079  0.8063
 7360SOL    HW233714   3.093   0.504   1.478 -0.2456 -1.4074 -0.8184
 7361SOL     OW33715   1.752   0.174  14.133  0.1858  0.5314 -0.3152
 7361SOL    HW133716   1.709   0.091  14.153  1.0661 -0.1355 -1.1925
 7361SOL    HW233717   1.695   0.234  14.183 -1.0700  0.6438 -1.8766
 7362SOL     OW33718   3.730   2.134   7.541 -0.6522 -0.2844  0.1366
 7362SOL    HW133719   3.670   2.148   7.468  1.4446  3.0623 -0.9545
 7362SOL    HW233720   3.722   2.039   7.543 -0.3375 -0.2665  2.4916
 7363SOL     OW33721   0.322   3.968   2.727 -0.4337  0.2962  0.0379
 7363SOL    HW133722   0.334   4.058   2.757 -0.2234  1.1433 -2.5275
 7363SOL    HW233723   0.283   3.932   2.807  0.8276 -0.6568  0.2318
 7364SOL     OW33724   2.193   3.063   3.675  0.2969  0.4732  0.3461
 7364SOL    HW133725   2.196   3.066   3.771  0.6119  0.8098  0.3257
 7364SOL    HW233726   2.286   3.081   3.661  0.3690 -0.9494 -1.0306
 7365SOL     OW33727   0.917   4.261   3.322  0.3145  0.8825  0.1835
 7365SOL    HW133728   0.981   4.331   3.332 -0.0608  1.5007 -1.8750
 7365SOL    HW233729   0.866   4.247   3.402  0.2985  1.1384  0.2181
 7366SOL     OW33730   2.507   1.811   7.265 -0.0449  0.5391  0.1295
 7366SOL    HW133731   2.427   1.758   7.261  0.9257 -0.8934 -0.6832
 7366SOL    HW233732   2.515   1.825   7.359 -1.1647 -2.9003  0.7538
 7367SOL     OW33733   3.908   0.786   1.091  0.2779 -0.2955 -0.0015
 7367SOL    HW133734   3.842   0.816   1.029  1.1763 -3.7962 -2.6244
 7367SOL    HW233735   3.871   0.701   1.113  1.3568  0.1343  3.4737
 7368SOL     OW33736   2.447   4.221   3.463  0.2079  0.1408 -0.3016
 7368SOL    HW133737   2.364   4.243   3.505 -0.6393 -0.9399 -1.4085
 7368SOL    HW233738   2.421   4.182   3.379 -3.0476 -0.9456  1.2147
 7369SOL     OW33739   4.073   0.484   8.868  0.2659 -0.3593  0.2523
 7369SOL    HW133740   4.064   0.390   8.854  0.1079 -0.1243 -1.2620
 7369SOL    HW233741   4.146   0.480   8.930 -1.4113  1.4025  2.3339
 7370SOL     OW33742   4.581   1.630   7.078 -0.3742  0.2963 -0.3589
 7370SOL    HW133743   4.612   1.720   7.072  1.3963 -0.3285 -0.6091
 7370SOL    HW233744   4.662   1.582   7.092  0.1050  1.2271  0.0902
 7371SOL     OW33745   2.900   3.497   8.651  0.2812 -0.2951  0.4113
 7371SOL    HW133746   2.988   3.535   8.659  0.8058 -1.2550 -0.8148
 7371SOL    HW233747   2.851   3.579   8.649 -0.5095 -0.8265 -3.2644
 7372SOL     OW33748   0.181   2.643   8.468  0.2427 -0.1577  0.1922
 7372SOL    HW133749   0.169   2.642   8.373 -0.1661  1.9879  0.2219
 7372SOL    HW233750   0.086   2.648   8.482  0.2995  0.9120  0.1509
 7373SOL     OW33751   0.504   0.521   6.584 -0.3126 -0.1058 -0.6859
 7373SOL    HW133752   0.537   0.460   6.650 -0.5776 -0.4015 -0.8299
 7373SOL    HW233753   0.443   0.573   6.637 -0.5541 -0.4601 -0.6167
 7374SOL     OW33754   1.989   2.672   7.118  0.4327 -0.0559  0.0992
 7374SOL    HW133755   1.965   2.586   7.153  0.5431  0.0893  0.5298
 7374SOL    HW233756   1.906   2.702   7.081 -0.4172 -1.3319  0.9687
 7375SOL     OW33757   4.315   2.083   4.266 -0.0972  0.0273 -0.1072
 7375SOL    HW133758   4.358   2.151   4.215 -1.1511 -0.3210 -1.4268
 7375SOL    HW233759   4.383   2.015   4.263  0.5820  0.7620 -1.2503
 7376SOL     OW33760   0.265   4.385   4.911 -0.2168  0.1667  0.8067
 7376SOL    HW133761   0.309   4.425   4.986  0.6083 -0.7717  0.8284
 7376SOL    HW233762   0.181   4.353   4.944  0.3960 -0.8219  1.4088
 7377SOL     OW33763   4.340   4.464   3.210  0.2583 -0.1027 -0.0096
 7377SOL    HW133764   4.304   4.488   3.125 -0.8799  0.1762  0.5556
 7377SOL    HW233765   4.331   4.541   3.265 -1.7307  0.0166 -0.5135
 7378SOL     OW33766   2.138   1.870   4.386 -0.3984  0.5266 -0.2972
 7378SOL    HW133767   2.196   1.856   4.461 -0.2326 -0.7888 -0.6813
 7378SOL    HW233768   2.183   1.820   4.318 -1.8064 -2.0848  0.7117
 7379SOL     OW33769   2.067   2.264   8.566 -0.6495  0.4525  0.3046
 7379SOL    HW133770   2.003   2.247   8.497 -0.7799  0.7426  0.3549
 7379SOL    HW233771   2.082   2.182   8.613 -1.5002  0.2986  0.3100
 7380SOL     OW33772   0.200   0.634   1.375  0.3894  0.5286  0.3130
 7380SOL    HW133773   0.202   0.728   1.355  1.8526  0.7512  1.5292
 7380SOL    HW233774   0.139   0.632   1.448 -1.5962  0.1129 -1.3423
 7381SOL     OW33775   1.626   2.181   7.487 -0.4932 -0.0958  0.1744
 7381SOL    HW133776   1.681   2.116   7.532 -0.1884  0.2142  0.2510
 7381SOL    HW233777   1.624   2.248   7.555 -0.6138  1.7122 -1.6066
 7382SOL     OW33778   0.801   2.752  15.499 -0.0167  0.3983 -0.4493
 7382SOL    HW133779   0.828   2.831  15.453  1.8233 -0.0961 -0.2192
 7382SOL    HW233780   0.830   2.776  15.587 -1.1594 -0.0151  0.0430
 7383SOL     OW33781   0.131   3.111   9.121  0.3041 -0.0020 -0.4540
 7383SOL    HW133782   0.193   3.174   9.086  2.2436 -1.6222  0.0200
 7383SOL    HW233783   0.042   3.140   9.101  0.3329  0.3594 -0.0496
 7384SOL     OW33784   4.048   4.288   9.064 -0.1703  0.8436  0.7486
 7384SOL    HW133785   4.036   4.203   9.021 -0.3060 -0.0734  2.5898
 7384SOL    HW233786   4.096   4.268   9.145  1.2038  0.0704 -0.2684
 7385SOL     OW33787   0.402   3.880   4.293  0.6563 -0.0126  0.4410
 7385SOL    HW133788   0.455   3.924   4.359 -1.8742  0.2848  2.2499
 7385SOL    HW233789   0.448   3.797   4.285  0.6110  0.0934 -0.9226
 7386SOL     OW33790   0.395   1.182   5.226 -0.3925 -0.0886 -0.1330
 7386SOL    HW133791   0.460   1.232   5.176 -0.2113 -0.5418 -0.3536
 7386SOL    HW233792   0.320   1.166   5.169 -1.0892 -1.7198  1.2422
 7387SOL     OW33793   4.481   1.047   2.520 -0.6758 -0.1806  0.0006
 7387SOL    HW133794   4.391   1.016   2.528 -1.3050  0.9162 -2.9545
 7387SOL    HW233795   4.531   1.004   2.589 -0.5776  0.3466  0.2601
 7388SOL     OW33796   0.763   1.297   0.384 -0.4703  0.0256 -0.4245
 7388SOL    HW133797   0.731   1.258   0.465 -1.6976  1.2398 -0.3268
 7388SOL    HW233798   0.767   1.388   0.414 -1.9635 -0.0491 -0.0174
 7389SOL     OW33799   1.720   2.385   5.416 -0.2385  0.2049 -0.2943
 7389SOL    HW133800   1.771   2.381   5.497  1.7993 -0.2164 -1.6214
 7389SOL    HW233801   1.641   2.331   5.422 -0.6468  1.0065  1.8499
 7390SOL     OW33802   2.293   4.554  10.498  0.3151 -0.1547  0.2077
 7390SOL    HW133803   2.384   4.573  10.475  0.5604  1.8698  2.8623
 7390SOL    HW233804   2.302   4.596  10.583 -0.3803 -0.3125  0.3530
 7391SOL     OW33805   1.327   0.778   6.715 -0.5357 -0.0158  0.7447
 7391SOL    HW133806   1.387   0.853   6.713  0.3317 -0.7756 -1.2914
 7391SOL    HW233807   1.243   0.824   6.709 -0.1244  0.4331 -1.3991
 7392SOL     OW33808   0.279   1.801  12.150 -0.1215 -0.2541  0.3846
 7392SOL    HW133809   0.210   1.847  12.103 -1.0991  0.4842  2.5464
 7392SOL    HW233810   0.225   1.777  12.225 -1.2664 -0.1430 -0.3961
 7393SOL     OW33811   0.389   1.165  13.147 -0.4711 -0.3033  0.5485
 7393SOL    HW133812   0.372   1.178  13.240  2.4056 -1.7604  1.3014
 7393SOL    HW233813   0.454   1.233  13.128 -0.1596 -1.4474 -2.5190
 7394SOL     OW33814   2.486   4.457   4.911  0.9120 -0.4847 -0.4349
 7394SOL    HW133815   2.453   4.544   4.888 -0.7095 -1.2514 -0.9674
 7394SOL    HW233816   2.471   4.460   5.006 -3.5487  0.7047 -1.1738
 7395SOL     OW33817   0.739   3.609   0.685  0.6067  0.6048  0.4710
 7395SOL    HW133818   0.655   3.651   0.703  1.5479  3.0069 -0.8724
 7395SOL    HW233819   0.748   3.559   0.766  0.1490  0.4058  0.4014
 7396SOL     OW33820   3.050   1.580   1.951 -0.4310 -0.0192 -0.0299
 7396SOL    HW133821   3.131   1.539   1.922 -0.3101 -0.2300  0.6078
 7396SOL    HW233822   2.982   1.527   1.910 -1.8418  1.3845  0.4696
 7397SOL     OW33823   1.345   0.385   6.814 -0.1154 -0.4035 -0.2995
 7397SOL    HW133824   1.283   0.419   6.750 -1.2548 -0.2892  0.8811
 7397SOL    HW233825   1.425   0.437   6.801 -0.5025  0.0014 -1.0674
 7398SOL     OW33826   0.830   4.389  10.212  0.0903  0.2530  0.6488
 7398SOL    HW133827   0.904   4.329  10.224  1.0346  0.9699 -1.4516
 7398SOL    HW233828   0.816   4.405  10.118  0.1723  1.2379  0.8045
 7399SOL     OW33829   2.131   3.814   9.018  0.1108  0.1412  0.7338
 7399SOL    HW133830   2.204   3.831   8.960 -0.3349  2.3995  0.8395
 7399SOL    HW233831   2.047   3.807   8.973  0.7169 -1.2293 -0.1870
 7400SOL     OW33832   2.207   1.092  14.605  0.4613  0.4290  0.0194
 7400SOL    HW133833   2.201   1.177  14.560  2.3028 -0.4335 -1.8304
 7400SOL    HW233834   2.112   1.082  14.601  0.6687 -0.5475 -2.0705
 7401SOL     OW33835   3.269   4.569   7.368  0.6658 -0.1677  0.6016
 7401SOL    HW133836   3.196   4.556   7.428  0.2742  0.8306  0.3301
 7401SOL    HW233837   3.299   4.656   7.393  0.8012 -0.3812  1.1771
 7402SOL     OW33838   3.880   3.725   6.803  0.3492 -0.4539 -0.2243
 7402SOL    HW133839   3.848   3.815   6.792 -0.7506 -0.8249  0.0028
 7402SOL    HW233840   3.861   3.720   6.897 -2.4494  3.2486 -0.5968
 7403SOL     OW33841   2.139   0.484   8.770  0.1305 -0.3845 -0.1800
 7403SOL    HW133842   2.069   0.431   8.730  1.0106 -0.8837 -1.0711
 7403SOL    HW233843   2.164   0.540   8.697 -3.7761  0.4912 -0.8216
 7404SOL     OW33844   1.857   1.048   1.814  0.1197 -0.0542 -0.1410
 7404SOL    HW133845   1.927   1.113   1.820  1.1693 -1.3555  1.4487
 7404SOL    HW233846   1.806   1.082   1.888 -0.8468  2.1195 -1.7967
 7405SOL     OW33847   3.564   4.279   9.656 -0.4065 -0.5557  0.1683
 7405SOL    HW133848   3.526   4.342   9.595  2.4896 -0.0663 -1.1005
 7405SOL    HW233849   3.612   4.213   9.607  0.3274 -0.1089  0.2914
 7406SOL     OW33850   4.562   4.157   2.968  0.4269  0.6627  0.0727
 7406SOL    HW133851   4.476   4.125   2.995  0.7737 -0.8523 -0.6087
 7406SOL    HW233852   4.557   4.248   2.996 -0.7788  1.0215 -1.3207
 7407SOL     OW33853   3.984   0.344   2.171  0.3005  0.5554 -0.0155
 7407SOL    HW133854   4.001   0.332   2.077  4.0431  3.1952  0.3352
 7407SOL    HW233855   4.040   0.419   2.192 -0.6873  1.3537 -0.2141
 7408SOL     OW33856   1.314   4.241   0.551 -0.0124 -0.6002  0.2629
 7408SOL    HW133857   1.268   4.166   0.588 -1.4060 -0.3121 -0.9222
 7408SOL    HW233858   1.366   4.192   0.487  1.7467  0.3589  0.9564
 7409SOL     OW33859   4.079   1.019   3.920  0.1866 -0.3093 -0.0352
 7409SOL    HW133860   4.169   1.052   3.917  1.2657 -3.2205  0.4998
 7409SOL    HW233861   4.098   0.932   3.884 -1.1964 -0.9935  0.9238
 7410SOL     OW33862   1.112   0.456  14.062  0.0331 -0.0241  0.3770
 7410SOL    HW133863   1.166   0.391  14.107  2.1856  0.7230 -1.1338
 7410SOL    HW233864   1.091   0.513  14.136  0.8817 -1.5543  1.7995
 7411SOL     OW33865   3.418   0.132   8.445 -0.5425  0.0951  0.5302
 7411SOL    HW133866   3.490   0.158   8.503 -0.1978  2.5753 -0.9974
 7411SOL    HW233867   3.462   0.168   8.368 -2.2438  0.0121 -0.4937
 7412SOL     OW33868   3.039   4.207   3.053 -0.5353 -0.5808  0.0219
 7412SOL    HW133869   3.023   4.114   3.064 -2.5357 -0.2915 -0.4414
 7412SOL    HW233870   2.982   4.234   2.981  0.2079 -0.4807 -0.5270
 7413SOL     OW33871   0.800   4.239   2.237 -0.3639  0.1579  0.0332
 7413SOL    HW133872   0.779   4.182   2.310 -1.0677  0.8390  0.3692
 7413SOL    HW233873   0.817   4.184   2.160 -0.0216 -0.6869  0.7139
 7414SOL     OW33874   1.442   1.149  12.793 -0.1848 -0.4220 -0.3019
 7414SOL    HW133875   1.400   1.191  12.868  1.4380 -1.8939  1.4449
 7414SOL    HW233876   1.397   1.065  12.800  0.7089 -0.8674  0.2123
 7415SOL     OW33877   2.131   0.514   8.108 -0.3867  0.1321  0.7616
 7415SOL    HW133878   2.168   0.601   8.091  0.3304 -0.2158  0.5726
 7415SOL    HW233879   2.217   0.474   8.120  0.2051  2.1459  3.3424
 7416SOL     OW33880   2.118   3.197   0.645  0.3294 -0.3945 -0.0190
 7416SOL    HW133881   2.029   3.165   0.655  0.3526 -0.1552  0.9303
 7416SOL    HW233882   2.165   3.116   0.626 -0.0495 -0.2232 -1.6915
 7417SOL     OW33883   0.575   1.438  12.318  0.5305 -0.3490  0.0366
 7417SOL    HW133884   0.600   1.488  12.395  1.0449  0.0623 -0.3940
 7417SOL    HW233885   0.521   1.498  12.266 -1.9075 -0.9981  1.8451
 7418SOL     OW33886   1.856   3.096  12.391  0.5745 -0.0278 -0.0505
 7418SOL    HW133887   1.763   3.091  12.414  0.7636  1.8282  1.1419
 7418SOL    HW233888   1.879   3.004  12.405 -0.3771 -0.0509  1.4269
 7419SOL     OW33889   3.890   1.666   8.415 -0.4873  0.3504 -0.3373
 7419SOL    HW133890   3.922   1.645   8.503  1.6375  0.8544 -1.0001
 7419SOL    HW233891   3.835   1.595   8.382 -0.7313 -0.2367  1.3230
 7420SOL     OW33892   3.018   0.254   1.085 -0.2954  0.5816  0.2622
 7420SOL    HW133893   2.931   0.295   1.082  0.4289  1.9345 -2.5585
 7420SOL    HW233894   3.039   0.251   1.178  0.6334 -0.1773  0.0140
 7421SOL     OW33895   1.519   2.795   7.731  0.2156  0.0867 -0.3710
 7421SOL    HW133896   1.464   2.832   7.661  1.0711 -0.2588 -1.2352
 7421SOL    HW233897   1.554   2.710   7.704  0.4623  0.4338 -1.1417
 7422SOL     OW33898   2.640   2.811   2.089 -0.0395  0.2327  0.3491
 7422SOL    HW133899   2.673   2.842   2.005  1.1140 -3.4927 -0.6008
 7422SOL    HW233900   2.578   2.739   2.074 -0.5292  0.9649 -1.1745
 7423SOL     OW33901   0.051   3.896   5.581  0.1292 -1.0323  0.3123
 7423SOL    HW133902   4.701   3.888   5.609 -0.2025  0.4078 -0.3355
 7423SOL    HW233903   0.061   3.961   5.511  0.4431 -0.8190  0.5532
 7424SOL     OW33904   3.869   3.473   4.322 -0.1920 -0.1116  0.0143
 7424SOL    HW133905   3.919   3.551   4.298  2.5380 -1.8479  0.0630
 7424SOL    HW233906   3.902   3.453   4.409  1.3796  0.1542 -0.5191
 7425SOL     OW33907   4.578   2.369  17.393 -0.0024 -0.5029 -0.4688
 7425SOL    HW133908   4.659   2.420  17.388 -0.8332  1.0224  1.6621
 7425SOL    HW233909   4.537   2.404  17.472  3.2858  0.4773  0.8197
 7426SOL     OW33910   1.578   4.491   3.870 -0.0085  0.7404 -0.4108
 7426SOL    HW133911   1.527   4.567   3.842 -1.1752 -0.0445 -0.4172
 7426SOL    HW233912   1.577   4.491   3.966  0.4480  1.7110 -0.4091
 7427SOL     OW33913   3.301   0.803  13.910  0.2254 -0.2802 -0.3946
 7427SOL    HW133914   3.220   0.776  13.867 -0.8913  0.0582  1.4880
 7427SOL    HW233915   3.283   0.757  13.992  0.9960  0.1254  0.0008
 7428SOL     OW33916   2.511   0.439   1.580 -0.1613  0.3270  0.1028
 7428SOL    HW133917   2.470   0.526   1.584  1.4539  0.9601  3.1125
 7428SOL    HW233918   2.554   0.427   1.665  2.2002 -0.8763 -1.2754
 7429SOL     OW33919   0.108   0.046   5.117  0.5667 -0.0885 -0.1864
 7429SOL    HW133920   0.156   0.049   5.034  1.9858  0.9500  0.6641
 7429SOL    HW233921   0.019   0.039   5.083 -0.4122 -1.5451  2.6631
 7430SOL     OW33922   1.547   0.322  10.829  0.0486 -0.0766  0.1326
 7430SOL    HW133923   1.575   0.284  10.913 -0.6377 -0.5544  0.1492
 7430SOL    HW233924   1.621   0.298  10.774 -0.4043  0.8297 -0.8539
 7431SOL     OW33925   4.001   3.709   4.192  0.0768 -0.0240 -0.0931
 7431SOL    HW133926   4.037   3.733   4.277  1.0704 -2.4361  0.1625
 7431SOL    HW233927   4.079   3.680   4.146 -0.1756 -0.6408 -0.1261
 7432SOL     OW33928   3.520   1.057   1.873 -0.2205 -0.1915 -0.0649
 7432SOL    HW133929   3.466   1.028   1.945  0.9411 -1.2698  0.3650
 7432SOL    HW233930   3.459   1.067   1.800  0.6884  0.9250 -0.6907
 7433SOL     OW33931   4.185   2.095   6.571  0.5492  0.1635  0.6422
 7433SOL    HW133932   4.190   2.185   6.540  0.9091 -0.1770 -0.2999
 7433SOL    HW233933   4.092   2.076   6.563  0.4522  0.4695  1.0557
 7434SOL     OW33934   4.160   2.694   4.961  0.0179 -0.0751  0.1700
 7434SOL    HW133935   4.166   2.606   4.998  1.2555  0.5059  1.3452
 7434SOL    HW233936   4.074   2.695   4.919  0.6439 -1.7028 -1.0988
 7435SOL     OW33937   2.139   0.432   9.943  0.0166  0.3981 -0.5088
 7435SOL    HW133938   2.115   0.508   9.995 -3.2016 -0.4351 -0.7877
 7435SOL    HW233939   2.153   0.369  10.014  1.2424  2.5775  1.1834
 7436SOL     OW33940   1.339   2.105   5.621  0.0901 -0.3629 -0.6364
 7436SOL    HW133941   1.316   2.161   5.695  1.0502 -0.7644 -0.0358
 7436SOL    HW233942   1.342   2.020   5.664 -0.9010  0.5995  1.3346
 7437SOL     OW33943   3.989   0.856   8.388  0.1799 -0.1531 -0.4643
 7437SOL    HW133944   3.968   0.898   8.471  2.0755  0.0111 -0.0676
 7437SOL    HW233945   4.077   0.825   8.411 -0.0188  0.5286  1.1505
 7438SOL     OW33946   4.346   3.111   2.674  0.4511 -0.5657  0.8089
 7438SOL    HW133947   4.390   3.194   2.692 -0.4393  0.3819 -1.4886
 7438SOL    HW233948   4.394   3.091   2.594 -0.2503  2.1828 -0.2977
 7439SOL     OW33949   2.928   0.923   7.953 -0.4863  0.0013 -0.2756
 7439SOL    HW133950   2.874   0.962   8.022 -0.7312  0.7656 -0.9000
 7439SOL    HW233951   2.899   0.960   7.870 -1.2815  2.2789  1.0104
 7440SOL     OW33952   0.048   1.377   6.345  0.0259  0.2260  0.1276
 7440SOL    HW133953   0.041   1.368   6.440  2.2056  1.8223  0.4468
 7440SOL    HW233954   0.012   1.463   6.326 -2.0473 -0.4597  0.9502
 7441SOL     OW33955   3.107   0.168   4.687 -0.5313  0.0526 -0.3156
 7441SOL    HW133956   3.178   0.107   4.705 -1.1392 -1.5455 -3.2361
 7441SOL    HW233957   3.074   0.177   4.776 -2.3548  1.4904 -1.1235
 7442SOL     OW33958   1.317   0.808  10.799 -0.2166  0.3332  0.2090
 7442SOL    HW133959   1.231   0.821  10.838 -0.0165 -0.3706  0.8867
 7442SOL    HW233960   1.355   0.752  10.866 -2.4421 -0.0365  1.1476
 7443SOL     OW33961   4.104   0.648   6.405  0.2909 -0.1814 -0.1826
 7443SOL    HW133962   4.142   0.704   6.473 -0.6775 -1.4009  1.3489
 7443SOL    HW233963   4.046   0.707   6.357 -1.8399 -1.2373  1.0861
 7444SOL     OW33964   0.857   4.650   4.229  0.1192 -0.7576  0.1691
 7444SOL    HW133965   0.891   4.734   4.262  0.5250 -0.8664  0.0275
 7444SOL    HW233966   0.802   4.684   4.159 -0.4582  1.8901  1.8752
 7445SOL     OW33967   1.273   0.058  11.657 -0.0431  0.2247  0.0394
 7445SOL    HW133968   1.197   0.081  11.603 -0.3853 -0.9555  0.0396
 7445SOL    HW233969   1.325   0.002  11.600 -2.4621 -1.7268 -0.2030
 7446SOL     OW33970   2.549   4.106  11.318 -0.3487  0.0356  0.6551
 7446SOL    HW133971   2.641   4.121  11.341 -0.0266  0.7132 -1.0853
 7446SOL    HW233972   2.526   4.019  11.351 -0.1621  0.0030  0.7036
 7447SOL     OW33973   0.579   2.683   8.983 -0.1783 -0.1780 -0.4140
 7447SOL    HW133974   0.616   2.605   9.024  0.1450  0.5182  0.6007
 7447SOL    HW233975   0.612   2.746   9.046  0.0485 -0.3699 -0.3408
 7448SOL     OW33976   2.858   3.095   4.907 -0.2418 -0.0720 -0.3079
 7448SOL    HW133977   2.768   3.092   4.939  0.4240 -0.3929  1.5355
 7448SOL    HW233978   2.878   3.002   4.902  1.5042  0.3192 -0.4580
 7449SOL     OW33979   0.647   3.981  13.084 -0.0212  0.4506 -0.1335
 7449SOL    HW133980   0.667   4.066  13.046  0.4640 -0.0274 -0.9504
 7449SOL    HW233981   0.707   3.931  13.028 -2.8469 -1.0963 -1.7610
 7450SOL     OW33982   0.651   4.428  17.609  0.2384 -0.1404  0.5741
 7450SOL    HW133983   0.618   4.399  17.524  1.1403 -1.0780  0.5328
 7450SOL    HW233984   0.734   4.380  17.605  2.0194  3.2165 -2.6940
 7451SOL     OW33985   0.585   3.897   3.384 -0.1712  0.1176 -0.0680
 7451SOL    HW133986   0.504   3.936   3.351  0.0571  0.3313 -0.3709
 7451SOL    HW233987   0.645   3.962   3.347  0.5851 -0.4204  0.2215
 7452SOL     OW33988   0.378   4.582   4.439  0.1743 -0.0419  0.4612
 7452SOL    HW133989   0.358   4.575   4.532  0.6494  1.0917  0.6417
 7452SOL    HW233990   0.362   4.494   4.405  0.2917 -0.3197  1.1271
 7453SOL     OW33991   3.632   3.855   7.580 -0.9959  0.1300 -0.4541
 7453SOL    HW133992   3.575   3.911   7.527  0.7125  1.1691 -1.1892
 7453SOL    HW233993   3.584   3.775   7.604  0.3856  0.0720  2.1759
 7454SOL     OW33994   0.709   4.295  16.498  0.1031  0.0870  0.2518
 7454SOL    HW133995   0.759   4.324  16.422 -0.6377  1.2652  0.2162
 7454SOL    HW233996   0.651   4.368  16.521 -1.3726 -0.0066 -3.2944
 7455SOL     OW33997   0.607   2.802   5.775 -0.0775 -0.1871 -0.2282
 7455SOL    HW133998   0.634   2.867   5.710 -1.5123 -1.0925 -1.7162
 7455SOL    HW233999   0.564   2.742   5.714 -1.1382 -0.8983  1.2238
 7456SOL     OW34000   3.832   3.427   4.811 -0.1674  0.0584  1.2265
 7456SOL    HW134001   3.784   3.393   4.887 -0.0735  1.5923  1.9726
 7456SOL    HW234002   3.860   3.515   4.836  1.0024 -0.1916  0.8094
 7457SOL     OW34003   2.250   2.955   0.606  0.0148  0.3835 -0.0084
 7457SOL    HW134004   2.290   2.868   0.606 -1.3227 -0.2047  2.9879
 7457SOL    HW234005   2.304   2.992   0.537 -0.8525 -0.3939 -1.1096
 7458SOL     OW34006   1.436   1.327  17.463 -0.3628  0.1749 -0.1160
 7458SOL    HW134007   1.440   1.381  17.542  3.2642 -0.0138 -0.1941
 7458SOL    HW234008   1.344   1.303  17.479  0.1127 -2.3712 -1.1560
 7459SOL     OW34009   2.561   0.084   5.044  0.0834  0.6662  0.1424
 7459SOL    HW134010   2.604   0.019   4.988  2.0586 -0.0433  2.4711
 7459SOL    HW234011   2.609   0.161   5.014  2.1901 -0.4000  0.7673
 7460SOL     OW34012   0.241   3.581   9.279  0.1393 -0.1307 -0.5189
 7460SOL    HW134013   0.171   3.627   9.325 -1.2796 -0.2845 -2.4928
 7460SOL    HW234014   0.202   3.578   9.191 -1.1438 -0.7473  0.0602
 7461SOL     OW34015   0.566   3.947  12.210  0.0186 -0.1552 -0.0448
 7461SOL    HW134016   0.626   3.907  12.273  1.7795  0.9875 -0.9956
 7461SOL    HW234017   0.503   3.878  12.187 -0.9379  1.1153 -1.3004
 7462SOL     OW34018   3.077   2.338  13.472 -0.1071 -0.1179 -0.0387
 7462SOL    HW134019   3.153   2.284  13.451  0.8503  0.0302  3.0030
 7462SOL    HW234020   3.036   2.338  13.386 -0.4831 -1.2114  0.1315
 7463SOL     OW34021   1.265   1.253   5.774  0.9221  0.4616  0.2269
 7463SOL    HW134022   1.207   1.318   5.815  0.1633 -0.8520  1.2265
 7463SOL    HW234023   1.309   1.225   5.854 -0.9051 -0.6368  0.8384
 7464SOL     OW34024   4.062   3.747   8.940  0.2164 -0.2043 -0.3960
 7464SOL    HW134025   4.014   3.743   9.022 -1.6846 -0.4794 -1.5215
 7464SOL    HW234026   4.054   3.653   8.923 -1.7876  0.0068 -0.5788
 7465SOL     OW34027   0.311   3.596   2.837 -0.3152 -0.1576 -0.6048
 7465SOL    HW134028   0.251   3.581   2.764 -0.9414 -0.7194  0.0245
 7465SOL    HW234029   0.276   3.672   2.883  2.8729  0.1737  1.2708
 7466SOL     OW34030   3.261   4.045   7.497  0.5315 -0.6005 -0.3356
 7466SOL    HW134031   3.282   4.112   7.561  0.6033 -1.2280  0.2978
 7466SOL    HW234032   3.233   4.099   7.423  1.3748 -0.6767 -0.7127
 7467SOL     OW34033   4.569   0.889  14.448  0.3259 -0.0197  0.4908
 7467SOL    HW134034   4.581   0.934  14.531 -2.1819  2.3474 -0.3883
 7467SOL    HW234035   4.498   0.952  14.432  0.5527  0.5126  1.5828
 7468SOL     OW34036   4.608   3.646   6.674  0.0010 -0.0015  0.1245
 7468SOL    HW134037   4.608   3.718   6.737 -0.9714  1.3243 -1.3886
 7468SOL    HW234038   4.645   3.697   6.602 -0.8200  0.0135 -0.2839
 7469SOL     OW34039   4.444   3.537  17.138  0.5784  0.0046  0.6321
 7469SOL    HW134040   4.408   3.483  17.208 -1.8689 -0.0283 -0.6253
 7469SOL    HW234041   4.459   3.463  17.079 -0.2327 -0.7362  1.3613
 7470SOL     OW34042   3.134   3.425   3.687 -0.0665 -0.1344 -0.1884
 7470SOL    HW134043   3.205   3.423   3.623  0.0708 -0.6867 -0.0123
 7470SOL    HW234044   3.100   3.336   3.689 -2.8864  0.9175 -2.2916
 7471SOL     OW34045   2.697   2.445   7.230 -0.6022  0.0219  0.8388
 7471SOL    HW134046   2.691   2.537   7.204 -0.5289 -0.2056  0.0130
 7471SOL    HW234047   2.750   2.448   7.310  0.3228 -1.9806  0.2919
 7472SOL     OW34048   0.007   2.055   3.978  0.2389 -0.3255  0.1027
 7472SOL    HW134049   0.094   2.083   3.951  0.4725  0.7912  2.0648
 7472SOL    HW234050   0.021   1.999   4.054  0.3129 -1.8083 -0.9882
 7473SOL     OW34051   1.763   2.150  10.219 -0.5873  0.2384  0.2719
 7473SOL    HW134052   1.726   2.118  10.301  0.1637  1.9867  1.2848
 7473SOL    HW234053   1.769   2.245  10.231 -0.3937  0.1046  1.1746
 7474SOL     OW34054   3.812   2.416  15.737  0.2223  0.3834  0.3509
 7474SOL    HW134055   3.870   2.357  15.689  0.7644  0.4108  0.9619
 7474SOL    HW234056   3.860   2.496  15.715  2.2554 -0.9288 -0.0858
 7475SOL     OW34057   3.596   3.509  16.643  0.1001 -0.1351 -0.0893
 7475SOL    HW134058   3.569   3.459  16.720  1.7275 -0.7870  0.0561
 7475SOL    HW234059   3.533   3.469  16.584 -0.5259  0.7512 -0.0203
 7476SOL     OW34060   0.955   0.739   7.918 -0.1146 -0.0857  0.2210
 7476SOL    HW134061   0.960   0.757   8.012  1.5761  0.0688  0.0961
 7476SOL    HW234062   0.897   0.664   7.903 -1.3200  0.8948 -0.0556
 7477SOL     OW34063   0.878   3.750   3.568  0.1225 -0.0049  0.2542
 7477SOL    HW134064   0.956   3.759   3.513 -0.9565 -0.4859 -1.3634
 7477SOL    HW234065   0.875   3.830   3.621  3.0850  0.3221 -0.0636
 7478SOL     OW34066   2.163   1.520   8.899  0.2641  0.2978  0.1639
 7478SOL    HW134067   2.213   1.600   8.916  0.2221  0.8772 -2.3770
 7478SOL    HW234068   2.127   1.533   8.811 -0.3545  0.9564  0.5129
 7479SOL     OW34069   3.659   1.538   8.697  0.3317 -0.6038  0.0970
 7479SOL    HW134070   3.692   1.521   8.609  1.5055  0.3659  0.3613
 7479SOL    HW234071   3.631   1.630   8.694 -0.5780 -0.9458 -1.9168
 7480SOL     OW34072   4.503   0.004   4.687  0.3522  0.2244 -0.0153
 7480SOL    HW134073   4.418   0.039   4.659  0.3824  1.3120  1.2369
 7480SOL    HW234074   4.482   4.654   4.664  2.2678  0.5757 -3.1411
 7481SOL     OW34075   3.750   1.539   5.024  0.6800  0.2685  0.1999
 7481SOL    HW134076   3.670   1.487   5.026 -0.7947  2.5223 -0.0909
 7481SOL    HW234077   3.718   1.625   5.051  0.6915  0.9649 -2.0089
 7482SOL     OW34078   0.373   3.318  12.183 -0.6115  0.0865  0.0214
 7482SOL    HW134079   0.375   3.268  12.102 -2.4007 -1.1012  0.7163
 7482SOL    HW234080   0.350   3.243  12.237 -1.1133 -0.7008 -1.2977
 7483SOL     OW34081   1.954   1.715   6.499 -0.3024  0.1822  0.6861
 7483SOL    HW134082   2.006   1.636   6.517 -1.2931 -1.0384 -1.9366
 7483SOL    HW234083   2.009   1.763   6.438 -1.4463  2.0309  1.1301
 7484SOL     OW34084   0.183   3.384  10.161 -0.2974 -0.5882  0.2305
 7484SOL    HW134085   0.214   3.428  10.240  4.0529 -1.1240 -1.1797
 7484SOL    HW234086   0.163   3.295  10.193  1.4836 -0.9660  0.2993
 7485SOL     OW34087   3.477   2.671   5.728 -0.2472 -0.0139  0.0371
 7485SOL    HW134088   3.545   2.718   5.680 -1.3795  0.6946 -0.8684
 7485SOL    HW234089   3.408   2.663   5.662  0.8159  1.8731 -1.3105
 7486SOL     OW34090   1.292   2.745   3.605 -0.2210  0.3971 -0.5410
 7486SOL    HW134091   1.289   2.715   3.696 -0.3348  1.0387 -0.3287
 7486SOL    HW234092   1.385   2.752   3.587  0.2895  0.0359  2.0012
 7487SOL     OW34093   0.750   4.120  10.017  0.3674  0.1573  0.2729
 7487SOL    HW134094   0.771   4.178   9.944  2.3892 -1.9490 -0.8110
 7487SOL    HW234095   0.683   4.164  10.069  0.5436 -0.3357  0.9119
 7488SOL     OW34096   0.203   1.138   2.072 -0.0273  0.2803 -0.0574
 7488SOL    HW134097   0.215   1.049   2.105 -1.2001 -0.1346 -0.7584
 7488SOL    HW234098   0.241   1.126   1.985  1.4326 -2.7606  0.9925
 7489SOL     OW34099   3.847   2.083   5.184 -0.2717  0.0758 -0.4987
 7489SOL    HW134100   3.801   2.032   5.118 -1.7885 -1.6171  1.8596
 7489SOL    HW234101   3.925   2.114   5.138  0.3990 -1.2404 -0.2296
 7490SOL     OW34102   1.673   4.429  15.280 -0.6692  0.1634 -0.1249
 7490SOL    HW134103   1.683   4.486  15.203  0.7023  1.5510  1.0812
 7490SOL    HW234104   1.659   4.349  15.229  1.0657 -0.4681  0.4274
 7491SOL     OW34105   2.814   4.278  13.043  0.2204 -0.2828 -0.1569
 7491SOL    HW134106   2.796   4.353  13.099 -1.2536 -0.4580 -0.3959
 7491SOL    HW234107   2.896   4.305  13.001  1.2759 -0.2940  1.9370
 7492SOL     OW34108   2.284   2.765  12.795  0.0070  0.3407  0.2532
 7492SOL    HW134109   2.285   2.846  12.746 -1.9551  1.3588  1.8882
 7492SOL    HW234110   2.306   2.795  12.884 -0.4499  0.6557  0.2554
 7493SOL     OW34111   2.480   2.000   9.205 -0.6210 -0.0507 -0.1352
 7493SOL    HW134112   2.395   1.979   9.244  0.5336 -1.4426  1.6806
 7493SOL    HW234113   2.455   2.018   9.115  0.1729 -0.5067 -0.4437
 7494SOL     OW34114   4.135   4.569   3.823 -0.3851 -0.0927 -0.3718
 7494SOL    HW134115   4.213   4.575   3.767  0.7348  0.4858  1.2150
 7494SOL    HW234116   4.069   4.524   3.773 -0.6761 -1.6845  1.4544
 7495SOL     OW34117   3.525   2.716   3.434 -0.4124  0.9471  0.2228
 7495SOL    HW134118   3.553   2.799   3.395  0.5030  1.9484  3.0048
 7495SOL    HW234119   3.565   2.649   3.378 -0.1701  0.7227  0.6614
 7496SOL     OW34120   1.237   1.677  17.031  0.5035 -0.3327 -0.0185
 7496SOL    HW134121   1.206   1.587  17.027 -1.4807  0.3071  0.9363
 7496SOL    HW234122   1.324   1.670  17.069 -0.1749 -3.5659  0.8774
 7497SOL     OW34123   0.261   0.997   9.966 -0.0772  0.0994  0.6964
 7497SOL    HW134124   0.257   1.084  10.005 -0.4038  0.3304  0.1468
 7497SOL    HW234125   0.314   0.944  10.026 -1.5923 -0.8013  1.2236
 7498SOL     OW34126   4.598   0.724  12.607  0.6359  0.4229 -0.0215
 7498SOL    HW134127   4.684   0.744  12.644  0.6068  0.6499 -0.0765
 7498SOL    HW234128   4.618   0.665  12.534 -2.6706 -0.9940  0.1845
 7499SOL     OW34129   1.810   4.047   5.808  0.1778 -0.5343  0.4828
 7499SOL    HW134130   1.785   4.139   5.794 -3.3641 -1.4329  0.7609
 7499SOL    HW234131   1.867   4.056   5.884 -0.2181  1.1291  0.6050
 7500SOL     OW34132   0.214   1.304  17.756  0.3629 -0.1086  0.1694
 7500SOL    HW134133   0.233   1.269  17.669 -1.7258  0.9947 -0.7253
 7500SOL    HW234134   0.230   1.229   0.051 -0.4781  0.3662  1.0381
 7501SOL     OW34135   4.657   2.405   1.579  0.0987 -0.3228  0.3402
 7501SOL    HW134136   4.577   2.358   1.554  0.4184 -0.5998 -0.1620
 7501SOL    HW234137   4.622   2.494   1.577  2.3843  0.5152 -1.5365
 7502SOL     OW34138   3.394   3.306  15.402  0.6190  0.0535 -0.3585
 7502SOL    HW134139   3.329   3.247  15.365 -0.1857 -0.3736  1.7673
 7502SOL    HW234140   3.381   3.388  15.354 -1.2990  0.6909  1.2908
 7503SOL     OW34141   1.493   1.677   2.349 -0.1578 -0.0207  0.2073
 7503SOL    HW134142   1.399   1.681   2.335 -0.1781 -1.0969  0.0061
 7503SOL    HW234143   1.499   1.648   2.440 -1.1915  1.2909  0.6867
 7504SOL     OW34144   4.734   4.408  11.424  0.4757  0.5173 -0.4832
 7504SOL    HW134145   0.053   4.376  11.356  2.5724  1.4816  0.9425
 7504SOL    HW234146   4.660   4.347  11.416  1.2670 -0.8840  3.0153
 7505SOL     OW34147   3.936   3.960   7.406 -0.1641 -0.7390  0.0431
 7505SOL    HW134148   3.904   3.888   7.350 -2.1053  0.1092  0.0366
 7505SOL    HW234149   3.955   3.911   7.485 -1.4723 -0.5613  0.4746
 7506SOL     OW34150   2.121   3.763   6.784 -0.0431  0.3106  0.3012
 7506SOL    HW134151   2.056   3.737   6.849 -2.5872  0.2998 -2.2245
 7506SOL    HW234152   2.188   3.700   6.811 -1.4665 -1.3447 -0.0353
 7507SOL     OW34153   0.823   1.111   5.045 -0.0570  0.5154 -0.4498
 7507SOL    HW134154   0.895   1.126   5.107 -1.7825  2.5129  1.0922
 7507SOL    HW234155   0.877   1.095   4.967 -0.2550 -1.6178 -0.1395
 7508SOL     OW34156   2.035   2.887  14.443 -0.0630  0.4402  0.3286
 7508SOL    HW134157   2.055   2.811  14.389  0.2505 -0.0253  1.1095
 7508SOL    HW234158   2.098   2.954  14.417 -0.9214  0.4890 -1.6026
 7509SOL     OW34159   4.266   2.460   1.166  0.3725 -0.6851 -0.5043
 7509SOL    HW134160   4.245   2.498   1.081 -0.2583 -1.7268 -0.8167
 7509SOL    HW234161   4.328   2.397   1.127 -0.8947 -0.6496 -2.5588
 7510SOL     OW34162   3.964   1.877  10.718  0.2128  0.0007 -0.3005
 7510SOL    HW134163   3.907   1.935  10.668 -1.3618 -1.2706  0.0277
 7510SOL    HW234164   3.999   1.828  10.643  1.5059  1.9509 -0.9787
 7511SOL     OW34165   2.769   0.562   9.891 -0.4910 -0.3788 -0.4005
 7511SOL    HW134166   2.766   0.635   9.830  1.8554 -1.8605 -2.2975
 7511SOL    HW234167   2.678   0.543   9.913 -0.9064  1.2263 -0.6876
 7512SOL     OW34168   1.514   0.412   2.145  0.0142  0.2823 -0.2886
 7512SOL    HW134169   1.490   0.391   2.055 -0.7586 -2.2164  0.5101
 7512SOL    HW234170   1.434   0.383   2.188 -1.1615  1.4714 -1.6511
 7513SOL     OW34171   1.736   1.423   6.144  0.2179  0.1294  0.6209
 7513SOL    HW134172   1.821   1.460   6.167 -0.8553  1.7589  2.0211
 7513SOL    HW234173   1.762   1.333   6.121  0.3431  0.3546 -0.1201
 7514SOL     OW34174   0.462   3.576   6.871  1.0548  0.6256  0.1097
 7514SOL    HW134175   0.458   3.655   6.817  2.2585  0.5406 -0.1082
 7514SOL    HW234176   0.385   3.592   6.925 -0.7505 -0.8264 -2.0169
 7515SOL     OW34177   2.251   2.360   7.530  0.2287 -0.0578 -0.1493
 7515SOL    HW134178   2.275   2.436   7.584 -0.1015  1.9388 -2.7862
 7515SOL    HW234179   2.298   2.371   7.448 -1.1440 -0.2569 -0.9571
 7516SOL     OW34180   2.877   0.310  16.805 -0.5245  0.0408 -0.3780
 7516SOL    HW134181   2.877   0.360  16.887  4.9588  2.4793 -1.8439
 7516SOL    HW234182   2.866   0.382  16.743 -0.1540 -0.1531 -0.6663
 7517SOL     OW34183   3.836   0.554   1.939 -0.0085  0.3000  0.1663
 7517SOL    HW134184   3.780   0.612   1.888  1.6375  1.8825  0.1653
 7517SOL    HW234185   3.773   0.540   2.010 -0.2132 -1.2840 -0.3345
 7518SOL     OW34186   0.702   2.202   3.648  0.4800 -0.3471  0.6322
 7518SOL    HW134187   0.638   2.134   3.669  0.6381 -0.9938 -0.9991
 7518SOL    HW234188   0.650   2.276   3.681 -1.3167 -1.4282  0.2289
 7519SOL     OW34189   4.193   0.866   7.707 -0.0341 -0.3012 -0.5389
 7519SOL    HW134190   4.138   0.821   7.770  0.0950 -0.3339 -0.4498
 7519SOL    HW234191   4.277   0.820   7.704 -1.3209 -2.6693  0.1733
 7520SOL     OW34192   3.890   1.433  10.413  0.7451 -0.0222 -0.0263
 7520SOL    HW134193   3.904   1.381  10.492  1.2231 -1.4786 -1.0824
 7520SOL    HW234194   3.801   1.459  10.437  1.2677  3.0749 -1.3685
 7521SOL     OW34195   0.263   4.228   6.279  0.1352 -0.4918  0.1902
 7521SOL    HW134196   0.270   4.222   6.374 -0.6186  1.7690  0.3878
 7521SOL    HW234197   0.228   4.316   6.270 -0.4211 -0.8275 -0.9156
 7522SOL     OW34198   0.440   3.046   8.271 -0.3008  0.4073 -0.2657
 7522SOL    HW134199   0.349   3.068   8.253 -1.0746 -2.3139  0.3583
 7522SOL    HW234200   0.441   2.952   8.252 -0.2258  0.4560 -0.5137
 7523SOL     OW34201   3.564   2.910   8.153  0.5895 -0.7744  0.6386
 7523SOL    HW134202   3.470   2.895   8.160  0.3339  0.8902  0.8928
 7523SOL    HW234203   3.593   2.821   8.171  3.2392 -0.2003 -0.7198
 7524SOL     OW34204   2.571   4.356   1.738 -0.1569 -0.2053 -0.5549
 7524SOL    HW134205   2.521   4.305   1.674 -0.9539 -1.1319  0.7783
 7524SOL    HW234206   2.535   4.442   1.719 -0.0188  0.5360  2.6197
 7525SOL     OW34207   4.361   2.927   7.120 -0.2295 -0.4475  0.2507
 7525SOL    HW134208   4.376   3.007   7.172 -1.1191  0.4276 -0.8581
 7525SOL    HW234209   4.452   2.901   7.103 -0.8535 -1.8225 -0.9769
 7526SOL     OW34210   3.916   1.206   6.786 -0.0931  0.0310  0.7091
 7526SOL    HW134211   3.878   1.118   6.785  1.3496 -0.5973 -0.0928
 7526SOL    HW234212   3.942   1.205   6.878  0.7162 -2.8259  0.4444
 7527SOL     OW34213   3.632   2.986   2.853  1.1277  0.1296 -1.0268
 7527SOL    HW134214   3.565   3.015   2.915 -1.0219 -2.3638 -2.2077
 7527SOL    HW234215   3.678   2.921   2.906  0.3456  2.7382  2.8790
 7528SOL     OW34216   4.168   2.628   8.069  1.1394  0.5032 -0.1577
 7528SOL    HW134217   4.193   2.720   8.059 -0.5669  1.0104  0.2509
 7528SOL    HW234218   4.103   2.616   7.999  0.1446 -1.1350  1.0388
 7529SOL     OW34219   2.465   2.602   3.772 -0.1571 -0.2688  0.2616
 7529SOL    HW134220   2.383   2.579   3.816  0.2443 -1.9590  0.1388
 7529SOL    HW234221   2.478   2.516   3.730 -2.0752 -0.7902  0.7518
 7530SOL     OW34222   3.006   1.788  15.081  0.5992 -0.0117 -0.2267
 7530SOL    HW134223   2.929   1.797  15.025  1.7584  2.2959 -1.4771
 7530SOL    HW234224   2.993   1.850  15.153  0.8124  0.5700 -0.6791
 7531SOL     OW34225   4.134   4.291   7.585  0.1238  0.1612 -0.6346
 7531SOL    HW134226   4.040   4.285   7.564 -0.5145 -0.4935  2.4244
 7531SOL    HW234227   4.124   4.274   7.678 -0.5442  0.3113 -0.6798
 7532SOL     OW34228   0.959   1.242   5.685 -0.6830  0.2622 -0.2832
 7532SOL    HW134229   1.040   1.274   5.724 -1.7329  2.1393  0.4040
 7532SOL    HW234230   0.892   1.263   5.750  0.3660 -0.3595  0.9891
 7533SOL     OW34231   4.318   0.991   5.728 -0.0626  0.5485  0.0325
 7533SOL    HW134232   4.327   1.055   5.799  0.9512  0.7546 -0.2829
 7533SOL    HW234233   4.378   1.031   5.666  0.1493  0.2546  0.0500
 7534SOL     OW34234   2.123   1.752   6.779  0.4038  0.1465  0.3846
 7534SOL    HW134235   2.048   1.706   6.743  1.2838 -0.6961 -0.3566
 7534SOL    HW234236   2.091   1.777   6.866  0.7577  0.5243  0.4098
 7535SOL     OW34237   0.725   4.696   3.988  0.2598  0.2640 -0.1159
 7535SOL    HW134238   0.654   4.697   4.052  1.0675  0.7296  0.7749
 7535SOL    HW234239   0.692   4.663   3.905  1.8332  2.6869 -1.7208
 7536SOL     OW34240   1.508   0.709  17.455 -0.2906 -0.4836  0.1874
 7536SOL    HW134241   1.414   0.697  17.442 -0.1231 -0.4454 -1.0835
 7536SOL    HW234242   1.516   0.804  17.456 -1.0736 -0.4034 -1.5237
 7537SOL     OW34243   2.956   1.281   2.118  0.4654  0.8205  0.4427
 7537SOL    HW134244   2.897   1.323   2.056 -2.5350 -0.3798  2.4993
 7537SOL    HW234245   2.897   1.253   2.188 -0.3965  0.9597 -0.2366
 7538SOL     OW34246   1.858   0.348   4.926 -0.1135  0.0958  0.4735
 7538SOL    HW134247   1.829   0.265   4.964 -1.7153  0.0066 -0.9789
 7538SOL    HW234248   1.878   0.311   4.839  0.8028 -0.8281  1.0794
 7539SOL     OW34249   1.040   2.970   7.560  0.0552 -0.1389  0.1255
 7539SOL    HW134250   1.053   2.973   7.465 -3.2607  1.3763 -0.2683
 7539SOL    HW234251   1.034   3.060   7.592 -0.8194 -0.0615 -0.2551
 7540SOL     OW34252   2.051   4.421   2.917  0.3669 -0.1158 -0.1178
 7540SOL    HW134253   2.040   4.399   3.010 -1.7760  1.0290 -0.1019
 7540SOL    HW234254   2.020   4.336   2.884 -0.8034  0.2118  0.1292
 7541SOL     OW34255   3.347   2.042   8.789 -0.6923  0.2218  0.0135
 7541SOL    HW134256   3.331   1.955   8.752  0.6166 -0.2243  0.4952
 7541SOL    HW234257   3.330   2.042   8.883 -2.3165  1.4868 -0.2846
 7542SOL     OW34258   0.107   1.261   9.281 -0.5567  0.2349 -0.5905
 7542SOL    HW134259   0.044   1.263   9.353 -1.0422  1.5083 -1.0401
 7542SOL    HW234260   0.171   1.326   9.309 -0.8063 -0.9727  2.7394
 7543SOL     OW34261   0.608   1.572   9.953  0.2545  0.6643  0.1897
 7543SOL    HW134262   0.694   1.542   9.983  0.2915  0.1468 -0.4313
 7543SOL    HW234263   0.582   1.598  10.041 -0.5792 -3.2387  1.1260
 7544SOL     OW34264   4.005   0.768   1.989 -0.0638  0.4478 -0.0367
 7544SOL    HW134265   3.973   0.678   1.994 -2.2223  1.2899  1.4820
 7544SOL    HW234266   3.917   0.805   1.999 -0.2189  0.0604  0.0282
 7545SOL     OW34267   2.911   0.091   0.628 -0.2175 -0.0591  0.0865
 7545SOL    HW134268   2.968   0.055   0.560  0.1435  0.2751  0.2070
 7545SOL    HW234269   2.970   0.075   0.702 -0.5994  2.4295  0.9549
 7546SOL     OW34270   1.673   4.499   9.569 -0.0442 -0.4623  0.2347
 7546SOL    HW134271   1.701   4.441   9.640 -0.3564  0.7471  1.3565
 7546SOL    HW234272   1.657   4.580   9.618 -2.7197 -0.6741 -0.2854
 7547SOL     OW34273   3.660   1.481   1.674  0.2709  0.3621 -0.6335
 7547SOL    HW134274   3.707   1.520   1.600  0.6214 -0.5362 -0.8758
 7547SOL    HW234275   3.580   1.534   1.677  1.3578  1.9694 -0.2459
 7548SOL     OW34276   0.080   3.384   5.008  0.1702  0.2881  0.2337
 7548SOL    HW134277   0.169   3.393   4.975  0.0689 -2.7923 -0.9462
 7548SOL    HW234278   0.083   3.463   5.062 -0.6921  1.2605 -1.1372
 7549SOL     OW34279   4.215   1.277   3.011 -0.5675  0.4096  0.5911
 7549SOL    HW134280   4.266   1.206   2.972 -0.4607  1.6470 -1.5471
 7549SOL    HW234281   4.137   1.277   2.955 -0.6057  1.5899  0.6554
 7550SOL     OW34282   0.045   3.290   7.678  0.2114  0.1200  0.1195
 7550SOL    HW134283   0.035   3.379   7.713 -0.5984  0.5702 -1.2852
 7550SOL    HW234284   4.718   3.296   7.612 -0.2341  0.7978  0.6318
 7551SOL     OW34285   0.731   3.742   9.608  0.0273 -0.2529  0.1495
 7551SOL    HW134286   0.826   3.752   9.601 -0.0782 -0.0025 -1.0283
 7551SOL    HW234287   0.714   3.834   9.628 -0.7934  0.0993 -2.0923
 7552SOL     OW34288   3.213   0.516   2.563  0.3972 -0.4665  0.1999
 7552SOL    HW134289   3.238   0.556   2.480 -0.5384  1.3693  0.7838
 7552SOL    HW234290   3.144   0.457   2.535 -0.5097  0.1157  1.1837
 7553SOL     OW34291   2.227   1.931   9.391 -0.2677  0.5712  0.3724
 7553SOL    HW134292   2.140   1.939   9.353  0.6082 -0.8253 -1.9569
 7553SOL    HW234293   2.247   1.838   9.401  1.0866  0.8056 -0.1205
 7554SOL     OW34294   3.660   3.210   3.414 -0.4109  0.2587  0.5855
 7554SOL    HW134295   3.694   3.299   3.423  0.2189  0.3749 -2.7018
 7554SOL    HW234296   3.625   3.208   3.325  0.7351  0.6405  0.1217
 7555SOL     OW34297   2.777   2.864   5.880  0.7925 -0.1621  1.0059
 7555SOL    HW134298   2.831   2.788   5.860  3.6866  2.0982  0.3626
 7555SOL    HW234299   2.770   2.902   5.793 -1.4907 -1.8504  0.4523
 7556SOL     OW34300   1.997   2.577   9.075 -0.0404  0.5753 -0.0841
 7556SOL    HW134301   1.943   2.497   9.072 -0.5377  0.9574 -1.7215
 7556SOL    HW234302   1.949   2.625   9.142 -0.9137 -0.3978 -0.0078
 7557SOL     OW34303   1.831   4.555   8.630 -0.0136  0.7888  0.6738
 7557SOL    HW134304   1.805   4.499   8.704  0.6829 -0.0039  0.3294
 7557SOL    HW234305   1.768   4.627   8.634  1.7985  2.3292  1.5116
 7558SOL     OW34306   2.171   2.170  15.772 -0.0633 -0.6156 -0.4339
 7558SOL    HW134307   2.220   2.189  15.691  1.3431 -0.2478  0.5090
 7558SOL    HW234308   2.220   2.094  15.801  0.3645 -0.5328 -0.9287
 7559SOL     OW34309   2.369   0.235   8.779  0.1448 -0.9682  0.4882
 7559SOL    HW134310   2.351   0.162   8.720  0.3496 -0.1529 -0.5879
 7559SOL    HW234311   2.292   0.291   8.771  0.5503 -0.6000 -0.9424
 7560SOL     OW34312   2.433   1.628   2.963  0.2632 -0.1323  0.6903
 7560SOL    HW134313   2.441   1.583   3.048  2.6212 -1.1459 -0.0544
 7560SOL    HW234314   2.524   1.649   2.939  0.6419 -3.3016 -0.6297
 7561SOL     OW34315   3.049   3.303   2.554 -0.0077 -0.2349 -0.4994
 7561SOL    HW134316   3.133   3.261   2.537  0.3410 -0.1212  0.9954
 7561SOL    HW234317   3.000   3.225   2.583  0.6013 -0.9787 -1.4688
 7562SOL     OW34318   0.953   1.551  16.222  0.2125 -0.0795  0.6220
 7562SOL    HW134319   0.864   1.517  16.209 -0.4028  1.6821  0.3034
 7562SOL    HW234320   1.003   1.487  16.171 -1.7742 -2.2033  1.3164
 7563SOL     OW34321   0.605   1.388   2.099  0.5240 -0.4089  0.5911
 7563SOL    HW134322   0.598   1.419   2.009 -1.5716  0.3089  0.9929
 7563SOL    HW234323   0.678   1.442   2.129  1.6073 -0.6559 -1.5886
 7564SOL     OW34324   2.912   4.107   1.166  0.1198  0.0109 -0.3309
 7564SOL    HW134325   2.827   4.153   1.165 -0.0818 -0.3387  0.7917
 7564SOL    HW234326   2.933   4.092   1.257  2.5998 -1.1124 -1.1091
 7565SOL     OW34327   4.672   1.848   6.456  0.0113  0.4302  0.5529
 7565SOL    HW134328   4.576   1.846   6.452  0.0262 -1.5046  1.4938
 7565SOL    HW234329   4.679   1.915   6.524  1.4675 -0.8579  1.6537
 7566SOL     OW34330   4.079   2.522  13.909  0.4191  0.5390 -0.2205
 7566SOL    HW134331   4.137   2.462  13.862  0.5520 -0.3560  1.0760
 7566SOL    HW234332   4.036   2.457  13.965 -0.6183  0.4712 -1.0952
 7567SOL     OW34333   1.563   0.792   7.157 -0.0039  0.5719  0.1606
 7567SOL    HW134334   1.522   0.781   7.072 -0.7859  1.0008  0.4834
 7567SOL    HW234335   1.630   0.723   7.155  1.1176  1.6007  1.5531
 7568SOL     OW34336   3.036   4.695   8.237  0.1400  0.2360  0.8547
 7568SOL    HW134337   3.106   4.674   8.298  1.0476 -1.5476 -0.8144
 7568SOL    HW234338   2.968   4.736   8.291  1.6989  3.0620  0.6886
 7569SOL     OW34339   0.355   3.186   4.078 -0.0550  0.7302 -0.6512
 7569SOL    HW134340   0.384   3.097   4.100  1.1102  0.7166 -2.2547
 7569SOL    HW234341   0.376   3.242   4.153  1.0001 -1.1415  0.4366
 7570SOL     OW34342   2.787   3.026   3.236  0.0788  0.5606  0.0659
 7570SOL    HW134343   2.828   2.946   3.269  0.8412  1.7724  2.0149
 7570SOL    HW234344   2.712   2.995   3.185  0.3577 -1.3329  0.7976
 7571SOL     OW34345   0.433   0.896  11.071 -0.3471  0.2545 -0.0010
 7571SOL    HW134346   0.437   0.969  11.009  0.6164  0.9236  0.8426
 7571SOL    HW234347   0.340   0.874  11.078  0.1279 -1.4986  0.8073
 7572SOL     OW34348   4.180   3.447   5.964 -0.2867 -0.0707 -0.1950
 7572SOL    HW134349   4.092   3.420   5.990 -0.6699 -0.5114 -1.9133
 7572SOL    HW234350   4.213   3.372   5.913  2.4494  1.1832 -0.2632
 7573SOL     OW34351   1.318   1.154   6.745 -0.0933 -0.4761  0.6915
 7573SOL    HW134352   1.372   1.076   6.733  1.2866  0.7065 -0.8723
 7573SOL    HW234353   1.354   1.203   6.819 -2.7675  2.5021  0.0016
 7574SOL     OW34354   4.560   2.812   6.532  0.1757  0.0758  0.1874
 7574SOL    HW134355   4.571   2.751   6.459  0.4311  1.4055 -0.8970
 7574SOL    HW234356   4.651   2.835   6.548  0.3960 -1.6188  1.3516
 7575SOL     OW34357   0.672   3.296  11.967 -0.2266  0.5354 -0.1624
 7575SOL    HW134358   0.638   3.262  12.049  0.7749  0.4185  0.1987
 7575SOL    HW234359   0.635   3.242  11.897  0.7664 -0.9369  0.4418
 7576SOL     OW34360   3.003   0.724   7.331  0.1178  0.3073 -0.1902
 7576SOL    HW134361   3.092   0.699   7.307 -0.5521 -1.1986 -1.1259
 7576SOL    HW234362   2.947   0.710   7.254  1.0050 -0.7276 -0.6473
 7577SOL     OW34363   4.401   0.224   3.144  0.7148  0.3033  0.2082
 7577SOL    HW134364   4.411   0.214   3.239 -0.8752 -2.7745  0.0735
 7577SOL    HW234365   4.492   0.216   3.115  1.9851  1.1752  3.9618
 7578SOL     OW34366   0.194   2.371  17.180 -0.3932 -0.1098 -0.0951
 7578SOL    HW134367   0.271   2.410  17.138 -0.5147 -0.2722 -0.4700
 7578SOL    HW234368   0.237   2.338  17.259  0.0164 -0.5593 -0.5022
 7579SOL     OW34369   0.429   3.585  11.861 -0.4775 -0.0090  0.5237
 7579SOL    HW134370   0.506   3.620  11.906  1.6818 -3.1314 -0.7070
 7579SOL    HW234371   0.405   3.502  11.901 -0.2915 -0.1608  0.3213
 7580SOL     OW34372   2.219   0.908   2.862 -0.0988 -0.2237  0.1598
 7580SOL    HW134373   2.190   0.978   2.921  0.5152 -0.0636  0.2804
 7580SOL    HW234374   2.134   0.881   2.828 -0.5406  2.0534 -0.5642
 7581SOL     OW34375   0.557   3.527   7.377 -0.3806 -0.5017  0.0736
 7581SOL    HW134376   0.641   3.535   7.423 -0.8849  1.9772  0.5345
 7581SOL    HW234377   0.572   3.442   7.334  1.7157 -0.8806  1.5690
 7582SOL     OW34378   3.498   0.914   2.934  0.2730  0.4284  0.4009
 7582SOL    HW134379   3.443   0.968   2.878  1.2314 -0.3793 -1.3330
 7582SOL    HW234380   3.507   0.978   3.005 -1.2107 -0.8838  1.7900
 7583SOL     OW34381   1.005   2.876   0.300 -0.1953  0.1478  0.1804
 7583SOL    HW134382   0.992   2.905   0.210  1.3575  1.5526  0.4152
 7583SOL    HW234383   1.006   2.780   0.297  2.4702  0.0847  2.5501
 7584SOL     OW34384   2.746   2.411   8.781 -0.8117 -0.6801 -0.6103
 7584SOL    HW134385   2.737   2.380   8.871 -0.7240  1.5310  0.1776
 7584SOL    HW234386   2.839   2.434   8.781 -0.7253 -1.0265 -0.1350
 7585SOL     OW34387   2.945   2.181   3.451  0.6782  0.2390 -0.3114
 7585SOL    HW134388   2.920   2.098   3.492 -1.4903  1.8812  1.6375
 7585SOL    HW234389   2.884   2.237   3.500  1.9388  1.6114 -0.3054
 7586SOL     OW34390   2.390   0.005   2.151 -0.1901 -0.4196 -0.1347
 7586SOL    HW134391   2.297   0.007   2.171  0.0113  0.3040  0.7512
 7586SOL    HW234392   2.394   0.032   2.060  0.3791 -0.6068 -0.1659
 7587SOL     OW34393   3.887   3.584  11.135  0.4173  0.3649  0.3767
 7587SOL    HW134394   3.979   3.561  11.121 -0.2436 -1.3235 -1.0300
 7587SOL    HW234395   3.850   3.594  11.047  1.2076 -0.1840 -0.0165
 7588SOL     OW34396   3.228   0.002   9.543 -0.0432  0.5104 -0.1401
 7588SOL    HW134397   3.151   4.711   9.590 -0.8302  1.9184 -0.4834
 7588SOL    HW234398   3.242   4.676   9.476  0.9536  0.1095  0.4604
 7589SOL     OW34399   2.953   3.362   7.664  0.5570 -0.1453  0.3580
 7589SOL    HW134400   2.860   3.341   7.673  0.4404  0.2258  0.0002
 7589SOL    HW234401   2.983   3.309   7.738  1.3263 -0.1814  0.0291
 7590SOL     OW34402   1.021   4.278   8.531 -0.8991 -0.1672  0.1918
 7590SOL    HW134403   1.027   4.185   8.553  0.8131  0.1701  1.1882
 7590SOL    HW234404   1.086   4.298   8.464  0.0897 -0.6454  1.0041
 7591SOL     OW34405   3.237   3.090   7.960 -0.6532 -0.3315 -0.2112
 7591SOL    HW134406   3.200   3.176   7.938 -3.0143 -1.8528 -2.0967
 7591SOL    HW234407   3.243   3.097   8.055 -1.6948 -0.7061 -0.1191
 7592SOL     OW34408   3.932   1.871   9.045 -0.5033  0.1707 -0.1928
 7592SOL    HW134409   3.970   1.946   8.998  1.1465  0.1216  1.0621
 7592SOL    HW234410   3.970   1.800   8.993 -1.1964  0.8667 -1.6833
 7593SOL     OW34411   2.677   4.233   4.340 -0.1543  0.2332  0.0721
 7593SOL    HW134412   2.701   4.224   4.432  0.5209  0.4744 -0.0763
 7593SOL    HW234413   2.582   4.241   4.350  0.0049  1.0822  0.9259
 7594SOL     OW34414   2.076   1.593   5.802 -0.1668  0.0412 -0.5159
 7594SOL    HW134415   2.049   1.680   5.833  0.4936  0.3312 -0.7446
 7594SOL    HW234416   2.052   1.594   5.710 -1.7892 -0.3749 -0.1028
 7595SOL     OW34417   3.047   4.545   2.178 -0.0967 -0.3271  0.3591
 7595SOL    HW134418   2.979   4.501   2.126 -0.2691  0.1699  0.1664
 7595SOL    HW234419   3.003   4.585   2.253 -1.6210 -0.2177 -0.5889
 7596SOL     OW34420   4.429   3.055   3.742  0.6136  0.5336  0.5866
 7596SOL    HW134421   4.511   3.043   3.791  0.7619 -0.9704 -0.0284
 7596SOL    HW234422   4.444   3.014   3.657  0.4715 -0.3429  0.9850
 7597SOL     OW34423   2.294   1.433   6.822  0.8822 -0.4974 -0.1884
 7597SOL    HW134424   2.250   1.348   6.816 -1.7255  0.8354  0.0707
 7597SOL    HW234425   2.256   1.482   6.895  1.8857  1.3112 -0.8848
 7598SOL     OW34426   0.886   3.806   4.372 -0.1465 -0.2939 -0.1324
 7598SOL    HW134427   0.956   3.852   4.326  0.0833 -0.9375 -0.4182
 7598SOL    HW234428   0.935   3.750   4.432  0.7321 -0.3235 -0.8857
 7599SOL     OW34429   3.153   3.099   4.587 -0.1015 -0.0676  0.3119
 7599SOL    HW134430   3.245   3.105   4.614  0.1153  0.3041 -0.4957
 7599SOL    HW234431   3.118   3.161   4.651  2.5645  2.7959 -0.9844
 7600SOL     OW34432   2.993   2.436   5.487 -0.2272  0.4676  0.1059
 7600SOL    HW134433   3.060   2.423   5.421 -0.8921  0.9719 -0.6717
 7600SOL    HW234434   2.994   2.366   5.553  1.3531 -0.6137 -1.0957
 7601SOL     OW34435   3.981   3.240  13.068 -0.4878 -0.1493 -0.0755
 7601SOL    HW134436   3.968   3.319  13.016  0.8667  0.4619  0.5114
 7601SOL    HW234437   4.070   3.212  13.044 -0.7754 -0.4675 -0.7730
 7602SOL     OW34438   4.708   2.831   8.089  0.4201 -0.0656  0.6736
 7602SOL    HW134439   4.658   2.845   8.169 -0.7386  1.4829 -0.3313
 7602SOL    HW234440   4.653   2.761   8.054  0.6072  0.9271 -1.6136
 7603SOL     OW34441   3.272   2.913   9.222  0.2482 -0.2985  0.0310
 7603SOL    HW134442   3.334   2.945   9.157  2.3124 -0.7566  1.7556
 7603SOL    HW234443   3.294   2.976   9.291 -1.3849  1.4402 -1.0391
 7604SOL     OW34444   2.250   2.161   4.599  0.2990 -0.2301 -0.0382
 7604SOL    HW134445   2.339   2.182   4.570 -0.2217  0.8728 -0.8438
 7604SOL    HW234446   2.229   2.251   4.625  1.0868 -0.1554  0.3537
 7605SOL     OW34447   1.120   0.935   6.632  0.5763 -0.1450  0.1289
 7605SOL    HW134448   1.059   0.974   6.570  0.4288  0.2881  0.5420
 7605SOL    HW234449   1.100   0.982   6.713  0.9385  0.2590 -0.0129
 7606SOL     OW34450   4.321   0.488   8.465 -0.0508  0.2150  0.0073
 7606SOL    HW134451   4.364   0.438   8.535 -0.9022  1.0407  1.1135
 7606SOL    HW234452   4.354   0.433   8.393  0.1772 -0.1695  0.4050
 7607SOL     OW34453   0.636   2.761   4.208 -0.3490  0.7237 -0.3590
 7607SOL    HW134454   0.589   2.693   4.257  0.5765  0.5973  0.3558
 7607SOL    HW234455   0.662   2.821   4.277  3.1912 -2.6570  1.2580
 7608SOL     OW34456   1.058   3.963   3.380  0.2195  0.6458 -0.6692
 7608SOL    HW134457   1.133   3.994   3.432  1.1449 -0.8927 -1.0912
 7608SOL    HW234458   1.034   4.046   3.339 -2.4465  1.0633  1.7490
 7609SOL     OW34459   2.533   4.269  16.824  0.2725 -0.0801 -0.1735
 7609SOL    HW134460   2.479   4.208  16.875  2.2966 -0.6460  1.3035
 7609SOL    HW234461   2.574   4.211  16.760  0.1241  0.0943 -0.4261
 7610SOL     OW34462   2.431   0.890  16.400 -0.0420 -0.1010 -0.1930
 7610SOL    HW134463   2.447   0.968  16.454  1.3566  0.0298 -0.7875
 7610SOL    HW234464   2.336   0.889  16.401 -0.0217 -2.1988 -0.0161
 7611SOL     OW34465   4.367   1.955   2.878 -0.2320  0.3969 -0.0186
 7611SOL    HW134466   4.338   1.958   2.969 -1.1105  2.9776 -0.3638
 7611SOL    HW234467   4.294   1.910   2.835 -0.4514  0.3562  0.4007
 7612SOL     OW34468   0.612   4.429   2.117  0.0489  0.0428  0.8159
 7612SOL    HW134469   0.695   4.386   2.096 -0.4345  0.2796 -1.6175
 7612SOL    HW234470   0.549   4.360   2.094 -2.4222  1.9510  1.9219
 7613SOL     OW34471   0.065   1.897  12.933  0.2765 -0.2312  0.2336
 7613SOL    HW134472   0.022   1.978  12.962 -1.9023 -0.7145 -1.6661
 7613SOL    HW234473   0.096   1.934  12.850  0.7184 -1.9291 -0.3571
 7614SOL     OW34474   3.463   0.551  10.888  0.1080  0.0285 -0.1272
 7614SOL    HW134475   3.392   0.492  10.861  1.9906 -3.1289  1.9690
 7614SOL    HW234476   3.521   0.535  10.814 -3.3601 -0.8560 -2.6869
 7615SOL     OW34477   0.416   4.367  10.596  0.1926 -0.2028  0.3242
 7615SOL    HW134478   0.325   4.353  10.622  0.5717 -0.3272  1.5808
 7615SOL    HW234479   0.444   4.431  10.661  1.3140  1.3633 -1.6867
 7616SOL     OW34480   4.704   2.478   6.703  0.1167 -0.1938  0.3671
 7616SOL    HW134481   4.626   2.455   6.653 -0.2590  2.5057 -0.2857
 7616SOL    HW234482   0.005   2.392   6.709  0.5890  0.0816  1.0134
 7617SOL     OW34483   3.211   0.006   2.758  0.1202  0.3716  0.7058
 7617SOL    HW134484   3.123   4.726   2.789 -1.1109  1.8266 -1.7496
 7617SOL    HW234485   3.212   0.101   2.745 -0.5675  0.2124 -0.4862
 7618SOL     OW34486   4.203   1.204   4.132  0.6545 -0.5536  0.1976
 7618SOL    HW134487   4.249   1.164   4.057  1.5258  1.7181 -0.4706
 7618SOL    HW234488   4.144   1.268   4.092  1.5281 -0.0797 -0.3448
 7619SOL     OW34489   4.420   4.719   6.203 -0.6440 -0.0375  0.1144
 7619SOL    HW134490   4.435   4.648   6.140  0.1969  1.5689 -1.4957
 7619SOL    HW234491   4.361   4.675   6.265  1.6440 -0.8614  1.6883
 7620SOL     OW34492   1.578   2.931  11.250  0.7265 -0.2364  0.2713
 7620SOL    HW134493   1.657   2.944  11.197 -0.3317  0.6269 -1.0794
 7620SOL    HW234494   1.616   2.876  11.319 -0.5264  1.2879  2.1733
 7621SOL     OW34495   3.128   1.672   5.772  0.9078  0.0568 -0.5118
 7621SOL    HW134496   3.217   1.700   5.796  0.3273  1.7911 -0.3395
 7621SOL    HW234497   3.130   1.689   5.678  0.2678 -1.3139 -0.7655
 7622SOL     OW34498   2.660   4.340   7.296  0.3098 -0.3486  0.4931
 7622SOL    HW134499   2.700   4.265   7.340 -1.2380 -0.8474  1.0173
 7622SOL    HW234500   2.630   4.296   7.216 -2.3569  1.0697  0.7333
 7623SOL     OW34501   4.209   1.656   2.986  0.6495 -0.0482  0.0060
 7623SOL    HW134502   4.180   1.577   3.031  0.4719  0.9539  1.6375
 7623SOL    HW234503   4.299   1.663   3.017 -0.3257 -2.0650  3.3071
 7624SOL     OW34504   3.505   1.425   9.289 -0.2195 -0.0787  0.2294
 7624SOL    HW134505   3.532   1.352   9.233 -1.6168 -0.9350  0.6831
 7624SOL    HW234506   3.425   1.395   9.330  0.2096 -2.2882 -0.5312
 7625SOL     OW34507   3.080   3.851   5.103 -0.2983 -0.4644 -0.4312
 7625SOL    HW134508   3.062   3.822   5.192 -0.2285  0.2037 -0.1926
 7625SOL    HW234509   3.163   3.810   5.079  0.9971  1.0970  1.3940
 7626SOL     OW34510   1.073   2.204   8.329  0.4136  0.3743  0.0781
 7626SOL    HW134511   1.052   2.260   8.254  0.4970  0.3850  0.0625
 7626SOL    HW234512   1.035   2.254   8.401  0.3617 -0.3171  0.5337
 7627SOL     OW34513   4.641   2.217   2.574 -0.2022  0.0134 -0.4259
 7627SOL    HW134514   4.671   2.126   2.569 -0.1277 -0.0824  1.6320
 7627SOL    HW234515   4.679   2.248   2.656 -3.7283  1.3906  0.6780
 7628SOL     OW34516   3.451   3.004  15.493  0.6860 -0.1757  0.5474
 7628SOL    HW134517   3.436   2.994  15.399  3.1697  0.0067  0.1135
 7628SOL    HW234518   3.437   3.097  15.507 -0.0708  0.0838 -1.8799
 7629SOL     OW34519   4.734   1.671   0.288  0.5981 -0.2598  0.3552
 7629SOL    HW134520   4.712   1.598   0.231 -1.1553  0.8171 -0.3513
 7629SOL    HW234521   4.709   1.744   0.231  1.7390 -0.0372  0.1394
 7630SOL     OW34522   4.549   2.648   1.530 -0.4459 -0.0768  0.5028
 7630SOL    HW134523   4.470   2.663   1.477  0.5345  0.9648 -0.6785
 7630SOL    HW234524   4.536   2.727   1.582 -0.0441 -0.3609  1.0274
 7631SOL     OW34525   1.883   0.211   2.083  1.1732 -0.5501 -0.5138
 7631SOL    HW134526   1.888   0.287   2.141 -1.8398 -1.7408  1.3227
 7631SOL    HW234527   1.860   0.255   2.001  1.9196 -0.9534 -0.9340
 7632SOL     OW34528   0.201   1.189   8.483  0.1989  0.3074 -0.3613
 7632SOL    HW134529   0.291   1.164   8.463 -1.6239 -5.5882 -0.9750
 7632SOL    HW234530   0.180   1.132   8.557  2.3424  1.3700  1.0570
 7633SOL     OW34531   2.269   0.714   7.046  0.1097 -0.1353  0.2162
 7633SOL    HW134532   2.263   0.665   6.964  0.3883  1.9897 -1.0651
 7633SOL    HW234533   2.198   0.671   7.094 -1.4815  1.4395 -0.7182
 7634SOL     OW34534   2.777   0.175   7.508  0.3372 -0.7455 -0.7200
 7634SOL    HW134535   2.713   0.173   7.436 -0.0058  1.3059 -0.4800
 7634SOL    HW234536   2.861   0.183   7.464  0.2099  1.8979 -0.4785
 7635SOL     OW34537   2.629   3.590  16.917  0.1208  0.7123 -0.0660
 7635SOL    HW134538   2.565   3.570  16.849  0.1450  0.3278  0.0258
 7635SOL    HW234539   2.601   3.529  16.985 -2.9432  1.9839 -0.1785
 7636SOL     OW34540   0.739   0.541   9.960 -0.8791  0.1040  0.7502
 7636SOL    HW134541   0.747   0.518  10.052 -0.8161 -3.8173 -0.2045
 7636SOL    HW234542   0.653   0.584   9.959 -1.6368 -1.4231 -1.9677
 7637SOL     OW34543   3.196   3.316   6.619  0.1808 -0.3725 -0.1104
 7637SOL    HW134544   3.220   3.317   6.527 -1.5121 -1.5370 -0.5650
 7637SOL    HW234545   3.116   3.263   6.617 -0.9072  1.2935 -1.2830
 7638SOL     OW34546   4.468   0.354   4.829 -0.3891 -0.5042 -0.4767
 7638SOL    HW134547   4.374   0.336   4.836 -0.2701 -1.3539 -1.0540
 7638SOL    HW234548   4.468   0.351   4.734 -2.0226 -0.7582 -0.4802
 7639SOL     OW34549   4.336   2.287   7.946 -0.5591  0.1419 -0.0122
 7639SOL    HW134550   4.325   2.279   8.041  1.0421  2.0936  0.3281
 7639SOL    HW234551   4.279   2.214   7.922 -1.1868 -0.1683  2.3743
 7640SOL     OW34552   0.368   1.957  14.748 -0.4998  0.5713 -0.2687
 7640SOL    HW134553   0.345   1.878  14.797 -1.1284  1.3247  0.6436
 7640SOL    HW234554   0.356   1.930  14.657 -0.5195  1.0665 -0.4157
 7641SOL     OW34555   0.322   2.606   9.534 -0.1648 -0.1695  0.8496
 7641SOL    HW134556   0.237   2.581   9.571 -0.0260 -1.5466  0.2587
 7641SOL    HW234557   0.359   2.519   9.517 -0.0034  0.1775 -0.5725
 7642SOL     OW34558   1.455   2.328  17.633 -0.5099 -0.5406 -0.1299
 7642SOL    HW134559   1.446   2.346  17.726  0.5440 -2.0109  0.2493
 7642SOL    HW234560   1.378   2.378  17.606 -2.6104 -2.3344  2.6313
 7643SOL     OW34561   2.096   3.720   5.423 -0.4669  0.0351  0.1794
 7643SOL    HW134562   2.006   3.687   5.421 -0.2757 -0.3786 -1.3765
 7643SOL    HW234563   2.146   3.639   5.418  1.3719  1.1589  0.1328
 7644SOL     OW34564   4.286   2.847   9.296  0.5883  0.2200 -0.0287
 7644SOL    HW134565   4.317   2.812   9.379  1.5746  0.3402 -0.3483
 7644SOL    HW234566   4.350   2.918   9.287 -0.5335  0.9190 -2.6906
 7645SOL     OW34567   3.850   2.443   7.895  0.4621  0.4776 -1.0170
 7645SOL    HW134568   3.811   2.461   7.810 -0.7987 -1.2313 -0.8146
 7645SOL    HW234569   3.833   2.349   7.895 -0.0202  0.5627 -1.0803
 7646SOL     OW34570   3.679   2.643  13.859  0.3986  0.1703 -0.1107
 7646SOL    HW134571   3.596   2.656  13.813 -0.2811 -0.5711  0.9139
 7646SOL    HW234572   3.662   2.559  13.903  0.9628  0.1987  0.1635
 7647SOL     OW34573   2.933   1.139   6.656  0.2170  0.8469  0.1214
 7647SOL    HW134574   2.931   1.229   6.623 -0.7783  0.2736 -1.3702
 7647SOL    HW234575   2.838   1.129   6.651  0.6444 -3.1880  0.3630
 7648SOL     OW34576   3.051   2.341   0.917 -0.7730  0.2563 -0.0364
 7648SOL    HW134577   3.117   2.405   0.890  1.2959 -1.5284  0.7932
 7648SOL    HW234578   3.002   2.386   0.986  0.7764  0.3151  1.0164
 7649SOL     OW34579   3.291   1.545  11.566 -0.2553 -0.0358  0.3074
 7649SOL    HW134580   3.327   1.602  11.634 -2.2929  1.3077  0.2428
 7649SOL    HW234581   3.355   1.474  11.571  1.2484  1.0451 -2.9005
 7650SOL     OW34582   3.225   3.493   3.949  0.0023  0.0097 -0.3892
 7650SOL    HW134583   3.213   3.453   3.862 -1.7785  0.9588 -0.5825
 7650SOL    HW234584   3.247   3.580   3.915 -1.7302  0.1496 -1.1158
 7651SOL     OW34585   0.962   2.250   7.315 -0.0467  0.3952 -0.8714
 7651SOL    HW134586   0.883   2.237   7.368  2.1494  1.2371  2.6003
 7651SOL    HW234587   0.982   2.161   7.286 -0.2778  0.6035 -1.6604
 7652SOL     OW34588   0.001   2.133   6.201  0.4619 -0.2188  0.0330
 7652SOL    HW134589   0.088   2.117   6.166  0.0119 -2.7988  0.0964
 7652SOL    HW234590   4.710   2.045   6.219 -2.1328  0.6180 -0.4067
 7653SOL     OW34591   1.205   2.205  16.124  0.3551  0.0316 -0.1072
 7653SOL    HW134592   1.283   2.203  16.069  0.1371  1.5890 -0.4843
 7653SOL    HW234593   1.227   2.276  16.184 -2.2795  0.8133 -0.0707
 7654SOL     OW34594   3.121   2.022   3.777  0.6140 -0.4752  0.0079
 7654SOL    HW134595   3.117   1.957   3.848 -2.7984  1.0257  1.1900
 7654SOL    HW234596   3.205   2.001   3.737  0.0491 -0.9892 -0.8961
 7655SOL     OW34597   2.589   0.335   4.667  0.2206  0.0514 -0.1380
 7655SOL    HW134598   2.610   0.246   4.638  0.5692  0.1966 -0.3492
 7655SOL    HW234599   2.521   0.362   4.605 -1.5506 -2.7697  0.5900
 7656SOL     OW34600   2.817   0.201   3.189 -0.2609 -0.5990 -0.0047
 7656SOL    HW134601   2.770   0.178   3.270  0.0974 -2.6395 -0.3804
 7656SOL    HW234602   2.811   0.119   3.141  1.6760 -0.5327 -0.3187
 7657SOL     OW34603   1.662   4.330  11.904  0.3456  0.1025 -0.0832
 7657SOL    HW134604   1.693   4.293  11.821 -1.1388 -1.2975 -0.0024
 7657SOL    HW234605   1.627   4.417  11.883  0.1308 -0.4341 -1.9596
 7658SOL     OW34606   3.660   3.267   2.332  0.1478  0.2517 -0.3374
 7658SOL    HW134607   3.754   3.253   2.320  0.1421 -1.2814  1.4282
 7658SOL    HW234608   3.638   3.354   2.301 -1.7389 -0.0850  0.0154
 7659SOL     OW34609   2.656   4.403  13.758  0.1417  0.0041  0.3252
 7659SOL    HW134610   2.693   4.465  13.820 -1.5761  1.0176  0.3207
 7659SOL    HW234611   2.571   4.444  13.744  0.6591  1.3806  1.2799
 7660SOL     OW34612   1.110   2.828   6.051 -0.5949 -0.5301 -0.0948
 7660SOL    HW134613   1.126   2.906   6.104 -1.0760 -0.6682  0.2577
 7660SOL    HW234614   1.195   2.790   6.030 -1.5619 -1.8044 -1.6924
 7661SOL     OW34615   1.599   1.397   7.802  0.7307  0.3880  0.1663
 7661SOL    HW134616   1.619   1.305   7.820 -2.7210 -0.2393  0.8627
 7661SOL    HW234617   1.686   1.434   7.816  0.7652  0.2039  0.4396
 7662SOL     OW34618   0.737   3.158   8.378  0.6338  0.0501 -0.4393
 7662SOL    HW134619   0.652   3.131   8.342  0.4557 -1.2082  0.9373
 7662SOL    HW234620   0.710   3.197   8.461  0.9751  2.2526 -1.3591
 7663SOL     OW34621   3.613   3.079  11.542  0.0494  0.2228 -0.0759
 7663SOL    HW134622   3.652   3.145  11.600 -1.1126 -1.2320  2.3640
 7663SOL    HW234623   3.653   3.102  11.458  0.3429  0.6077  0.1630
 7664SOL     OW34624   4.395   3.435   8.269  0.4370 -0.2690  0.3528
 7664SOL    HW134625   4.424   3.388   8.190 -0.3137 -0.7865  0.3813
 7664SOL    HW234626   4.480   3.477   8.281  0.7268 -0.3766 -1.2851
 7665SOL     OW34627   3.409   0.460  11.691  0.0281 -0.4340  0.1195
 7665SOL    HW134628   3.491   0.510  11.695  0.1270 -0.6994  1.7292
 7665SOL    HW234629   3.357   0.496  11.763 -0.4024  1.6534 -1.2710
 7666SOL     OW34630   3.368   1.009   8.749 -0.2118 -0.8281 -0.4614
 7666SOL    HW134631   3.373   1.078   8.682  0.1057  0.3649  0.7887
 7666SOL    HW234632   3.459   0.982   8.761 -0.1012  0.0102  0.5991
 7667SOL     OW34633   1.456   0.191   1.747 -0.2229  0.3561 -0.1474
 7667SOL    HW134634   1.511   0.208   1.671 -1.2895 -2.9804 -1.6555
 7667SOL    HW234635   1.488   0.112   1.791  0.0233  1.2809  1.3327
 7668SOL     OW34636   2.036   0.542  15.469  0.5567 -0.5149 -1.1516
 7668SOL    HW134637   2.075   0.492  15.398 -3.3082 -3.6043 -1.0774
 7668SOL    HW234638   1.958   0.587  15.436  1.4474  3.1731  1.6479
 7669SOL     OW34639   4.625   4.136   4.510  0.5154  0.8292 -0.1527
 7669SOL    HW134640   4.644   4.182   4.592 -2.3162  2.7996 -0.5936
 7669SOL    HW234641   4.702   4.079   4.508  0.4659  0.7189  1.3436
 7670SOL     OW34642   3.656   3.281  16.890  0.4805  0.1004  0.1938
 7670SOL    HW134643   3.643   3.222  16.965  1.2662 -2.1925 -1.4729
 7670SOL    HW234644   3.634   3.357  16.943  0.7213  0.8587 -0.8078
 7671SOL     OW34645   1.988   3.014   3.267 -0.2092 -0.0085 -0.2366
 7671SOL    HW134646   2.015   2.924   3.283  1.0357  0.2734 -0.7893
 7671SOL    HW234647   2.058   3.049   3.211 -0.2556  2.5600  1.2834
 7672SOL     OW34648   0.557   1.362   6.097  0.1885 -0.6233  0.2050
 7672SOL    HW134649   0.555   1.396   6.186  1.2754 -0.2147  0.0624
 7672SOL    HW234650   0.621   1.291   6.099  1.3630  0.3786 -2.1830
 7673SOL     OW34651   4.224   1.005   1.694 -0.2054 -0.2260  0.5231
 7673SOL    HW134652   4.278   1.051   1.758 -0.6304 -0.0596  0.7596
 7673SOL    HW234653   4.141   1.007   1.742 -0.2130 -2.2858  0.6044
 7674SOL     OW34654   4.171   0.194   8.805  0.3907  0.2683  1.0705
 7674SOL    HW134655   4.206   0.128   8.865  1.0170 -0.2208  0.1563
 7674SOL    HW234656   4.147   0.139   8.730  1.9112  2.4806 -1.0446
 7675SOL     OW34657   0.211   0.038  16.084  0.7549 -0.2941  0.1435
 7675SOL    HW134658   0.235   4.686  16.091 -0.0948 -0.5587 -0.3767
 7675SOL    HW234659   0.164   0.055  16.166  0.7561 -0.5781  0.2053
 7676SOL     OW34660   3.150   2.826   3.984 -0.5381 -0.2094 -0.6785
 7676SOL    HW134661   3.183   2.906   4.026  1.7632 -0.9338 -1.0855
 7676SOL    HW234662   3.110   2.772   4.053 -1.7738 -0.5635 -1.6864
 7677SOL     OW34663   4.233   0.741   8.459 -0.6072  0.5035 -0.7938
 7677SOL    HW134664   4.274   0.656   8.475 -0.6150  0.6898  0.2390
 7677SOL    HW234665   4.275   0.764   8.377  0.0225  1.8403 -0.0908
 7678SOL     OW34666   3.210   4.021   7.100  0.3303 -0.1461  0.2034
 7678SOL    HW134667   3.170   3.982   7.022 -1.9565  0.0053  1.2839
 7678SOL    HW234668   3.235   3.936   7.136  0.2086  0.2797  1.3221
 7679SOL     OW34669   3.166   1.123   1.248  0.3422 -0.2707  0.1655
 7679SOL    HW134670   3.253   1.138   1.211  1.3152 -3.0105  1.3928
 7679SOL    HW234671   3.112   1.189   1.205  1.1010  0.2916  0.0755
 7680SOL     OW34672   2.148   0.394   6.557 -0.2217  0.0042 -1.0232
 7680SOL    HW134673   2.175   0.415   6.467  1.6465 -1.8704 -0.8912
 7680SOL    HW234674   2.089   0.320   6.544 -1.4267  0.7058  0.5025
 7681SOL     OW34675   1.002   4.567   3.106 -0.0851 -0.2529  0.0973
 7681SOL    HW134676   0.972   4.502   3.043  0.0603  0.8440 -1.1061
 7681SOL    HW234677   1.076   4.518   3.143 -0.6745 -0.7090  0.6640
 7682SOL     OW34678   1.355   0.475   4.386 -0.6215 -0.0573  0.5525
 7682SOL    HW134679   1.354   0.387   4.348 -0.4601 -0.1252  0.7054
 7682SOL    HW234680   1.305   0.469   4.467  0.5154 -3.3471  1.0241
 7683SOL     OW34681   2.772   0.489   2.093  0.1906  0.2806 -0.1396
 7683SOL    HW134682   2.865   0.483   2.073  0.0845 -1.5209 -0.0827
 7683SOL    HW234683   2.732   0.402   2.095  1.9993 -0.5482 -0.2703
 7684SOL     OW34684   0.451   2.891   7.282  0.0178  0.1888  0.1770
 7684SOL    HW134685   0.444   2.896   7.377 -0.3589 -2.4249  0.2888
 7684SOL    HW234686   0.408   2.810   7.255  2.5471 -1.0964  0.0709
 7685SOL     OW34687   3.129   0.773   4.195  0.1366  0.0914 -0.3754
 7685SOL    HW134688   3.216   0.797   4.162  1.5307 -0.7616  2.7329
 7685SOL    HW234689   3.161   0.697   4.244 -0.9613  0.3636  0.7557
 7686SOL     OW34690   0.633   3.831   7.498  0.7040 -0.0725  0.4232
 7686SOL    HW134691   0.546   3.871   7.502  1.6918  2.0389  0.6067
 7686SOL    HW234692   0.618   3.763   7.564 -2.0871 -0.7417 -0.9209
 7687SOL     OW34693   4.111   3.880   4.507 -0.1700 -0.1731 -0.2826
 7687SOL    HW134694   4.193   3.929   4.516 -0.8843  0.9694 -0.0885
 7687SOL    HW234695   4.078   3.865   4.595  1.3548 -2.4079 -0.0998
 7688SOL     OW34696   2.037   4.201   7.693  0.1988 -0.1885  0.1180
 7688SOL    HW134697   2.009   4.118   7.654  0.0818 -0.0171 -0.1644
 7688SOL    HW234698   1.952   4.240   7.712  0.5249  0.3102  0.5673
 7689SOL     OW34699   4.590   1.768   2.207  0.3017  0.0666 -0.3237
 7689SOL    HW134700   4.559   1.854   2.237 -1.6061 -0.9660  0.6515
 7689SOL    HW234701   4.507   1.721   2.213  0.9210 -0.8748  0.8159
 7690SOL     OW34702   3.133   2.665  13.786 -0.1500 -0.3861  0.0796
 7690SOL    HW134703   3.047   2.631  13.812  0.3950 -1.2665  0.7447
 7690SOL    HW234704   3.113   2.690  13.696  0.5606  1.9710  0.5797
 7691SOL     OW34705   0.156   0.904   1.006  0.5395  0.0546  0.2994
 7691SOL    HW134706   0.073   0.856   1.002  0.8315 -0.5536  1.6469
 7691SOL    HW234707   0.208   0.855   0.942 -0.9986  1.2649 -1.8654
 7692SOL     OW34708   1.257   0.172   7.296 -0.6213  0.1604 -0.0976
 7692SOL    HW134709   1.262   0.155   7.202 -0.2319 -0.5870  0.0562
 7692SOL    HW234710   1.336   0.139   7.340 -1.3501 -1.8368 -0.2874
 7693SOL     OW34711   3.167   3.189  10.462  0.2701  0.4863 -0.1454
 7693SOL    HW134712   3.085   3.215  10.504  0.0984  0.2568 -0.3408
 7693SOL    HW234713   3.157   3.094  10.449 -0.4539  0.8279 -1.9552
 7694SOL     OW34714   4.345   1.242   4.350  0.1247 -0.1312  0.2962
 7694SOL    HW134715   4.378   1.328   4.326 -0.4709 -0.1049 -0.4097
 7694SOL    HW234716   4.281   1.220   4.283  0.3875  0.4287 -0.1344
 7695SOL     OW34717   0.005   2.623   4.352 -0.1948 -0.2797 -0.1307
 7695SOL    HW134718   4.741   2.718   4.342  0.9162 -0.1394  0.6442
 7695SOL    HW234719   0.100   2.618   4.365  0.0928  3.3554 -0.8703
 7696SOL     OW34720   2.825   0.404  16.263 -0.5351 -0.0044 -0.0166
 7696SOL    HW134721   2.756   0.467  16.285  0.6678  1.5318 -0.6367
 7696SOL    HW234722   2.770   0.326  16.266  1.8084 -1.7279 -2.2211
 7697SOL     OW34723   3.185   0.451   5.874 -0.2332  0.2693  0.2844
 7697SOL    HW134724   3.104   0.421   5.916 -0.4699 -0.0181 -0.3836
 7697SOL    HW234725   3.180   0.431   5.781  2.5644  0.0007  0.1943
 7698SOL     OW34726   1.244   1.150   8.682  0.4208 -1.0620 -0.2345
 7698SOL    HW134727   1.176   1.191   8.736 -0.9436 -1.0666 -1.9528
 7698SOL    HW234728   1.287   1.087   8.739  0.1020  0.6612  1.9347
 7699SOL     OW34729   4.072   3.764   8.504 -0.1266  0.7945  0.0041
 7699SOL    HW134730   4.025   3.682   8.518 -0.1367  0.9022  0.6111
 7699SOL    HW234731   4.137   3.736   8.440 -2.3086  1.0091 -2.2787
 7700SOL     OW34732   1.507   1.628   4.062 -0.1535  0.2923  0.0930
 7700SOL    HW134733   1.543   1.629   4.151  2.0614 -3.0547 -0.8025
 7700SOL    HW234734   1.433   1.686   4.080 -0.8763 -0.8162  0.7094
 7701SOL     OW34735   2.627   4.218   7.034 -0.0325 -0.5638  0.1591
 7701SOL    HW134736   2.695   4.152   7.022  2.7254  2.4509 -0.5289
 7701SOL    HW234737   2.546   4.171   7.016 -1.4284  1.7350  0.4209
 7702SOL     OW34738   3.790   0.946   0.396  0.2205  0.2816  0.4555
 7702SOL    HW134739   3.726   0.977   0.331  0.4556  0.8962  0.5180
 7702SOL    HW234740   3.853   1.016   0.411  1.7503 -0.9162 -0.3263
 7703SOL     OW34741   0.330   4.675   3.523  0.2207  0.2184 -0.6602
 7703SOL    HW134742   0.295   0.021   3.541 -1.0963 -0.2406 -0.9981
 7703SOL    HW234743   0.286   4.631   3.596  1.0589 -0.0806 -0.3302
 7704SOL     OW34744   1.836   1.194   6.042 -0.3878 -0.2892 -0.1997
 7704SOL    HW134745   1.899   1.144   6.094 -1.9192 -3.7400 -1.7105
 7704SOL    HW234746   1.899   1.257   6.006 -0.0926  0.0348  0.8798
 7705SOL     OW34747   0.001   0.592   9.106  1.1940  0.0922 -0.3885
 7705SOL    HW134748   0.038   0.511   9.142  0.9903 -0.0004 -0.3889
 7705SOL    HW234749   0.085   0.637   9.093  0.3721  2.3671  2.1382
 7706SOL     OW34750   4.312   3.805   7.321  0.4426 -0.2352 -0.5095
 7706SOL    HW134751   4.234   3.759   7.349 -0.1387  0.6344 -0.6954
 7706SOL    HW234752   4.339   3.768   7.237 -1.0919  0.0637 -1.1229
 7707SOL     OW34753   1.186   1.159  15.057 -0.2632  0.2703  0.4933
 7707SOL    HW134754   1.269   1.153  15.105 -0.8169 -3.9368  0.9102
 7707SOL    HW234755   1.212   1.169  14.965  0.7684  0.5970  0.8128
 7708SOL     OW34756   3.764   0.990   6.879 -0.4832  0.2940  0.4870
 7708SOL    HW134757   3.764   0.903   6.920  6.3283  0.5878  1.1446
 7708SOL    HW234758   3.766   1.046   6.957  0.6860  0.2378  0.5109
 7709SOL     OW34759   3.519   4.004   7.359  0.2067 -0.4448 -1.4122
 7709SOL    HW134760   3.426   4.015   7.380  0.4460  1.2450 -1.2927
 7709SOL    HW234761   3.519   4.069   7.289  1.8623  0.2866 -0.7226
 7710SOL     OW34762   4.219   1.408   9.126 -0.2610 -0.3837 -0.1241
 7710SOL    HW134763   4.254   1.373   9.208 -0.8829  0.0550  0.3283
 7710SOL    HW234764   4.297   1.402   9.071 -0.7674  0.2337 -0.9286
 7711SOL     OW34765   3.124   4.091   3.362  0.0125 -0.2456 -0.5631
 7711SOL    HW134766   3.150   4.002   3.336 -0.4944 -0.7057  0.4892
 7711SOL    HW234767   3.177   4.140   3.300  0.3685 -0.6549 -0.5859
 7712SOL     OW34768   4.451   0.731   3.936 -0.0242 -0.1547  0.2878
 7712SOL    HW134769   4.470   0.801   3.874  0.3117  1.0757  1.7846
 7712SOL    HW234770   4.357   0.748   3.941 -0.0388  0.2165 -1.3385
 7713SOL     OW34771   2.256   2.316   3.154  0.2656  0.3365 -0.3105
 7713SOL    HW134772   2.260   2.410   3.138 -0.9465  0.8216  2.2745
 7713SOL    HW234773   2.162   2.295   3.150 -0.0074  1.4906  0.1723
 7714SOL     OW34774   2.341   3.721   7.559 -0.5361 -0.1596 -0.4665
 7714SOL    HW134775   2.251   3.706   7.530 -0.4593 -0.6405 -0.4693
 7714SOL    HW234776   2.369   3.629   7.564  0.2799  0.0543 -1.1705
 7715SOL     OW34777   1.141   1.110   1.311  0.2361  0.4245 -0.5078
 7715SOL    HW134778   1.069   1.111   1.247  2.6731 -1.1499 -3.2721
 7715SOL    HW234779   1.174   1.024   1.287 -1.1423 -0.9241  2.4667
 7716SOL     OW34780   2.647   4.036   2.449 -0.6036  0.6240  0.0545
 7716SOL    HW134781   2.677   3.954   2.411  1.6699  0.3649  2.3942
 7716SOL    HW234782   2.607   4.066   2.367 -0.0625  1.4195  0.0769
 7717SOL     OW34783   1.539   2.486   5.025  0.4300 -0.0418 -0.6210
 7717SOL    HW134784   1.553   2.559   5.085 -4.8325 -0.0963  0.6596
 7717SOL    HW234785   1.613   2.426   5.039 -1.6883 -2.1328  1.6797
 7718SOL     OW34786   1.225   4.361   5.602 -0.7805 -0.4434  0.2381
 7718SOL    HW134787   1.136   4.396   5.605 -1.0486 -0.9888 -1.2525
 7718SOL    HW234788   1.239   4.345   5.695 -1.5316 -0.3551  0.3696
 7719SOL     OW34789   0.645   1.836   6.885 -0.4078  0.4030  0.7020
 7719SOL    HW134790   0.641   1.765   6.821  0.7704  1.2106 -0.2668
 7719SOL    HW234791   0.663   1.917   6.838 -0.4138  0.8355  1.4465
 7720SOL     OW34792   3.794   4.356   6.171  0.1499 -0.0304  0.0326
 7720SOL    HW134793   3.708   4.378   6.135  0.8975  0.3160 -1.5433
 7720SOL    HW234794   3.805   4.429   6.232 -0.1112 -0.5211  0.6605
 7721SOL     OW34795   1.997   1.877   7.841 -0.0725 -0.0211  0.1361
 7721SOL    HW134796   1.953   1.896   7.758 -1.9984  1.2417  1.4316
 7721SOL    HW234797   2.065   1.816   7.814  0.8015  1.5283 -1.1991
 7722SOL     OW34798   3.287   2.853   8.203 -0.0490 -0.1991  0.1860
 7722SOL    HW134799   3.294   2.948   8.212 -1.6378 -0.0554 -0.1090
 7722SOL    HW234800   3.267   2.839   8.296 -0.4469 -1.2267 -0.0526
 7723SOL     OW34801   1.566   1.244   4.271  0.3667 -0.0446 -0.0352
 7723SOL    HW134802   1.525   1.252   4.184  2.1912 -0.3014 -0.9131
 7723SOL    HW234803   1.501   1.233   4.341  0.3737 -0.2145 -0.0554
 7724SOL     OW34804   3.248   4.472   2.705  0.2468 -0.6217  0.1025
 7724SOL    HW134805   3.313   4.452   2.772 -0.0926  0.2544  0.6989
 7724SOL    HW234806   3.225   4.564   2.722 -0.8646 -0.8145 -0.3099
 7725SOL     OW34807   1.746   0.666   6.856 -0.2818  0.0212 -0.2448
 7725SOL    HW134808   1.814   0.673   6.789  0.5300  1.5087  0.7111
 7725SOL    HW234809   1.673   0.621   6.814 -1.4304 -2.0740  4.0026
 7726SOL     OW34810   2.470   3.058   5.797  0.2159  0.0758  0.1673
 7726SOL    HW134811   2.480   3.026   5.708  0.3412 -0.9832  0.5530
 7726SOL    HW234812   2.562   3.086   5.806 -0.6884  3.2075 -0.4781
 7727SOL     OW34813   2.219   4.546   8.556  0.4042  0.1699 -0.3109
 7727SOL    HW134814   2.160   4.480   8.593  1.3816  1.0682  2.8226
 7727SOL    HW234815   2.259   4.496   8.485  0.3943  0.5676 -0.5957
 7728SOL     OW34816   4.378   2.783   9.555 -0.4511 -0.0200  0.0675
 7728SOL    HW134817   4.455   2.797   9.610  0.4326  0.6268 -1.3402
 7728SOL    HW234818   4.330   2.856   9.596  0.9567 -0.1958  2.0140
 7729SOL     OW34819   2.270   0.285  14.972  0.6385 -0.4698  0.1078
 7729SOL    HW134820   2.218   0.209  14.999  2.5287 -1.1706  1.7613
 7729SOL    HW234821   2.358   0.246  14.970  1.3559  1.2584 -1.9628
 7730SOL     OW34822   1.809   0.660  12.766 -0.2061 -0.0245  0.1437
 7730SOL    HW134823   1.778   0.573  12.740  0.3068 -0.0279 -0.4485
 7730SOL    HW234824   1.784   0.663  12.858  0.8901  1.5063  0.3847
 7731SOL     OW34825   2.194   1.884   5.050  0.0765  0.1774  0.0179
 7731SOL    HW134826   2.116   1.879   4.995  0.5535 -0.0372 -0.6378
 7731SOL    HW234827   2.242   1.954   5.007 -0.8737  0.7092 -0.1569
 7732SOL     OW34828   2.060   0.432   4.133 -0.2513  0.1155  0.1881
 7732SOL    HW134829   2.023   0.479   4.208  2.3736  1.5058  0.6292
 7732SOL    HW234830   2.141   0.393   4.166  0.3842  0.3930 -1.0252
 7733SOL     OW34831   1.229   2.563   2.251 -0.4200  0.1544 -0.0427
 7733SOL    HW134832   1.306   2.578   2.196  0.7894  1.2459  1.9773
 7733SOL    HW234833   1.195   2.489   2.200 -1.9007  1.0569 -0.3608
 7734SOL     OW34834   1.421   3.655   2.673 -0.0455 -0.3023  0.3884
 7734SOL    HW134835   1.510   3.620   2.677 -0.1552 -0.6624 -0.4831
 7734SOL    HW234836   1.418   3.686   2.764  1.4416  0.2440  0.2481
 7735SOL     OW34837   1.836   0.770   4.308 -0.4320 -0.7618  0.2441
 7735SOL    HW134838   1.809   0.842   4.365 -2.6762 -1.8088  0.5429
 7735SOL    HW234839   1.756   0.716   4.315 -2.6885  2.8965  2.8325
 7736SOL     OW34840   1.989   4.108   5.976  0.4289  0.3211  0.1409
 7736SOL    HW134841   2.043   4.179   6.011  1.4559 -0.2816 -0.2594
 7736SOL    HW234842   2.023   4.044   6.039 -0.5510  1.4782  1.8652
 7737SOL     OW34843   4.534   4.631  16.603 -0.2798  0.5816  0.3384
 7737SOL    HW134844   4.553   4.554  16.550 -2.2168  0.0731  0.3888
 7737SOL    HW234845   4.542   4.592  16.690  0.5093 -1.5329 -0.6808
 7738SOL     OW34846   1.833   1.193   4.874  0.9951 -0.2916 -0.3451
 7738SOL    HW134847   1.927   1.207   4.864  0.7271  1.1860 -0.7232
 7738SOL    HW234848   1.795   1.278   4.893  2.0466 -0.1001  0.9413
 7739SOL     OW34849   4.191   3.335   9.531  0.2731  0.4175 -0.1747
 7739SOL    HW134850   4.160   3.297   9.449  0.0555  0.6644 -0.2087
 7739SOL    HW234851   4.141   3.283   9.594 -0.0113  1.0300  0.1034
 7740SOL     OW34852   1.316   2.219   5.215 -0.0432  0.0711  0.0808
 7740SOL    HW134853   1.282   2.140   5.258 -1.9109  2.7923  3.5075
 7740SOL    HW234854   1.390   2.176   5.172  0.6237  0.3711  0.9333
 7741SOL     OW34855   2.440   4.336  11.147 -0.4425  0.1845  0.1884
 7741SOL    HW134856   2.483   4.297  11.071 -0.4199  1.2582 -0.3520
 7741SOL    HW234857   2.469   4.284  11.222 -0.5686  0.6493  0.5653
 7742SOL     OW34858   0.175   3.044  14.188  0.2709 -0.2764  0.1028
 7742SOL    HW134859   0.164   3.070  14.279 -0.9029 -2.1515  0.5162
 7742SOL    HW234860   0.141   3.123  14.147 -1.3141 -1.4239 -0.8061
 7743SOL     OW34861   2.970   4.639   5.326 -0.4499 -0.3408 -0.0718
 7743SOL    HW134862   2.982   4.719   5.378 -1.9750 -0.3785  0.3184
 7743SOL    HW234863   3.054   4.597   5.345 -0.6617 -0.9814 -0.5584
 7744SOL     OW34864   4.246   4.250   0.506  0.2701 -0.1815  0.2157
 7744SOL    HW134865   4.336   4.222   0.525 -0.0042  0.2623  2.1002
 7744SOL    HW234866   4.205   4.226   0.589 -1.9362  0.6476 -0.6352
 7745SOL     OW34867   1.253   3.279   3.005  0.3444 -0.4183  0.1237
 7745SOL    HW134868   1.315   3.270   2.933  0.0434 -0.3020 -0.1476
 7745SOL    HW234869   1.194   3.347   2.972 -0.1757 -0.7419  0.3774
 7746SOL     OW34870   2.982   3.875  11.244  0.0305 -0.7127  0.3747
 7746SOL    HW134871   3.041   3.801  11.256  2.6362  1.4258  0.8259
 7746SOL    HW234872   2.961   3.897  11.335  2.4751  1.3767  0.4465
 7747SOL     OW34873   1.857   3.476   8.758  0.1835  0.2909  0.4665
 7747SOL    HW134874   1.857   3.490   8.664 -2.1030 -1.9395  0.1306
 7747SOL    HW234875   1.880   3.384   8.769  1.9416  0.8680  1.6516
 7748SOL     OW34876   0.030   2.139   8.906  0.4669 -0.3091 -0.0780
 7748SOL    HW134877   0.080   2.065   8.940 -0.5438 -1.1359 -0.3788
 7748SOL    HW234878   0.102   2.199   8.892  0.1274  0.0559 -0.2691
 7749SOL     OW34879   2.300   2.711   8.928  0.5371 -0.2575 -0.2477
 7749SOL    HW134880   2.385   2.668   8.916  0.3168 -0.3580 -1.3825
 7749SOL    HW234881   2.284   2.685   9.019 -1.8505  0.2858 -0.5278
 7750SOL     OW34882   3.183   2.322   9.276 -0.5775 -0.1994 -0.2639
 7750SOL    HW134883   3.135   2.264   9.334 -2.6760  0.7987 -1.0047
 7750SOL    HW234884   3.269   2.288   9.301 -1.9518 -2.3415  1.5200
 7751SOL     OW34885   1.346   3.828   4.322  0.1061 -0.7623 -0.2121
 7751SOL    HW134886   1.402   3.776   4.380  0.5850  1.7502  1.5554
 7751SOL    HW234887   1.410   3.897   4.303  0.0754 -0.8079 -0.4806
 7752SOL     OW34888   3.661   0.620  15.971 -0.3256 -0.1971 -0.0941
 7752SOL    HW134889   3.723   0.690  15.953 -1.9669  1.4511  0.5874
 7752SOL    HW234890   3.697   0.546  15.923 -1.7106 -1.7311  1.2337
 7753SOL     OW34891   1.258   1.395   2.986  0.2727 -0.0876 -0.2278
 7753SOL    HW134892   1.346   1.387   3.022  0.8992  2.3141 -1.2325
 7753SOL    HW234893   1.210   1.336   3.044 -0.5942 -0.2192 -1.0801
 7754SOL     OW34894   1.668   1.776   7.863 -0.3114  0.5899  0.4933
 7754SOL    HW134895   1.731   1.722   7.815  1.7851  3.5713 -0.1321
 7754SOL    HW234896   1.636   1.837   7.796  0.8122 -0.9746 -1.4730
 7755SOL     OW34897   1.538   3.061   2.650  0.4652  0.6422 -0.7076
 7755SOL    HW134898   1.519   3.140   2.599  0.4487 -0.8274 -2.9509
 7755SOL    HW234899   1.607   3.009   2.609  1.5998  0.0544  1.9653
 7756SOL     OW34900   0.761   0.985   4.421 -0.1725  0.1010  0.1504
 7756SOL    HW134901   0.852   0.972   4.393 -0.3066  0.3684 -0.4092
 7756SOL    HW234902   0.720   1.002   4.337  0.6487  0.3871 -0.1968
 7757SOL     OW34903   0.324   1.130   1.816 -0.6438  0.1614 -0.2775
 7757SOL    HW134904   0.353   1.039   1.814 -2.7334 -0.5060  0.0069
 7757SOL    HW234905   0.408   1.174   1.801 -1.1698  1.0042 -0.7308
 7758SOL     OW34906   3.681   0.041   5.838  0.6275  0.4377  0.2846
 7758SOL    HW134907   3.648   0.111   5.782  1.5531  0.9192  0.3449
 7758SOL    HW234908   3.646   0.074   5.920  0.9688 -0.3169  0.7320
 7759SOL     OW34909   0.239   1.288   1.386  0.1606 -0.9133  0.5145
 7759SOL    HW134910   0.269   1.307   1.297 -4.8637 -2.5253 -1.5019
 7759SOL    HW234911   0.145   1.296   1.375  0.7080  1.0764 -2.8586
 7760SOL     OW34912   1.203   1.479   4.346 -0.0604 -0.2284 -0.0399
 7760SOL    HW134913   1.128   1.442   4.392  0.3023 -1.0618 -0.1089
 7760SOL    HW234914   1.229   1.415   4.279 -1.0911 -1.2770  0.5623
 7761SOL     OW34915   1.972   1.404  14.535 -0.0265 -0.3763  0.8573
 7761SOL    HW134916   1.986   1.384  14.627 -0.8960 -2.1880  0.5961
 7761SOL    HW234917   1.951   1.315  14.506 -1.6661  0.0609  0.7245
 7762SOL     OW34918   0.222   2.722   3.858  0.3241  0.5826  0.2712
 7762SOL    HW134919   0.212   2.733   3.952 -2.2436  0.9418 -0.0547
 7762SOL    HW234920   0.301   2.668   3.863  0.2038  0.5257  1.5212
 7763SOL     OW34921   0.831   1.076   5.527 -0.0067 -0.1516 -0.7143
 7763SOL    HW134922   0.796   1.130   5.456  0.7744  0.3800 -0.7077
 7763SOL    HW234923   0.884   1.141   5.573  0.0019 -1.6045  1.3161
 7764SOL     OW34924   3.237   0.540   4.784  0.0263 -0.3698 -0.0422
 7764SOL    HW134925   3.153   0.585   4.790  0.6430  0.7540  0.0999
 7764SOL    HW234926   3.274   0.594   4.714  0.4920 -1.6747 -0.8010
 7765SOL     OW34927   2.898   3.997  10.140  0.2925 -0.0493 -0.8839
 7765SOL    HW134928   2.953   3.921  10.159 -1.3369 -0.2891  2.8965
 7765SOL    HW234929   2.969   4.051  10.107 -0.5646  1.4107 -0.3051
 7766SOL     OW34930   0.867   2.375   5.038  0.0702 -0.3317 -0.2386
 7766SOL    HW134931   0.854   2.283   5.014 -0.5797  0.0672 -1.3955
 7766SOL    HW234932   0.832   2.426   4.966  0.3227 -2.1613 -1.6540
 7767SOL     OW34933   0.929   3.695   1.142  0.5179  0.1325 -0.0018
 7767SOL    HW134934   0.931   3.599   1.148 -0.2157  0.1470  0.5264
 7767SOL    HW234935   0.981   3.717   1.219 -1.0258 -0.2953  1.1639
 7768SOL     OW34936   2.628   2.627   0.212  0.2318  0.5004 -0.4052
 7768SOL    HW134937   2.597   2.563   0.276  0.2278 -1.3156 -2.2127
 7768SOL    HW234938   2.592   2.705   0.254  0.2935  1.6587 -2.5229
 7769SOL     OW34939   0.427   0.986  11.958 -0.5068 -0.0689 -0.1591
 7769SOL    HW134940   0.389   1.060  12.004  3.1074 -0.2676  3.0628
 7769SOL    HW234941   0.458   1.027  11.878 -2.3551  2.4995  0.4495
 7770SOL     OW34942   0.744   2.724   6.614 -0.1682 -0.8536 -0.1720
 7770SOL    HW134943   0.715   2.746   6.702  0.3483  0.1185 -0.2551
 7770SOL    HW234944   0.829   2.766   6.615  0.1401 -1.5136  1.6929
 7771SOL     OW34945   1.742   3.660   1.665 -0.4614 -0.2412 -0.4749
 7771SOL    HW134946   1.673   3.725   1.679  0.1804  0.2815  0.2442
 7771SOL    HW234947   1.698   3.582   1.698  0.1089  0.7323  2.6427
 7772SOL     OW34948   4.098   2.509   4.057  0.3222  0.1445  0.2214
 7772SOL    HW134949   4.168   2.551   4.106 -1.5527  0.6048  2.4734
 7772SOL    HW234950   4.093   2.421   4.093 -2.2784 -1.3154 -3.6677
 7773SOL     OW34951   3.590   4.438   7.959 -1.1036 -0.5604  0.1923
 7773SOL    HW134952   3.576   4.413   8.050  1.7498  1.0892  1.1087
 7773SOL    HW234953   3.504   4.441   7.917 -0.4598  0.5551 -1.0424
 7774SOL     OW34954   3.434   0.887   6.695  0.1152 -0.3738 -0.1472
 7774SOL    HW134955   3.354   0.928   6.728 -0.0408 -1.1302  0.4251
 7774SOL    HW234956   3.392   0.809   6.661  0.2118  0.0271 -1.1898
 7775SOL     OW34957   4.179   4.576   5.231  0.7179  0.1609  0.0128
 7775SOL    HW134958   4.086   4.572   5.253  1.3231 -2.9297  1.9544
 7775SOL    HW234959   4.182   4.671   5.222 -0.5035  0.0617 -1.4715
 7776SOL     OW34960   1.835   2.904   6.022 -0.9574 -0.4906 -0.1644
 7776SOL    HW134961   1.822   2.965   5.950  3.1160  1.5500  0.8543
 7776SOL    HW234962   1.882   2.958   6.085 -2.0932  0.5897 -0.2312
 7777SOL     OW34963   3.750   1.932   2.425  0.3126 -0.2424 -0.2005
 7777SOL    HW134964   3.830   1.975   2.455  0.6837 -2.2745  1.7195
 7777SOL    HW234965   3.781   1.889   2.345  0.7234  0.7469 -0.5739
 7778SOL     OW34966   1.635   2.792   9.431  0.1594 -0.4596 -0.1742
 7778SOL    HW134967   1.574   2.720   9.412 -1.8479  1.1873 -0.0028
 7778SOL    HW234968   1.636   2.846   9.352 -1.7493 -2.9676 -1.9511
 7779SOL     OW34969   2.091   4.722   6.195 -0.2601 -0.4708  0.0753
 7779SOL    HW134970   2.112   0.037   6.121 -1.2555 -1.8440 -1.2607
 7779SOL    HW234971   2.176   4.685   6.216  1.7793  3.6418 -1.0135
 7780SOL     OW34972   3.547   0.068   4.852 -0.0629 -0.3873 -0.7512
 7780SOL    HW134973   3.603   0.060   4.774  2.5791 -3.5010  1.4643
 7780SOL    HW234974   3.546   0.159   4.880  1.5724 -1.2226  2.0132
 7781SOL     OW34975   2.327   0.521   2.421  0.1882  0.2562 -0.4216
 7781SOL    HW134976   2.325   0.592   2.357  3.2921  0.0567 -0.7058
 7781SOL    HW234977   2.405   0.479   2.387  0.3686 -0.1314  0.4646
 7782SOL     OW34978   1.007   2.319  12.493 -0.2123 -0.0594  0.3587
 7782SOL    HW134979   0.962   2.332  12.409 -0.8926 -2.1890  0.4023
 7782SOL    HW234980   1.009   2.224  12.502 -1.0360 -0.1306 -0.1615
 7783SOL     OW34981   3.093   1.060   8.784 -0.2204 -0.4188 -0.1041
 7783SOL    HW134982   3.187   1.055   8.768 -0.1489  0.4666  0.0174
 7783SOL    HW234983   3.065   0.969   8.774  2.5310 -1.1977 -0.6091
 7784SOL     OW34984   1.952   4.305   5.278  0.2282 -0.0797 -0.5242
 7784SOL    HW134985   1.973   4.212   5.284  3.3813  0.8045  1.8226
 7784SOL    HW234986   2.036   4.348   5.294 -0.8973  0.7350  3.1733
 7785SOL     OW34987   0.142   2.271   1.497 -0.6962  0.1145  0.0329
 7785SOL    HW134988   0.062   2.324   1.503 -1.2371 -0.8107  1.1197
 7785SOL    HW234989   0.164   2.255   1.589 -2.3213 -0.2758  0.3590
 7786SOL     OW34990   1.540   0.332   4.916  0.4353  0.4727  0.6690
 7786SOL    HW134991   1.575   0.284   4.841 -0.2880  2.0930 -0.7166
 7786SOL    HW234992   1.621   0.371   4.950  0.8229 -0.2613  0.5879
 7787SOL     OW34993   1.797   2.807   4.420 -0.4329  0.0885 -0.0762
 7787SOL    HW134994   1.785   2.749   4.495  1.8166  1.4015  1.2750
 7787SOL    HW234995   1.871   2.863   4.444 -1.8826  2.5734 -1.2928
 7788SOL     OW34996   0.029   0.543  13.020  0.0193  0.3956 -0.6018
 7788SOL    HW134997   0.022   0.461  12.972 -0.3297  1.1157 -1.7717
 7788SOL    HW234998   0.119   0.540  13.052 -0.2869 -2.2178  0.0058
 7789SOL     OW34999   0.049   4.602   3.270  0.4090  0.2737 -0.1487
 7789SOL    HW135000   0.086   4.646   3.194  0.6729 -1.6095 -1.1017
 7789SOL    HW235001   0.009   4.527   3.226 -1.7793  1.3038  0.0381
 7790SOL     OW35002   4.103   3.360   3.880 -0.6106  0.1257  0.4023
 7790SOL    HW135003   4.012   3.333   3.893 -0.3536 -1.5354 -1.2238
 7790SOL    HW235004   4.146   3.279   3.907 -0.7570  0.5424  1.9173
 7791SOL     OW35005   1.935   2.273   4.014  0.2615  0.8224  0.4498
 7791SOL    HW135006   2.021   2.232   4.007 -0.7224 -0.9762 -1.1246
 7791SOL    HW235007   1.882   2.193   4.011 -0.7928  1.6991 -3.1208
 7792SOL     OW35008   0.505   4.195   9.288  0.3532 -0.0942 -0.6383
 7792SOL    HW135009   0.485   4.107   9.319  0.1637  0.2417  0.1766
 7792SOL    HW235010   0.419   4.218   9.253 -0.0099 -1.7967 -0.8829
 7793SOL     OW35011   3.700   2.789   7.245 -0.0734  0.0288  0.4439
 7793SOL    HW135012   3.775   2.849   7.247  0.5508 -0.7007 -1.9101
 7793SOL    HW235013   3.739   2.718   7.195  2.3989  1.9628 -0.4128
 7794SOL     OW35014   0.673   0.275   9.200  0.3258 -0.4002 -0.4570
 7794SOL    HW135015   0.750   0.226   9.173 -0.6080 -1.9134 -0.3902
 7794SOL    HW235016   0.647   0.245   9.287 -0.8140 -2.4417 -1.4891
 7795SOL     OW35017   1.710   0.369   3.742  0.0091  0.4108 -0.3532
 7795SOL    HW135018   1.758   0.326   3.671 -0.7521  0.6969 -1.0502
 7795SOL    HW235019   1.778   0.377   3.809 -0.0106  2.0655 -0.5316
 7796SOL     OW35020   0.674   2.541  12.230 -0.4497 -0.5104  0.3702
 7796SOL    HW135021   0.732   2.611  12.258 -0.0404 -0.8023  0.2611
 7796SOL    HW235022   0.612   2.590  12.177  0.9097 -0.5963 -1.3045
 7797SOL     OW35023   3.133   3.215   3.919 -0.4639  0.1715  0.5415
 7797SOL    HW135024   3.056   3.208   3.976 -1.4391 -1.3414 -0.9938
 7797SOL    HW235025   3.154   3.303   3.953  2.0000  0.4366 -1.6487
 7798SOL     OW35026   0.101   2.112   0.949 -0.2799  0.0716 -0.1610
 7798SOL    HW135027   0.012   2.082   0.930 -0.1589 -0.0093 -0.6108
 7798SOL    HW235028   0.121   2.036   1.003  0.4281 -0.1419 -0.7206
 7799SOL     OW35029   2.391   0.065   2.760 -0.0931 -0.4054  0.1623
 7799SOL    HW135030   2.425   0.135   2.705  1.0532 -0.2955  1.0027
 7799SOL    HW235031   2.331   0.110   2.819  0.3174  0.5522 -0.1522
 7800SOL     OW35032   3.331   1.979   6.679 -0.0902 -0.0209  0.0389
 7800SOL    HW135033   3.304   2.069   6.698  0.6132 -0.1634  1.6806
 7800SOL    HW235034   3.266   1.938   6.621 -0.6211 -3.3707  2.9977
 7801SOL     OW35035   4.610   0.398  17.136  0.2978 -0.8836  0.2725
 7801SOL    HW135036   4.625   0.490  17.116 -0.4820 -1.3182 -2.2414
 7801SOL    HW235037   4.640   0.395  17.227  0.0299 -2.6554  0.3128
 7802SOL     OW35038   0.946   2.225   9.014 -0.5128 -0.4269 -0.5848
 7802SOL    HW135039   1.009   2.295   9.033 -0.3043 -0.2583 -1.9347
 7802SOL    HW235040   0.998   2.149   8.988 -2.0186 -0.6799 -2.8361
 7803SOL     OW35041   1.954   4.731   8.436 -0.4024 -0.5103  0.2904
 7803SOL    HW135042   1.892   4.679   8.385  0.7140 -1.5760  0.0068
 7803SOL    HW235043   1.979   4.664   8.501  2.3709 -1.7244 -2.0367
 7804SOL     OW35044   4.648   1.547   9.753 -0.3699  0.0163  0.6220
 7804SOL    HW135045   4.554   1.555   9.740  0.4194  2.1052 -3.7663
 7804SOL    HW235046   4.639   1.497   9.834 -3.3177  1.1927  1.0146
 7805SOL     OW35047   1.017   0.049  16.817  0.0470  0.8869  0.4632
 7805SOL    HW135048   0.945   0.009  16.769  0.1212  3.9676 -2.2059
 7805SOL    HW235049   1.058   0.108  16.754  1.6431  0.1677  0.8156
 7806SOL     OW35050   0.756   1.562   5.395  0.0693 -0.1259  0.3987
 7806SOL    HW135051   0.722   1.651   5.397 -1.3108 -0.6664  0.6927
 7806SOL    HW235052   0.836   1.581   5.443  0.6200 -0.2981 -0.4440
 7807SOL     OW35053   3.014   3.797   6.353 -0.0712  0.3128 -0.0796
 7807SOL    HW135054   2.958   3.815   6.429 -0.2805 -0.7676  0.0215
 7807SOL    HW235055   3.076   3.738   6.395 -0.8053 -1.1668 -1.0758
 7808SOL     OW35056   4.241   4.304   3.933 -0.2244  0.1336  0.4414
 7808SOL    HW135057   4.193   4.377   3.894  1.0786  1.3837  1.2229
 7808SOL    HW235058   4.188   4.230   3.903  0.5328 -0.0820 -0.3671
 7809SOL     OW35059   1.828   1.229   6.362  0.1912  0.4046  0.0085
 7809SOL    HW135060   1.829   1.177   6.443 -2.7040  1.1814  0.5350
 7809SOL    HW235061   1.810   1.318   6.392 -0.9440  0.2812 -0.3259
 7810SOL     OW35062   4.669   3.390   2.089  0.1093  1.1377 -0.0468
 7810SOL    HW135063   4.609   3.318   2.111  2.8771 -1.2301 -0.1671
 7810SOL    HW235064   4.609   3.463   2.079 -0.0461  1.1256  0.8548
 7811SOL     OW35065   1.297   3.194   8.580 -0.0386  0.0533  0.0359
 7811SOL    HW135066   1.353   3.249   8.634  1.7813 -0.1022 -1.6817
 7811SOL    HW235067   1.354   3.166   8.509  0.3506 -0.6563  0.6300
 7812SOL     OW35068   4.503   2.525  15.622 -0.4265 -0.2786 -0.0838
 7812SOL    HW135069   4.541   2.477  15.695 -3.4649  0.2233  1.8470
 7812SOL    HW235070   4.550   2.487  15.549 -0.4884 -0.9359  0.2245
 7813SOL     OW35071   2.166   4.228   6.512 -0.1687 -0.3645 -0.9651
 7813SOL    HW135072   2.202   4.160   6.456  3.1265  1.7859 -1.4267
 7813SOL    HW235073   2.151   4.171   6.587 -1.6229  1.0723 -0.1640
 7814SOL     OW35074   3.791   3.797   5.730  0.6651  0.2120 -0.0076
 7814SOL    HW135075   3.833   3.744   5.798 -0.0124 -2.2601 -1.5187
 7814SOL    HW235076   3.750   3.865   5.784  1.3064  1.0059 -0.5217
 7815SOL     OW35077   0.124   2.350  10.316  0.1998  0.3192 -0.5503
 7815SOL    HW135078   0.063   2.296  10.265 -0.5040 -0.2617  0.8930
 7815SOL    HW235079   0.088   2.438  10.303  0.1542  0.6833  2.0670
 7816SOL     OW35080   0.653   2.590  11.632  0.2389 -0.0916 -0.2404
 7816SOL    HW135081   0.720   2.658  11.625 -1.2739  1.6643  2.3058
 7816SOL    HW235082   0.629   2.570  11.541 -0.5637  0.2359 -0.0992
 7817SOL     OW35083   4.174   0.188   9.521 -0.4818 -0.6427  0.1239
 7817SOL    HW135084   4.124   0.107   9.523 -1.3559 -0.0857  0.9914
 7817SOL    HW235085   4.262   0.154   9.509 -0.1523  1.4742 -3.3609
 7818SOL     OW35086   3.562   1.302  11.534  0.0483 -0.0405  0.5467
 7818SOL    HW135087   3.578   1.323  11.442 -1.8001 -1.0993 -0.0102
 7818SOL    HW235088   3.633   1.238  11.535  1.4955  1.5515  1.6578
 7819SOL     OW35089   2.431   4.582   0.963 -0.3041  0.0385  0.2412
 7819SOL    HW135090   2.418   4.643   1.036  1.5242  1.0553 -0.2923
 7819SOL    HW235091   2.488   4.515   1.000  0.4136  0.8780  0.6584
 7820SOL     OW35092   0.661   3.944   5.719 -0.4884 -0.3887 -0.0753
 7820SOL    HW135093   0.573   3.941   5.679 -0.5588  0.9236 -0.0180
 7820SOL    HW235094   0.635   3.988   5.799 -0.9920  1.8110 -1.4320
 7821SOL     OW35095   4.185   0.373   3.102  0.0280  0.4435  0.0931
 7821SOL    HW135096   4.235   0.449   3.070  1.8000 -0.1161  1.5091
 7821SOL    HW235097   4.241   0.296   3.095  0.2751  0.6493 -0.2196
 7822SOL     OW35098   4.575   2.036   9.425 -0.2948 -0.3550 -0.0702
 7822SOL    HW135099   4.496   1.990   9.397 -0.7583  0.9351 -0.9335
 7822SOL    HW235100   4.573   2.109   9.362  0.7189 -0.4094 -0.1674
 7823SOL     OW35101   2.407   2.101   3.837 -0.2819  0.3713  0.1886
 7823SOL    HW135102   2.394   2.068   3.749 -0.4940 -0.5679  0.5752
 7823SOL    HW235103   2.497   2.131   3.831  0.3407 -1.1053  2.1621
 7824SOL     OW35104   3.893   4.239   5.900 -0.2719 -0.0280  0.3802
 7824SOL    HW135105   3.854   4.280   5.977  0.9943  1.3925  0.2472
 7824SOL    HW235106   3.974   4.201   5.935 -0.4020 -0.1338  0.5672
 7825SOL     OW35107   0.514   3.767  11.533 -0.4442 -0.9791 -1.3834
 7825SOL    HW135108   0.472   3.686  11.560 -1.6537  0.3424  0.7035
 7825SOL    HW235109   0.580   3.737  11.470  2.0287 -1.1260  1.2674
 7826SOL     OW35110   3.439   3.052   9.034  0.3854  0.6799 -0.0732
 7826SOL    HW135111   3.496   2.995   9.085 -1.9040 -1.3835  0.1953
 7826SOL    HW235112   3.450   3.022   8.944 -1.4528  0.7702 -0.3225
 7827SOL     OW35113   0.618   4.157   3.923  0.5117 -0.1906 -0.5500
 7827SOL    HW135114   0.626   4.198   3.837 -1.5989  1.0922 -0.1381
 7827SOL    HW235115   0.603   4.069   3.890 -0.9900  0.3993 -1.4290
 7828SOL     OW35116   1.106   1.980  13.093  0.3840 -0.6705 -0.5520
 7828SOL    HW135117   1.167   2.028  13.036 -0.6578  0.2342 -0.8945
 7828SOL    HW235118   1.023   2.025  13.083  0.6357  0.0398  0.5850
 7829SOL     OW35119   3.613   2.532  15.907  0.2834 -0.7650 -0.3380
 7829SOL    HW135120   3.658   2.478  15.842  0.2219  0.6456 -1.5349
 7829SOL    HW235121   3.678   2.529  15.978 -1.3563 -0.7032  1.1761
 7830SOL     OW35122   1.647   2.038   5.612  0.0846  0.0853 -0.3629
 7830SOL    HW135123   1.599   2.097   5.553 -1.4460  0.1986  0.9864
 7830SOL    HW235124   1.611   2.069   5.695 -0.7866 -0.1895 -0.6314
 7831SOL     OW35125   3.517   2.094  14.278  0.1574 -0.6154  0.2515
 7831SOL    HW135126   3.539   2.187  14.282 -0.9654 -0.2876 -1.2242
 7831SOL    HW235127   3.531   2.075  14.185 -0.2056 -1.2997  0.3395
 7832SOL     OW35128   2.099   3.213   6.357 -0.3622  0.5748  0.8629
 7832SOL    HW135129   2.120   3.307   6.353  0.1365  0.4916  1.5084
 7832SOL    HW235130   2.097   3.204   6.452 -2.0282  0.9267  0.8705
 7833SOL     OW35131   3.100   1.696   4.875  0.3115  0.3553  0.0820
 7833SOL    HW135132   3.154   1.750   4.817 -1.8013  1.2194 -1.0650
 7833SOL    HW235133   3.143   1.720   4.957  0.6029 -1.7154  0.5198
 7834SOL     OW35134   1.659   1.139  15.079 -0.2299 -0.2881 -0.1005
 7834SOL    HW135135   1.697   1.200  15.016  0.0837 -1.5237 -1.1152
 7834SOL    HW235136   1.734   1.107  15.130  0.3775 -1.2000 -1.5474
 7835SOL     OW35137   4.074   2.775   4.341  0.4118 -0.7644 -0.2853
 7835SOL    HW135138   4.008   2.817   4.285  1.2934 -0.5651 -1.1671
 7835SOL    HW235139   4.011   2.709   4.370  0.4521  0.5537  2.8075
 7836SOL     OW35140   3.893   0.369   5.393  0.2622  0.3700  1.0534
 7836SOL    HW135141   3.958   0.432   5.423  0.5813  1.2658 -1.4653
 7836SOL    HW235142   3.870   0.404   5.306  1.4110 -1.2997  0.0777
 7837SOL     OW35143   2.884   0.982   4.996 -0.1680  0.2909 -0.0910
 7837SOL    HW135144   2.948   1.052   5.006 -0.8256  0.9831 -0.6777
 7837SOL    HW235145   2.808   1.037   5.017  0.4871  1.7052 -1.4972
 7838SOL     OW35146   2.503   2.008   4.351  0.1141 -0.5699  0.1130
 7838SOL    HW135147   2.425   2.047   4.311 -0.3898 -0.2397  1.4093
 7838SOL    HW235148   2.558   1.995   4.274 -3.7763 -0.3152 -2.7013
 7839SOL     OW35149   4.530   1.462   4.276  0.1112 -0.2492 -0.3898
 7839SOL    HW135150   4.522   1.537   4.217 -0.4302 -1.4904 -1.8852
 7839SOL    HW235151   4.598   1.407   4.237  1.2355  1.1077 -0.3445
 7840SOL     OW35152   3.641   4.641   9.655  0.3967  0.1699  0.1791
 7840SOL    HW135153   3.609   4.594   9.732  1.8108  1.0805  1.3361
 7840SOL    HW235154   3.576   4.709   9.635 -0.5384 -1.3842 -1.9745
 7841SOL     OW35155   2.780   1.861   3.202  0.9957  0.7866 -0.5622
 7841SOL    HW135156   2.833   1.941   3.210  2.7160 -0.5003  1.0253
 7841SOL    HW235157   2.698   1.893   3.239 -0.3211  0.6163 -3.3462
 7842SOL     OW35158   4.536   3.438   1.352  0.3421 -0.0660 -0.6196
 7842SOL    HW135159   4.491   3.410   1.431 -0.0079  0.0274 -0.7875
 7842SOL    HW235160   4.584   3.356   1.341 -0.6597 -0.7503  0.2009
 7843SOL     OW35161   0.838   3.609   0.433 -0.2273 -0.1566  0.2986
 7843SOL    HW135162   0.862   3.517   0.432  1.8011  0.3761 -0.4272
 7843SOL    HW235163   0.793   3.609   0.517  1.5841 -0.8384  1.2729
 7844SOL     OW35164   1.954   3.379   5.399  0.0950  0.3719 -0.1925
 7844SOL    HW135165   1.901   3.450   5.436  0.4151 -0.6137  2.1386
 7844SOL    HW235166   2.019   3.373   5.469 -1.7861 -2.0886  1.3320
 7845SOL     OW35167   0.020   2.454   6.402  0.2191  0.3888  0.1642
 7845SOL    HW135168   0.105   2.483   6.436  0.9075 -0.5238 -0.7831
 7845SOL    HW235169   0.049   2.393   6.334 -1.0094 -0.1924  0.1501
 7846SOL     OW35170   3.984   4.154   6.557  0.2996 -0.2722  0.0603
 7846SOL    HW135171   3.985   4.203   6.475  1.4629  1.1243  0.9156
 7846SOL    HW235172   4.011   4.070   6.520  1.2763  0.7509 -1.5468
 7847SOL     OW35173   3.497   4.255   8.186 -0.3077  0.3807  0.3660
 7847SOL    HW135174   3.536   4.199   8.254  1.4727  0.9805 -0.1853
 7847SOL    HW235175   3.409   4.216   8.182  0.4479 -1.3518  0.5942
 7848SOL     OW35176   1.889   0.190   1.497 -0.5009 -0.5571  0.1018
 7848SOL    HW135177   1.933   0.275   1.495 -1.0420 -0.2553  0.9435
 7848SOL    HW235178   1.849   0.197   1.410 -0.7661 -1.0283  0.1878
 7849SOL     OW35179   3.025   1.459  10.281  0.1427  0.0622  0.7050
 7849SOL    HW135180   3.012   1.498  10.195 -1.0393 -3.7201 -0.8420
 7849SOL    HW235181   3.085   1.513  10.333 -1.0824 -0.9340  3.1352
 7850SOL     OW35182   3.201   1.746   4.298  0.2649  0.4041 -0.3487
 7850SOL    HW135183   3.189   1.678   4.232  0.2769  1.7519 -1.7667
 7850SOL    HW235184   3.296   1.747   4.306  0.3524 -0.9419 -1.3609
 7851SOL     OW35185   2.134   2.129   9.126  0.2516 -0.4329  0.6693
 7851SOL    HW135186   2.145   2.179   9.208 -0.7393  2.6040 -1.0327
 7851SOL    HW235187   2.039   2.126   9.114  0.1842  2.4636  0.4565
 7852SOL     OW35188   0.545   1.628   2.873  0.1168  0.3635  0.3247
 7852SOL    HW135189   0.492   1.634   2.793  0.6527  0.5274 -0.0211
 7852SOL    HW235190   0.578   1.543   2.845 -0.1393  0.8822 -1.5491
 7853SOL     OW35191   0.791   3.102   2.855  0.5226 -0.5938 -0.0774
 7853SOL    HW135192   0.752   3.150   2.928  1.4867  0.0283  0.0379
 7853SOL    HW235193   0.766   3.011   2.865 -0.9291 -0.1962 -0.0553
 7854SOL     OW35194   2.454   1.845   5.341  0.5176  0.4348  0.2991
 7854SOL    HW135195   2.402   1.765   5.339 -0.7415  1.2483  0.3649
 7854SOL    HW235196   2.423   1.880   5.258  1.6330  0.4382 -0.1140
 7855SOL     OW35197   4.338   2.554   6.731 -0.0084 -0.1207 -0.0169
 7855SOL    HW135198   4.388   2.548   6.650  0.3719 -2.4011  0.3797
 7855SOL    HW235199   4.348   2.648   6.746  1.5539 -0.5570  1.6793
 7856SOL     OW35200   2.146   3.444   2.030  0.2067 -0.1107 -0.2487
 7856SOL    HW135201   2.127   3.538   2.036  0.1833  0.0280 -2.3367
 7856SOL    HW235202   2.236   3.435   2.061  0.9068  0.8952 -1.9686
 7857SOL     OW35203   2.167   3.543   5.834  0.1137  0.3431 -0.1733
 7857SOL    HW135204   2.220   3.552   5.913 -1.3953 -1.5202  1.0532
 7857SOL    HW235205   2.146   3.631   5.805  0.7394  0.4760 -0.2194
 7858SOL     OW35206   1.488   1.079   3.251  0.2986  0.0344 -0.8489
 7858SOL    HW135207   1.573   1.089   3.208 -0.3071 -1.4840 -2.3688
 7858SOL    HW235208   1.509   1.007   3.310 -1.6090 -1.1551 -1.6437
 7859SOL     OW35209   3.226   4.014   2.781 -0.0176 -0.0405  0.1839
 7859SOL    HW135210   3.209   4.013   2.687 -0.0068 -1.3899  0.1940
 7859SOL    HW235211   3.321   4.003   2.786 -0.0506 -0.3134  0.2359
 7860SOL     OW35212   0.834   0.587   3.252 -0.3183  0.7847 -0.1301
 7860SOL    HW135213   0.930   0.588   3.246 -0.2466 -1.2058  0.6207
 7860SOL    HW235214   0.809   0.586   3.160 -0.6646 -0.7894 -0.0191
 7861SOL     OW35215   0.280   2.597   2.385 -0.2509  0.3000  0.2191
 7861SOL    HW135216   0.227   2.662   2.431  0.3097  0.5444  0.5179
 7861SOL    HW235217   0.252   2.520   2.435 -0.1409 -1.0994 -1.8604
 7862SOL     OW35218   2.297   3.733   6.384 -0.4136 -0.4015 -0.4272
 7862SOL    HW135219   2.212   3.695   6.404 -0.1776  0.9409  3.0636
 7862SOL    HW235220   2.320   3.688   6.302  0.8473  0.0354 -0.3103
 7863SOL     OW35221   2.591   2.991   5.552  0.1411 -0.3692  0.1540
 7863SOL    HW135222   2.583   2.950   5.465  1.4798  0.6630 -0.4432
 7863SOL    HW235223   2.683   2.974   5.570  0.3343  2.6724  1.9233
 7864SOL     OW35224   2.507   4.573   5.690 -0.1224 -0.2621 -0.6974
 7864SOL    HW135225   2.446   4.500   5.693 -1.0295  0.5000 -0.7718
 7864SOL    HW235226   2.462   4.636   5.633  1.1397  2.0585  0.8560
 7865SOL     OW35227   3.009   1.307   1.589  0.2885 -0.1644 -0.5796
 7865SOL    HW135228   2.955   1.335   1.515  0.4908  2.3793  0.2093
 7865SOL    HW235229   3.011   1.213   1.577 -0.5577 -0.2369 -0.2092
 7866SOL     OW35230   2.782   4.547  15.809  0.2401  0.1100  0.1271
 7866SOL    HW135231   2.800   4.640  15.821 -1.0926  0.4599 -0.5499
 7866SOL    HW235232   2.701   4.531  15.857 -0.9963 -0.1621 -2.0426
 7867SOL     OW35233   1.337   3.753   5.512 -0.9298 -0.5115 -0.4186
 7867SOL    HW135234   1.405   3.818   5.492 -0.7784 -1.0934 -1.7598
 7867SOL    HW235235   1.281   3.801   5.573  0.1310  2.4407 -1.7465
 7868SOL     OW35236   2.581   4.050   8.769  0.5389 -0.9031 -0.9692
 7868SOL    HW135237   2.496   4.077   8.734  1.4296  0.3899 -2.1552
 7868SOL    HW235238   2.548   3.991   8.836 -0.2241  2.7585  1.9185
 7869SOL     OW35239   3.577   3.697   8.123 -0.3165  0.7031 -0.1167
 7869SOL    HW135240   3.502   3.649   8.087 -0.4223  2.5696 -2.3445
 7869SOL    HW235241   3.579   3.673   8.216 -0.3447 -1.7837 -0.7622
 7870SOL     OW35242   1.641   2.862   2.267  0.5108 -0.1693 -0.0674
 7870SOL    HW135243   1.637   2.866   2.171 -1.5173  0.9135  0.0701
 7870SOL    HW235244   1.692   2.781   2.274  0.9165 -0.2260 -3.6107
 7871SOL     OW35245   3.300   1.567   3.387  0.0038 -0.0358  0.0285
 7871SOL    HW135246   3.256   1.637   3.338  1.1489 -0.4674 -1.6190
 7871SOL    HW235247   3.228   1.516   3.424  0.9942 -0.3696  1.5093
 7872SOL     OW35248   3.630   1.829   3.788 -0.4238 -0.3027  0.4669
 7872SOL    HW135249   3.657   1.737   3.788  2.2888  0.5149 -3.1306
 7872SOL    HW235250   3.585   1.826   3.704  0.2968 -0.1785  0.0826
 7873SOL     OW35251   3.049   2.337   7.030 -0.4344 -0.1948 -0.1655
 7873SOL    HW135252   2.998   2.265   7.067  0.1154 -0.8072 -0.5821
 7873SOL    HW235253   3.124   2.355   7.088  0.7311 -2.3358 -0.9861
 7874SOL     OW35254   1.671   3.816   4.106  0.1940  0.0650  0.5371
 7874SOL    HW135255   1.700   3.795   4.018 -1.3508  1.1593 -0.2426
 7874SOL    HW235256   1.603   3.750   4.117 -0.6959  0.4797 -2.5891
 7875SOL     OW35257   4.611   1.325   1.934 -0.3750 -0.1344 -0.3836
 7875SOL    HW135258   4.593   1.231   1.921  0.3927 -0.4344  0.7801
 7875SOL    HW235259   4.605   1.318   2.029 -0.6276  0.9183 -0.3307
 7876SOL     OW35260   1.039   2.087  14.725 -0.6045  0.9259 -0.3793
 7876SOL    HW135261   1.058   2.068  14.817 -1.9396  0.8679 -0.1073
 7876SOL    HW235262   1.064   2.007  14.679 -1.2679 -0.5907  1.8612
 7877SOL     OW35263   0.085   3.767   9.400 -0.4266  0.2416 -0.5420
 7877SOL    HW135264   0.003   3.758   9.449  0.1056 -0.3376  0.2478
 7877SOL    HW235265   0.075   3.847   9.349  1.9852  0.8653 -0.0545
 7878SOL     OW35266   2.641   2.759   4.337 -0.0306  0.2043  0.2172
 7878SOL    HW135267   2.554   2.793   4.361 -0.8386 -1.6224 -0.0874
 7878SOL    HW235268   2.646   2.680   4.391 -0.6513 -0.0351 -0.0779
 7879SOL     OW35269   2.146   4.367   7.514 -0.1940  0.1841  0.3993
 7879SOL    HW135270   2.142   4.305   7.587 -0.9402  1.6539  1.6066
 7879SOL    HW235271   2.053   4.375   7.492 -0.7371  2.0214  3.3217
 7880SOL     OW35272   0.161   2.645   8.185 -0.2821  0.0682  0.0834
 7880SOL    HW135273   0.140   2.570   8.129 -0.0291 -0.9907  1.4317
 7880SOL    HW235274   0.118   2.711   8.130  0.6181  0.9616  0.4655
 7881SOL     OW35275   0.998   0.467   1.137  0.2242 -0.5909  0.6920
 7881SOL    HW135276   0.941   0.416   1.194 -1.8521  0.7259 -0.1610
 7881SOL    HW235277   1.050   0.399   1.094  1.6263  0.0860  1.3142
 7882SOL     OW35278   0.847   4.270   7.901  0.0997  0.0423  0.5508
 7882SOL    HW135279   0.877   4.233   7.818 -0.5034 -0.1606  0.4245
 7882SOL    HW235280   0.816   4.353   7.865  0.9532 -1.1637 -2.9277
 7883SOL     OW35281   3.944   3.150   9.641 -0.3873 -0.4689 -0.1335
 7883SOL    HW135282   3.993   3.200   9.707  1.3310 -3.5817  0.9697
 7883SOL    HW235283   3.866   3.201   9.621  0.7623  2.1390  2.0904
 7884SOL     OW35284   2.171   2.558  13.813  0.2241 -0.1935  0.0478
 7884SOL    HW135285   2.134   2.557  13.725 -0.8176  1.7774  0.4683
 7884SOL    HW235286   2.157   2.647  13.844  3.0520 -0.4919  2.1467
 7885SOL     OW35287   1.228   3.404   4.162  0.3183  0.6406 -0.1314
 7885SOL    HW135288   1.316   3.429   4.191  0.4981 -1.2428  0.9870
 7885SOL    HW235289   1.169   3.474   4.188 -0.6519  0.3861 -1.7042
 7886SOL     OW35290   3.778   3.235   7.813 -0.6165 -0.2720 -0.1709
 7886SOL    HW135291   3.788   3.176   7.887 -0.8823 -0.4813 -0.2997
 7886SOL    HW235292   3.684   3.235   7.794 -0.8655  1.0862  1.0870
 7887SOL     OW35293   2.229   0.207   5.140 -0.3315  0.1296  0.2852
 7887SOL    HW135294   2.311   0.256   5.133  0.1734 -0.4404  2.1707
 7887SOL    HW235295   2.169   0.272   5.104  0.6272  0.9697  0.2020
 7888SOL     OW35296   1.911   4.018   0.339 -0.4042 -0.3914 -0.1347
 7888SOL    HW135297   1.915   3.922   0.340 -0.6107 -0.3919  0.6819
 7888SOL    HW235298   1.863   4.033   0.258 -0.5664 -1.4115 -0.2265
 7889SOL     OW35299   2.795   4.028   4.533 -0.1994  0.1589  0.4066
 7889SOL    HW135300   2.777   3.973   4.456 -1.8256  0.5070  0.5393
 7889SOL    HW235301   2.747   3.988   4.606  2.2795  0.9397  2.4394
 7890SOL     OW35302   0.839   1.647   7.890 -0.0047  0.1713  0.1273
 7890SOL    HW135303   0.818   1.555   7.902 -0.0894  0.4267  1.9007
 7890SOL    HW235304   0.917   1.644   7.836  0.1202 -1.4358  0.4081
 7891SOL     OW35305   4.670   0.999   7.400 -0.1174  0.1866 -0.4200
 7891SOL    HW135306   0.023   1.015   7.412  0.0695  0.3776 -2.1421
 7891SOL    HW235307   4.635   1.015   7.488 -2.5847  0.7070 -1.4777
 7892SOL     OW35308   1.834   2.455   6.395  0.0344 -0.2791  0.3313
 7892SOL    HW135309   1.791   2.520   6.451  0.6213 -1.7299  2.4520
 7892SOL    HW235310   1.925   2.481   6.381  0.4779 -0.5262  2.7527
 7893SOL     OW35311   4.716   0.479   4.843  0.0463  0.1420 -0.0341
 7893SOL    HW135312   4.662   0.408   4.880  0.3338  0.7014  1.4857
 7893SOL    HW235313   4.712   0.549   4.908 -2.0594 -0.5987  0.6495
 7894SOL     OW35314   2.718   0.368   0.494  0.4114 -0.6436 -0.7232
 7894SOL    HW135315   2.694   0.432   0.561 -2.1253  0.6167 -2.8485
 7894SOL    HW235316   2.770   0.307   0.545  0.3935 -0.4066 -0.4208
 7895SOL     OW35317   4.477   3.628   6.097  0.2925 -0.1703 -0.2572
 7895SOL    HW135318   4.511   3.665   6.016  0.9565 -0.3931 -0.0806
 7895SOL    HW235319   4.452   3.539   6.070  1.6570  0.4034 -3.4063
 7896SOL     OW35320   1.351   3.049   9.177 -0.0078 -0.3187 -0.1966
 7896SOL    HW135321   1.416   3.004   9.231 -0.5966 -0.0739  0.7202
 7896SOL    HW235322   1.372   3.138   9.204 -0.9576  0.2181 -1.2170
 7897SOL     OW35323   2.447   2.378   9.704 -0.0243 -0.4280  0.2156
 7897SOL    HW135324   2.529   2.331   9.692  1.0425  1.3107  0.7911
 7897SOL    HW235325   2.396   2.335   9.635  1.2798 -0.9763 -0.4026
 7898SOL     OW35326   0.803   3.247   5.771  0.3570 -0.7315  0.0345
 7898SOL    HW135327   0.822   3.305   5.844 -1.4468  1.9928 -1.6475
 7898SOL    HW235328   0.836   3.298   5.697 -1.0529  1.6842  1.0826
 7899SOL     OW35329   4.709   0.974  15.008  0.3097  0.0753  0.0883
 7899SOL    HW135330   0.052   0.991  15.050  0.0553  1.5622 -0.0044
 7899SOL    HW235331   4.695   0.885  15.041  1.5645 -1.4668 -3.5372
 7900SOL     OW35332   2.679   4.651   6.079 -0.0398 -0.2597  0.0740
 7900SOL    HW135333   2.611   4.661   6.013 -2.2210  0.8593  2.4945
 7900SOL    HW235334   2.630   4.680   6.156  0.5607 -0.9071  0.7132
 7901SOL     OW35335   0.658   4.727   1.341 -0.1517  0.4444  0.2469
 7901SOL    HW135336   0.737   4.716   1.288 -0.3772  0.0703 -0.0074
 7901SOL    HW235337   0.637   4.634   1.346  0.1304  0.4004  0.6066
 7902SOL     OW35338   3.381   1.975   2.423  0.1849 -0.0441 -0.0703
 7902SOL    HW135339   3.423   1.918   2.488 -0.3940 -0.6618 -0.2390
 7902SOL    HW235340   3.320   1.910   2.389  0.9735 -1.4913  1.3152
 7903SOL     OW35341   0.839   3.666   0.168 -0.4089 -0.1586  0.4236
 7903SOL    HW135342   0.847   3.761   0.171  2.4901 -0.3359 -2.2063
 7903SOL    HW235343   0.859   3.639   0.258 -1.1642  3.6651  1.7585
 7904SOL     OW35344   1.216   3.634   9.918  0.0393 -0.3128 -0.1396
 7904SOL    HW135345   1.282   3.684   9.966 -1.1474 -0.3205  1.4852
 7904SOL    HW235346   1.172   3.586   9.988  0.9287 -0.1509  0.5251
 7905SOL     OW35347   0.881   0.716   9.734 -0.2391  0.2574  0.2492
 7905SOL    HW135348   0.890   0.660   9.810 -0.7861  1.6328  1.3240
 7905SOL    HW235349   0.951   0.782   9.740 -0.3706  0.4340 -0.0963
 7906SOL     OW35350   3.789   2.790   0.054  0.1810  0.1466  0.2079
 7906SOL    HW135351   3.812   2.723  17.751  1.4227  1.4912 -0.7465
 7906SOL    HW235352   3.709   2.764   0.100 -0.2801 -0.2000 -0.8109
 7907SOL     OW35353   2.239   2.186  12.056 -0.0869  0.1263  0.3467
 7907SOL    HW135354   2.286   2.187  11.973  0.7535  1.5410  0.8413
 7907SOL    HW235355   2.231   2.095  12.084 -0.9001  0.8302  2.4602
 7908SOL     OW35356   1.831   3.066  17.609  0.0387 -0.2055 -0.0920
 7908SOL    HW135357   1.850   3.078  17.516  1.8145  1.4738  0.4874
 7908SOL    HW235358   1.871   3.147  17.642 -1.9717  0.2852  1.1414
 7909SOL     OW35359   2.956   4.181  14.784 -0.2896  0.3652 -0.5922
 7909SOL    HW135360   2.880   4.173  14.843  1.0443 -3.2324  0.6089
 7909SOL    HW235361   2.911   4.161  14.702 -0.0442 -1.6499 -0.2439
 7910SOL     OW35362   1.675   2.101   7.835 -0.4871 -0.2379  0.0817
 7910SOL    HW135363   1.737   2.140   7.897  0.2247  0.6891 -1.2145
 7910SOL    HW235364   1.726   2.067   7.761  1.0337 -1.3069  1.6049
 7911SOL     OW35365   2.887   1.028   5.817 -0.2595  0.6898 -0.5280
 7911SOL    HW135366   2.827   1.082   5.868 -1.2632 -0.6966 -0.2122
 7911SOL    HW235367   2.933   0.981   5.887 -0.8015  0.5913 -0.2352
 7912SOL     OW35368   2.032   3.219   1.922  0.0607  0.2903  0.3008
 7912SOL    HW135369   2.080   3.284   1.973  1.0730 -0.6070  0.4751
 7912SOL    HW235370   1.943   3.254   1.934  0.1689  1.0227 -1.0563
 7913SOL     OW35371   3.797   0.073   9.344 -0.3463 -0.3185 -0.5599
 7913SOL    HW135372   3.824   0.156   9.382 -1.9513  0.8234 -1.8830
 7913SOL    HW235373   3.840   0.081   9.258  1.9409  1.3368  0.7320
 7914SOL     OW35374   1.154   1.654   2.951  0.4069 -0.7959  0.4024
 7914SOL    HW135375   1.152   1.559   2.941  3.4360 -0.7837 -0.3152
 7914SOL    HW235376   1.243   1.658   2.985 -0.6190  0.3055  2.9446
 7915SOL     OW35377   4.022   3.655   5.606  0.2403 -0.6386 -0.1685
 7915SOL    HW135378   3.936   3.681   5.639 -0.2152 -1.8738 -0.3793
 7915SOL    HW235379   4.077   3.661   5.684  0.4554 -1.3965 -0.2663
 7916SOL     OW35380   2.558   0.323   2.900  0.6308  0.0221  0.4584
 7916SOL    HW135381   2.491   0.283   2.955 -0.7810  1.7640  0.0000
 7916SOL    HW235382   2.596   0.384   2.964  0.4589 -1.7676  2.2711
 7917SOL     OW35383   0.588   0.683   6.359 -0.0141  0.2461  0.2991
 7917SOL    HW135384   0.555   0.664   6.447  0.5290 -0.0003  0.4463
 7917SOL    HW235385   0.516   0.658   6.301  1.8326 -2.1482 -0.9890
 7918SOL     OW35386   3.537   1.228  17.526  0.4621  0.2496 -0.0927
 7918SOL    HW135387   3.466   1.202  17.467 -0.7930  0.8498  1.1380
 7918SOL    HW235388   3.577   1.144  17.546 -1.1198 -0.9540 -1.9974
 7919SOL     OW35389   4.359   2.397  16.485 -0.4769 -0.4525  0.0519
 7919SOL    HW135390   4.369   2.425  16.394  1.7616 -0.1410  0.3992
 7919SOL    HW235391   4.363   2.302  16.488 -1.2997 -0.5154 -0.8846
 7920SOL     OW35392   2.089   0.016   4.948  0.2947 -0.2956  0.4788
 7920SOL    HW135393   2.105   0.083   5.015  0.0996  0.6295 -0.3899
 7920SOL    HW235394   2.171   0.026   4.899  0.4646  0.9355  0.9950
 7921SOL     OW35395   0.486   1.991   4.911  0.2206 -0.8956  0.2763
 7921SOL    HW135396   0.554   2.058   4.903 -0.4089 -0.7017 -3.3437
 7921SOL    HW235397   0.412   2.045   4.940  1.5533  1.0406  0.0790
 7922SOL     OW35398   2.547   2.238   3.324  0.0619 -0.2880 -0.0269
 7922SOL    HW135399   2.541   2.145   3.305  2.8869 -0.4567 -0.1197
 7922SOL    HW235400   2.516   2.281   3.245 -1.4943 -0.3867  0.5338
 7923SOL     OW35401   3.755   1.564   8.991 -0.5048  0.1029 -0.3089
 7923SOL    HW135402   3.708   1.507   8.930 -2.4498 -0.2187  1.4801
 7923SOL    HW235403   3.838   1.581   8.947  0.0888  0.3545  0.9049
 7924SOL     OW35404   2.709   4.037   6.793  0.5759  0.1209  0.2273
 7924SOL    HW135405   2.685   3.948   6.820 -0.3979  0.5845  0.9037
 7924SOL    HW235406   2.625   4.072   6.763  1.3604  0.2725 -1.7798
 7925SOL     OW35407   1.986   4.679  10.203  0.1065  0.3819  0.5369
 7925SOL    HW135408   2.035   4.733  10.142  1.0917  0.0936  1.0696
 7925SOL    HW235409   2.032   4.702  10.284  0.4121 -0.5523  0.6373
 7926SOL     OW35410   1.986   2.192   7.828 -0.2348 -0.0247 -0.2892
 7926SOL    HW135411   1.952   2.263   7.882  0.9297  1.7286 -1.8520
 7926SOL    HW235412   1.987   2.225   7.738 -2.0674 -0.6696 -0.5439
 7927SOL     OW35413   3.996   4.684  17.006 -0.1081  0.3799  0.1963
 7927SOL    HW135414   4.017   0.013  17.068 -1.1133  0.4412  0.4604
 7927SOL    HW235415   4.078   4.686  16.956 -0.1846  0.9274  0.0880
 7928SOL     OW35416   3.299   3.109  14.902  0.8662 -0.1073  0.1698
 7928SOL    HW135417   3.297   3.025  14.856  3.1611  0.2275 -0.5287
 7928SOL    HW235418   3.233   3.094  14.970  0.6507 -1.3707 -0.3126
 7929SOL     OW35419   3.058   3.351   7.162  0.2001  0.4905  0.2703
 7929SOL    HW135420   3.086   3.263   7.139  0.6887  0.7068  0.0427
 7929SOL    HW235421   3.105   3.354   7.245  0.2821  1.5637  0.1807
 7930SOL     OW35422   3.127   4.336   7.743  0.3855  0.1769  0.8596
 7930SOL    HW135423   3.073   4.276   7.691  2.2869 -3.4048  3.0495
 7930SOL    HW235424   3.089   4.329   7.831 -0.0482  1.1041  0.7495
 7931SOL     OW35425   0.404   0.376   3.761  0.1312  0.6387  0.3655
 7931SOL    HW135426   0.480   0.384   3.818  0.2366  0.7116  0.2168
 7931SOL    HW235427   0.411   0.458   3.710  1.3883  1.4521  1.8623
 7932SOL     OW35428   3.970   2.531   6.831  0.0575 -0.1297 -0.4638
 7932SOL    HW135429   3.914   2.509   6.756 -1.5285  2.2272  0.0296
 7932SOL    HW235430   4.044   2.471   6.826 -2.0649 -2.8490  0.6189
 7933SOL     OW35431   3.121   1.792  16.894  0.1666  0.3831 -0.3200
 7933SOL    HW135432   3.071   1.867  16.927 -0.4734  0.0752 -0.5973
 7933SOL    HW235433   3.103   1.733  16.967  0.2362  0.6440 -0.0893
 7934SOL     OW35434   3.746   4.511  15.978 -0.2008  0.2253  0.6520
 7934SOL    HW135435   3.679   4.534  16.042  0.0410  0.9555  0.6321
 7934SOL    HW235436   3.695   4.522  15.898 -0.5301  0.3189  0.8784
 7935SOL     OW35437   3.586   2.526   2.794 -0.0964 -0.2574 -0.0845
 7935SOL    HW135438   3.507   2.473   2.803 -0.0548 -0.1400  0.8936
 7935SOL    HW235439   3.578   2.541   2.699  0.5151  0.3709 -0.0326
 7936SOL     OW35440   2.442   1.100   6.709  0.5036  0.0585  0.2712
 7936SOL    HW135441   2.378   1.101   6.637 -2.5658 -0.8320  2.9775
 7936SOL    HW235442   2.396   1.086   6.792 -2.2006 -2.6726 -1.7220
 7937SOL     OW35443   2.836   0.889   4.753  0.4071  0.3827  0.0450
 7937SOL    HW135444   2.864   0.909   4.842  2.9786  0.0871 -0.7037
 7937SOL    HW235445   2.782   0.810   4.749 -0.6765  1.0875  0.8582
 7938SOL     OW35446   1.790   4.409   6.483 -0.0220  0.0853  0.0253
 7938SOL    HW135447   1.714   4.397   6.426 -0.8462 -1.9415  1.5294
 7938SOL    HW235448   1.837   4.327   6.468  1.2026  1.0853 -1.5627
 7939SOL     OW35449   4.207   1.216   2.658 -0.4944 -0.0226 -0.4965
 7939SOL    HW135450   4.193   1.182   2.747 -0.6316  0.3535 -0.3758
 7939SOL    HW235451   4.176   1.306   2.652  1.7527  0.6669 -1.4756
 7940SOL     OW35452   4.494   1.662   9.030  0.1843 -0.6980 -0.4611
 7940SOL    HW135453   4.477   1.568   9.026 -1.9096 -0.3683  0.6639
 7940SOL    HW235454   4.403   1.693   9.026  0.1167 -0.6437  1.8111
 7941SOL     OW35455   2.093   2.872   8.883  0.0804 -0.0400 -0.2597
 7941SOL    HW135456   2.155   2.928   8.837  0.0712 -0.1718 -0.4309
 7941SOL    HW235457   2.145   2.801   8.919  1.2407  1.2775  0.6612
 7942SOL     OW35458   4.521   2.026  11.320 -0.3966 -0.5423 -0.1134
 7942SOL    HW135459   4.586   2.082  11.277  0.9476 -1.5826  0.5927
 7942SOL    HW235460   4.557   1.942  11.292 -0.1024 -0.2642 -0.5616
 7943SOL     OW35461   4.027   3.676  12.560  0.4891  0.0216 -0.1214
 7943SOL    HW135462   3.986   3.605  12.610  0.0123  0.5908  0.2916
 7943SOL    HW235463   4.086   3.692  12.634 -0.0350 -4.3613  1.2583
 7944SOL     OW35464   2.116   2.404  15.197  0.1313 -0.7446 -0.1991
 7944SOL    HW135465   2.041   2.361  15.238 -0.1934  0.1990  0.1887
 7944SOL    HW235466   2.179   2.333  15.182  0.1654 -0.7392 -0.0772
 7945SOL     OW35467   0.663   1.912   1.708 -0.3368  0.0771 -0.0345
 7945SOL    HW135468   0.685   1.819   1.708 -1.6681 -0.2368 -0.8882
 7945SOL    HW235469   0.691   1.935   1.620 -2.1308 -1.5650 -1.0375
 7946SOL     OW35470   1.104   2.289  12.059  0.9306  0.5869 -0.4922
 7946SOL    HW135471   1.031   2.314  12.116  0.9307 -0.4413 -0.0352
 7946SOL    HW235472   1.171   2.336  12.108  1.5792  0.0785 -0.8857
 7947SOL     OW35473   1.933   1.054  14.566  0.2448  0.7453  0.1158
 7947SOL    HW135474   1.902   1.036  14.655  0.2861 -0.1846 -0.0573
 7947SOL    HW235475   1.853   1.040  14.515 -0.7429 -2.3750  2.4954
 7948SOL     OW35476   1.212   2.307   7.744 -0.4687 -0.2096 -0.1388
 7948SOL    HW135477   1.227   2.213   7.754  3.4606  0.5509  1.3279
 7948SOL    HW235478   1.147   2.311   7.675  0.5033 -2.5723 -1.2032
 7949SOL     OW35479   1.476   0.146  13.872  0.2095 -0.0287  0.1455
 7949SOL    HW135480   1.421   0.090  13.926 -1.0955 -1.4167 -2.5910
 7949SOL    HW235481   1.466   0.229  13.918  3.3612 -0.2170  1.1190
 7950SOL     OW35482   4.151   1.870   5.036 -0.1184  0.1627 -0.5605
 7950SOL    HW135483   4.208   1.863   5.113 -0.5917  2.4324 -0.0176
 7950SOL    HW235484   4.071   1.844   5.080  0.2914  0.4042  0.3331
 7951SOL     OW35485   1.889   4.019   7.569  0.5127  0.0198 -0.1984
 7951SOL    HW135486   1.833   3.965   7.625  1.5185  0.1211  0.9102
 7951SOL    HW235487   1.884   3.963   7.491  0.3383 -0.3803  0.1004
 7952SOL     OW35488   4.227   1.206   5.010  0.0167 -0.1227 -0.6298
 7952SOL    HW135489   4.200   1.273   4.947  0.2887  0.3601 -0.2291
 7952SOL    HW235490   4.200   1.123   4.970 -1.9490  0.4656 -0.5376
 7953SOL     OW35491   3.197   2.993   0.644  0.2852 -0.3138 -0.3801
 7953SOL    HW135492   3.113   3.018   0.681  0.4973  0.5681 -0.4812
 7953SOL    HW235493   3.253   3.068   0.667 -0.4624 -0.1577  0.9165
 7954SOL     OW35494   1.037   3.439   9.233 -0.1432  0.0476 -0.8288
 7954SOL    HW135495   1.091   3.518   9.233  1.1393 -0.8229 -2.5430
 7954SOL    HW235496   1.074   3.396   9.309  1.2507  1.7110 -0.5528
 7955SOL     OW35497   4.241   1.325  17.045 -0.3847 -0.2589 -0.6822
 7955SOL    HW135498   4.333   1.336  17.024 -0.0708 -0.1737  0.7424
 7955SOL    HW235499   4.225   1.233  17.027 -2.0465 -0.5933  2.3900
 7956SOL     OW35500   0.530   1.042   9.734  0.0149  0.2893 -0.0046
 7956SOL    HW135501   0.474   0.990   9.791  3.9964 -1.6058  2.1445
 7956SOL    HW235502   0.525   1.130   9.770 -1.2208 -0.4611  1.6203
 7957SOL     OW35503   3.321   1.393   4.862  0.3888 -0.1625  0.8760
 7957SOL    HW135504   3.280   1.415   4.946 -1.3380  1.5129 -0.4061
 7957SOL    HW235505   3.249   1.353   4.814  2.4455 -1.6227 -0.9673
 7958SOL     OW35506   2.009   0.212   4.694 -0.9673  0.6271 -0.5294
 7958SOL    HW135507   2.058   0.134   4.719 -1.1102  0.4771 -0.7227
 7958SOL    HW235508   1.984   0.190   4.605  0.7052 -0.3492 -0.7597
 7959SOL     OW35509   0.726   0.471   8.173 -0.2376 -0.0193 -0.7764
 7959SOL    HW135510   0.743   0.384   8.136  0.2788  0.1376 -0.9116
 7959SOL    HW235511   0.700   0.453   8.263  1.3605 -2.9731 -0.9030
 7960SOL     OW35512   2.922   3.291   3.378 -0.0664 -0.1685  0.0653
 7960SOL    HW135513   2.955   3.240   3.452  2.7325  2.1637  0.4280
 7960SOL    HW235514   2.849   3.343   3.412 -2.2625 -1.6888 -2.3386
 7961SOL     OW35515   0.450   4.606   7.245  0.5344  0.4493  0.7187
 7961SOL    HW135516   0.358   4.602   7.272  1.1785  0.3171  2.8993
 7961SOL    HW235517   0.432   4.618   7.152  0.5266  0.5037  0.7274
 7962SOL     OW35518   1.266   3.374   6.964  0.3027  0.3418 -0.4493
 7962SOL    HW135519   1.180   3.414   6.957  1.7929  3.7809  0.8772
 7962SOL    HW235520   1.324   3.440   6.925 -0.0495  0.5587 -0.6014
 7963SOL     OW35521   4.538   3.035   4.181 -0.9013  0.2247 -0.0547
 7963SOL    HW135522   4.454   3.018   4.224 -1.7335 -0.5447 -1.9883
 7963SOL    HW235523   4.588   2.979   4.242 -0.0240 -1.3452 -2.2161
 7964SOL     OW35524   3.865   3.493   2.274 -0.4148  0.5528  0.3828
 7964SOL    HW135525   3.935   3.471   2.335  0.1752 -2.1416 -1.2221
 7964SOL    HW235526   3.868   3.588   2.262  1.6893  0.5204  0.7396
 7965SOL     OW35527   1.172   0.862  11.672 -0.4231  0.4241 -0.5241
 7965SOL    HW135528   1.157   0.812  11.592  0.9911 -2.8139  1.2112
 7965SOL    HW235529   1.250   0.820  11.709 -1.0611 -1.1688 -0.9826
 7966SOL     OW35530   2.094   3.669   7.453  0.5531  0.0695  0.0680
 7966SOL    HW135531   2.108   3.730   7.380  0.8244 -0.9574 -0.7485
 7966SOL    HW235532   2.103   3.595   7.393 -2.2904 -1.2825  1.3289
 7967SOL     OW35533   1.017   0.665   4.357  0.3937  0.0995  0.0117
 7967SOL    HW135534   0.940   0.619   4.323  2.2622 -2.1540 -1.2103
 7967SOL    HW235535   1.028   0.600   4.427  1.9612  0.8272  0.4542
 7968SOL     OW35536   1.662   2.965   5.213  0.3008 -0.0696  0.2110
 7968SOL    HW135537   1.687   3.039   5.157 -0.7999  0.4663  0.4334
 7968SOL    HW235538   1.638   3.014   5.292 -3.5165 -1.0477 -0.3268
 7969SOL     OW35539   3.459   1.538   1.453  0.1789 -0.0266  0.1765
 7969SOL    HW135540   3.517   1.494   1.391 -0.2992  1.4492 -1.3354
 7969SOL    HW235541   3.410   1.463   1.485  0.9790 -1.8728 -2.8938
 7970SOL     OW35542   0.821   2.065  16.428 -0.5320  1.1023 -0.2196
 7970SOL    HW135543   0.728   2.077  16.408 -0.8074  0.1682  0.5014
 7970SOL    HW235544   0.865   2.108  16.354 -2.9704 -0.5916 -2.6677
 7971SOL     OW35545   2.476   1.214   8.807  0.2797  0.3018 -0.2230
 7971SOL    HW135546   2.483   1.143   8.743  0.9559 -1.5614  1.9264
 7971SOL    HW235547   2.565   1.208   8.841  0.8835 -1.4400 -2.1248
 7972SOL     OW35548   1.270   4.344   9.213 -0.0143 -0.0601 -0.4573
 7972SOL    HW135549   1.212   4.268   9.218 -1.2179  1.1505  3.7433
 7972SOL    HW235550   1.300   4.348   9.303 -1.9940  1.2331  0.1368
 7973SOL     OW35551   0.634   3.359   3.576  0.1218  0.7351 -0.4023
 7973SOL    HW135552   0.726   3.382   3.586  0.5288 -1.4574  1.0537
 7973SOL    HW235553   0.596   3.447   3.575 -0.4293  0.5084  0.6837
 7974SOL     OW35554   2.583   1.079  16.533  0.1587  0.2821 -0.1157
 7974SOL    HW135555   2.520   1.148  16.516  2.3255  1.9992 -1.2606
 7974SOL    HW235556   2.667   1.123  16.549  0.3505 -0.0056 -0.3164
 7975SOL     OW35557   1.425   1.063  15.191  0.4376 -0.4297 -0.1307
 7975SOL    HW135558   1.514   1.081  15.161 -0.5118  1.7386 -1.6976
 7975SOL    HW235559   1.442   1.066  15.285 -0.1598 -0.1871 -0.0274
 7976SOL     OW35560   2.628   3.647   8.526 -0.2086  0.0288  0.1990
 7976SOL    HW135561   2.678   3.652   8.607  0.9140 -1.7459 -0.3947
 7976SOL    HW235562   2.685   3.677   8.456 -0.2886 -0.4715 -0.0784
 7977SOL     OW35563   4.421   1.903   8.497  0.4721  0.5493 -0.2341
 7977SOL    HW135564   4.434   1.994   8.525  0.0983  0.2776  0.8185
 7977SOL    HW235565   4.509   1.870   8.514  0.5741  0.0834 -1.6764
 7978SOL     OW35566   4.174   4.692   5.951 -0.1656  0.5961 -0.1039
 7978SOL    HW135567   4.098   4.636   5.936 -0.9634  1.4782  0.6629
 7978SOL    HW235568   4.133   0.030   5.915 -1.1646 -0.6092 -1.6261
 7979SOL     OW35569   2.244   0.743   3.838  0.8107  0.6073 -0.0799
 7979SOL    HW135570   2.249   0.808   3.908  0.4613  1.7462 -1.1365
 7979SOL    HW235571   2.331   0.751   3.800  0.3811 -0.3271 -1.2490
 7980SOL     OW35572   3.304   2.296  11.351  0.1004  0.0832  0.7161
 7980SOL    HW135573   3.399   2.295  11.364 -0.1690 -0.7740  2.6356
 7980SOL    HW235574   3.275   2.362  11.415 -1.1040  1.2796 -1.0699
 7981SOL     OW35575   0.557   4.406   4.895 -0.1639 -0.5554 -0.4250
 7981SOL    HW135576   0.627   4.404   4.829  0.7160 -1.9632  0.5581
 7981SOL    HW235577   0.514   4.491   4.881 -1.8778 -1.6046 -1.5495
 7982SOL     OW35578   2.385   2.563  14.959 -0.3672 -0.2624  0.2755
 7982SOL    HW135579   2.412   2.473  14.944  0.9288  0.6548 -2.9001
 7982SOL    HW235580   2.391   2.591  14.868 -0.2952  0.1759  0.4124
 7983SOL     OW35581   3.476   3.285   7.759  0.1224  0.3281 -0.6115
 7983SOL    HW135582   3.467   3.201   7.713 -2.3144  0.7418 -0.8859
 7983SOL    HW235583   3.419   3.334   7.700 -0.3780 -0.1822 -0.5610
 7984SOL     OW35584   0.190   0.422   9.199  0.0801  0.4287  0.1650
 7984SOL    HW135585   0.282   0.406   9.177  0.7307  0.8589  2.5250
 7984SOL    HW235586   0.201   0.414   9.294  0.1013 -0.2780  0.0995
 7985SOL     OW35587   3.357   4.235   4.917 -0.2765  0.5652  0.2133
 7985SOL    HW135588   3.445   4.238   4.879 -0.5852 -2.4745 -0.7865
 7985SOL    HW235589   3.335   4.152   4.874  0.0167  0.1955  0.7770
 7986SOL     OW35590   0.083   0.254  17.671 -0.1504 -0.0507  0.0804
 7986SOL    HW135591   0.019   0.214  17.612 -0.1192  1.0171 -0.6762
 7986SOL    HW235592   0.138   0.297  17.605 -0.5947  0.7588  0.2355
 7987SOL     OW35593   2.331   0.541  15.623 -0.0778  0.2138  0.0246
 7987SOL    HW135594   2.303   0.485  15.696  0.9534 -1.4925 -0.8877
 7987SOL    HW235595   2.263   0.606  15.610  0.4632  0.4331 -1.7053
 7988SOL     OW35596   1.267   0.417   3.175  0.0052  0.5568  0.3261
 7988SOL    HW135597   1.210   0.363   3.231  0.9651 -0.1672  0.5981
 7988SOL    HW235598   1.235   0.403   3.086  0.8529  1.0208 -0.0553
 7989SOL     OW35599   0.163   0.710   9.983  0.1173 -0.2298 -0.2855
 7989SOL    HW135600   0.125   0.628   9.952  0.1081 -0.8791  1.4196
 7989SOL    HW235601   0.121   0.722  10.068  1.5888  0.4336  0.3311
 7990SOL     OW35602   4.635   0.108   5.481 -0.2953  0.1336 -0.1890
 7990SOL    HW135603   4.661   0.198   5.502  0.6033  0.1891 -1.5039
 7990SOL    HW235604   4.611   0.122   5.389  1.6499 -1.0161 -0.8774
 7991SOL     OW35605   2.491   1.922  15.254 -0.6278 -0.0080  0.2605
 7991SOL    HW135606   2.486   1.827  15.254  2.9540 -0.2126  0.9633
 7991SOL    HW235607   2.409   1.947  15.295 -1.4530 -0.1471 -1.3057
 7992SOL     OW35608   3.577   1.805   1.001  0.6190 -0.5202  0.4630
 7992SOL    HW135609   3.634   1.782   0.928 -0.0384  0.7235 -0.4574
 7992SOL    HW235610   3.547   1.884   0.955  1.7780  0.1553  0.8637
 7993SOL     OW35611   4.397   3.691   3.322  0.2907 -0.0135 -0.4626
 7993SOL    HW135612   4.327   3.704   3.258 -0.1454 -0.4121 -0.0590
 7993SOL    HW235613   4.340   3.702   3.398  1.7417 -0.1809  0.6564
 7994SOL     OW35614   2.738   0.657   3.554 -0.4512 -0.2612  0.0403
 7994SOL    HW135615   2.784   0.573   3.558 -1.7146 -0.9598 -0.1072
 7994SOL    HW235616   2.645   0.637   3.560 -0.4936 -0.1183 -0.1375
 7995SOL     OW35617   0.312   4.327  16.336 -0.6381 -0.7193  0.2046
 7995SOL    HW135618   0.369   4.373  16.274 -0.7631  0.2208  0.7794
 7995SOL    HW235619   0.318   4.245  16.288  0.5138 -0.7397  0.3778
 7996SOL     OW35620   2.835   1.648   0.565 -0.1468  0.1918 -0.2623
 7996SOL    HW135621   2.917   1.604   0.540 -0.8198 -0.0490 -2.0985
 7996SOL    HW235622   2.782   1.572   0.591  1.1232 -0.6900 -0.2208
 7997SOL     OW35623   4.633   4.259   4.016  0.3099  0.3848  0.0251
 7997SOL    HW135624   4.639   4.256   4.111 -2.0178 -1.2205  0.1450
 7997SOL    HW235625   4.720   4.295   3.998 -0.4214  2.1142 -0.0431
 7998SOL     OW35626   2.275   1.328   8.633 -0.6144 -0.4576  0.1807
 7998SOL    HW135627   2.258   1.417   8.665  0.2860 -0.5544  0.9312
 7998SOL    HW235628   2.271   1.272   8.710  1.6475 -3.6767 -2.0507
 7999SOL     OW35629   4.543   4.397   2.660 -0.4907  0.5525  0.5500
 7999SOL    HW135630   4.545   4.451   2.581  0.0101 -0.9965 -0.5028
 7999SOL    HW235631   4.476   4.446   2.708  0.6864  0.5887  2.1363
 8000SOL     OW35632   1.881   2.213   9.364 -0.0837 -0.7607 -0.6256
 8000SOL    HW135633   1.970   2.249   9.356 -0.5820  0.5486 -0.3481
 8000SOL    HW235634   1.893   2.122   9.389  1.6936 -1.3017 -3.4834
 8001SOL     OW35635   1.215   1.749   2.331  0.2248 -0.3164 -0.4358
 8001SOL    HW135636   1.179   1.781   2.248 -2.2634 -2.9801 -0.4173
 8001SOL    HW235637   1.205   1.826   2.386  0.9891  0.4895 -1.4384
 8002SOL     OW35638   0.006   2.237  16.512  0.3830  0.5991 -0.1837
 8002SOL    HW135639   0.058   2.173  16.465 -0.7996  0.1693 -0.8872
 8002SOL    HW235640   4.722   2.187  16.590  1.6222  0.2833 -0.0025
 8003SOL     OW35641   4.181   2.384   0.627 -0.2701 -0.6859 -0.3409
 8003SOL    HW135642   4.110   2.437   0.662  0.7918  2.3320 -2.6807
 8003SOL    HW235643   4.235   2.370   0.705  2.7064 -0.8850 -2.4347
 8004SOL     OW35644   2.831   1.535   5.947 -0.1009  0.4140  0.6142
 8004SOL    HW135645   2.774   1.509   5.874  0.7644 -1.3123  0.5748
 8004SOL    HW235646   2.777   1.534   6.026  0.6983 -1.7581  1.1164
 8005SOL     OW35647   3.832   4.535   5.196  0.0086  0.2418 -0.1077
 8005SOL    HW135648   3.743   4.535   5.233  0.3157 -0.2000  0.6423
 8005SOL    HW235649   3.876   4.472   5.253 -1.8561 -1.3891 -0.4893
 8006SOL     OW35650   0.413   0.504   8.501  0.2881 -0.5028 -0.1645
 8006SOL    HW135651   0.366   0.435   8.548 -0.6417 -0.9657 -1.7511
 8006SOL    HW235652   0.338   0.551   8.465  0.5282  1.1118  1.4727
 8007SOL     OW35653   4.362   4.134   4.783  0.0643  0.8043 -0.5063
 8007SOL    HW135654   4.277   4.127   4.826 -0.2596  1.6925 -1.0033
 8007SOL    HW235655   4.343   4.205   4.721 -2.9709 -0.4599 -0.9855
 8008SOL     OW35656   2.479   0.494  12.097 -0.4486 -0.4147 -0.0610
 8008SOL    HW135657   2.426   0.467  12.172  1.1792  2.1055  1.9934
 8008SOL    HW235658   2.425   0.475  12.021  1.3096  0.8677 -1.6316
 8009SOL     OW35659   4.204   0.840   9.566  0.1570 -0.6810 -0.4709
 8009SOL    HW135660   4.241   0.777   9.627 -1.6261 -1.0218  0.2602
 8009SOL    HW235661   4.111   0.819   9.555 -0.1799  1.4078 -1.6378
 8010SOL     OW35662   4.383   0.414  16.144  0.1882 -0.2979 -0.1725
 8010SOL    HW135663   4.403   0.495  16.097  0.8963 -1.1853 -1.4044
 8010SOL    HW235664   4.431   0.350  16.091 -0.7533 -1.5491  0.4856
 8011SOL     OW35665   2.431   2.076  13.450 -0.4265  0.1157  0.6085
 8011SOL    HW135666   2.367   2.059  13.380  1.8499 -3.1336 -0.7026
 8011SOL    HW235667   2.372   2.095  13.523  0.4787 -1.7189  1.8016
 8012SOL     OW35668   0.596   2.854   9.510 -0.4509 -0.0874 -0.1332
 8012SOL    HW135669   0.641   2.894   9.584  0.1530 -0.1688 -0.4576
 8012SOL    HW235670   0.572   2.771   9.552  1.2342 -0.7649 -0.5228
 8013SOL     OW35671   0.110   0.348  11.549  0.0776 -0.0334 -0.0703
 8013SOL    HW135672   0.041   0.282  11.559 -2.1214  2.2115 -0.1888
 8013SOL    HW235673   0.054   0.418  11.583 -0.9813 -2.4577  3.1803
 8014SOL     OW35674   3.000   1.227   6.905  0.0311 -0.2105  0.4165
 8014SOL    HW135675   2.985   1.188   6.819  2.8428 -1.3202  0.4383
 8014SOL    HW235676   2.916   1.201   6.942 -0.5041  1.7547  0.6006
 8015SOL     OW35677   2.972   3.447  17.320  0.2053  0.2185  0.1722
 8015SOL    HW135678   3.025   3.500  17.379  0.8414 -0.1648 -0.0515
 8015SOL    HW235679   2.895   3.504  17.312  0.0077 -0.1946 -0.8893
 8016SOL     OW35680   3.304   4.641   8.343 -0.7217  0.1784  0.0025
 8016SOL    HW135681   3.348   4.718   8.379  2.7413 -1.3922 -0.9005
 8016SOL    HW235682   3.325   4.576   8.410 -1.7084 -1.2749 -1.0881
 8017SOL     OW35683   0.243   1.864  10.049 -0.3518 -0.0784  0.3572
 8017SOL    HW135684   0.273   1.788  10.000 -0.7211 -1.4600  2.2658
 8017SOL    HW235685   0.168   1.891   9.995  0.4043  0.8449 -0.2247
 8018SOL     OW35686   0.217   0.559   5.736  0.2567  0.4605 -0.3048
 8018SOL    HW135687   0.157   0.515   5.676 -0.3704  0.2093  0.4945
 8018SOL    HW235688   0.248   0.635   5.687  0.1254  0.2049 -0.7851
 8019SOL     OW35689   1.092   0.835   0.373  0.1224  0.5890 -0.1614
 8019SOL    HW135690   1.096   0.928   0.350 -2.6217  0.3230 -1.6768
 8019SOL    HW235691   1.049   0.834   0.459 -0.0843  0.1609 -0.2694
 8020SOL     OW35692   2.408   4.070   6.921  0.0455 -0.3242 -0.0588
 8020SOL    HW135693   2.315   4.089   6.924 -0.3060 -1.9889 -0.2945
 8020SOL    HW235694   2.420   3.979   6.948  1.3769 -0.9624 -2.8035
 8021SOL     OW35695   1.128   4.659   3.971 -0.1068 -0.5743  0.2260
 8021SOL    HW135696   1.162   4.601   3.902  0.4765 -0.3653  0.3371
 8021SOL    HW235697   1.132   0.001   3.925  0.9423  0.1497  1.6304
 8022SOL     OW35698   0.617   0.310   2.300  0.0070 -0.2325  0.1704
 8022SOL    HW135699   0.648   0.279   2.215 -1.6778  0.2745 -0.6214
 8022SOL    HW235700   0.658   0.396   2.307 -1.5938  0.5854 -0.4812
 8023SOL     OW35701   4.190   4.158   0.240  0.1262 -0.5419  0.4123
 8023SOL    HW135702   4.198   4.238   0.293  1.4252 -0.1278 -0.4339
 8023SOL    HW235703   4.240   4.099   0.296  0.8444  1.0930  1.5140
 8024SOL     OW35704   1.904   1.033   5.371 -0.1567  0.0187  0.8705
 8024SOL    HW135705   1.958   1.090   5.316 -2.6721  1.0141 -0.5241
 8024SOL    HW235706   1.968   0.981   5.421 -0.5857 -0.2716  1.1170
 8025SOL     OW35707   2.928   4.272   7.181 -0.4119 -0.2975  0.1142
 8025SOL    HW135708   2.936   4.258   7.087  2.5380  2.8751 -0.1057
 8025SOL    HW235709   2.866   4.344   7.181 -0.2368 -0.1506  1.7338
 8026SOL     OW35710   0.708   2.153   4.515  0.1502 -0.0882 -0.2304
 8026SOL    HW135711   0.777   2.091   4.492 -1.3555 -1.4440 -1.0764
 8026SOL    HW235712   0.627   2.103   4.512  1.0834 -1.5760 -0.4865
 8027SOL     OW35713   1.103   0.447   9.627 -0.3542  0.2948  0.0051
 8027SOL    HW135714   1.016   0.418   9.654  0.8062 -1.8724  1.4009
 8027SOL    HW235715   1.127   0.366   9.582  0.0590 -0.3094  1.3345
 8028SOL     OW35716   4.035   1.973   3.405 -0.1938 -0.0374 -0.0635
 8028SOL    HW135717   4.003   1.917   3.334 -0.0103  0.2728 -0.3935
 8028SOL    HW235718   3.951   1.994   3.445 -0.1126  0.6485 -0.2540
 8029SOL     OW35719   3.164   0.200  13.252  0.3499 -0.2309  0.3824
 8029SOL    HW135720   3.239   0.233  13.201 -0.7286 -0.2029 -1.1962
 8029SOL    HW235721   3.137   0.114  13.218  1.5342  0.0600 -1.3134
 8030SOL     OW35722   2.968   4.646  13.964  0.3322 -0.1834 -0.1125
 8030SOL    HW135723   2.925   4.565  13.993 -0.6334  1.0467  1.9100
 8030SOL    HW235724   2.890   4.689  13.928  0.3141 -0.0427  0.0991
 8031SOL     OW35725   4.353   2.671   9.109 -0.7148  0.5001  0.0152
 8031SOL    HW135726   4.324   2.726   9.182 -1.7674 -0.3081  0.2034
 8031SOL    HW235727   4.289   2.703   9.045 -0.0497  0.1778 -0.8124
 8032SOL     OW35728   4.078   3.345   9.786 -0.2546 -0.0552 -0.3573
 8032SOL    HW135729   3.997   3.381   9.822  0.4144  2.8827 -1.8032
 8032SOL    HW235730   4.141   3.411   9.815 -0.9687  0.6248 -0.3561
 8033SOL     OW35731   3.991   2.006   3.792 -0.7328  0.4157  0.5930
 8033SOL    HW135732   4.075   2.011   3.748 -0.4764 -0.7931  0.9474
 8033SOL    HW235733   3.957   2.090   3.762 -1.7326  0.2421  1.2054
 8034SOL     OW35734   0.193   3.564   6.688  0.2602  0.3602 -0.1215
 8034SOL    HW135735   0.099   3.549   6.704  0.4224 -0.1341  0.3555
 8034SOL    HW235736   0.225   3.486   6.643 -2.1343 -0.0434 -1.1407
 8035SOL     OW35737   1.893   2.815   8.052 -0.3648  0.1971 -0.4528
 8035SOL    HW135738   1.799   2.828   8.041 -0.7234 -1.6613  0.3661
 8035SOL    HW235739   1.904   2.783   8.141  1.1472  3.9393  0.7216
 8036SOL     OW35740   0.004   2.846   7.319 -0.4304  0.1562  0.0401
 8036SOL    HW135741   4.719   2.824   7.230 -0.1992  0.5173 -0.1143
 8036SOL    HW235742   4.731   2.766   7.371 -0.4437 -0.0639 -0.3012
 8037SOL     OW35743   4.392   1.992   6.706  0.1797 -0.0989  0.1138
 8037SOL    HW135744   4.312   2.029   6.670 -1.1525  0.0223  3.1687
 8037SOL    HW235745   4.360   1.917   6.757  0.2019 -1.9735 -2.6069
 8038SOL     OW35746   0.269   0.357   2.148  0.3597  0.1313 -0.0175
 8038SOL    HW135747   0.211   0.372   2.222  0.1373  1.2828 -0.4230
 8038SOL    HW235748   0.327   0.286   2.174 -0.2883 -0.2608  0.3523
 8039SOL     OW35749   0.574   2.452   4.923 -0.5024 -0.0675 -0.5643
 8039SOL    HW135750   0.610   2.536   4.951  0.2709 -0.8121  0.6809
 8039SOL    HW235751   0.518   2.466   4.847 -0.3364 -0.4354 -0.7548
 8040SOL     OW35752   0.900   0.024  11.723  0.5268  0.0683 -0.0126
 8040SOL    HW135753   0.942   4.683  11.750  2.9209  1.4458  0.4780
 8040SOL    HW235754   0.867   0.046  11.810  0.9707  2.0823 -0.3641
 8041SOL     OW35755   3.526   2.968  13.391  0.1934 -0.3276  0.0817
 8041SOL    HW135756   3.458   2.982  13.457  0.6319 -0.2810  0.5311
 8041SOL    HW235757   3.488   3.029  13.327 -2.1730  1.0024  2.7391
 8042SOL     OW35758   4.269   0.506   4.369  0.2930  0.9440  0.0069
 8042SOL    HW135759   4.276   0.478   4.277  1.5227  3.1235 -0.5604
 8042SOL    HW235760   4.180   0.478   4.390  0.4553  1.5827  1.5120
 8043SOL     OW35761   1.837   3.793   5.734  0.3825  0.2838 -0.0684
 8043SOL    HW135762   1.831   3.873   5.787  0.7218  1.5126 -1.8693
 8043SOL    HW235763   1.798   3.728   5.792  0.0910  0.2681 -0.2829
 8044SOL     OW35764   2.518   2.953   6.405  0.0789 -0.3512  0.1494
 8044SOL    HW135765   2.556   2.872   6.372 -2.5137 -1.1704 -0.8183
 8044SOL    HW235766   2.581   3.023   6.388  0.3394 -0.8325 -0.8512
 8045SOL     OW35767   1.111   4.396   1.471  1.0973 -0.3274  0.1643
 8045SOL    HW135768   1.097   4.309   1.433  0.4554 -0.1473 -0.0128
 8045SOL    HW235769   1.032   4.441   1.441 -0.3049 -1.7978  1.6167
 8046SOL     OW35770   0.654   2.276   3.065  0.1172  0.6664  0.0944
 8046SOL    HW135771   0.630   2.211   2.998  2.3475  1.7666 -1.7585
 8046SOL    HW235772   0.571   2.325   3.067 -0.7410 -0.8572  1.7122
 8047SOL     OW35773   4.459   1.769   0.214 -0.5702 -0.3839 -0.4352
 8047SOL    HW135774   4.480   1.784   0.306 -3.0544 -0.9355  0.2438
 8047SOL    HW235775   4.406   1.689   0.218 -0.6953 -0.1711  2.2371
 8048SOL     OW35776   4.584   3.022   2.851 -0.1679  0.1064  0.7341
 8048SOL    HW135777   4.543   2.996   2.769  0.1476  0.6069  0.4174
 8048SOL    HW235778   4.642   2.946   2.858 -0.5952 -0.3420 -0.5174
 8049SOL     OW35779   2.382   3.507   8.198  0.5754 -0.0662 -0.0802
 8049SOL    HW135780   2.330   3.563   8.255  1.5263 -1.4059  2.1060
 8049SOL    HW235781   2.391   3.425   8.246  2.6901 -0.8280 -1.7547
 8050SOL     OW35782   1.484   2.005   6.885 -0.5102 -0.3997  0.5098
 8050SOL    HW135783   1.464   1.976   6.796 -0.1694 -2.6145  1.1396
 8050SOL    HW235784   1.459   2.097   6.887  2.7085  0.4531  3.3736
 8051SOL     OW35785   2.508   4.041   1.286 -0.1447 -0.7231  0.2107
 8051SOL    HW135786   2.578   4.098   1.317 -1.4118  1.4192 -0.8693
 8051SOL    HW235787   2.502   4.067   1.194  3.5325 -0.3251  0.0897
 8052SOL     OW35788   2.236   3.587   8.639 -0.6228  0.5234 -0.5618
 8052SOL    HW135789   2.206   3.496   8.645  0.4804  0.2545  0.9714
 8052SOL    HW235790   2.324   3.575   8.673 -0.7641 -1.3091 -0.8473
 8053SOL     OW35791   0.120   4.661  11.867 -0.1793  1.0755 -0.3124
 8053SOL    HW135792   0.106   4.615  11.784  1.4616 -0.0882  0.0700
 8053SOL    HW235793   0.075   4.605  11.929 -0.7215  1.9089  0.0554
 8054SOL     OW35794   0.781   4.592   5.762 -0.4172  0.1947 -0.7755
 8054SOL    HW135795   0.778   4.681   5.727 -0.5390  1.0272  1.3193
 8054SOL    HW235796   0.740   4.599   5.849  1.2101  1.9279 -0.1440
 8055SOL     OW35797   3.973   1.611   9.419 -0.2051 -0.1879  0.1181
 8055SOL    HW135798   3.890   1.562   9.412  1.4296 -2.8683 -0.4336
 8055SOL    HW235799   3.968   1.657   9.335 -0.6151 -0.4820 -0.0206
 8056SOL     OW35800   0.463   2.498   5.173 -0.4586 -0.2783 -0.4635
 8056SOL    HW135801   0.527   2.488   5.103  1.5131 -0.5193  1.3735
 8056SOL    HW235802   0.433   2.584   5.143  1.6760 -0.7735 -4.0100
 8057SOL     OW35803   2.752   1.611   3.933 -0.1242  0.6348 -0.4500
 8057SOL    HW135804   2.696   1.534   3.940 -1.3895  1.5135 -0.7702
 8057SOL    HW235805   2.829   1.566   3.899  0.6919 -0.0527  2.3436
 8058SOL     OW35806   1.188   0.524  14.353 -0.0638  0.1727  0.0514
 8058SOL    HW135807   1.171   0.434  14.322 -1.7656  1.0967 -1.7068
 8058SOL    HW235808   1.138   0.524  14.435  0.8287  1.4479  0.5842
 8059SOL     OW35809   4.201   0.213  11.238  1.1215  0.4727 -0.9783
 8059SOL    HW135810   4.202   0.185  11.329 -3.0218  1.9138 -0.5109
 8059SOL    HW235811   4.290   0.188  11.212 -0.3676 -1.2498 -4.4726
 8060SOL     OW35812   4.652   4.686   9.587 -0.3893 -0.2993 -0.4250
 8060SOL    HW135813   4.594   4.615   9.612 -1.3280  0.5614 -0.1631
 8060SOL    HW235814   4.584   0.010   9.570  1.0708  1.4158  0.2481
 8061SOL     OW35815   0.858   2.938   6.332  0.0341 -0.1053  0.0698
 8061SOL    HW135816   0.839   2.898   6.247 -1.7930  1.2049 -0.1406
 8061SOL    HW235817   0.920   2.873   6.364 -0.0260 -0.5198 -0.6613
 8062SOL     OW35818   3.624   2.216   2.757  0.0162  0.4699 -0.3202
 8062SOL    HW135819   3.591   2.135   2.719 -0.1209 -0.8625  2.6850
 8062SOL    HW235820   3.542   2.261   2.778 -0.5446 -1.2684  1.1907
 8063SOL     OW35821   0.841   4.482   7.678 -0.2177  0.1305 -0.7297
 8063SOL    HW135822   0.784   4.559   7.682  1.1456  1.0926  0.1296
 8063SOL    HW235823   0.781   4.412   7.656 -0.3795  0.4749 -1.3929
 8064SOL     OW35824   0.195   2.287   4.215  0.4959  0.1237  0.2265
 8064SOL    HW135825   0.249   2.324   4.144 -0.4253  0.2133 -0.4274
 8064SOL    HW235826   0.110   2.325   4.190  1.5433  1.9303 -0.6388
 8065SOL     OW35827   1.974   3.952   4.775  0.0345 -0.4712 -0.7247
 8065SOL    HW135828   2.002   3.949   4.866  1.1371 -1.2515 -1.0862
 8065SOL    HW235829   2.049   3.997   4.737  1.5423 -1.3104  1.3124
 8066SOL     OW35830   0.877   0.989   6.082 -0.3832  0.2608  0.4732
 8066SOL    HW135831   0.922   0.986   5.998  1.9623 -1.5247  1.7816
 8066SOL    HW235832   0.848   0.899   6.093  2.0274 -0.2902  2.4753
 8067SOL     OW35833   0.008   4.209   4.976  0.4300 -0.0028 -0.7815
 8067SOL    HW135834   0.016   4.116   4.952  1.6990 -1.1377  3.9520
 8067SOL    HW235835   4.660   4.213   5.011  1.0433  0.2297  0.7494
 8068SOL     OW35836   3.882   1.481   7.131 -0.0004 -0.3381  0.2201
 8068SOL    HW135837   3.843   1.426   7.063 -1.0304  0.5121  0.1287
 8068SOL    HW235838   3.969   1.441   7.127  0.3375  0.1274  2.8774
 8069SOL     OW35839   3.199   4.003   5.882 -0.2755 -0.5274  0.0509
 8069SOL    HW135840   3.280   3.974   5.841  0.9416 -0.6295  2.5460
 8069SOL    HW235841   3.149   4.052   5.816 -1.7831  1.0785  2.3733
 8070SOL     OW35842   2.764   0.030   4.840 -0.0035 -0.1756  0.0077
 8070SOL    HW135843   2.804   4.688   4.867  3.8467  1.8762  0.5869
 8070SOL    HW235844   2.840   0.084   4.862 -0.5430  0.4038  0.4169
 8071SOL     OW35845   2.303   1.708   2.558 -0.2885 -0.6265  0.0045
 8071SOL    HW135846   2.277   1.669   2.642 -1.9576 -0.8717 -0.6288
 8071SOL    HW235847   2.343   1.787   2.594  1.7146 -1.2526 -0.7971
 8072SOL     OW35848   3.830   3.416   3.147  0.1897  0.3927 -0.0306
 8072SOL    HW135849   3.791   3.501   3.167  2.7235  1.6472 -0.4193
 8072SOL    HW235850   3.755   3.357   3.145  1.7879 -1.6587  0.9195
 8073SOL     OW35851   1.968   2.417  17.130 -0.1742 -0.7061  0.2328
 8073SOL    HW135852   2.014   2.368  17.199 -1.5724  0.5963  2.0833
 8073SOL    HW235853   1.970   2.505  17.168  1.4540 -1.1554  1.2046
 8074SOL     OW35854   3.411   2.764   4.455 -0.2558  0.1647  0.1723
 8074SOL    HW135855   3.405   2.792   4.546  2.1683  0.4099  0.2604
 8074SOL    HW235856   3.425   2.670   4.463  0.9205  0.1416 -2.1797
 8075SOL     OW35857   4.442   1.206   0.275 -0.2717  0.1722  0.5385
 8075SOL    HW135858   4.418   1.125   0.320  1.1102 -0.9569 -0.8065
 8075SOL    HW235859   4.431   1.168   0.188  1.1253  2.2214 -0.5544
 8076SOL     OW35860   3.214   1.003   9.419  0.1388 -0.0494  0.5477
 8076SOL    HW135861   3.245   1.092   9.436  0.9644 -0.4685  1.2106
 8076SOL    HW235862   3.261   0.967   9.344  0.5233  0.6877  0.4330
 8077SOL     OW35863   1.636   3.326  10.736 -0.0552 -0.0930 -0.3189
 8077SOL    HW135864   1.711   3.270  10.713  1.5874  1.7829  0.5087
 8077SOL    HW235865   1.643   3.395  10.670  0.9426 -0.9449 -1.1155
 8078SOL     OW35866   1.872   1.138   3.530  0.3217  0.2482  0.2488
 8078SOL    HW135867   1.877   1.198   3.456  0.5002 -1.8619 -1.4637
 8078SOL    HW235868   1.781   1.131   3.557 -0.0057 -0.0175 -0.9187
 8079SOL     OW35869   2.677   4.321   3.106 -0.2212  0.0642 -0.6383
 8079SOL    HW135870   2.632   4.318   3.022  0.0622 -0.0174 -0.7847
 8079SOL    HW235871   2.762   4.337   3.065  1.2115 -1.3400  1.7801
 8080SOL     OW35872   1.697   4.578   7.902 -0.1246  0.4239  0.1994
 8080SOL    HW135873   1.716   4.490   7.932  1.4885  1.5153  2.3863
 8080SOL    HW235874   1.617   4.602   7.949 -0.2527  0.7523 -0.1785
 8081SOL     OW35875   0.273   0.360  17.491 -0.2618  0.2509  0.9387
 8081SOL    HW135876   0.258   0.405  17.408 -0.4051  0.4664  1.0796
 8081SOL    HW235877   0.366   0.376  17.508 -0.3467  1.3727  0.3470
 8082SOL     OW35878   3.803   4.344   9.333 -0.5020 -0.2904 -0.0250
 8082SOL    HW135879   3.807   4.431   9.373  0.0924 -0.8036  1.0412
 8082SOL    HW235880   3.868   4.296   9.385 -0.6455  0.2191  0.6263
 8083SOL     OW35881   4.256   1.813   9.054  0.2757 -0.6215  0.2595
 8083SOL    HW135882   4.280   1.828   9.146 -0.7929  0.3453  0.3808
 8083SOL    HW235883   4.198   1.888   9.051  0.3532 -0.6845 -2.5000
 8084SOL     OW35884   2.254   0.248   6.999 -0.0312 -0.2499  0.4975
 8084SOL    HW135885   2.258   0.277   6.908 -0.6265 -0.8256  0.2860
 8084SOL    HW235886   2.344   0.272   7.021 -0.6346  1.7127  0.7729
 8085SOL     OW35887   2.203   2.772   5.499  0.3934 -0.7792 -0.3891
 8085SOL    HW135888   2.190   2.776   5.405 -0.6162 -2.0463 -0.3037
 8085SOL    HW235889   2.294   2.741   5.498  0.1343 -1.4516 -2.0407
 8086SOL     OW35890   2.475   2.723   0.896 -0.2721 -0.5000  0.6847
 8086SOL    HW135891   2.400   2.757   0.945  0.0131  0.6520  0.3182
 8086SOL    HW235892   2.529   2.799   0.875 -0.4510 -0.2734  1.0519
 8087SOL     OW35893   1.759   1.641   2.707 -0.1659 -0.2251 -0.9502
 8087SOL    HW135894   1.745   1.551   2.735  0.6510  1.1807  3.8929
 8087SOL    HW235895   1.830   1.670   2.764 -1.1781 -0.2397  0.3062
 8088SOL     OW35896   4.392   0.423   3.632 -0.5295  0.6897 -0.1151
 8088SOL    HW135897   4.325   0.440   3.699 -1.0449  2.1410 -0.9923
 8088SOL    HW235898   4.337   0.457   3.560  0.8199 -0.2077 -1.5510
 8089SOL     OW35899   2.137   3.266   4.921  0.2706 -0.1876 -0.1836
 8089SOL    HW135900   2.178   3.196   4.972 -0.4061  0.3492  1.1182
 8089SOL    HW235901   2.209   3.330   4.917 -0.2155  0.4990  2.0370
 8090SOL     OW35902   0.933   1.055   1.128 -0.1208 -0.0112  0.0083
 8090SOL    HW135903   0.940   1.008   1.045  1.6546 -0.2335  0.2874
 8090SOL    HW235904   0.882   1.133   1.105 -0.3045 -0.3798 -0.8413
 8091SOL     OW35905   2.327   0.333   6.755 -0.0335 -0.2211 -0.5036
 8091SOL    HW135906   2.405   0.282   6.730  1.0145  1.1145  0.0136
 8091SOL    HW235907   2.287   0.329   6.668 -0.6621 -0.4149 -0.2058
 8092SOL     OW35908   3.164   0.145   8.071  0.8819  0.6421 -0.0621
 8092SOL    HW135909   3.102   0.133   8.143 -0.1768 -2.5040 -1.5230
 8092SOL    HW235910   3.213   0.065   8.083 -0.2103  0.2103  1.5459
 8093SOL     OW35911   3.939   2.349   2.378  0.2929  0.3329  0.0782
 8093SOL    HW135912   3.870   2.346   2.444 -1.1017  0.8111 -1.3490
 8093SOL    HW235913   3.895   2.410   2.318  0.5062 -0.3460 -0.7714
 8094SOL     OW35914   4.402   0.385   8.735 -0.7989  0.5919 -0.1528
 8094SOL    HW135915   4.343   0.327   8.782  0.9282 -0.4668  0.7197
 8094SOL    HW235916   4.456   0.417   8.807  0.2099 -1.4681  0.0238
 8095SOL     OW35917   4.625   3.649   2.872 -0.3156 -0.0367 -0.1740
 8095SOL    HW135918   4.627   3.735   2.913 -2.8054  0.0523 -0.2876
 8095SOL    HW235919   4.534   3.646   2.844  0.1820 -0.3268 -1.7625
 8096SOL     OW35920   2.652   0.500   4.147  0.2937  0.2859 -0.0793
 8096SOL    HW135921   2.643   0.468   4.057 -1.7950 -1.6867  0.8474
 8096SOL    HW235922   2.742   0.469   4.160  0.9058  1.5608 -1.3646
 8097SOL     OW35923   1.065   2.905   3.215  0.4960 -0.4547  0.6171
 8097SOL    HW135924   1.048   2.894   3.308  1.0487  1.1952  0.9158
 8097SOL    HW235925   1.063   2.815   3.182  1.9819 -0.3367  0.2084
 8098SOL     OW35926   0.741   1.107  17.049  0.3534 -0.0292 -0.6618
 8098SOL    HW135927   0.835   1.106  17.069  0.0494 -0.1650  0.7811
 8098SOL    HW235928   0.721   1.014  17.038  2.8958 -0.7763  1.0294
 8099SOL     OW35929   0.099   3.139   4.050 -0.0648  0.2786  0.0002
 8099SOL    HW135930   0.120   3.071   4.114 -0.7913  0.7119  0.7016
 8099SOL    HW235931   0.185   3.169   4.021  1.1912 -2.2835  1.1246
 8100SOL     OW35932   0.956   4.310   2.957 -0.5181  0.2889 -0.3762
 8100SOL    HW135933   0.901   4.252   3.010 -0.4687  1.6238  1.1615
 8100SOL    HW235934   0.967   4.259   2.877 -0.2451  0.3440 -0.3723
 8101SOL     OW35935   4.155   3.068  15.106 -0.3811  0.6781 -0.5975
 8101SOL    HW135936   4.096   3.138  15.134 -1.5199  0.1376 -1.6801
 8101SOL    HW235937   4.126   2.990  15.153  1.4773 -0.0077 -0.5940
 8102SOL     OW35938   1.643   2.297   2.513  0.1136  0.6691 -0.1967
 8102SOL    HW135939   1.697   2.273   2.437  1.2473 -0.7800  1.0816
 8102SOL    HW235940   1.568   2.240   2.497  1.3177 -0.5469 -1.5611
 8103SOL     OW35941   3.070   2.401   8.068 -0.0734 -0.4572 -0.7558
 8103SOL    HW135942   3.019   2.478   8.042  0.4518 -0.2908 -1.2868
 8103SOL    HW235943   3.095   2.377   7.979 -1.5990 -1.8952 -0.8071
 8104SOL     OW35944   1.143   1.796   5.646 -0.4578  0.1763 -0.5330
 8104SOL    HW135945   1.232   1.790   5.611 -0.8684  3.0582 -2.1227
 8104SOL    HW235946   1.141   1.877   5.698  0.2289  1.6330 -2.7548
 8105SOL     OW35947   3.052   2.881   3.132 -0.5129  0.5868  0.3268
 8105SOL    HW135948   3.074   2.955   3.076  0.4907 -1.0196 -1.3842
 8105SOL    HW235949   3.093   2.908   3.214 -1.4767  2.4382  0.1924
 8106SOL     OW35950   2.269   0.388   8.515  0.5819 -0.2430  0.0684
 8106SOL    HW135951   2.244   0.468   8.468 -2.5820 -0.8652  0.6807
 8106SOL    HW235952   2.190   0.334   8.507  1.5299 -1.5775 -0.2157
 8107SOL     OW35953   0.552   3.930   1.645  0.0927  0.4512 -1.0437
 8107SOL    HW135954   0.536   3.959   1.555  1.6492  1.5004 -0.9856
 8107SOL    HW235955   0.466   3.943   1.685  1.5258  0.1303  2.1481
 8108SOL     OW35956   3.240   3.826   4.438 -0.3698  0.2692 -0.0588
 8108SOL    HW135957   3.222   3.917   4.461  1.5535  0.8633 -0.9149
 8108SOL    HW235958   3.208   3.824   4.348 -2.0799  1.5284  0.5357
 8109SOL     OW35959   1.138   1.738  13.207  0.0879  0.3599  0.0224
 8109SOL    HW135960   1.139   1.825  13.169 -0.6765 -0.3897 -1.7136
 8109SOL    HW235961   1.044   1.722  13.220  0.1844  0.6440  1.0883
 8110SOL     OW35962   0.371   0.031   6.320 -0.1767  0.9209  0.5660
 8110SOL    HW135963   0.355   0.050   6.227 -1.2469  0.8511  0.7352
 8110SOL    HW235964   0.391   0.120   6.346 -1.6762  1.3905  0.0852
 8111SOL     OW35965   4.496   2.548   5.523 -0.3334 -0.0399 -0.1022
 8111SOL    HW135966   4.449   2.631   5.523  1.5210  1.0102 -1.2039
 8111SOL    HW235967   4.555   2.549   5.598  1.7082  0.1815 -1.7241
 8112SOL     OW35968   3.565   3.521   3.372  0.1462  0.3796  0.2615
 8112SOL    HW135969   3.632   3.585   3.347  0.5657  1.2922  3.7963
 8112SOL    HW235970   3.597   3.508   3.461 -0.0242 -0.1697  0.2411
 8113SOL     OW35971   1.972   2.390   2.542  0.1859  0.0568 -0.2131
 8113SOL    HW135972   1.933   2.303   2.547 -0.3444  0.2440 -1.0877
 8113SOL    HW235973   1.986   2.410   2.635  0.4704 -1.6181  0.0980
 8114SOL     OW35974   4.140   0.602   2.204 -0.3656 -0.0833 -0.1962
 8114SOL    HW135975   4.187   0.629   2.125  0.8546  0.0762  0.5830
 8114SOL    HW235976   4.212   0.602   2.267  1.2348 -0.1772 -2.0328
 8115SOL     OW35977   3.373   1.251  13.336 -0.0251  0.4449 -0.4700
 8115SOL    HW135978   3.376   1.344  13.362  0.5088 -0.2811  2.0457
 8115SOL    HW235979   3.364   1.220  13.426  0.6195  0.0579 -0.5406
 8116SOL     OW35980   0.229   2.562   1.669  0.1386  0.0569 -0.2828
 8116SOL    HW135981   0.304   2.536   1.723  0.5271 -1.8957 -1.7694
 8116SOL    HW235982   0.189   2.475   1.664  1.3329 -0.4992 -0.0869
 8117SOL     OW35983   4.409   1.722   3.616 -0.1931  0.4837  0.3440
 8117SOL    HW135984   4.367   1.773   3.685  1.0168 -0.4814  1.7805
 8117SOL    HW235985   4.485   1.778   3.601 -0.8280  1.1852 -0.2794
 8118SOL     OW35986   2.421   2.056   6.913 -0.1350  0.0608 -0.0417
 8118SOL    HW135987   2.351   2.120   6.922  0.3543  0.7018 -0.8120
 8118SOL    HW235988   2.477   2.081   6.987 -2.0302 -2.0850  2.1148
 8119SOL     OW35989   4.427   0.335  12.448  0.2728  0.0558  0.1562
 8119SOL    HW135990   4.414   0.335  12.353 -0.7928 -1.5776  0.3008
 8119SOL    HW235991   4.381   0.253  12.469 -0.8260  0.4375 -0.7553
 8120SOL     OW35992   3.339   3.791   5.000 -0.9617 -0.1543 -0.2656
 8120SOL    HW135993   3.374   3.850   5.066 -0.1356 -0.1672 -0.6875
 8120SOL    HW235994   3.379   3.710   5.031  2.5149  1.9818  0.8405
 8121SOL     OW35995   4.314   4.441  16.306  0.3432 -0.5452 -0.6108
 8121SOL    HW135996   4.281   4.379  16.241 -3.3932 -0.1852  0.8918
 8121SOL    HW235997   4.405   4.412  16.309  0.0795 -1.2903  0.3141
 8122SOL     OW35998   2.361   1.131  11.129  0.2168  0.1171 -0.2004
 8122SOL    HW135999   2.294   1.080  11.173 -1.3837  0.2288 -2.5094
 8122SOL    HW236000   2.378   1.195  11.198 -3.8191  1.0432 -0.0742
 8123SOL     OW36001   4.261   0.973  14.678  0.2631  0.1705  0.5320
 8123SOL    HW136002   4.176   0.983  14.721  0.1831  0.8980  0.2094
 8123SOL    HW236003   4.294   0.892  14.716  0.8835 -1.1334 -2.8067
 8124SOL     OW36004   0.349   3.114   8.839 -0.4450 -0.2615  0.5804
 8124SOL    HW136005   0.306   3.085   8.758 -1.8123  0.7023  0.9521
 8124SOL    HW236006   0.419   3.050   8.848 -0.7323 -0.7601 -0.6021
 8125SOL     OW36007   0.333   2.118  16.176 -0.0191 -0.4490  0.4997
 8125SOL    HW136008   0.362   2.192  16.230 -0.0053 -0.6164  0.7179
 8125SOL    HW236009   0.241   2.098  16.188 -0.6662 -0.0337 -3.5791
 8126SOL     OW36010   1.312   3.650  11.773  0.1757 -0.4201  0.0236
 8126SOL    HW136011   1.335   3.725  11.719  0.0428 -0.5615 -0.2305
 8126SOL    HW236012   1.395   3.620  11.810 -0.6902 -1.2281  1.3424
 8127SOL     OW36013   2.957   4.265   4.306  0.4530 -0.2689  0.1148
 8127SOL    HW136014   2.864   4.284   4.294 -0.4594 -3.3843  2.0945
 8127SOL    HW236015   2.993   4.344   4.346  0.7652  1.5915 -3.9471
 8128SOL     OW36016   1.645   0.323  12.541 -0.0002 -0.0362  1.1104
 8128SOL    HW136017   1.556   0.294  12.561 -0.1876 -0.0345  0.2733
 8128SOL    HW236018   1.618   0.404  12.496 -0.4114  0.1432  1.6791
 8129SOL     OW36019   2.506   0.817   5.595 -0.6240  0.2745 -0.4547
 8129SOL    HW136020   2.497   0.722   5.592 -0.5914  0.3255 -1.9470
 8129SOL    HW236021   2.595   0.811   5.559 -0.5256  0.1461 -0.1943
 8130SOL     OW36022   0.217   0.094   1.564 -0.0698 -0.1229  0.4593
 8130SOL    HW136023   0.299   0.138   1.588 -0.4960  1.9949 -2.0542
 8130SOL    HW236024   0.178   0.070   1.649  0.9971  2.4914  1.6761
 8131SOL     OW36025   2.006   2.086  13.357 -0.4111 -0.0229 -0.0553
 8131SOL    HW136026   1.923   2.062  13.315 -1.0685  2.1861 -0.0441
 8131SOL    HW236027   1.977   2.149  13.423 -2.0965 -1.3700  0.4982
 8132SOL     OW36028   3.417   2.907   7.865  0.2007  0.0351  0.0376
 8132SOL    HW136029   3.358   2.981   7.871  0.1566 -0.2564  3.0337
 8132SOL    HW236030   3.462   2.917   7.948 -1.9398  0.7879  1.0956
 8133SOL     OW36031   2.110   1.182   6.290 -0.3947  0.0268 -0.0552
 8133SOL    HW136032   2.138   1.112   6.230  1.8293 -0.2253  1.2774
 8133SOL    HW236033   2.015   1.182   6.296 -0.3380  0.5422  0.9083
 8134SOL     OW36034   4.512   3.326   1.832  0.1566 -0.1619  0.0214
 8134SOL    HW136035   4.449   3.393   1.859  1.7186  1.7057 -0.9900
 8134SOL    HW236036   4.507   3.272   1.911 -0.3750 -1.5071 -0.9353
 8135SOL     OW36037   0.702   0.088  15.257  0.6381 -0.0964 -0.8228
 8135SOL    HW136038   0.747   0.012  15.294  0.5772 -0.3620 -1.2805
 8135SOL    HW236039   0.783   0.138  15.245  0.2103  1.1002  1.4105
 8136SOL     OW36040   2.282   3.020  12.674  0.0943 -0.3160 -0.3586
 8136SOL    HW136041   2.233   3.057  12.600  0.3125 -0.3734 -0.5303
 8136SOL    HW236042   2.323   3.100  12.705  1.0228 -0.7505 -0.4823
 8137SOL     OW36043   3.038   3.209  17.203  0.5760 -0.8686 -0.1018
 8137SOL    HW136044   2.985   3.154  17.260 -0.3299  1.8757  1.7484
 8137SOL    HW236045   3.025   3.294  17.246  2.0032 -0.8319  0.2567
 8138SOL     OW36046   4.316   0.365  13.554  0.4035  0.0467 -0.4262
 8138SOL    HW136047   4.403   0.399  13.535 -0.1141  0.5328 -1.9456
 8138SOL    HW236048   4.275   0.435  13.605  1.5111  0.6017 -0.2841
 8139SOL     OW36049   0.685   0.243   7.688 -0.1497 -0.4108  0.2726
 8139SOL    HW136050   0.769   0.237   7.644  0.5147 -0.8213  1.5864
 8139SOL    HW236051   0.691   0.166   7.745 -1.4135 -1.7953 -1.4912
 8140SOL     OW36052   2.013   1.905   1.728 -0.3441  0.3725  0.2520
 8140SOL    HW136053   2.097   1.951   1.730 -1.2866  2.0342  1.4386
 8140SOL    HW236054   2.037   1.824   1.684 -0.1568  1.3177 -1.3876
 8141SOL     OW36055   0.137   1.653   5.276  0.4567  0.1411  0.7779
 8141SOL    HW136056   0.216   1.669   5.327  0.3622 -0.6979  1.1719
 8141SOL    HW236057   0.128   1.558   5.283 -0.8077  0.1512 -0.7034
 8142SOL     OW36058   3.267   3.838  11.768 -0.6183  0.2742  0.2012
 8142SOL    HW136059   3.353   3.803  11.744  0.0578  1.1176  1.3860
 8142SOL    HW236060   3.248   3.906  11.704 -0.3690 -0.1542 -0.3324
 8143SOL     OW36061   1.978   3.581   1.227 -0.6181 -0.1943 -0.1267
 8143SOL    HW136062   1.997   3.675   1.227  2.6299 -0.8608 -2.1372
 8143SOL    HW236063   2.012   3.553   1.142  0.1973 -2.7187  1.0229
 8144SOL     OW36064   2.073   1.978   3.678 -0.2444 -0.6009 -0.7518
 8144SOL    HW136065   2.123   2.060   3.679  0.0514 -0.7878 -0.5460
 8144SOL    HW236066   1.991   2.024   3.659 -0.8639 -1.5990 -0.5173
 8145SOL     OW36067   3.700   1.357  13.105 -0.5080 -0.2292 -0.0151
 8145SOL    HW136068   3.761   1.426  13.078  1.1291 -2.2887 -1.6071
 8145SOL    HW236069   3.719   1.351  13.198 -0.7255  2.4857  0.2159
 8146SOL     OW36070   2.920   4.626   7.978  0.1794 -0.3426 -0.5525
 8146SOL    HW136071   2.959   4.547   7.940 -0.0420 -1.5572  1.7445
 8146SOL    HW236072   2.965   4.635   8.063 -1.8857  0.7401  0.4118
 8147SOL     OW36073   4.690   2.050   8.450  0.2441 -0.5536 -0.6593
 8147SOL    HW136074   4.703   2.119   8.515 -0.9929  0.9249 -1.9436
 8147SOL    HW236075   4.732   1.978   8.496  1.1754  0.6966  0.4385
 8148SOL     OW36076   1.839   4.309   1.004  0.1854 -0.5078 -0.1560
 8148SOL    HW136077   1.867   4.363   0.930 -1.9400 -0.0339 -0.6262
 8148SOL    HW236078   1.744   4.317   0.993 -0.1803 -2.6789  1.3315
 8149SOL     OW36079   0.180   4.222  11.294  0.2681  0.0159  0.1532
 8149SOL    HW136080   0.101   4.227  11.239  0.2252  0.0916  0.2220
 8149SOL    HW236081   0.194   4.129  11.277  1.1752  0.4129 -1.3236
 8150SOL     OW36082   1.442   1.216   8.117  0.0359  0.2650  0.0298
 8150SOL    HW136083   1.474   1.273   8.187 -1.3430 -1.2682  1.8903
 8150SOL    HW236084   1.371   1.169   8.160  1.1474 -0.6398  0.8708
 8151SOL     OW36085   3.906   3.006  13.189 -0.0029  0.1555 -0.2729
 8151SOL    HW136086   3.940   3.093  13.166  0.3980  0.3777  1.1827
 8151SOL    HW236087   3.841   3.038  13.252 -1.4601 -1.5469 -0.9040
 8152SOL     OW36088   0.870   1.605   6.553 -0.7470  0.1060  0.0824
 8152SOL    HW136089   0.923   1.537   6.596 -0.9834  0.1246  0.4042
 8152SOL    HW236090   0.892   1.679   6.609 -1.5599  1.8103 -1.8470
 8153SOL     OW36091   0.135   1.991   5.551  0.1636  0.0918 -0.0875
 8153SOL    HW136092   0.206   2.054   5.555  0.5513 -0.4771  1.9224
 8153SOL    HW236093   0.133   1.957   5.641 -0.8272  1.6639  0.4796
 8154SOL     OW36094   1.946   3.422   7.064  0.3095  0.3788  0.3055
 8154SOL    HW136095   2.005   3.351   7.036 -0.4584 -0.4430  0.7759
 8154SOL    HW236096   1.860   3.394   7.032 -0.6385  0.5543  2.7559
 8155SOL     OW36097   3.888   1.687   1.074  0.2627 -0.2332  0.4926
 8155SOL    HW136098   3.905   1.680   0.980 -0.4978 -2.3267  0.5252
 8155SOL    HW236099   3.795   1.703   1.091  0.7253  3.5323 -0.4998
 8156SOL     OW36100   2.051   3.233   0.970 -0.4319 -0.0050 -0.8298
 8156SOL    HW136101   2.002   3.218   0.889 -1.5915 -1.6208  0.1552
 8156SOL    HW236102   2.090   3.319   0.960 -0.5812  0.0170 -1.1941
 8157SOL     OW36103   1.667   1.017   6.483  0.5498 -0.0840  0.0311
 8157SOL    HW136104   1.688   0.924   6.467  1.1299  0.6161 -3.2151
 8157SOL    HW236105   1.632   1.049   6.400  2.3728  2.1123  0.1184
 8158SOL     OW36106   4.616   2.362   7.835  0.2562  0.1695  0.0086
 8158SOL    HW136107   4.530   2.345   7.873  0.8629  1.7297  2.0313
 8158SOL    HW236108   4.588   2.387   7.747 -2.6479  0.0399  0.8988
 8159SOL     OW36109   3.811   0.831   7.337  0.0657 -0.0383 -0.5923
 8159SOL    HW136110   3.856   0.777   7.402  0.7925  0.9507 -0.2728
 8159SOL    HW236111   3.818   0.921   7.370 -1.9537 -0.1310  0.0700
 8160SOL     OW36112   1.264   0.960  10.029  0.3858  0.0350 -0.1653
 8160SOL    HW136113   1.324   0.901  10.075  0.1773  0.4988  0.7105
 8160SOL    HW236114   1.275   0.920   9.942 -2.4273 -2.5819  0.6643
 8161SOL     OW36115   3.700   1.440   8.454  0.3286  0.3367  0.1357
 8161SOL    HW136116   3.608   1.441   8.428 -0.1716 -1.5540  1.8232
 8161SOL    HW236117   3.716   1.352   8.419  0.1141  0.4929 -0.3554
 8162SOL     OW36118   0.405   0.543  13.560  0.3115 -0.3924 -0.3279
 8162SOL    HW136119   0.462   0.582  13.494 -1.1320  1.2243 -0.6219
 8162SOL    HW236120   0.376   0.458  13.527 -1.7863 -0.2804  1.2144
 8163SOL     OW36121   4.020   3.065   2.265 -0.1488  0.3489  0.4323
 8163SOL    HW136122   3.952   3.096   2.324 -2.1500  0.2056 -1.7982
 8163SOL    HW236123   4.094   3.125   2.271 -0.7008  0.7890  2.6624
 8164SOL     OW36124   1.287   0.839  15.222  1.0209 -0.6716 -0.3872
 8164SOL    HW136125   1.345   0.913  15.202  0.1572 -0.0851 -0.7180
 8164SOL    HW236126   1.327   0.819  15.307  1.2205 -0.2359 -0.3753
 8165SOL     OW36127   2.132   2.931   9.181 -0.2715  0.4751 -0.0404
 8165SOL    HW136128   2.174   2.867   9.123 -1.8638 -1.7625  1.2626
 8165SOL    HW236129   2.059   2.942   9.119  0.7981 -0.1330 -1.4257
 8166SOL     OW36130   0.105   1.115   3.272 -0.5961  1.0929  0.0508
 8166SOL    HW136131   0.082   1.194   3.223 -1.5288  1.3660  0.9166
 8166SOL    HW236132   0.200   1.117   3.274 -0.5589  0.8281 -1.8749
 8167SOL     OW36133   4.071   0.515   8.156  0.6224  0.3001 -0.1347
 8167SOL    HW136134   4.037   0.603   8.171  0.9333  0.2340  0.9957
 8167SOL    HW236135   4.080   0.475   8.243  0.1923  0.0018 -0.2227
 8168SOL     OW36136   2.422   3.384   2.074  0.2168 -0.0874  0.3070
 8168SOL    HW136137   2.431   3.395   1.980 -1.5344 -1.2537  0.0016
 8168SOL    HW236138   2.412   3.288   2.079 -0.2449  0.0038  1.1733
 8169SOL     OW36139   2.946   3.020   0.771 -0.2420 -0.5271  0.2124
 8169SOL    HW136140   2.971   3.065   0.852 -3.1474  1.1940  0.1488
 8169SOL    HW236141   2.922   2.934   0.803  0.4500 -1.1419 -0.9266
 8170SOL     OW36142   4.736   2.383   1.931  0.5340  0.0058  0.6585
 8170SOL    HW136143   4.692   2.467   1.916 -1.8403 -1.8016 -2.6868
 8170SOL    HW236144   0.046   2.411   2.006  2.2723  0.7596 -0.8087
 8171SOL     OW36145   3.013   1.945  17.733  0.5529 -0.1756  0.3317
 8171SOL    HW136146   2.999   2.037  17.710 -0.3306 -0.4698 -0.3668
 8171SOL    HW236147   3.084   1.921  17.674 -0.8223  0.7968 -1.7288
 8172SOL     OW36148   0.538   4.130  14.319  0.5273  0.0354 -0.0625
 8172SOL    HW136149   0.472   4.157  14.256 -0.0357 -2.3870 -0.5037
 8172SOL    HW236150   0.582   4.061  14.268 -1.6645 -0.6955 -0.9743
 8173SOL     OW36151   3.909   3.408   5.389 -0.4212  0.0248 -0.0696
 8173SOL    HW136152   3.823   3.450   5.397 -0.0702  1.0640 -1.8960
 8173SOL    HW236153   3.968   3.475   5.423 -1.0708  0.5656 -0.0184
 8174SOL     OW36154   1.011   0.283  10.421  0.3386  0.1485  0.6584
 8174SOL    HW136155   1.033   0.235  10.502  0.1013  1.3502  1.4294
 8174SOL    HW236156   1.048   0.365  10.454  2.7715 -0.4271 -0.6331
 8175SOL     OW36157   2.494   4.584  11.814  0.4896 -0.1392 -0.6955
 8175SOL    HW136158   2.464   4.635  11.739  0.6827  1.2325  0.1695
 8175SOL    HW236159   2.490   4.495  11.779 -0.7380 -0.0001 -0.8883
 8176SOL     OW36160   1.240   3.711   4.676  0.0942  0.1984  0.4070
 8176SOL    HW136161   1.305   3.651   4.713  0.1311 -0.0447 -0.0479
 8176SOL    HW236162   1.246   3.678   4.587 -2.0487  1.9034 -0.3684
 8177SOL     OW36163   0.841   2.801   6.104 -0.1738 -0.1362 -0.2252
 8177SOL    HW136164   0.936   2.803   6.094 -0.3195  2.1199 -1.2006
 8177SOL    HW236165   0.815   2.865   6.038 -0.8781  1.2225  1.3547
 8178SOL     OW36166   2.848   1.947  11.479 -0.4067 -0.1350 -0.5381
 8178SOL    HW136167   2.852   1.858  11.515 -0.8302 -0.4738 -1.3403
 8178SOL    HW236168   2.864   1.990  11.563  0.2563  3.4629 -2.5016
 8179SOL     OW36169   3.719   2.624   8.397  0.1851 -0.6189  0.0795
 8179SOL    HW136170   3.803   2.652   8.361  0.6294 -1.0100  0.8147
 8179SOL    HW236171   3.664   2.637   8.320 -0.2721 -0.5729  0.4071
 8180SOL     OW36172   4.468   1.472  15.622 -0.2162 -1.0288  0.4045
 8180SOL    HW136173   4.559   1.497  15.635  0.3760 -2.6723 -0.5904
 8180SOL    HW236174   4.440   1.456  15.712 -0.1491 -0.7407  0.4777
 8181SOL     OW36175   3.655   1.287  14.826 -0.1009 -0.4074  0.0786
 8181SOL    HW136176   3.584   1.311  14.767 -0.2973  1.4171  1.0537
 8181SOL    HW236177   3.725   1.277  14.762 -0.3518 -0.9200 -0.1196
 8182SOL     OW36178   3.914   4.470   7.431 -0.1717 -0.2331  0.0387
 8182SOL    HW136179   3.896   4.376   7.431 -1.8372  0.0839  2.0028
 8182SOL    HW236180   3.870   4.496   7.512 -1.3649 -1.8668 -0.0874
 8183SOL     OW36181   2.381   0.019  11.640  0.3383  0.0799  0.2909
 8183SOL    HW136182   2.289   0.020  11.615 -0.1664  0.4226  2.2007
 8183SOL    HW236183   2.430   0.032  11.559  0.3103  0.5769  0.3531
 8184SOL     OW36184   2.839   1.757   2.728  0.2647 -0.5779  0.3419
 8184SOL    HW136185   2.927   1.752   2.688 -0.4723 -3.5304 -0.9556
 8184SOL    HW236186   2.789   1.802   2.660 -2.6992 -0.7948  2.3910
 8185SOL     OW36187   4.455   4.737   7.498  0.2352  0.2292  0.4348
 8185SOL    HW136188   4.479   4.669   7.562  1.3064  0.8484  0.6918
 8185SOL    HW236189   4.478   0.077   7.545  1.6231 -0.2224  0.5310
 8186SOL     OW36190   3.176   2.414   7.423 -0.2648  0.2183 -0.2947
 8186SOL    HW136191   3.135   2.335   7.388 -1.8228  0.2294  1.4965
 8186SOL    HW236192   3.212   2.449   7.341 -2.8352  0.4971 -1.3233
 8187SOL     OW36193   1.821   0.380   6.249  0.4913  0.2126  0.0685
 8187SOL    HW136194   1.747   0.361   6.192  1.5374 -0.0461 -1.2083
 8187SOL    HW236195   1.788   0.457   6.295 -0.8089  1.0928 -2.3905
 8188SOL     OW36196   4.026   1.268   5.671  0.6676  0.5340  0.8414
 8188SOL    HW136197   4.093   1.283   5.605 -2.0389  0.5726 -1.8616
 8188SOL    HW236198   3.953   1.248   5.612  0.3408  1.2291  1.0021
 8189SOL     OW36199   0.075   3.677   8.376  0.2035  0.6994 -0.1853
 8189SOL    HW136200   0.037   3.663   8.463  1.4074 -0.6875  0.1296
 8189SOL    HW236201   0.157   3.627   8.367 -0.5230 -0.7238  1.1924
 8190SOL     OW36202   0.115   0.378   8.859  0.1669  0.7250 -0.5088
 8190SOL    HW136203   0.072   0.309   8.909 -0.1884  2.3942  1.5404
 8190SOL    HW236204   0.103   0.456   8.914 -1.4912  0.8552 -1.0561
 8191SOL     OW36205   0.168   2.285   9.652  0.1721  0.5438 -0.2370
 8191SOL    HW136206   0.262   2.289   9.668  0.0700  0.7220  0.2895
 8191SOL    HW236207   0.146   2.359   9.595  2.2657  0.3418 -1.3044
 8192SOL     OW36208   2.803   2.371   2.684 -0.2038  0.0483 -0.0784
 8192SOL    HW136209   2.748   2.388   2.760  2.3413  1.5112  1.4504
 8192SOL    HW236210   2.860   2.448   2.692 -0.1398 -0.2797  2.5036
 8193SOL     OW36211   3.452   4.468   4.202 -0.3321  0.4328  0.3931
 8193SOL    HW136212   3.435   4.502   4.290 -0.6005 -0.6437  0.7646
 8193SOL    HW236213   3.369   4.455   4.158  0.2537 -0.5221 -0.4323
 8194SOL     OW36214   4.209   4.208   2.308 -0.1678 -0.6258  0.1356
 8194SOL    HW136215   4.161   4.148   2.365  0.1907 -2.8313 -1.8752
 8194SOL    HW236216   4.295   4.165   2.308 -0.6540 -1.6059  1.2371
 8195SOL     OW36217   0.885   0.155   3.841 -0.0393  0.2376 -0.5603
 8195SOL    HW136218   0.816   0.099   3.879  0.2481 -0.3105 -0.8563
 8195SOL    HW236219   0.860   0.142   3.750 -0.4093  2.1885 -0.7327
 8196SOL     OW36220   3.691   1.021   3.634  0.5003  0.2768 -0.1945
 8196SOL    HW136221   3.784   1.012   3.657  0.2672  1.5243  1.2313
 8196SOL    HW236222   3.657   0.932   3.643 -1.1831  1.1074  1.6262
 8197SOL     OW36223   0.378   2.322   2.307 -0.3500 -0.2328  0.6614
 8197SOL    HW136224   0.459   2.322   2.358  0.4949  0.7952 -0.6907
 8197SOL    HW236225   0.306   2.292   2.362 -1.3025  0.5379 -0.1774
 8198SOL     OW36226   0.419   4.038   6.532 -0.3978 -0.1734 -0.2421
 8198SOL    HW136227   0.476   4.111   6.556  0.6388 -1.7257  2.0052
 8198SOL    HW236228   0.349   4.062   6.593 -0.1943 -0.2550  0.0219
 8199SOL     OW36229   1.798   3.515   4.869  0.1545  0.3419 -0.3800
 8199SOL    HW136230   1.809   3.471   4.954  0.7641  0.8498 -0.1900
 8199SOL    HW236231   1.794   3.603   4.907  0.2234 -0.9140  2.5493
 8200SOL     OW36232   3.946   3.330   6.079 -0.0950 -0.4482 -0.2161
 8200SOL    HW136233   3.899   3.249   6.060 -3.0831  1.5379 -1.2800
 8200SOL    HW236234   3.914   3.342   6.169  1.3555 -2.3764  0.5401
 8201SOL     OW36235   1.834   3.627   6.676  0.0916  0.0853 -0.1316
 8201SOL    HW136236   1.757   3.580   6.706 -0.6794  2.8478  2.2133
 8201SOL    HW236237   1.815   3.717   6.705 -0.6154  0.2385 -1.0881
 8202SOL     OW36238   2.592   2.448   9.273  0.1238  0.0450  0.0918
 8202SOL    HW136239   2.590   2.370   9.329  0.2986  1.4738  2.0929
 8202SOL    HW236240   2.678   2.483   9.298  1.0162 -1.3061 -1.0551
 8203SOL     OW36241   4.156   2.167   9.611  0.2786  0.2126  0.0356
 8203SOL    HW136242   4.200   2.231   9.556  0.1105  1.1685  1.0153
 8203SOL    HW236243   4.104   2.119   9.546 -1.2310  0.4614  1.0472
 8204SOL     OW36244   0.842   1.315  10.628  0.1891  0.0182 -0.2920
 8204SOL    HW136245   0.936   1.299  10.639 -0.1185 -1.0951  0.7536
 8204SOL    HW236246   0.837   1.407  10.605 -1.2398 -0.3164 -1.2803
 8205SOL     OW36247   1.256   3.652   5.961  0.4867 -0.0987  0.2729
 8205SOL    HW136248   1.265   3.577   5.903  2.1570 -1.3230  2.1075
 8205SOL    HW236249   1.310   3.636   6.039  0.7752 -0.6531 -0.0431
 8206SOL     OW36250   4.554   1.255   7.037  0.4159 -0.0191 -0.1193
 8206SOL    HW136251   4.487   1.191   7.012  0.7471 -0.7906  0.9737
 8206SOL    HW236252   4.499   1.329   7.012  0.5088  0.3381  0.7412
 8207SOL     OW36253   2.773   4.337  12.130  0.2133 -0.3844  0.1218
 8207SOL    HW136254   2.742   4.426  12.111 -0.5888 -1.4421 -3.5595
 8207SOL    HW236255   2.840   4.362  12.193  0.1910  1.2783 -0.5031
 8208SOL     OW36256   3.288   1.353  10.023  0.6944  0.1281  0.5498
 8208SOL    HW136257   3.243   1.435  10.004  0.0212 -0.6918 -1.3987
 8208SOL    HW236258   3.221   1.290   9.994  1.4470  0.1516 -1.1982
 8209SOL     OW36259   0.430   3.584   6.101 -0.0600 -0.5889 -0.3173
 8209SOL    HW136260   0.375   3.661   6.111  0.6106 -0.1132 -0.3380
 8209SOL    HW236261   0.486   3.613   6.029 -0.2453  0.8293  0.1198
 8210SOL     OW36262   2.881   0.975  17.338 -0.3492 -0.2253  0.6499
 8210SOL    HW136263   2.854   1.064  17.313 -0.9569 -0.1857  1.4833
 8210SOL    HW236264   2.797   0.930  17.329 -1.4645  2.0624 -0.4787
 8211SOL     OW36265   4.564   1.342   2.857 -0.2350  0.7774 -0.1319
 8211SOL    HW136266   4.469   1.339   2.866 -0.2113  1.8555  0.4053
 8211SOL    HW236267   4.578   1.422   2.806 -0.4864  1.0427  0.2187
 8212SOL     OW36268   0.544   0.303  15.310 -0.0778 -0.3741  0.2965
 8212SOL    HW136269   0.596   0.375  15.346  0.9903 -0.2151 -1.6067
 8212SOL    HW236270   0.618   0.245  15.295  0.3618 -0.1109  1.4215
 8213SOL     OW36271   0.887   0.910   3.695 -0.0213  0.7198 -0.3371
 8213SOL    HW136272   0.967   0.962   3.700  0.0132  0.5578  0.8251
 8213SOL    HW236273   0.891   0.887   3.602  1.5727 -0.2889 -0.0154
 8214SOL     OW36274   2.429   2.630   3.344 -0.6135 -0.3753  0.0445
 8214SOL    HW136275   2.370   2.593   3.410 -1.6073  3.3850  1.2907
 8214SOL    HW236276   2.490   2.666   3.408  0.0444 -0.8857 -0.3003
 8215SOL     OW36277   3.489   3.872  17.365  0.0996  0.2489 -0.5582
 8215SOL    HW136278   3.443   3.885  17.448 -1.6335 -0.8139 -1.3752
 8215SOL    HW236279   3.479   3.947  17.306 -0.1983  0.4464 -0.2567
 8216SOL     OW36280   3.693   3.608   5.348 -0.0968 -0.2815 -0.2041
 8216SOL    HW136281   3.641   3.645   5.420 -1.5764 -0.7040 -1.0464
 8216SOL    HW236282   3.730   3.684   5.305  0.0864  1.0032  2.2412
 8217SOL     OW36283   3.961   4.388   5.393  0.6565 -0.1828 -0.0630
 8217SOL    HW136284   3.920   4.323   5.449 -1.3919 -0.2725 -1.6519
 8217SOL    HW236285   3.994   4.452   5.456  0.4410 -1.0742  0.9479
 8218SOL     OW36286   1.642   2.790  11.482  0.3772  0.3540 -0.0495
 8218SOL    HW136287   1.598   2.744  11.553  0.7743  0.1202  0.0459
 8218SOL    HW236288   1.718   2.734  11.463  1.1969  0.7378  2.1081
 8219SOL     OW36289   0.908   2.679   5.826 -0.2777 -0.4236  0.0333
 8219SOL    HW136290   0.969   2.747   5.798  0.1576 -0.2099  1.5005
 8219SOL    HW236291   0.830   2.730   5.846  0.4088  0.2527  0.9705
 8220SOL     OW36292   1.807   2.008   6.132  0.4582 -0.2068  0.8008
 8220SOL    HW136293   1.787   2.077   6.196 -2.1739 -0.8898  0.7311
 8220SOL    HW236294   1.753   1.934   6.161 -0.4771  0.5349  0.9364
 8221SOL     OW36295   2.509   4.508   5.168 -0.6524 -0.0251  0.0203
 8221SOL    HW136296   2.497   4.503   5.263 -0.2952  1.0012  0.1183
 8221SOL    HW236297   2.604   4.510   5.162 -0.5700 -2.4818  0.1946
 8222SOL     OW36298   1.086   2.490  10.126 -0.5418 -0.0994  0.1597
 8222SOL    HW136299   1.024   2.548  10.169 -2.1122 -0.9507 -0.9420
 8222SOL    HW236300   1.161   2.488  10.185 -0.3226  1.4407 -0.0750
 8223SOL     OW36301   3.343   4.185   8.761 -0.2127 -0.2621 -0.6476
 8223SOL    HW136302   3.394   4.104   8.762 -0.9794 -0.7348  0.0789
 8223SOL    HW236303   3.254   4.156   8.779 -0.3454 -0.4561 -1.5803
 8224SOL     OW36304   2.283   1.587   9.432 -0.9375 -0.3745  0.6809
 8224SOL    HW136305   2.245   1.588   9.344  0.8425  0.4850 -0.0707
 8224SOL    HW236306   2.235   1.648   9.488 -0.4608  0.6993 -0.0976
 8225SOL     OW36307   2.647   3.144  13.280  0.1217  0.5133  0.1303
 8225SOL    HW136308   2.663   3.127  13.373 -3.2604 -5.4131 -0.3555
 8225SOL    HW236309   2.604   3.229  13.281 -3.0199 -1.0690 -0.7510
 8226SOL     OW36310   4.009   3.390  14.353 -0.2688  0.6175 -0.0593
 8226SOL    HW136311   4.101   3.363  14.359 -0.2281  1.2118  2.1821
 8226SOL    HW236312   3.979   3.329  14.287 -1.9215 -0.5513  1.7948
 8227SOL     OW36313   1.262   4.182   4.414 -0.0679  0.1018  0.2030
 8227SOL    HW136314   1.303   4.157   4.497 -0.1819 -0.9061 -0.0526
 8227SOL    HW236315   1.268   4.278   4.422  3.1459 -0.4071  4.1202
 8228SOL     OW36316   4.296   3.261   5.815  0.0982  0.0913  0.2444
 8228SOL    HW136317   4.362   3.298   5.756 -0.6268  0.4172 -0.3676
 8228SOL    HW236318   4.353   3.191   5.846 -1.3417 -1.8532 -1.4671
 8229SOL     OW36319   1.442   0.066   1.053  0.6004 -0.4041 -0.0477
 8229SOL    HW136320   1.422   0.063   0.960  0.1099 -1.2014  0.0880
 8229SOL    HW236321   1.354   0.070   1.090  1.2790  1.7768  1.3595
 8230SOL     OW36322   2.227   3.418   0.471 -0.1889  0.0973 -0.0096
 8230SOL    HW136323   2.186   3.337   0.503 -1.7244  1.5351  1.6640
 8230SOL    HW236324   2.184   3.428   0.386 -2.0853 -1.2555  0.7852
 8231SOL     OW36325   4.520   4.159   5.502 -0.1674 -0.3802 -0.4928
 8231SOL    HW136326   4.477   4.164   5.416 -3.1915  0.7752  1.0626
 8231SOL    HW236327   4.467   4.101   5.557  1.2325 -2.1829 -1.0730
 8232SOL     OW36328   2.010   3.653   3.410  0.2300 -0.7384 -0.0037
 8232SOL    HW136329   1.920   3.677   3.390  0.4925  0.3949  0.1771
 8232SOL    HW236330   2.016   3.562   3.381 -1.9273 -1.5183  2.0556
 8233SOL     OW36331   4.686   3.598   7.119 -0.5990  0.8049  0.1610
 8233SOL    HW136332   4.595   3.608   7.146 -0.8573  0.7035 -0.6935
 8233SOL    HW236333   4.684   3.568   7.028  0.5107  1.2362 -0.0096
 8234SOL     OW36334   1.255   2.144   9.886 -0.1455 -0.1310  0.1161
 8234SOL    HW136335   1.205   2.065   9.863 -0.2910 -0.4281  1.4853
 8234SOL    HW236336   1.195   2.179   9.952 -0.2572 -1.8812  0.9251
 8235SOL     OW36337   4.441   2.542  10.166 -0.0974 -0.0363  0.2788
 8235SOL    HW136338   4.514   2.556  10.106 -0.8622 -0.5477 -0.7702
 8235SOL    HW236339   4.375   2.493  10.116 -0.1242  0.3076 -0.0185
 8236SOL     OW36340   1.868   1.029  10.889 -0.3377 -0.1422  0.2651
 8236SOL    HW136341   1.819   1.092  10.836  0.8420 -0.4817 -1.2377
 8236SOL    HW236342   1.953   1.026  10.845 -0.5802 -1.1523 -0.1415
 8237SOL     OW36343   2.882   3.234   3.108  0.3079  0.3472 -0.0981
 8237SOL    HW136344   2.909   3.262   3.196  0.1073 -2.3664  0.8322
 8237SOL    HW236345   2.860   3.146   3.138  1.9614 -0.5217 -1.4419
 8238SOL     OW36346   0.306   3.444   8.726 -0.2068 -0.5501  0.1961
 8238SOL    HW136347   0.350   3.404   8.651 -0.7519  4.0921 -2.6102
 8238SOL    HW236348   0.223   3.397   8.721 -0.4654  0.0053 -0.8258
 8239SOL     OW36349   4.379   0.656  12.805 -0.1455 -0.8051 -0.2456
 8239SOL    HW136350   4.307   0.692  12.754 -0.8105 -0.0354  1.2652
 8239SOL    HW236351   4.456   0.697  12.764  0.1588 -0.9207  0.2042
 8240SOL     OW36352   4.609   0.991   7.704 -0.0672 -0.1890  0.1164
 8240SOL    HW136353   4.569   0.904   7.707 -1.5460  0.4050 -2.0876
 8240SOL    HW236354   4.531   1.045   7.714  1.2579  1.9460 -1.0490
 8241SOL     OW36355   4.098   4.069   2.528  0.1597  0.5903  0.4543
 8241SOL    HW136356   4.015   4.052   2.485  0.8391 -0.2039 -0.5325
 8241SOL    HW236357   4.106   3.987   2.578 -1.4584  0.7892  1.0242
 8242SOL     OW36358   1.364   1.731  13.356 -1.2686 -0.3077 -0.1412
 8242SOL    HW136359   1.288   1.737  13.298 -0.3894 -0.6533 -1.3222
 8242SOL    HW236360   1.325   1.768  13.435 -1.3355 -1.0322  0.1699
 8243SOL     OW36361   4.024   1.604   3.605  0.0890 -0.5921 -0.6517
 8243SOL    HW136362   4.028   1.621   3.511 -1.1022  1.8692 -0.2582
 8243SOL    HW236363   4.114   1.571   3.611  1.4220  2.7946 -1.6807
 8244SOL     OW36364   4.240   3.242   2.266 -0.3401  0.1354 -0.0911
 8244SOL    HW136365   4.198   3.279   2.188 -0.7995 -0.7365 -0.2589
 8244SOL    HW236366   4.277   3.322   2.303 -0.3633  1.3192 -2.5724
 8245SOL     OW36367   3.587   0.845   4.244  0.1794  0.4284 -0.5865
 8245SOL    HW136368   3.624   0.920   4.198 -1.4640  0.5382 -1.7153
 8245SOL    HW236369   3.649   0.821   4.313 -1.4457 -1.4919  0.2102
 8246SOL     OW36370   3.107   2.312   2.282 -1.0687  0.1587 -0.3398
 8246SOL    HW136371   3.153   2.303   2.365 -0.6748  0.8039 -0.4869
 8246SOL    HW236372   3.180   2.325   2.221  0.2142 -1.2084  0.9061
 8247SOL     OW36373   3.213   0.956   7.436  0.1429  0.3304 -0.7589
 8247SOL    HW136374   3.230   0.949   7.530  1.5037  0.3400 -1.0052
 8247SOL    HW236375   3.183   0.866   7.423 -0.7572  0.1483  2.4151
 8248SOL     OW36376   1.038   1.374   6.181 -0.8131  0.4427 -0.0027
 8248SOL    HW136377   0.946   1.399   6.180 -0.6194  1.1847  0.8407
 8248SOL    HW236378   1.038   1.308   6.251 -4.1920 -0.7835 -1.1351
 8249SOL     OW36379   2.124   1.313   8.175 -0.3577 -0.1260  0.0467
 8249SOL    HW136380   2.083   1.332   8.259 -2.1460 -0.9978 -0.6270
 8249SOL    HW236381   2.213   1.330   8.205 -1.7821  0.2035  4.0422
 8250SOL     OW36382   0.178   3.074  11.526  0.1939  0.2199 -0.3308
 8250SOL    HW136383   0.214   3.130  11.458 -0.1660  1.0700  0.1742
 8250SOL    HW236384   0.108   3.037  11.473  0.7357 -0.9657 -0.2229
 8251SOL     OW36385   2.609   4.712   6.785 -0.2086  0.1539 -0.3342
 8251SOL    HW136386   2.637   4.634   6.833 -0.9295  0.6051  0.8331
 8251SOL    HW236387   2.694   4.731   6.746  0.6866 -2.9235  0.0886
 8252SOL     OW36388   0.971   1.409  12.938 -0.6059  0.0731 -0.0914
 8252SOL    HW136389   0.967   1.324  12.982 -0.1970 -0.8684 -1.9037
 8252SOL    HW236390   0.883   1.408  12.901 -0.5295 -1.4240 -0.2094
 8253SOL     OW36391   3.922   4.153   9.488  0.0943  0.3503 -0.4340
 8253SOL    HW136392   3.854   4.085   9.490 -0.3715  0.7864 -1.5893
 8253SOL    HW236393   4.006   4.108   9.478 -0.3611 -0.0243 -2.6268
 8254SOL     OW36394   0.163   1.773  12.392  0.2127 -0.8927  0.9536
 8254SOL    HW136395   0.077   1.780  12.435 -0.7334 -0.9082 -0.9339
 8254SOL    HW236396   0.185   1.697  12.446  2.7330  0.8785  2.3721
 8255SOL     OW36397   0.716   3.027   9.722 -0.4343 -0.7842 -0.0478
 8255SOL    HW136398   0.791   2.982   9.760  0.8893 -0.1912 -1.9748
 8255SOL    HW236399   0.677   3.071   9.797  0.9363  1.4817 -0.6569
 8256SOL     OW36400   2.585   3.116   1.761  0.4085 -0.3300 -0.5105
 8256SOL    HW136401   2.584   3.136   1.668 -1.2018 -0.2255 -0.4617
 8256SOL    HW236402   2.626   3.030   1.774  0.6395 -0.3579 -1.4563
 8257SOL     OW36403   3.799   3.312  13.264 -0.7066 -0.0046 -0.2410
 8257SOL    HW136404   3.875   3.276  13.309  0.1535  0.3796 -1.3881
 8257SOL    HW236405   3.832   3.314  13.174  1.6720 -1.1172  0.6237
 8258SOL     OW36406   1.412   3.146   4.528  0.5628  0.0344  0.0046
 8258SOL    HW136407   1.343   3.085   4.503  0.2805  0.6206 -0.6573
 8258SOL    HW236408   1.414   3.215   4.461 -1.1069 -0.3194 -0.4240
 8259SOL     OW36409   1.746   2.590   4.610 -0.0912  0.4082  0.2832
 8259SOL    HW136410   1.675   2.538   4.571 -0.6939  1.4856 -0.0419
 8259SOL    HW236411   1.817   2.528   4.594  1.2487  1.5398  1.9502
 8260SOL     OW36412   2.525   0.808   6.842 -0.5507  0.0165  0.4873
 8260SOL    HW136413   2.450   0.756   6.814 -0.9299  0.4801  0.6344
 8260SOL    HW236414   2.526   0.851   6.756 -3.2218  1.2010  1.0567
 8261SOL     OW36415   2.713   0.274   8.139 -0.4134 -0.3435 -0.4767
 8261SOL    HW136416   2.754   0.296   8.055 -1.1406 -0.8213 -0.9555
 8261SOL    HW236417   2.684   0.357   8.175  2.2588 -0.1983  1.3182
 8262SOL     OW36418   4.186   3.614  12.789  0.3404  0.6078  0.3955
 8262SOL    HW136419   4.211   3.524  12.771 -1.2474  0.7485 -2.3868
 8262SOL    HW236420   4.100   3.602  12.829 -0.1149  1.7318 -0.2446
 8263SOL     OW36421   0.553   2.406   6.481  0.2698 -0.3321  0.2794
 8263SOL    HW136422   0.472   2.385   6.528 -0.3301 -0.5446 -0.8423
 8263SOL    HW236423   0.542   2.498   6.458  0.2551 -0.5684 -0.6645
 8264SOL     OW36424   2.760   3.923  14.282 -0.4479  0.3854 -0.3322
 8264SOL    HW136425   2.686   3.901  14.339  0.0175  0.6514  0.3675
 8264SOL    HW236426   2.717   3.920  14.196 -2.3667  0.8052  0.6127
 8265SOL     OW36427   0.793   2.623   8.308  0.3598  0.6285  0.4955
 8265SOL    HW136428   0.850   2.595   8.236 -0.7662 -0.2938 -0.0374
 8265SOL    HW236429   0.865   2.662   8.359  2.3089 -0.5292 -1.3493
 8266SOL     OW36430   4.344   2.748   5.406  0.0884 -0.4164  0.4256
 8266SOL    HW136431   4.339   2.747   5.310  0.4128  1.7292  0.3680
 8266SOL    HW236432   4.316   2.662   5.436 -1.1984 -0.9819 -2.3791
 8267SOL     OW36433   3.170   1.853   4.617 -0.6998  0.2075 -0.3143
 8267SOL    HW136434   3.190   1.786   4.552 -0.4522 -0.7789  0.7936
 8267SOL    HW236435   3.256   1.892   4.635  0.1252 -1.5523 -0.4314
 8268SOL     OW36436   2.338   2.310  14.083 -0.0142 -0.2586 -0.1141
 8268SOL    HW136437   2.282   2.235  14.064  1.1774 -0.7909 -1.5895
 8268SOL    HW236438   2.369   2.325  13.993 -0.0412 -0.2322 -0.1188
 8269SOL     OW36439   1.284   2.045   2.250 -0.0644  0.2191  0.3023
 8269SOL    HW136440   1.266   2.041   2.344 -0.8119 -0.5076  0.1329
 8269SOL    HW236441   1.197   2.045   2.210 -0.5321  0.3995  1.3191
 8270SOL     OW36442   1.822   0.741   4.808  0.2640 -0.0889  0.0067
 8270SOL    HW136443   1.909   0.744   4.848  0.0966 -0.2133  0.3889
 8270SOL    HW236444   1.798   0.819   4.859 -0.6943 -0.6636  0.4560
 8271SOL     OW36445   2.921   4.150   6.922 -0.3652 -0.3994  0.3259
 8271SOL    HW136446   2.856   4.117   6.860  1.6906 -2.6710 -0.6585
 8271SOL    HW236447   2.992   4.173   6.862 -0.8133 -1.1236 -0.4778
 8272SOL     OW36448   1.461   3.724   2.948  0.1664  0.1146 -0.3799
 8272SOL    HW136449   1.463   3.734   3.043 -0.1986 -0.2380 -0.3330
 8272SOL    HW236450   1.529   3.657   2.944  0.8604  0.6685  2.2226
 8273SOL     OW36451   4.096   2.098   3.005  0.0834 -0.5746 -0.0490
 8273SOL    HW136452   4.181   2.068   3.036 -0.5641 -1.6499  0.6836
 8273SOL    HW236453   4.105   2.091   2.910  1.2332  1.8783 -0.1166
 8274SOL     OW36454   2.775   0.499   5.598  0.3705 -0.1297 -0.3376
 8274SOL    HW136455   2.749   0.502   5.690  0.9121  0.2765 -0.1929
 8274SOL    HW236456   2.835   0.574   5.597 -0.5224  0.5588 -2.5000
 8275SOL     OW36457   0.539   4.008   4.490 -0.3830 -0.4534  0.1339
 8275SOL    HW136458   0.629   3.984   4.515  0.7659  1.9200 -1.6856
 8275SOL    HW236459   0.566   4.092   4.452 -0.2458 -0.1946  0.7928
 8276SOL     OW36460   0.915   3.462   5.905 -0.5289 -0.2235 -0.0613
 8276SOL    HW136461   1.005   3.457   5.873 -0.4331 -3.2593  0.6995
 8276SOL    HW236462   0.918   3.525   5.977  0.5147 -0.8037  0.4090
 8277SOL     OW36463   1.018   4.657  17.076 -0.1641  0.2275  0.1967
 8277SOL    HW136464   1.006   4.653  16.981  1.4654 -0.0224  0.0028
 8277SOL    HW236465   0.948   4.602  17.113  1.1205 -1.6592 -0.1796
 8278SOL     OW36466   1.989   1.780  10.804 -0.4472 -0.4410  0.2749
 8278SOL    HW136467   2.071   1.745  10.839  0.8167  3.3792  1.0937
 8278SOL    HW236468   1.959   1.830  10.879 -1.7936 -0.4555 -0.2605
 8279SOL     OW36469   3.686   0.269   9.721 -0.5305 -0.1182  0.3140
 8279SOL    HW136470   3.605   0.223   9.699 -1.0446  1.5556 -1.2484
 8279SOL    HW236471   3.728   0.194   9.765 -1.9416 -0.8946  0.3428
 8280SOL     OW36472   3.642   0.983   7.627 -0.2753  0.3652  0.1340
 8280SOL    HW136473   3.624   0.907   7.683 -1.2383  1.0495  0.7537
 8280SOL    HW236474   3.595   0.963   7.545 -1.2782 -0.7786  0.9929
 8281SOL     OW36475   3.423   1.679   8.899  0.0954  0.0379 -0.1855
 8281SOL    HW136476   3.435   1.734   8.822 -2.2853 -0.8550 -1.1977
 8281SOL    HW236477   3.512   1.656   8.925 -0.4803  0.2466  2.0285
 8282SOL     OW36478   0.974   2.762   5.025 -0.0410 -0.3076 -0.0553
 8282SOL    HW136479   1.041   2.719   4.972 -0.1663 -0.1686 -0.3267
 8282SOL    HW236480   0.993   2.851   4.996  1.5324  0.0575  2.0696
 8283SOL     OW36481   1.859   0.699   3.988  0.2628 -0.0795 -0.9422
 8283SOL    HW136482   1.907   0.775   3.956  0.9050  0.5697  1.6069
 8283SOL    HW236483   1.866   0.709   4.083 -0.9784 -0.2431 -0.8388
 8284SOL     OW36484   0.404   2.674  16.971  0.2307 -0.0225 -0.1665
 8284SOL    HW136485   0.381   2.581  16.980  0.8979 -0.4287 -2.8010
 8284SOL    HW236486   0.325   2.727  16.982  0.7303  0.5482  0.6301
 8285SOL     OW36487   0.619   0.103   8.646 -0.3766 -0.5164 -0.0716
 8285SOL    HW136488   0.601   0.142   8.731  0.9107 -0.9980  0.4142
 8285SOL    HW236489   0.710   0.131   8.640 -0.2213 -1.4134 -2.0349
 8286SOL     OW36490   4.167   2.295   6.244  0.1197  0.2707 -0.1297
 8286SOL    HW136491   4.178   2.344   6.325 -1.0497  0.7088 -0.2426
 8286SOL    HW236492   4.218   2.217   6.267 -1.2547 -0.0214  1.9111
 8287SOL     OW36493   0.456   0.172  11.182 -0.2752 -0.0202  0.7012
 8287SOL    HW136494   0.419   0.261  11.184 -3.4826 -1.3423 -1.2985
 8287SOL    HW236495   0.383   0.122  11.217 -0.7580 -0.3395 -0.7772
 8288SOL     OW36496   2.621   4.199   5.111 -0.4104  0.3961  0.4259
 8288SOL    HW136497   2.666   4.119   5.136  1.0940  1.3435  0.7287
 8288SOL    HW236498   2.694   4.256   5.089 -0.0718 -0.3376 -0.3280
 8289SOL     OW36499   0.073   1.124   0.848 -0.1531 -0.0121  0.2493
 8289SOL    HW136500   0.092   1.039   0.886 -0.7439 -0.0966  0.3523
 8289SOL    HW236501   0.037   1.173   0.922  2.9637  0.0883  1.7226
 8290SOL     OW36502   0.016   2.521  14.165  0.1377  0.1038 -0.5624
 8290SOL    HW136503   0.004   2.512  14.071  0.9193 -0.7801 -0.5771
 8290SOL    HW236504   0.002   2.440  14.213  0.2509  0.9977  0.9964
 8291SOL     OW36505   1.591   2.999   9.750 -0.0008  0.4716 -0.1740
 8291SOL    HW136506   1.512   2.945   9.754  0.0369  0.4028 -0.3474
 8291SOL    HW236507   1.596   3.043   9.835  1.6298  2.3237 -1.2430
 8292SOL     OW36508   1.087   1.931   8.262 -0.3805 -0.1082 -0.1652
 8292SOL    HW136509   1.068   2.025   8.267 -0.5814 -0.1328 -0.4899
 8292SOL    HW236510   1.016   1.896   8.315  2.2701 -4.3596  0.5507
 8293SOL     OW36511   3.330   2.631   5.482  0.1684 -0.4099  0.2367
 8293SOL    HW136512   3.389   2.650   5.408 -0.0587  1.8297  0.6391
 8293SOL    HW236513   3.289   2.550   5.452 -0.1539  0.3275 -1.3266
 8294SOL     OW36514   0.075   1.583  17.312 -0.3221  0.5201  0.0948
 8294SOL    HW136515   0.138   1.649  17.341 -1.4846  1.6471  0.0486
 8294SOL    HW236516   0.093   1.565  17.220  0.2826 -2.8983  0.8500
 8295SOL     OW36517   0.554   4.621   1.666 -0.5632  0.4333  0.4734
 8295SOL    HW136518   0.555   4.562   1.591  0.1811 -0.6861  1.3554
 8295SOL    HW236519   0.645   4.647   1.648 -0.1945 -0.4122  1.1428
 8296SOL     OW36520   2.322   4.048   6.368  0.2979  0.4995  0.7737
 8296SOL    HW136521   2.341   4.078   6.279 -0.7512 -0.3502  0.2559
 8296SOL    HW236522   2.373   3.967   6.371 -1.1707 -0.4245  0.9004
 8297SOL     OW36523   0.787   4.364   9.863  0.6696  0.1205 -0.7931
 8297SOL    HW136524   0.753   4.378   9.774  2.2989 -0.1114 -1.4598
 8297SOL    HW236525   0.824   4.447   9.893  0.1937  0.4413 -1.0823
 8298SOL     OW36526   2.605   4.436   3.357 -0.4561 -0.2251  0.0894
 8298SOL    HW136527   2.538   4.369   3.371 -0.0048 -0.3765  1.5133
 8298SOL    HW236528   2.617   4.423   3.264 -1.0898 -0.4859  0.0455
 8299SOL     OW36529   1.791   4.266   7.816 -0.2609 -0.1174  0.2508
 8299SOL    HW136530   1.752   4.331   7.758  1.0209  0.1253 -0.3177
 8299SOL    HW236531   1.733   4.263   7.893  1.1714 -1.3391  1.2881
 8300SOL     OW36532   3.471   3.758  14.191 -0.0178  0.3839 -0.2753
 8300SOL    HW136533   3.488   3.774  14.098 -0.3628 -1.6834 -0.6791
 8300SOL    HW236534   3.377   3.780  14.193 -0.5443 -1.8024 -1.4646
 8301SOL     OW36535   2.539   2.990   9.075  0.3623  0.1157  0.5054
 8301SOL    HW136536   2.492   3.011   9.155 -2.0689 -0.4304 -0.7673
 8301SOL    HW236537   2.582   2.906   9.091  0.1449  0.3388  2.2435
 8302SOL     OW36538   3.297   2.639   2.325  0.1822  0.3865 -0.8560
 8302SOL    HW136539   3.369   2.576   2.327 -1.6489 -1.6991 -0.5765
 8302SOL    HW236540   3.286   2.635   2.230 -0.4208 -1.4958 -0.7040
 8303SOL     OW36541   4.651   1.324   2.215  0.3144 -0.2760 -0.6407
 8303SOL    HW136542   4.713   1.384   2.259  0.1913 -0.7962  0.2447
 8303SOL    HW236543   4.580   1.323   2.279  0.1196 -0.9594 -0.8670
 8304SOL     OW36544   4.493   4.626   0.489  0.6210  0.5154  0.1256
 8304SOL    HW136545   4.577   4.668   0.469 -0.1493  2.1912  0.4324
 8304SOL    HW236546   4.465   4.647   0.578 -0.1677  0.0052 -0.0009
 8305SOL     OW36547   1.392   0.819  16.351 -0.3289  0.0538 -0.2586
 8305SOL    HW136548   1.457   0.819  16.281  0.4247 -0.5448  0.4284
 8305SOL    HW236549   1.349   0.902  16.330 -0.6229  0.0622  0.3792
 8306SOL     OW36550   3.405   2.975  15.220 -0.8733  0.3678  0.1732
 8306SOL    HW136551   3.500   2.988  15.213 -0.8040 -1.3310 -2.0220
 8306SOL    HW236552   3.411   2.881  15.208 -0.0567  0.6508 -1.5746
 8307SOL     OW36553   2.529   2.391   8.263 -0.0420  0.0716 -0.2993
 8307SOL    HW136554   2.563   2.308   8.297  0.2849  0.0681 -0.6336
 8307SOL    HW236555   2.445   2.397   8.307 -0.7962 -0.4750 -1.6642
 8308SOL     OW36556   4.016   1.272  16.697 -0.3020 -1.5753  0.6068
 8308SOL    HW136557   3.986   1.298  16.784  0.1115  0.1169  0.2309
 8308SOL    HW236558   4.056   1.356  16.677 -2.3709 -0.5030  1.0516
 8309SOL     OW36559   0.209   3.638   6.361 -0.1392 -0.0009 -0.0667
 8309SOL    HW136560   0.271   3.567   6.378 -0.9252 -0.2999  1.5492
 8309SOL    HW236561   0.234   3.677   6.277  0.0788 -0.3454 -0.1627
 8310SOL     OW36562   2.957   0.171   9.671 -0.5004  0.0587  0.0496
 8310SOL    HW136563   3.017   0.174   9.745 -1.7953 -0.7034  1.1326
 8310SOL    HW236564   2.888   0.237   9.684 -1.6339 -1.0898 -0.1990
 8311SOL     OW36565   2.810   1.829   5.256 -0.9445  0.6145  0.2324
 8311SOL    HW136566   2.739   1.892   5.242  2.0698  4.2143  1.1793
 8311SOL    HW236567   2.841   1.805   5.169 -0.7670  2.0548 -0.0980
 8312SOL     OW36568   1.827   0.355  13.874 -0.6174 -0.5115  0.0713
 8312SOL    HW136569   1.893   0.383  13.937  2.2129 -0.8858 -2.6850
 8312SOL    HW236570   1.788   0.277  13.912  0.7025 -1.1763  0.0712
 8313SOL     OW36571   0.074   3.865   8.771  0.1926  0.0220 -0.0104
 8313SOL    HW136572   0.101   3.923   8.699  0.7399  2.2780  1.9916
 8313SOL    HW236573   0.030   3.794   8.725 -0.8511 -0.5465  1.8473
 8314SOL     OW36574   1.275   0.672   4.837  0.9489 -0.3747  0.1427
 8314SOL    HW136575   1.270   0.579   4.859 -0.1625 -0.1733  0.7422
 8314SOL    HW236576   1.369   0.683   4.845  0.8548 -1.3216  2.4017
 8315SOL     OW36577   1.036   1.678   0.227  0.0849 -0.2315 -0.2424
 8315SOL    HW136578   1.047   1.651   0.318  1.5096  0.1078 -0.3221
 8315SOL    HW236579   0.943   1.680   0.204  0.1625 -2.1145 -0.7764
 8316SOL     OW36580   1.957   1.485   3.664 -0.4060 -0.3960  0.0339
 8316SOL    HW136581   1.863   1.480   3.681 -0.7036 -0.2057 -1.5846
 8316SOL    HW236582   1.982   1.567   3.706 -1.6558  0.7907 -1.5646
 8317SOL     OW36583   2.187   2.172  11.389 -0.0901 -0.1532  0.5616
 8317SOL    HW136584   2.208   2.214  11.472 -1.5593  0.4904  0.6213
 8317SOL    HW236585   2.139   2.091  11.409 -1.5688  0.9465  1.5199
 8318SOL     OW36586   1.215   0.523   1.487 -0.4527  0.4430  0.2594
 8318SOL    HW136587   1.150   0.536   1.556 -2.5628  0.8513 -1.8105
 8318SOL    HW236588   1.182   0.588   1.426 -1.0347  1.6971  1.9331
 8319SOL     OW36589   1.684   2.724   6.163  0.3049  0.0027 -0.2911
 8319SOL    HW136590   1.742   2.778   6.110  1.2731 -1.5273 -0.8007
 8319SOL    HW236591   1.657   2.791   6.226 -0.1156  0.0028 -0.4777
 8320SOL     OW36592   4.647   0.138   4.119  0.2528 -0.3742 -0.0113
 8320SOL    HW136593   4.613   0.175   4.038  1.7576  0.4042 -0.2982
 8320SOL    HW236594   4.702   0.064   4.094 -1.8276 -1.4048 -1.4801
 8321SOL     OW36595   0.454   2.573   6.781 -0.0567 -0.0367 -0.2505
 8321SOL    HW136596   0.477   2.660   6.812  2.2652  0.3728 -3.1387
 8321SOL    HW236597   0.453   2.523   6.863  0.5597 -0.3752 -0.4420
 8322SOL     OW36598   3.501   2.641   7.340 -0.4787  0.0711 -0.0112
 8322SOL    HW136599   3.539   2.623   7.426  1.1066  0.1268 -0.7003
 8322SOL    HW236600   3.571   2.692   7.299 -0.8314  1.4157  1.0555
 8323SOL     OW36601   4.227   0.920   8.821 -0.0191  0.0654  0.1233
 8323SOL    HW136602   4.297   0.955   8.766  0.0740 -1.8832 -1.0036
 8323SOL    HW236603   4.254   0.828   8.823 -2.0171 -0.4890  1.1798
 8324SOL     OW36604   0.812   3.253   1.922  0.0833 -0.5661 -0.3399
 8324SOL    HW136605   0.895   3.218   1.890  1.6542  2.3482  0.5129
 8324SOL    HW236606   0.757   3.177   1.938  0.1222 -0.2004  1.6089
 8325SOL     OW36607   4.658   0.661  14.365  0.0558  0.5842 -0.2489
 8325SOL    HW136608   4.722   0.713  14.317  1.4509 -1.1624 -0.2723
 8325SOL    HW236609   4.611   0.737  14.400 -0.0890  0.5288 -0.3277
 8326SOL     OW36610   1.313   3.145   9.743 -0.2332 -0.1821  0.5671
 8326SOL    HW136611   1.246   3.086   9.709 -0.2772  0.4357 -0.4121
 8326SOL    HW236612   1.321   3.207   9.671 -1.2796 -0.2563  0.3946
 8327SOL     OW36613   3.281   2.953  13.531 -0.3957  0.8380 -0.1887
 8327SOL    HW136614   3.244   2.959  13.443 -0.2262 -1.7052 -0.4214
 8327SOL    HW236615   3.213   2.991  13.587 -1.0732 -0.7580  0.0637
 8328SOL     OW36616   2.401   1.211  12.474  0.0321 -0.0514  0.0103
 8328SOL    HW136617   2.453   1.276  12.425  0.9368 -0.8743 -0.1223
 8328SOL    HW236618   2.377   1.142  12.413 -0.8689  0.4180 -0.1615
 8329SOL     OW36619   4.139   3.299   6.613  0.1012 -0.0968  0.7398
 8329SOL    HW136620   4.079   3.354   6.562 -0.9199 -0.7854  1.1912
 8329SOL    HW236621   4.208   3.363   6.630  0.7165  0.5083 -3.8770
 8330SOL     OW36622   1.336   1.667   5.086 -0.5037 -0.3454  0.7811
 8330SOL    HW136623   1.276   1.652   5.159 -3.1292 -1.6851 -1.6672
 8330SOL    HW236624   1.424   1.673   5.123  0.4940  1.8648 -1.9747
 8331SOL     OW36625   1.325   3.084   1.311  0.3418 -0.0457 -0.4816
 8331SOL    HW136626   1.382   3.021   1.354  0.1509  0.1895  0.1209
 8331SOL    HW236627   1.292   3.045   1.230  0.8796  1.5145 -1.4500
 8332SOL     OW36628   2.263   0.255   2.911 -0.0146  0.0486  0.2526
 8332SOL    HW136629   2.170   0.255   2.931  0.0727  2.2192  0.7135
 8332SOL    HW236630   2.281   0.349   2.907  0.4431 -0.1861 -3.0171
 8333SOL     OW36631   0.105   2.719   6.654 -0.3369  0.8131  0.0998
 8333SOL    HW136632   0.139   2.695   6.568 -1.7659  0.7993 -0.4645
 8333SOL    HW236633   0.053   2.646   6.687  0.3639  0.1494 -0.2745
 8334SOL     OW36634   2.904   3.665  16.174  0.1891  0.2026 -0.3229
 8334SOL    HW136635   2.811   3.642  16.181 -0.3982  1.9373 -2.6045
 8334SOL    HW236636   2.897   3.760  16.175  0.3693  0.2000  1.0782
 8335SOL     OW36637   3.027   3.505  15.774 -0.2756  0.7516 -0.2869
 8335SOL    HW136638   3.023   3.412  15.795  1.2836  0.3497 -1.7816
 8335SOL    HW236639   3.076   3.529  15.853  1.2210  2.8644 -1.8565
 8336SOL     OW36640   0.366   3.620   8.107 -0.0069 -0.5738 -0.1270
 8336SOL    HW136641   0.328   3.590   8.190  0.8213 -0.4230  0.3103
 8336SOL    HW236642   0.298   3.582   8.053  1.4851 -0.7673 -1.8619
 8337SOL     OW36643   1.218   1.506   8.077 -0.0895  0.0953 -1.3169
 8337SOL    HW136644   1.257   1.589   8.106 -3.0538  1.0311  0.0056
 8337SOL    HW236645   1.201   1.453   8.156  1.1637  2.3001  0.4435
 8338SOL     OW36646   3.752   2.167  17.553 -0.0273  0.7532  0.0976
 8338SOL    HW136647   3.757   2.259  17.528 -0.5053 -0.0174 -2.8117
 8338SOL    HW236648   3.659   2.168  17.574 -0.2859  3.3871 -1.2313
 8339SOL     OW36649   4.174   2.102  15.216 -0.0844 -0.1545 -0.0054
 8339SOL    HW136650   4.174   2.007  15.231 -0.3990 -0.0881  0.4232
 8339SOL    HW236651   4.098   2.122  15.161 -0.0086 -2.2914 -0.8884
 8340SOL     OW36652   3.652   1.118   4.843 -0.5466 -0.5125  0.0283
 8340SOL    HW136653   3.663   1.209   4.817  0.5873 -0.8799 -0.8076
 8340SOL    HW236654   3.567   1.096   4.805 -1.3911  1.1633  0.9466
 8341SOL     OW36655   0.981   1.353   4.443  0.5412  0.5653  0.1485
 8341SOL    HW136656   0.925   1.393   4.510  1.1215 -2.1983  2.2812
 8341SOL    HW236657   1.021   1.280   4.489 -2.2523  0.2495  2.0618
 8342SOL     OW36658   0.590   0.765   1.455  0.6929 -0.5636 -1.4771
 8342SOL    HW136659   0.597   0.749   1.361  0.8016  0.7454 -1.6947
 8342SOL    HW236660   0.566   0.679   1.489  1.0458 -0.7648 -1.7308
 8343SOL     OW36661   2.171   4.599   0.941 -0.3207 -0.2116  0.0913
 8343SOL    HW136662   2.166   4.694   0.943 -0.9817 -0.2561  0.3787
 8343SOL    HW236663   2.264   4.585   0.919 -0.4218  0.0401 -0.5003
 8344SOL     OW36664   3.848   2.922  11.578 -0.0653  0.3513 -0.2578
 8344SOL    HW136665   3.768   2.971  11.559 -0.9882 -1.0793 -0.0484
 8344SOL    HW236666   3.869   2.941  11.670 -0.6186  1.0253 -0.2760
 8345SOL     OW36667   1.257   4.629   2.706 -0.3491 -0.0620  0.2884
 8345SOL    HW136668   1.324   4.635   2.774 -1.7918  2.9035  1.4629
 8345SOL    HW236669   1.264   4.719   2.675  3.0971 -1.2045 -2.1698
 8346SOL     OW36670   0.751   4.209  11.447 -0.5376  0.2424  0.4110
 8346SOL    HW136671   0.766   4.191  11.354  0.6983 -0.1178  0.6850
 8346SOL    HW236672   0.729   4.123  11.482 -2.1806  0.1110 -0.9426
 8347SOL     OW36673   2.964   3.569  13.047 -0.1952  0.1385  0.4167
 8347SOL    HW136674   2.949   3.575  13.141 -0.1234 -0.3044  0.4569
 8347SOL    HW236675   3.056   3.597  13.044 -0.6405  1.2766 -1.7335
 8348SOL     OW36676   3.107   4.559   5.587 -0.4905  0.3215 -0.1091
 8348SOL    HW136677   3.123   4.653   5.576 -1.2343  0.5966  1.1353
 8348SOL    HW236678   3.080   4.569   5.678 -3.2697 -2.2250 -0.6544
 8349SOL     OW36679   2.997   1.196  15.763  0.1079 -0.0929 -0.7809
 8349SOL    HW136680   3.046   1.115  15.779 -1.4248 -0.9394 -0.3438
 8349SOL    HW236681   3.070   1.247  15.799  0.9780 -2.7655  1.2150
 8350SOL     OW36682   4.011   3.480   8.902  0.2999  0.2449 -0.0241
 8350SOL    HW136683   4.034   3.395   8.865 -1.4717 -0.6348  0.8771
 8350SOL    HW236684   4.063   3.483   8.983  0.8451  2.6039 -0.4666
 8351SOL     OW36685   1.193   3.775   8.473  0.5082 -0.0302 -0.1143
 8351SOL    HW136686   1.242   3.752   8.394  0.5524 -0.0864 -0.0711
 8351SOL    HW236687   1.199   3.694   8.524 -1.1793  0.2342  0.4813
 8352SOL     OW36688   2.114   3.461   0.228  0.3038 -0.0462 -0.1576
 8352SOL    HW136689   2.090   3.524   0.161 -1.0362 -1.7275 -1.2871
 8352SOL    HW236690   2.078   3.379   0.192  0.3448 -0.9380  1.7934
 8353SOL     OW36691   3.900   4.093  12.573 -0.5826 -0.0828 -0.0643
 8353SOL    HW136692   3.933   4.025  12.514  1.1441  1.0760 -0.4215
 8353SOL    HW236693   3.980   4.144  12.583 -0.5995 -0.7710  3.4002
 8354SOL     OW36694   1.882   1.304   2.949  0.2971  0.2876 -0.9274
 8354SOL    HW136695   1.948   1.315   2.881 -0.1229  1.8430 -1.0936
 8354SOL    HW236696   1.926   1.362   3.011  0.8513 -2.6651  1.4374
 8355SOL     OW36697   2.658   0.134  15.189  0.9389 -0.1794 -0.1029
 8355SOL    HW136698   2.650   0.185  15.109  0.6804  0.6861  0.4718
 8355SOL    HW236699   2.575   0.146  15.237  0.1485 -1.2506 -1.2299
 8356SOL     OW36700   0.662   1.264  11.531  0.3198 -0.1319 -0.2280
 8356SOL    HW136701   0.696   1.281  11.443  1.5547 -2.4107 -0.1734
 8356SOL    HW236702   0.702   1.331  11.586 -0.8349  0.4076 -0.0425
 8357SOL     OW36703   1.877   3.734   2.872  0.0726  0.5836  0.3523
 8357SOL    HW136704   1.896   3.735   2.966  2.9355 -0.8500 -0.2236
 8357SOL    HW236705   1.797   3.681   2.874 -0.0664  0.7392 -0.9302
 8358SOL     OW36706   0.751   2.132  12.147 -0.1171 -0.0193  0.0430
 8358SOL    HW136707   0.833   2.088  12.169 -0.2479 -0.1839  0.1941
 8358SOL    HW236708   0.680   2.085  12.189 -2.0974  1.1483 -1.9966
 8359SOL     OW36709   0.743   4.065   3.270 -0.2289 -0.2037  0.2232
 8359SOL    HW136710   0.814   4.129   3.257  0.4970 -1.5529 -2.5752
 8359SOL    HW236711   0.680   4.102   3.209  0.6840  2.5171  0.9021
 8360SOL     OW36712   0.959   1.735   5.176  0.1356 -0.0464 -0.6130
 8360SOL    HW136713   1.000   1.693   5.252  1.0048  0.2291 -0.9372
 8360SOL    HW236714   0.971   1.826   5.205  0.1091 -1.0977  2.7006
 8361SOL     OW36715   4.667   3.590   9.173 -0.0322 -0.5378 -0.4030
 8361SOL    HW136716   4.701   3.639   9.247 -0.1664  0.2074 -0.8354
 8361SOL    HW236717   4.648   3.663   9.115  1.1466 -0.8135 -1.1387
 8362SOL     OW36718   2.757   1.051   7.463 -0.2209 -0.1126 -0.9736
 8362SOL    HW136719   2.755   1.045   7.368 -0.6013 -2.0198 -0.8369
 8362SOL    HW236720   2.750   0.957   7.476  2.8026 -0.2497 -0.2818
 8363SOL     OW36721   1.416   4.268   6.367  0.1066 -0.1368  0.0400
 8363SOL    HW136722   1.360   4.329   6.415  0.6097  0.3300  0.0293
 8363SOL    HW236723   1.409   4.297   6.276 -0.6979  0.3269  0.2505
 8364SOL     OW36724   0.427   0.228   6.745 -0.6817 -0.7074 -0.2875
 8364SOL    HW136725   0.510   0.274   6.754 -1.7498  1.2390 -0.1635
 8364SOL    HW236726   0.459   0.149   6.702  0.0587 -1.6677  2.0604
 8365SOL     OW36727   0.830   3.950   3.763 -0.1962 -0.0871 -0.4700
 8365SOL    HW136728   0.897   3.902   3.812  0.2595  1.0487  0.0003
 8365SOL    HW236729   0.746   3.920   3.798 -0.1257  0.0140 -0.2128
 8366SOL     OW36730   4.030   1.580   6.006 -0.3809 -0.0173 -0.0276
 8366SOL    HW136731   3.952   1.540   5.968 -0.1244 -0.9359  0.4268
 8366SOL    HW236732   4.090   1.564   5.933 -1.4428  3.6798 -1.7264
 8367SOL     OW36733   2.487   4.278  13.942  0.1865 -0.4554  0.3606
 8367SOL    HW136734   2.475   4.192  13.904  2.3345 -0.3636 -0.5634
 8367SOL    HW236735   2.556   4.312  13.885 -0.3589  1.3332  0.7681
 8368SOL     OW36736   1.594   0.475   8.002  0.3238 -0.7057 -0.0385
 8368SOL    HW136737   1.610   0.440   7.914 -2.2150  2.1236 -1.5954
 8368SOL    HW236738   1.659   0.545   8.005  0.4789 -0.8944  1.0069
 8369SOL     OW36739   0.360   1.760   0.255 -0.2379  0.1196 -0.1859
 8369SOL    HW136740   0.266   1.765   0.273 -0.0600  3.6399 -0.2140
 8369SOL    HW236741   0.372   1.665   0.251  1.1554  0.1987  1.7664
 8370SOL     OW36742   1.729   0.965   4.963 -0.8389  0.7328  0.6945
 8370SOL    HW136743   1.637   0.990   4.965 -1.4582 -1.4642  0.4536
 8370SOL    HW236744   1.765   1.048   4.933 -0.7777  0.5407  0.2322
 8371SOL     OW36745   2.853   1.684  14.007 -0.5963  0.2753  0.0615
 8371SOL    HW136746   2.768   1.698  14.049  1.0409  1.3687  2.9578
 8371SOL    HW236747   2.920   1.722  14.062 -1.6641 -0.2513  1.7269
 8372SOL     OW36748   2.583   2.921  12.151 -0.5007 -0.2492 -0.8406
 8372SOL    HW136749   2.624   2.998  12.191 -0.5130 -0.5699 -0.2046
 8372SOL    HW236750   2.529   2.894  12.226 -1.2676  0.1637 -1.2504
 8373SOL     OW36751   2.656   1.361   7.245 -0.1508 -0.2440 -0.4785
 8373SOL    HW136752   2.634   1.285   7.191  1.4494 -0.5921 -0.6164
 8373SOL    HW236753   2.750   1.349   7.253  0.1791  2.2108 -0.6810
 8374SOL     OW36754   2.538   2.079  11.512 -0.1873  0.2312  0.7213
 8374SOL    HW136755   2.602   2.058  11.444 -1.5869  1.3769 -0.9195
 8374SOL    HW236756   2.512   2.166  11.482 -1.1414 -0.2902  0.0384
 8375SOL     OW36757   1.467   2.267  16.620  0.5259  0.0046  0.8115
 8375SOL    HW136758   1.548   2.273  16.569  0.7076 -0.6725  1.0222
 8375SOL    HW236759   1.437   2.356  16.600 -1.1902 -0.6208  0.6303
 8376SOL     OW36760   1.858   0.070  13.579  0.2049  0.5459  0.0806
 8376SOL    HW136761   1.839   0.058  13.486 -0.3992 -1.9357  0.5180
 8376SOL    HW236762   1.901   0.155  13.584  1.0459  0.0614  1.0200
 8377SOL     OW36763   0.034   1.266  11.276  0.5852  0.0434  0.5065
 8377SOL    HW136764   0.062   1.310  11.196  2.2599 -1.8393  0.0498
 8377SOL    HW236765   4.737   1.185  11.242  0.8644  0.2640 -0.3352
 8378SOL     OW36766   2.309   0.312  13.015 -0.3535  0.2434  0.1965
 8378SOL    HW136767   2.251   0.313  12.938  1.0211  2.9500 -0.8252
 8378SOL    HW236768   2.241   0.303  13.081 -0.7391 -1.0845 -0.3895
 8379SOL     OW36769   3.801   4.395   9.077  0.1521  0.4098 -0.1825
 8379SOL    HW136770   3.893   4.374   9.064  0.5141  0.6509  2.0472
 8379SOL    HW236771   3.792   4.361   9.166 -0.9161  1.2417  0.0286
 8380SOL     OW36772   0.300   3.222  17.385  0.0951 -0.1842  0.3790
 8380SOL    HW136773   0.208   3.195  17.387  0.7047 -2.0956  1.9563
 8380SOL    HW236774   0.285   3.310  17.420  2.3840 -0.1891  1.3158
 8381SOL     OW36775   3.544   0.425  13.490  0.1592  0.1071  0.3619
 8381SOL    HW136776   3.610   0.494  13.495 -0.5206  0.7251  0.8307
 8381SOL    HW236777   3.600   0.350  13.509  1.5560  0.8528 -0.7781
 8382SOL     OW36778   3.041   1.345   2.466 -0.3405 -0.4715  0.2627
 8382SOL    HW136779   2.968   1.292   2.434 -0.5166  1.1630 -2.0160
 8382SOL    HW236780   3.007   1.434   2.472  0.8766  0.0082  0.0365
 8383SOL     OW36781   3.140   2.128   9.727 -0.4032 -0.2363  0.0932
 8383SOL    HW136782   3.149   2.183   9.649 -0.6387  1.0487  0.9749
 8383SOL    HW236783   3.210   2.063   9.724 -0.3502 -0.2168  0.8912
 8384SOL     OW36784   1.332   2.481   5.229  0.3097 -0.6402  0.1081
 8384SOL    HW136785   1.399   2.482   5.161  0.3842  1.4920  0.1977
 8384SOL    HW236786   1.322   2.386   5.229  2.1787 -0.8470  0.8311
 8385SOL     OW36787   4.249   0.728   5.977  0.3180  0.1752  0.1740
 8385SOL    HW136788   4.291   0.797   6.030  0.5129  0.6797 -0.6412
 8385SOL    HW236789   4.194   0.789   5.928  0.3817 -0.2568 -0.4295
 8386SOL     OW36790   0.744   0.846  14.388 -0.0027  0.3104 -0.1288
 8386SOL    HW136791   0.809   0.910  14.360 -0.7492  0.7660 -0.8200
 8386SOL    HW236792   0.682   0.857  14.316  0.1871  0.6335 -0.2421
 8387SOL     OW36793   3.541   3.375   8.018 -0.1617  0.2893 -0.2787
 8387SOL    HW136794   3.628   3.385   7.980  0.2188  2.8836  1.3385
 8387SOL    HW236795   3.501   3.335   7.940  1.9493 -0.9178 -0.7576
 8388SOL     OW36796   3.252   0.220   5.370 -0.3366 -0.6515 -1.1238
 8388SOL    HW136797   3.319   0.245   5.306  3.3772 -0.1863  2.9177
 8388SOL    HW236798   3.295   0.266   5.442 -0.5019 -0.7773 -0.9442
 8389SOL     OW36799   3.832   1.843   6.004  0.0588  0.2344 -0.0603
 8389SOL    HW136800   3.760   1.795   5.962 -0.4591  0.2534  0.7912
 8389SOL    HW236801   3.886   1.771   6.036 -0.1021  0.0214 -0.2574
 8390SOL     OW36802   4.461   3.031   9.006 -0.3647  0.5940 -0.0824
 8390SOL    HW136803   4.436   3.100   8.945  1.4646  1.0681 -0.2948
 8390SOL    HW236804   4.408   3.046   9.084 -1.1927  0.8629 -0.7020
 8391SOL     OW36805   3.023   2.213   2.782 -0.8436 -0.2689 -0.3641
 8391SOL    HW136806   2.956   2.211   2.850  0.1288 -0.0954  0.5988
 8391SOL    HW236807   3.007   2.302   2.752 -0.4179  0.0229  0.2743
 8392SOL     OW36808   1.668   2.183   6.661  0.8388 -0.3303  0.5090
 8392SOL    HW136809   1.642   2.157   6.749 -0.8608 -0.3676 -0.0109
 8392SOL    HW236810   1.707   2.107   6.618 -0.9234 -2.7130  3.1787
 8393SOL     OW36811   4.360   4.604  11.465 -0.6733 -0.4191 -0.2613
 8393SOL    HW136812   4.431   4.556  11.422 -0.0213 -0.0577  0.4194
 8393SOL    HW236813   4.375   4.697  11.448 -0.4844 -0.2626  0.7850
 8394SOL     OW36814   3.168   3.083  13.747  0.4214  0.2029  0.0787
 8394SOL    HW136815   3.245   3.140  13.745 -0.2791  1.2346  2.9978
 8394SOL    HW236816   3.170   3.082  13.842 -0.3404  2.0085  0.1212
 8395SOL     OW36817   4.509   0.622   4.216 -0.4842  0.3398  0.3971
 8395SOL    HW136818   4.486   0.640   4.125 -0.1233  0.6208  0.3579
 8395SOL    HW236819   4.600   0.598   4.199 -1.1879 -3.1098  1.5478
 8396SOL     OW36820   3.126   1.539   6.051 -0.4167 -0.3671 -0.5017
 8396SOL    HW136821   3.034   1.547   6.029 -0.3252  0.3013 -0.6292
 8396SOL    HW236822   3.171   1.576   5.975 -0.8755  1.1649 -0.0150
 8397SOL     OW36823   3.627   3.993   5.865  0.0062 -0.2978  1.0581
 8397SOL    HW136824   3.565   3.960   5.931 -1.6836  0.4797 -0.1719
 8397SOL    HW236825   3.571   4.015   5.791  0.0343 -0.3373  1.0252
 8398SOL     OW36826   1.340   4.140   7.855  0.6675 -0.9093 -0.0678
 8398SOL    HW136827   1.335   4.179   7.942  0.4237 -0.3180 -0.3437
 8398SOL    HW236828   1.304   4.053   7.871  0.7053 -0.4441  2.5889
 8399SOL     OW36829   3.486   1.603   6.275 -0.0097 -0.2628  0.0526
 8399SOL    HW136830   3.473   1.692   6.307  0.4280  0.8090 -2.7296
 8399SOL    HW236831   3.444   1.565   6.352 -0.7726 -0.8549 -0.6620
 8400SOL     OW36832   0.754   4.288   4.136 -0.0087  0.5057 -0.1791
 8400SOL    HW136833   0.795   4.365   4.097 -1.0134  0.9743 -0.3084
 8400SOL    HW236834   0.745   4.232   4.059 -0.2600  0.0806  0.1583
 8401SOL     OW36835   0.961   2.650   3.758  0.0977 -0.7360  0.1550
 8401SOL    HW136836   0.956   2.705   3.680 -0.8666 -0.0886  0.6675
 8401SOL    HW236837   0.897   2.688   3.818  1.0625 -0.5300  1.0675
 8402SOL     OW36838   3.814   4.584   8.685  0.1564  0.1342  0.0657
 8402SOL    HW136839   3.784   4.526   8.756  2.0822  0.0481  0.8045
 8402SOL    HW236840   3.842   4.520   8.619 -1.2692 -0.3778 -0.0478
 8403SOL     OW36841   3.211   1.202  10.290  0.2938  0.3142  0.0861
 8403SOL    HW136842   3.229   1.181  10.198  2.2058 -3.6478  1.3994
 8403SOL    HW236843   3.150   1.275  10.278 -1.3029 -0.7353  1.9592
 8404SOL     OW36844   1.813   3.711   3.139  0.0341 -0.0326  0.2976
 8404SOL    HW136845   1.726   3.677   3.158  0.0631 -0.3334 -0.1081
 8404SOL    HW236846   1.858   3.636   3.101  2.6897  0.4309  2.5741
 8405SOL     OW36847   2.179   0.676   2.597  0.0823  0.0389  0.1128
 8405SOL    HW136848   2.216   0.643   2.679  0.8258 -0.0015 -0.2401
 8405SOL    HW236849   2.218   0.623   2.527 -2.1226 -2.9260  1.0909
 8406SOL     OW36850   2.810   2.652  16.736  0.0085 -0.5127 -0.0738
 8406SOL    HW136851   2.902   2.678  16.738 -0.4113  0.8757  1.1068
 8406SOL    HW236852   2.813   2.557  16.725  1.9510 -0.5899  1.2845
 8407SOL     OW36853   0.938   4.151  11.719 -0.5802  0.8315 -0.1041
 8407SOL    HW136854   0.879   4.088  11.678  0.9355 -1.5257  1.3376
 8407SOL    HW236855   0.867   4.213  11.738 -0.7784  0.3616  0.6552
 8408SOL     OW36856   1.642   2.539   7.151  0.4056 -0.7613 -0.0947
 8408SOL    HW136857   1.627   2.507   7.062  1.7260  1.7139 -1.2064
 8408SOL    HW236858   1.671   2.455   7.187 -0.0646 -0.8724  0.0275
 8409SOL     OW36859   1.465   2.811   4.677  0.0622  0.8427  0.0047
 8409SOL    HW136860   1.470   2.727   4.723 -0.2561 -0.0016 -1.4739
 8409SOL    HW236861   1.415   2.779   4.602  1.5284  0.1406 -0.6770
 8410SOL     OW36862   2.102   1.639   2.386 -0.5984 -0.0801  0.1903
 8410SOL    HW136863   2.160   1.658   2.461  0.2773 -1.7797 -0.0431
 8410SOL    HW236864   2.095   1.724   2.343  0.6403 -0.7810 -1.4230
 8411SOL     OW36865   0.969   3.505   7.974 -0.6289 -0.6490  0.5898
 8411SOL    HW136866   0.968   3.477   8.065 -0.4869  3.2871  1.7531
 8411SOL    HW236867   1.031   3.577   7.962  0.4162 -1.9337 -1.7824
 8412SOL     OW36868   2.922   1.990   4.141 -0.0949  0.5590  0.5125
 8412SOL    HW136869   2.865   1.913   4.144 -1.8329  1.8476  0.9435
 8412SOL    HW236870   2.989   1.960   4.080 -0.7106 -0.2863  0.2453
 8413SOL     OW36871   2.816   2.854  17.137 -0.0004  0.0765 -0.5269
 8413SOL    HW136872   2.811   2.943  17.101  0.0627  0.6396  0.8908
 8413SOL    HW236873   2.751   2.807  17.085 -2.9744  1.4104  2.0105
 8414SOL     OW36874   3.976   0.577  17.229 -0.5544 -0.1177 -0.3219
 8414SOL    HW136875   3.978   0.482  17.242 -0.4231  0.0162  0.6387
 8414SOL    HW236876   3.895   0.592  17.180 -1.0083 -0.3244  0.3633
 8415SOL     OW36877   3.783   1.415   2.924 -0.2711  0.0094 -0.3396
 8415SOL    HW136878   3.790   1.470   2.846  2.5165 -1.1077 -0.8843
 8415SOL    HW236879   3.699   1.441   2.962  0.4359  0.6214  0.8069
 8416SOL     OW36880   1.406   2.123   8.124  0.7885 -0.3958  0.3236
 8416SOL    HW136881   1.369   2.110   8.211 -0.1006  1.8342  0.2769
 8416SOL    HW236882   1.498   2.116   8.148  0.3544  0.2283  2.1674
 8417SOL     OW36883   0.443   1.559   5.208  0.3241 -0.1304 -0.1151
 8417SOL    HW136884   0.437   1.611   5.128  1.7250  0.9605  0.4812
 8417SOL    HW236885   0.381   1.489   5.189 -0.1817  0.5840 -1.1076
 8418SOL     OW36886   2.081   1.486   5.547  0.3503  0.0483  0.1130
 8418SOL    HW136887   2.163   1.535   5.546  0.5550 -0.3003 -0.2388
 8418SOL    HW236888   2.121   1.401   5.564 -0.9720 -0.7526 -0.7296
 8419SOL     OW36889   3.242   3.827  15.635  0.0364  0.3787  0.8038
 8419SOL    HW136890   3.318   3.835  15.694  1.4120 -3.0679 -0.4766
 8419SOL    HW236891   3.220   3.920  15.628 -0.8342  0.0216 -1.0721
 8420SOL     OW36892   1.039   2.392   8.149 -0.2731 -0.1613 -0.9157
 8420SOL    HW136893   1.091   2.459   8.193  0.3607 -2.3455  1.6805
 8420SOL    HW236894   1.078   2.399   8.062  3.8774 -2.3670  0.7428
 8421SOL     OW36895   2.607   0.772   6.115  0.1448 -0.5011  0.3380
 8421SOL    HW136896   2.575   0.859   6.091  1.7708 -0.0879 -0.3178
 8421SOL    HW236897   2.580   0.723   6.038 -2.6697  1.9029 -0.1948
 8422SOL     OW36898   3.604   3.063   5.351 -0.1483 -0.2490 -0.0850
 8422SOL    HW136899   3.585   3.155   5.368 -2.2942 -0.9556  1.2857
 8422SOL    HW236900   3.700   3.068   5.351 -0.2337  1.5716  1.9697
 8423SOL     OW36901   2.306   0.834  17.187 -0.1114  0.0858 -0.7487
 8423SOL    HW136902   2.247   0.817  17.113 -0.5770 -0.7239 -0.1918
 8423SOL    HW236903   2.334   0.924  17.171 -1.2270  0.5976  0.1838
 8424SOL     OW36904   0.326   2.754   1.039  0.4288  0.2676 -0.5386
 8424SOL    HW136905   0.395   2.820   1.044 -0.4727  1.2226 -0.7714
 8424SOL    HW236906   0.243   2.801   1.037 -0.5843 -1.4672  1.4574
 8425SOL     OW36907   0.874   1.574   3.553  0.0080 -0.1840 -0.6219
 8425SOL    HW136908   0.943   1.606   3.495  1.5941 -1.8713  0.3495
 8425SOL    HW236909   0.857   1.659   3.595  1.7110  1.1475 -2.6021
 8426SOL     OW36910   3.858   0.817   7.062  0.1622  0.7706  0.2840
 8426SOL    HW136911   3.835   0.827   7.154  0.4302  0.2566  0.3998
 8426SOL    HW236912   3.870   0.723   7.059  0.3500  0.8070 -0.1246
 8427SOL     OW36913   4.444   1.991  10.458 -0.2655 -0.6319  0.8391
 8427SOL    HW136914   4.536   1.967  10.465  0.2381  0.0101 -3.7195
 8427SOL    HW236915   4.445   2.080  10.423  0.3425 -2.0742 -2.7257
 8428SOL     OW36916   4.172   2.887   5.725 -0.3054  0.5417 -0.2078
 8428SOL    HW136917   4.139   2.968   5.685  0.5237  2.4815  3.0719
 8428SOL    HW236918   4.125   2.822   5.673 -0.2482 -0.7146  1.3202
 8429SOL     OW36919   3.863   3.374   3.530 -0.1392  0.2012 -0.5370
 8429SOL    HW136920   3.940   3.354   3.476  0.6630 -1.6422  1.3140
 8429SOL    HW236921   3.861   3.302   3.592 -0.9534  2.2494  1.8002
 8430SOL     OW36922   0.703   0.811   9.411 -1.0980  0.8265 -0.5390
 8430SOL    HW136923   0.745   0.888   9.449  0.6932  0.4423 -1.7186
 8430SOL    HW236924   0.658   0.781   9.490  1.5198 -0.3259  0.5295
 8431SOL     OW36925   1.890   3.918   3.295  0.3837  0.0696  0.4612
 8431SOL    HW136926   1.818   3.884   3.348 -1.7169  2.0829 -1.0832
 8431SOL    HW236927   1.865   3.881   3.211  1.2803 -0.2296  0.3226
 8432SOL     OW36928   1.195   1.325   7.387 -0.0075 -0.0148  0.1518
 8432SOL    HW136929   1.186   1.390   7.455  1.1418 -2.0111  2.2061
 8432SOL    HW236930   1.231   1.378   7.316  1.2528  1.1009  1.6339
 8433SOL     OW36931   2.680   1.174   5.911 -0.3836 -0.1938 -0.5257
 8433SOL    HW136932   2.694   1.242   5.977  0.5808  0.6141 -1.5612
 8433SOL    HW236933   2.628   1.116   5.967 -0.6086 -0.1306 -0.6695
 8434SOL     OW36934   2.565   1.238   9.148  0.0334 -0.3923  0.3589
 8434SOL    HW136935   2.636   1.289   9.111  0.0865  1.5980  3.2422
 8434SOL    HW236936   2.491   1.286   9.110 -1.5631 -3.3505 -0.3198
 8435SOL     OW36937   0.649   2.040   6.495 -0.1975  0.1971 -0.8237
 8435SOL    HW136938   0.584   1.975   6.523  1.9614 -1.9698 -0.8468
 8435SOL    HW236939   0.704   2.046   6.573 -1.7607 -0.6952  0.3645
 8436SOL     OW36940   2.124   2.821   3.498  0.0154  0.0087  0.0482
 8436SOL    HW136941   2.102   2.837   3.590  1.1368 -0.0879  0.3365
 8436SOL    HW236942   2.149   2.913   3.487  0.1511 -0.1778 -1.2769
 8437SOL     OW36943   0.266   2.764   1.496 -0.1860  0.5505  0.3616
 8437SOL    HW136944   0.178   2.780   1.462 -0.5334  0.3660  1.1639
 8437SOL    HW236945   0.246   2.696   1.559 -0.0468 -1.1385 -1.4219
 8438SOL     OW36946   3.693   1.093   2.711 -0.3119 -0.2976  0.0515
 8438SOL    HW136947   3.745   1.050   2.779 -2.8784 -0.5411  1.8280
 8438SOL    HW236948   3.616   1.041   2.688 -0.5478  1.9546 -4.3153
 8439SOL     OW36949   3.928   0.960  13.883  0.1872 -0.3812  1.1484
 8439SOL    HW136950   3.955   1.002  13.965  0.1227 -2.5856  2.2923
 8439SOL    HW236951   3.864   0.904  13.927 -0.5924 -0.2170  0.2044
 8440SOL     OW36952   4.219   2.189  17.214  0.1011  0.0907  0.5173
 8440SOL    HW136953   4.255   2.151  17.294 -0.1399 -0.7074  0.2472
 8440SOL    HW236954   4.170   2.264  17.247  0.9146  0.7520  0.2327
 8441SOL     OW36955   1.611   0.180   4.513 -0.2099 -0.2836 -0.2487
 8441SOL    HW136956   1.518   0.203   4.511 -0.4615 -1.2462  0.5497
 8441SOL    HW236957   1.601   0.085   4.520 -1.8859 -0.0111  0.8114
 8442SOL     OW36958   2.383   4.152   4.547  0.1608  0.0642  0.2824
 8442SOL    HW136959   2.434   4.191   4.619  1.0414 -3.1102  1.3608
 8442SOL    HW236960   2.330   4.230   4.527  0.6244  0.7251  1.6055
 8443SOL     OW36961   4.141   1.424   7.898 -0.1670  0.5348  0.1624
 8443SOL    HW136962   4.057   1.450   7.860 -0.7844  1.6872  2.2897
 8443SOL    HW236963   4.146   1.330   7.887 -2.1635  0.4096  0.3304
 8444SOL     OW36964   2.497   3.125  14.368 -0.1549 -0.4923 -0.0144
 8444SOL    HW136965   2.527   3.115  14.458  1.2617  0.7717 -0.3631
 8444SOL    HW236966   2.411   3.165  14.378 -0.7211 -1.5439 -0.6204
 8445SOL     OW36967   2.974   3.297   1.818 -0.7705 -0.7598  0.4545
 8445SOL    HW136968   2.896   3.257   1.856  0.6201 -0.5130  3.6108
 8445SOL    HW236969   3.021   3.318   1.899 -0.3907  1.1299 -0.2408
 8446SOL     OW36970   3.468   4.174   7.905  0.3682  0.8087  0.0766
 8446SOL    HW136971   3.438   4.209   7.989 -0.8641  1.2110 -0.5198
 8446SOL    HW236972   3.509   4.108   7.960  1.3053 -0.3238 -1.9786
 8447SOL     OW36973   4.625   0.265   1.621  0.4060 -0.5342  0.3759
 8447SOL    HW136974   4.610   0.249   1.528  0.0467 -1.1819  0.5410
 8447SOL    HW236975   4.539   0.303   1.639 -0.5314 -3.0255  1.1875
 8448SOL     OW36976   3.044   4.293   2.660  0.1288  0.3316 -0.0086
 8448SOL    HW136977   3.064   4.210   2.616 -0.3421 -1.8643  3.9091
 8448SOL    HW236978   3.132   4.328   2.670 -0.7426  1.7808  2.5586
 8449SOL     OW36979   4.084   4.204   7.836  0.4078  0.3301  0.5403
 8449SOL    HW136980   4.112   4.268   7.902  0.7615 -0.4279  1.1288
 8449SOL    HW236981   3.990   4.221   7.830  0.6431  2.1429  1.8590
 8450SOL     OW36982   3.230   2.921   3.333 -0.6058  0.1874  0.4869
 8450SOL    HW136983   3.267   2.886   3.414  1.0649 -0.8279 -0.7111
 8450SOL    HW236984   3.290   2.992   3.313 -0.2286  0.1746  1.5649
 8451SOL     OW36985   1.725   4.069  10.038  0.7552 -0.0489  0.2133
 8451SOL    HW136986   1.742   4.050  10.130  0.8657 -1.7990 -0.1771
 8451SOL    HW236987   1.754   3.986  10.000 -1.3665  0.2666 -2.1295
 8452SOL     OW36988   0.413   4.078  11.703  0.0278  0.0400  0.0766
 8452SOL    HW136989   0.390   4.124  11.622  2.3421  1.4801  0.2351
 8452SOL    HW236990   0.423   4.155  11.760  1.6340 -2.2076  2.8038
 8453SOL     OW36991   3.050   1.187   7.817  0.2686  0.3346 -0.0188
 8453SOL    HW136992   2.955   1.178   7.816  0.3133 -0.5273  3.5246
 8453SOL    HW236993   3.085   1.103   7.845 -0.6714 -0.0382  0.0272
 8454SOL     OW36994   2.073   1.607  15.488  0.3168  0.0853  0.3457
 8454SOL    HW136995   2.090   1.615  15.394  0.3378 -1.1434  0.2427
 8454SOL    HW236996   2.115   1.686  15.522 -0.1099  0.3460  0.2688
 8455SOL     OW36997   2.068   2.688   2.450  0.6183 -0.0065  0.3392
 8455SOL    HW136998   2.032   2.600   2.453  0.2011  0.1534  0.0601
 8455SOL    HW236999   1.987   2.739   2.458 -0.0428 -1.1665  1.0327
 8456SOL     OW37000   2.415   4.508   4.396  0.2634 -0.2884 -0.4616
 8456SOL    HW137001   2.424   4.482   4.305  2.9020 -2.0054  0.2789
 8456SOL    HW237002   2.335   4.467   4.428  0.0326  1.4714  1.2624
 8457SOL     OW37003   4.110   0.186   3.648 -0.2206 -0.0382  0.6005
 8457SOL    HW137004   4.110   0.272   3.691 -2.2028  0.0439  0.4161
 8457SOL    HW237005   4.191   0.160   3.692 -0.8314 -1.3801  0.9097
 8458SOL     OW37006   0.191   4.573   1.869 -0.0068  0.4491  0.1117
 8458SOL    HW137007   0.232   4.633   1.932  0.7866 -0.4511  0.4550
 8458SOL    HW237008   0.154   4.638   1.809  0.0944  2.5791  2.3454
 8459SOL     OW37009   4.259   3.726  10.102  0.6238  0.1998 -0.5976
 8459SOL    HW137010   4.197   3.702  10.171  1.0599  0.5293 -0.0897
 8459SOL    HW237011   4.284   3.812  10.136 -2.0220  0.7666 -0.1166
 8460SOL     OW37012   0.506   2.891   2.881  0.3763  0.2293 -0.3531
 8460SOL    HW137013   0.540   2.915   2.795  1.5969 -1.4251 -0.3445
 8460SOL    HW237014   0.420   2.858   2.854 -0.2053  0.0532  1.6959
 8461SOL     OW37015   2.745   0.603   0.930  0.5482  0.0977 -0.2366
 8461SOL    HW137016   2.784   0.560   1.006 -0.9071  0.5219  0.7283
 8461SOL    HW237017   2.664   0.623   0.976  0.2945 -1.8527  0.1668
 8462SOL     OW37018   3.356   4.375   2.441  0.7248 -0.3904 -0.2621
 8462SOL    HW137019   3.320   4.433   2.508  0.9018  0.5692 -0.9952
 8462SOL    HW237020   3.277   4.340   2.398  0.1561 -1.3764  1.5905
 8463SOL     OW37021   1.340   2.698   5.977  0.1695  0.3169  0.0325
 8463SOL    HW137022   1.420   2.718   5.927  1.5121 -2.5527  1.0087
 8463SOL    HW237023   1.332   2.606   5.950 -1.1291 -0.0144  1.5690
 8464SOL     OW37024   2.897   2.665   2.896  1.1540 -0.1157  0.4201
 8464SOL    HW137025   2.937   2.604   2.834 -0.8566 -0.5091 -0.4684
 8464SOL    HW237026   2.971   2.723   2.914 -0.3927  1.9667  0.0951
 8465SOL     OW37027   3.647   2.418  11.539 -1.0840  0.0973  0.3100
 8465SOL    HW137028   3.722   2.475  11.554 -0.2683 -0.7499 -0.5652
 8465SOL    HW237029   3.654   2.402  11.445  2.3674  1.3253  0.3699
 8466SOL     OW37030   1.290   1.330  10.249 -0.1831  0.4063 -0.2225
 8466SOL    HW137031   1.328   1.410  10.212 -1.2125  0.9593 -0.0835
 8466SOL    HW237032   1.355   1.307  10.315  0.5693  1.4128 -0.6017
 8467SOL     OW37033   1.936   0.733   6.662  0.6758 -0.3828  0.1427
 8467SOL    HW137034   1.924   0.689   6.578 -0.8609  1.3213 -0.5294
 8467SOL    HW237035   2.009   0.791   6.639  0.6303  0.1855  1.4146
 8468SOL     OW37036   2.201   2.161   9.605 -0.1416 -0.3559  0.2553
 8468SOL    HW137037   2.241   2.136   9.688 -1.8023 -1.6414  0.6707
 8468SOL    HW237038   2.201   2.080   9.556 -0.8743 -0.1053 -0.1525
 8469SOL     OW37039   0.856   2.044   7.500  0.6268  0.1593  0.1916
 8469SOL    HW137040   0.882   2.060   7.591  1.0890 -1.1540  0.2901
 8469SOL    HW237041   0.760   2.039   7.509  0.6546  1.3827  1.1322
 8470SOL     OW37042   0.773   0.748   6.101  0.0445 -0.2935  0.2615
 8470SOL    HW137043   0.706   0.705   6.155  1.2060 -0.7706  1.2999
 8470SOL    HW237044   0.746   0.726   6.012 -0.2358 -0.7515  0.4557
 8471SOL     OW37045   0.420   4.576   6.930  0.5111 -0.5281 -0.0281
 8471SOL    HW137046   0.355   4.528   6.981 -2.4882  0.9862 -2.4295
 8471SOL    HW237047   0.382   4.663   6.929 -0.3652 -0.9453 -3.3508
 8472SOL     OW37048   4.661   1.054   4.553  0.3849 -0.8592 -0.4116
 8472SOL    HW137049   4.632   0.973   4.511 -2.5157 -1.7751  3.2781
 8472SOL    HW237050   4.582   1.108   4.552  1.6983  1.1042  2.3368
 8473SOL     OW37051   1.525   1.816   4.817 -0.4142  1.2317 -0.5084
 8473SOL    HW137052   1.529   1.824   4.912  0.7756  0.2170 -0.4718
 8473SOL    HW237053   1.500   1.902   4.784  0.5769  2.6683  2.5245
 8474SOL     OW37054   2.481   4.137   1.043  0.7165  0.7017  0.4650
 8474SOL    HW137055   2.388   4.127   1.023  0.5670  0.9200  1.0380
 8474SOL    HW237056   2.517   4.097   0.964  1.5515  0.5871  0.9034
 8475SOL     OW37057   0.948   2.084  16.177 -0.0210 -0.1489 -0.0896
 8475SOL    HW137058   1.038   2.110  16.158  0.8482 -0.1201  4.0046
 8475SOL    HW237059   0.958   1.990  16.195 -0.7383 -0.3703 -0.8375
 8476SOL     OW37060   0.970   4.398   6.439  0.7739  0.7168  0.6770
 8476SOL    HW137061   0.888   4.413   6.393  0.8012 -1.5442 -0.1305
 8476SOL    HW237062   0.952   4.445   6.520 -2.2962  0.9496 -0.1415
 8477SOL     OW37063   1.384   1.576   5.908 -0.5668 -0.0062  0.3586
 8477SOL    HW137064   1.459   1.529   5.869 -0.5451  2.9621 -3.1800
 8477SOL    HW237065   1.382   1.659   5.862 -2.2558 -0.5192 -0.4926
 8478SOL     OW37066   2.974   3.971   6.662  0.1830 -0.5731  0.3814
 8478SOL    HW137067   2.997   3.913   6.734  1.3827 -1.0579 -0.4036
 8478SOL    HW237068   2.888   3.931   6.645  0.6072 -0.6016 -1.6609
 8479SOL     OW37069   1.097   4.074   3.700  0.5301 -0.4953 -0.8070
 8479SOL    HW137070   1.015   4.106   3.663 -0.3932 -0.8752  0.8787
 8479SOL    HW237071   1.087   4.098   3.793  0.2376  0.8774 -1.1970
 8480SOL     OW37072   0.657   2.959  12.350  0.6195 -0.4599 -0.3650
 8480SOL    HW137073   0.659   3.055  12.348  0.0895 -0.4680 -1.5084
 8480SOL    HW237074   0.564   2.944  12.335  0.2520 -0.0267  1.4371
 8481SOL     OW37075   4.643   1.265   9.569 -0.2612 -0.5804  0.0750
 8481SOL    HW137076   4.606   1.322   9.502 -2.7679 -1.7194  0.4690
 8481SOL    HW237077   4.725   1.313   9.579 -0.1801 -0.5214 -0.9310
 8482SOL     OW37078   2.768   0.602  12.423  0.3550 -0.2512  0.1395
 8482SOL    HW137079   2.698   0.578  12.482  0.0514 -2.1891 -0.9838
 8482SOL    HW237080   2.828   0.624  12.494 -1.5494 -2.3261  2.3748
 8483SOL     OW37081   1.377   1.710   3.744  0.7713  0.0680 -0.5530
 8483SOL    HW137082   1.453   1.693   3.689  0.6943 -0.8576 -0.3622
 8483SOL    HW237083   1.378   1.645   3.814  2.1199  0.7299  0.0404
 8484SOL     OW37084   2.759   4.093   6.331  0.5900 -0.0608  0.5086
 8484SOL    HW137085   2.841   4.110   6.377  0.8042 -2.7637  1.1368
 8484SOL    HW237086   2.717   4.033   6.393 -0.1117  0.9474  0.9911
 8485SOL     OW37087   3.041   0.376   2.162  0.6193  0.4280 -0.1162
 8485SOL    HW137088   3.108   0.357   2.228  1.0523  2.5905  0.0537
 8485SOL    HW237089   3.084   0.329   2.090 -0.1093  0.8178 -0.8024
 8486SOL     OW37090   1.927   1.177   8.627  0.5161 -0.3410  0.2273
 8486SOL    HW137091   1.984   1.193   8.703  0.6708 -0.9297  0.2348
 8486SOL    HW237092   1.857   1.137   8.679 -0.2079 -0.4022 -0.8009
 8487SOL     OW37093   3.577   3.043   9.514 -0.2275 -0.0611  0.3154
 8487SOL    HW137094   3.615   3.018   9.598  0.3351  1.0128  0.3805
 8487SOL    HW237095   3.584   2.960   9.467  2.8527 -0.1899  0.9980
 8488SOL     OW37096   4.731   0.265   2.284  0.1816  0.1708 -0.2751
 8488SOL    HW137097   0.049   0.190   2.282 -1.4911 -1.1880  0.6342
 8488SOL    HW237098   4.646   0.222   2.296  0.5809 -0.2644  1.0099
 8489SOL     OW37099   0.516   2.700  12.110 -0.5849  0.2619  0.6029
 8489SOL    HW137100   0.507   2.698  12.014  0.9602  1.1581  0.4417
 8489SOL    HW237101   0.431   2.725  12.146 -1.5872 -1.5142 -0.5498
 8490SOL     OW37102   2.632   4.559   8.515  0.5504 -0.2785  0.3804
 8490SOL    HW137103   2.603   4.625   8.452 -0.1275  1.1489  2.2141
 8490SOL    HW237104   2.726   4.576   8.516  0.1117  2.1067  0.6883
 8491SOL     OW37105   0.304   4.560   4.707  0.9031  0.6408  0.5584
 8491SOL    HW137106   0.274   4.488   4.762 -0.4470  1.5081  0.9674
 8491SOL    HW237107   0.286   4.630   4.769  1.7835  0.7438  0.6960
 8492SOL     OW37108   3.463   3.274   6.986 -0.8918 -0.0291  0.4428
 8492SOL    HW137109   3.553   3.295   7.011 -0.4773  0.6532 -1.6911
 8492SOL    HW237110   3.410   3.278   7.066  0.1433  2.7488  0.9742
 8493SOL     OW37111   1.678   1.716  10.761 -0.6105 -0.2433  0.6023
 8493SOL    HW137112   1.691   1.724  10.855  0.7248 -2.7048  0.6348
 8493SOL    HW237113   1.655   1.623  10.763 -0.0299 -0.3591  1.8066
 8494SOL     OW37114   2.813   0.174   5.507 -0.2130 -0.2121  0.9089
 8494SOL    HW137115   2.744   0.108   5.517 -0.6478  0.8518  4.8096
 8494SOL    HW237116   2.856   0.184   5.592 -0.1349 -1.2872  0.9972
 8495SOL     OW37117   1.702   4.047   1.687 -0.3066 -0.1309 -0.1475
 8495SOL    HW137118   1.682   3.979   1.751 -3.0190  0.2003 -0.6094
 8495SOL    HW237119   1.639   4.116   1.710 -0.4638 -0.4256  0.2928
 8496SOL     OW37120   2.249   2.443   3.427 -0.3215  0.1218  0.1200
 8496SOL    HW137121   2.262   2.372   3.364 -0.6761 -0.8024  1.0914
 8496SOL    HW237122   2.166   2.488   3.409 -0.4090  0.9381  2.5487
 8497SOL     OW37123   4.689   3.957   5.283  0.0592  0.3866  0.2529
 8497SOL    HW137124   4.683   3.923   5.194 -0.7316 -0.1581  0.5108
 8497SOL    HW237125   4.595   3.973   5.293  0.1433 -0.1558  1.7506
 8498SOL     OW37126   4.712   0.866   5.978  0.4293 -0.2176 -0.3157
 8498SOL    HW137127   4.652   0.804   6.019  0.7402  0.3221  0.9522
 8498SOL    HW237128   0.016   0.816   5.910  0.8550 -0.1083 -0.1124
 8499SOL     OW37129   3.155   0.161  14.459  0.0322 -0.0341  0.1651
 8499SOL    HW137130   3.126   0.075  14.487  1.5433 -0.2848  0.9348
 8499SOL    HW237131   3.123   0.171  14.369 -2.5168  1.1322  1.2018
 8500SOL     OW37132   2.314   2.969   4.927  0.1278  0.5339  0.2975
 8500SOL    HW137133   2.219   2.965   4.927  0.1477  0.3273  1.3730
 8500SOL    HW237134   2.346   2.883   4.954  0.3350 -0.5979 -3.4538
 8501SOL     OW37135   3.420   1.358   3.264  0.6281  0.3338  0.6561
 8501SOL    HW137136   3.371   1.436   3.289 -0.0470  0.6587 -1.7432
 8501SOL    HW237137   3.425   1.309   3.346 -5.4833 -2.4905 -0.6755
 8502SOL     OW37138   0.621   0.964   7.470 -0.1374 -0.2413 -0.3583
 8502SOL    HW137139   0.686   1.011   7.417 -1.3631  1.7393 -0.1370
 8502SOL    HW237140   0.547   0.970   7.410  1.8441  0.4514 -2.7060
 8503SOL     OW37141   0.061   1.102   1.697 -0.2017  0.7083  0.8390
 8503SOL    HW137142   0.143   1.133   1.735  1.4040  0.6593 -2.6144
 8503SOL    HW237143   0.008   1.179   1.718  1.1262  2.4570 -2.2427
 8504SOL     OW37144   3.042   1.954   8.790  0.0814 -0.3277 -0.0830
 8504SOL    HW137145   2.972   1.892   8.770  0.2613 -1.8888  4.0208
 8504SOL    HW237146   3.114   1.910   8.746  0.2981  0.6548 -0.7007
 8505SOL     OW37147   1.863   2.255   8.388 -0.3779 -0.1257 -0.0419
 8505SOL    HW137148   1.794   2.236   8.325 -0.2499  1.3645 -0.6361
 8505SOL    HW237149   1.930   2.296   8.333  1.2808 -2.0885  0.4957
 8506SOL     OW37150   3.910   1.761   5.097  0.0018  0.1629  0.2527
 8506SOL    HW137151   3.899   1.667   5.084 -0.1848  0.2982 -0.5389
 8506SOL    HW237152   3.876   1.804   5.019  1.3718  0.3100 -0.2724
 8507SOL     OW37153   1.189   2.582  10.512  0.5414  0.1582  0.3088
 8507SOL    HW137154   1.217   2.544  10.429  0.0087  0.8929 -0.1989
 8507SOL    HW237155   1.187   2.676  10.492 -0.5591 -0.5033 -2.6523
 8508SOL     OW37156   4.333   2.328  15.227 -0.2246  0.3474 -0.5828
 8508SOL    HW137157   4.328   2.361  15.317  0.6416 -1.8975  0.2771
 8508SOL    HW237158   4.290   2.243  15.228  0.1990  0.1370 -0.2337
 8509SOL     OW37159   0.690   1.205   3.017 -0.8283  0.1926  0.1732
 8509SOL    HW137160   0.607   1.182   3.058 -0.8385  0.6633  0.4154
 8509SOL    HW237161   0.730   1.254   3.089  1.0661 -2.3293  0.8503
 8510SOL     OW37162   0.482   3.743   4.689 -0.5309  0.1243  0.8036
 8510SOL    HW137163   0.433   3.666   4.662  1.6016 -0.6267 -0.8927
 8510SOL    HW237164   0.543   3.743   4.615 -1.4104 -0.8657  0.0740
 8511SOL     OW37165   2.357   3.126   7.611  0.1894 -0.4520  0.7916
 8511SOL    HW137166   2.357   3.125   7.706 -3.4130  2.2992  0.8422
 8511SOL    HW237167   2.423   3.061   7.589 -0.7812 -0.7163 -1.3715
 8512SOL     OW37168   4.705   0.526   3.874 -0.4408  0.2348 -0.4485
 8512SOL    HW137169   4.612   0.541   3.856 -0.8303 -0.6165  0.8650
 8512SOL    HW237170   0.007   0.589   3.816 -0.9796 -1.0622 -2.2846
 8513SOL     OW37171   2.474   1.258  10.491 -0.3968 -0.3066 -0.0476
 8513SOL    HW137172   2.520   1.243  10.408 -0.3324  0.6318 -0.1791
 8513SOL    HW237173   2.541   1.312  10.533 -1.6871 -0.6517  2.3957
 8514SOL     OW37174   1.206   0.728  17.665 -0.4571  0.1930 -0.0252
 8514SOL    HW137175   1.184   0.817  17.637 -0.0506 -0.4388 -2.3027
 8514SOL    HW237176   1.299   0.736  17.685 -1.1326 -3.3443  4.4403
 8515SOL     OW37177   1.875   0.391   8.112 -0.0977  0.3390  0.1929
 8515SOL    HW137178   1.830   0.464   8.155  0.7969  1.3878 -0.6279
 8515SOL    HW237179   1.967   0.417   8.118  0.5008 -2.0522  1.4448
 8516SOL     OW37180   1.168   3.718   8.091  0.3051 -0.5943  0.3836
 8516SOL    HW137181   1.171   3.779   8.017 -1.8288 -1.3963 -0.3671
 8516SOL    HW237182   1.141   3.764   8.170  1.8572 -0.1758  0.6685
 8517SOL     OW37183   2.938   4.612   4.956  0.3828  0.0063 -0.4324
 8517SOL    HW137184   2.975   4.524   4.945  2.8363  1.3776 -2.9046
 8517SOL    HW237185   2.878   4.590   5.028  0.7908 -2.1811 -0.7455
 8518SOL     OW37186   0.788   3.513   2.046  0.1349 -0.1235 -0.7105
 8518SOL    HW137187   0.789   3.420   2.023 -2.5663 -0.2486 -0.2975
 8518SOL    HW237188   0.881   3.536   2.053  0.7959 -2.9610 -0.3864
 8519SOL     OW37189   4.675   3.475  16.808  0.3651 -0.5938  0.0329
 8519SOL    HW137190   4.654   3.513  16.723 -2.4596 -1.9156  0.1417
 8519SOL    HW237191   4.714   3.546  16.860  0.6464 -0.3262 -0.5448
 8520SOL     OW37192   3.809   4.281   5.048 -0.1522 -0.1488 -0.0440
 8520SOL    HW137193   3.753   4.256   4.974  0.3961 -1.8713  0.1260
 8520SOL    HW237194   3.781   4.369   5.073 -0.5241  0.0445 -1.1631
 8521SOL     OW37195   1.827   2.911   8.959 -0.3942 -0.0068 -0.1072
 8521SOL    HW137196   1.792   2.892   8.873  0.1454 -2.9600  0.3335
 8521SOL    HW237197   1.913   2.943   8.932 -0.7061 -2.4816 -4.0264
 8522SOL     OW37198   0.093   2.549   9.636  0.3290 -0.8084  0.1380
 8522SOL    HW137199   0.090   2.625   9.694 -2.1113  0.1937 -1.3041
 8522SOL    HW237200   0.012   2.547   9.585  1.1175 -1.9154 -1.0610
 8523SOL     OW37201   3.799   1.936   2.857 -0.2117  0.0061 -0.2696
 8523SOL    HW137202   3.761   1.882   2.927 -1.9913 -0.0748 -1.3056
 8523SOL    HW237203   3.791   1.897   2.770 -0.5231  0.7487 -0.5685
 8524SOL     OW37204   2.807   1.095   7.765  0.1355  0.3838  0.3250
 8524SOL    HW137205   2.777   1.053   7.685  1.5901  2.7916 -1.4850
 8524SOL    HW237206   2.731   1.073   7.818  2.2606  1.4717  3.8598
 8525SOL     OW37207   1.098   3.191   8.103 -0.2382 -0.9636 -0.0938
 8525SOL    HW137208   1.143   3.273   8.123  0.2818 -1.3583  0.3547
 8525SOL    HW237209   1.100   3.148   8.189  1.2746 -3.7237 -1.4778
 8526SOL     OW37210   2.464   0.556   5.660 -0.5463  0.7842 -0.1079
 8526SOL    HW137211   2.409   0.527   5.587  0.4619 -4.5926  1.2578
 8526SOL    HW237212   2.497   0.472   5.690  1.6794  2.5842  2.4814
 8527SOL     OW37213   1.064   3.113   5.516 -0.7869  0.2045 -0.0210
 8527SOL    HW137214   1.064   3.208   5.507  0.7975  0.3333  1.1856
 8527SOL    HW237215   0.980   3.085   5.481  1.2001 -3.9807 -1.5110
 8528SOL     OW37216   0.363   2.115   3.928 -0.0641 -0.2935 -0.7127
 8528SOL    HW137217   0.329   2.167   3.855 -0.4874  1.4608  0.7148
 8528SOL    HW237218   0.394   2.183   3.989  1.6375 -1.5655 -0.1676
 8529SOL     OW37219   4.037   1.344   6.574  0.0851 -0.0540  0.1826
 8529SOL    HW137220   3.960   1.329   6.518  1.4351 -0.5769 -1.5508
 8529SOL    HW237221   4.009   1.281   6.640 -1.6005  0.2342 -0.2505
 8530SOL     OW37222   3.724   3.419   8.674 -0.2504  0.0008  0.7071
 8530SOL    HW137223   3.722   3.343   8.732 -0.8530 -1.7254 -1.5248
 8530SOL    HW237224   3.701   3.381   8.589  0.3093 -1.7487  1.3365
 8531SOL     OW37225   0.014   1.210  14.891  0.0016  0.0288 -0.2655
 8531SOL    HW137226   0.014   1.127  14.939  0.5980 -0.4145 -1.0277
 8531SOL    HW237227   0.079   1.256  14.944  0.2062 -0.7676  0.1864
 8532SOL     OW37228   4.463   3.190   2.059  0.2177  0.6051  0.1363
 8532SOL    HW137229   4.373   3.192   2.092  0.8258  2.6811  1.6919
 8532SOL    HW237230   4.495   3.110   2.102  1.6775 -0.3042 -2.6293
 8533SOL     OW37231   1.346   3.589   6.841 -0.4336 -0.4783  0.5064
 8533SOL    HW137232   1.329   3.672   6.885 -1.7850 -0.5629  0.1242
 8533SOL    HW237233   1.321   3.623   6.755 -0.3835 -1.4346  0.1133
 8534SOL     OW37234   2.995   3.742   5.353  0.9095  0.4869 -0.0936
 8534SOL    HW137235   3.008   3.833   5.382  1.4140  0.9697 -1.8199
 8534SOL    HW237236   2.993   3.691   5.433  0.0027  2.1587  0.9581
 8535SOL     OW37237   2.588   4.267  15.964 -0.3001  0.4684  0.0661
 8535SOL    HW137238   2.622   4.207  15.898  2.7276  0.9697  1.1826
 8535SOL    HW237239   2.620   4.220  16.041 -2.0711 -3.1607 -1.4469
 8536SOL     OW37240   2.450   1.008   7.521  0.5436  0.3465 -0.4280
 8536SOL    HW137241   2.389   0.960   7.577 -0.5873 -0.2632 -2.2062
 8536SOL    HW237242   2.475   0.937   7.463 -0.8231 -1.0138  0.6388
 8537SOL     OW37243   0.193   2.350   3.318 -0.3011  0.7762 -0.2099
 8537SOL    HW137244   0.210   2.392   3.402  1.5252 -0.9273  0.2746
 8537SOL    HW237245   0.098   2.353   3.315 -0.3666 -2.3469 -0.6984
 8538SOL     OW37246   0.514   1.427  12.719  0.6192  1.2419 -0.0862
 8538SOL    HW137247   0.478   1.433  12.630  3.8231 -0.3313 -1.4544
 8538SOL    HW237248   0.523   1.521  12.736 -0.0235  1.1131  0.9797
 8539SOL     OW37249   0.364   0.646  10.961 -0.3291 -0.2678  0.1447
 8539SOL    HW137250   0.411   0.641  11.045 -0.4328 -2.5080  0.0485
 8539SOL    HW237251   0.306   0.719  10.984  1.3415  0.8256  0.8826
 8540SOL     OW37252   3.540   0.011   5.551  0.1010 -0.2308 -0.1741
 8540SOL    HW137253   3.520   4.667   5.513  2.9615 -0.4973 -1.0781
 8540SOL    HW237254   3.634   4.734   5.555 -0.1112 -1.2613  0.1426
 8541SOL     OW37255   0.632   2.928  11.395  0.3454  0.2411  0.3729
 8541SOL    HW137256   0.696   2.896  11.332 -0.2313  0.9324 -0.5585
 8541SOL    HW237257   0.591   2.847  11.424 -0.1764  0.4538  0.2319
 8542SOL     OW37258   1.591   4.020  13.560  0.3822  0.1011  0.9032
 8542SOL    HW137259   1.500   4.034  13.588 -0.1188 -0.2114 -0.6102
 8542SOL    HW237260   1.585   4.056  13.472  1.3048  0.2831  0.9166
 8543SOL     OW37261   2.094   4.145   0.093  0.0943  0.3296 -0.4450
 8543SOL    HW137262   2.186   4.161   0.071 -0.1947  0.5877 -1.4855
 8543SOL    HW237263   2.105   4.083   0.165 -0.1626  0.0003 -0.6850
 8544SOL     OW37264   3.901   4.081   3.054  0.1353 -0.4173 -0.6302
 8544SOL    HW137265   3.952   4.026   2.994  0.9494 -1.4252  0.9921
 8544SOL    HW237266   3.885   4.160   3.002 -1.1444 -0.1871  0.1111
 8545SOL     OW37267   4.139   4.399   9.602 -0.1645  0.3688 -0.3869
 8545SOL    HW137268   4.145   4.307   9.578  1.4274  0.6474 -1.0553
 8545SOL    HW237269   4.071   4.403   9.670 -0.7355 -0.4094 -0.9202
 8546SOL     OW37270   2.132   1.014   7.435  0.3345  0.0166 -0.0875
 8546SOL    HW137271   2.095   0.950   7.374 -3.4021  0.6018  1.5443
 8546SOL    HW237272   2.175   0.955   7.496  0.0465 -0.9105 -0.7826
 8547SOL     OW37273   4.505   1.553   2.617  0.3862  0.8226 -0.0186
 8547SOL    HW137274   4.411   1.556   2.637  0.1146 -2.0094 -0.7394
 8547SOL    HW237275   4.522   1.645   2.635 -2.2685  0.8767  2.1647
 8548SOL     OW37276   1.767   2.172   2.789  0.1188  0.0765  0.1805
 8548SOL    HW137277   1.749   2.114   2.714 -1.1260  1.0560 -0.2679
 8548SOL    HW237278   1.829   2.118   2.839  2.6862  2.5000 -0.3703
 8549SOL     OW37279   1.820   3.753   0.145  0.2674 -0.4667  0.6458
 8549SOL    HW137280   1.794   3.844   0.131  1.4394 -0.1444  0.5935
 8549SOL    HW237281   1.825   3.746   0.240 -0.9212  1.0401  0.8248
 8550SOL     OW37282   0.622   2.632  16.467 -0.0986 -0.0194  0.0767
 8550SOL    HW137283   0.576   2.640  16.551 -0.3516  0.2022 -0.0859
 8550SOL    HW237284   0.676   2.554  16.483 -0.3704 -0.0917  0.6608
 8551SOL     OW37285   4.639   3.968   4.212 -0.2952 -0.4148  0.0409
 8551SOL    HW137286   4.720   3.966   4.161 -0.3741  0.1150 -0.1020
 8551SOL    HW237287   4.604   4.054   4.191 -0.3682 -0.1448  1.2633
 8552SOL     OW37288   1.538   3.530   8.872 -0.4689 -0.1818 -0.1531
 8552SOL    HW137289   1.625   3.543   8.909 -1.1635  0.0303  1.4384
 8552SOL    HW237290   1.474   3.560   8.937  1.1985  0.2116  1.2945
 8553SOL     OW37291   2.780   4.673  15.040  0.2249  0.1653 -0.2787
 8553SOL    HW137292   2.739   4.671  14.954  0.3185  1.5930 -0.3569
 8553SOL    HW237293   2.746   0.011  15.081 -2.4338 -1.3221  0.3833
 8554SOL     OW37294   3.192   3.865   8.211 -0.2575  0.7593  0.1855
 8554SOL    HW137295   3.243   3.846   8.290 -0.8727 -1.7173 -0.0125
 8554SOL    HW237296   3.153   3.951   8.227  1.3852  1.4273  0.5952
 8555SOL     OW37297   0.392   1.677  11.735  0.0573  0.5452 -0.2064
 8555SOL    HW137298   0.390   1.665  11.640  2.0535  1.8291 -0.4348
 8555SOL    HW237299   0.305   1.714  11.749 -0.4718 -1.0894  0.8246
 8556SOL     OW37300   4.706   3.396   6.735  0.0202  0.4701 -0.1643
 8556SOL    HW137301   4.643   3.324   6.727 -0.6195  1.1822 -1.5185
 8556SOL    HW237302   4.658   3.477   6.718  0.5438  0.8061 -0.0339
 8557SOL     OW37303   2.248   2.003  13.269  0.2108 -0.1114  0.0280
 8557SOL    HW137304   2.245   1.914  13.303 -1.8355 -0.6402 -1.4807
 8557SOL    HW237305   2.154   2.022  13.276  0.1008 -0.7929  0.3277
 8558SOL     OW37306   1.470   1.859   2.141 -0.0356  0.4858 -0.3542
 8558SOL    HW137307   1.490   1.804   2.216 -0.3457  1.2980  0.3268
 8558SOL    HW237308   1.417   1.928   2.181  0.3956  1.7341 -1.9337
 8559SOL     OW37309   0.328   0.532   8.028 -0.5750 -0.3275 -0.3033
 8559SOL    HW137310   0.387   0.591   8.075 -0.5015  0.2391 -1.1084
 8559SOL    HW237311   0.396   0.496   7.971 -0.0308 -0.5494  0.4966
 8560SOL     OW37312   2.537   3.964   1.568  0.7267 -0.0890  0.1047
 8560SOL    HW137313   2.509   3.980   1.478  3.1103 -2.5986 -1.1129
 8560SOL    HW237314   2.454   3.965   1.614  0.9921 -0.5243  0.5916
 8561SOL     OW37315   2.524   3.680   6.533 -0.3441  0.1224 -0.5468
 8561SOL    HW137316   2.483   3.616   6.591 -2.9569  2.1318 -0.2019
 8561SOL    HW237317   2.450   3.693   6.474 -1.1384  0.7336  0.6078
 8562SOL     OW37318   2.041   1.695   1.588 -0.6009  0.0732  0.6118
 8562SOL    HW137319   2.038   1.606   1.621 -0.4607 -0.1333  0.0637
 8562SOL    HW237320   2.074   1.689   1.498  0.3406  0.8328  0.9031
 8563SOL     OW37321   4.347   3.341   6.149 -0.0006 -0.0469 -0.0067
 8563SOL    HW137322   4.277   3.357   6.086  0.0068  1.2794  0.3103
 8563SOL    HW237323   4.321   3.402   6.219  0.5416 -0.5552  0.6434
 8564SOL     OW37324   3.392   0.972   4.437  0.3720  0.1971  0.5861
 8564SOL    HW137325   3.440   0.962   4.355 -0.3195 -0.2428  0.2346
 8564SOL    HW237326   3.367   1.063   4.426 -1.2399 -0.3882 -0.5222
 8565SOL     OW37327   4.162   1.226  11.883 -0.6417  0.0338 -0.4591
 8565SOL    HW137328   4.134   1.267  11.801 -0.3899 -1.5763 -1.3375
 8565SOL    HW237329   4.077   1.195  11.913 -1.3352  0.5950 -1.8437
 8566SOL     OW37330   1.944   4.069  17.640  0.2078  1.2160  0.5984
 8566SOL    HW137331   1.966   4.142  17.581  2.5811 -1.1117 -1.4145
 8566SOL    HW237332   2.015   4.085  17.702  0.2387  2.1052  0.3382
 8567SOL     OW37333   3.703   0.072  17.097 -0.3771  0.0175 -0.4588
 8567SOL    HW137334   3.677   4.726  17.126 -0.5014  0.4263  0.6439
 8567SOL    HW237335   3.670   0.080  17.007 -2.8286  0.5055  0.4967
 8568SOL     OW37336   1.722   1.751   3.523  0.1714  0.6349 -0.7016
 8568SOL    HW137337   1.656   1.809   3.485 -1.2262 -0.5686 -0.1367
 8568SOL    HW237338   1.726   1.790   3.611  2.0815  0.3779 -0.6743
 8569SOL     OW37339   1.540   1.446   9.698 -0.5623  0.1565 -0.2856
 8569SOL    HW137340   1.607   1.474   9.636 -0.3212 -1.1179 -0.5994
 8569SOL    HW237341   1.561   1.354   9.713  2.0103  0.5454 -1.6292
 8570SOL     OW37342   2.516   3.579   5.245 -0.4831  0.0642 -0.0882
 8570SOL    HW137343   2.583   3.534   5.297  0.4123  2.3460  0.7539
 8570SOL    HW237344   2.568   3.594   5.167  0.5556  1.5446  0.8853
 8571SOL     OW37345   3.574   1.409   4.171  0.0147  0.4112 -0.0140
 8571SOL    HW137346   3.610   1.386   4.085  2.4461  0.6578  0.9409
 8571SOL    HW237347   3.631   1.366   4.234 -0.1225  0.8703  0.4266
 8572SOL     OW37348   1.018   3.342   4.972  0.3618 -0.1275  0.0321
 8572SOL    HW137349   1.086   3.403   5.004 -3.1209  2.2140  2.9719
 8572SOL    HW237350   0.962   3.332   5.049 -1.1781  1.3078 -0.8896
 8573SOL     OW37351   1.852   0.297   4.485 -0.4314  0.8856  0.2102
 8573SOL    HW137352   1.864   0.368   4.548 -2.2341  1.4570 -0.0644
 8573SOL    HW237353   1.763   0.271   4.510 -0.4674 -0.9232 -1.8349
 8574SOL     OW37354   4.643   0.770  12.953 -0.1085  0.3228  0.4330
 8574SOL    HW137355   4.686   0.688  12.977  1.8889  0.6964 -1.8729
 8574SOL    HW237356   4.664   0.818  13.033  1.4429  0.4500 -0.0428
 8575SOL     OW37357   0.665   4.526   6.567 -0.1184 -0.0500  0.2691
 8575SOL    HW137358   0.711   4.601   6.530 -1.0077 -0.5103 -1.7410
 8575SOL    HW237359   0.712   4.527   6.651  0.7883 -0.8391 -0.2239
 8576SOL     OW37360   2.468   0.417   7.039 -0.2127  0.3121 -0.2159
 8576SOL    HW137361   2.421   0.392   7.118 -0.6459 -0.6899 -0.7945
 8576SOL    HW237362   2.481   0.510   7.056 -0.2441  0.5799 -1.6242
 8577SOL     OW37363   4.294   1.588   0.407 -0.5187  0.2758  0.5114
 8577SOL    HW137364   4.326   1.656   0.467  1.3817 -0.6678  0.5493
 8577SOL    HW237365   4.373   1.550   0.369 -1.6962 -0.1217 -1.4980
 8578SOL     OW37366   1.399   4.203   5.099 -0.2580  0.3475  0.0652
 8578SOL    HW137367   1.471   4.218   5.037  0.1553  1.7586  0.8674
 8578SOL    HW237368   1.355   4.287   5.085  0.3040  0.8224  1.0998
 8579SOL     OW37369   1.569   3.912   6.116 -0.1781 -0.8236 -0.3393
 8579SOL    HW137370   1.659   3.880   6.115  0.2929  0.3959  2.7318
 8579SOL    HW237371   1.567   3.959   6.200  2.0052 -0.9408 -0.2214
 8580SOL     OW37372   0.241   2.093   8.139 -0.1117  0.0526 -0.5162
 8580SOL    HW137373   0.288   2.041   8.205 -0.9423  1.1385  0.9172
 8580SOL    HW237374   0.173   2.139   8.188 -0.2978  1.1134 -1.7838
 8581SOL     OW37375   1.068   0.540  14.625 -0.8285 -0.2683 -0.0611
 8581SOL    HW137376   1.093   0.551  14.717 -0.1974 -1.8573 -0.0329
 8581SOL    HW237377   0.973   0.552  14.626 -0.8835 -0.7771  0.9228
 8582SOL     OW37378   0.482   0.467  14.466  0.1634  0.4403 -0.1150
 8582SOL    HW137379   0.435   0.516  14.399  0.7381 -0.8327 -1.4508
 8582SOL    HW237380   0.406   0.419  14.501 -1.6121  1.3425 -2.6791
 8583SOL     OW37381   2.073   2.030   7.478 -0.5196  0.3088  0.1821
 8583SOL    HW137382   2.076   1.994   7.389  0.1640  1.0304 -0.0828
 8583SOL    HW237383   2.133   1.974   7.528 -0.5000 -0.2717 -0.4931
 8584SOL     OW37384   1.395   1.539  10.113 -0.3518  0.6031 -0.4887
 8584SOL    HW137385   1.455   1.564  10.043  2.9885 -1.6881  1.5925
 8584SOL    HW237386   1.351   1.623  10.126  0.6797  1.2290 -1.0951
 8585SOL     OW37387   1.565   2.535   9.116  0.2844  0.4696 -0.6420
 8585SOL    HW137388   1.638   2.484   9.082 -0.6001 -0.4829 -1.1067
 8585SOL    HW237389   1.607   2.558   9.199  0.7828 -2.0262 -0.1978
 8586SOL     OW37390   3.339   0.192   3.203  0.3067  0.4371 -0.2435
 8586SOL    HW137391   3.245   0.172   3.195  0.7575 -1.8270  0.2643
 8586SOL    HW237392   3.354   0.195   3.297  1.4018  0.8256 -0.4274
 8587SOL     OW37393   1.335   1.043   3.912  0.8138  0.2125  0.1008
 8587SOL    HW137394   1.424   1.010   3.900  0.9231 -0.3312  2.4454
 8587SOL    HW237395   1.298   0.977   3.970  0.9004 -1.8536 -2.1910
 8588SOL     OW37396   0.928   2.090   9.326  0.0005 -0.3167  0.6715
 8588SOL    HW137397   1.017   2.118   9.348  0.2778  0.2356 -1.0730
 8588SOL    HW237398   0.895   2.172   9.288 -0.2280 -0.8731 -0.3331
 8589SOL     OW37399   3.453   1.597   3.647  0.1198 -0.1206  0.2889
 8589SOL    HW137400   3.447   1.573   3.555  0.3282  0.9040  0.0114
 8589SOL    HW237401   3.494   1.682   3.634  1.4194 -0.7305  0.3263
 8590SOL     OW37402   2.302   3.156  10.093  0.2667  0.6776  0.5843
 8590SOL    HW137403   2.291   3.064  10.118  1.7483  0.4088  0.2106
 8590SOL    HW237404   2.211   3.186  10.085  0.2265  0.3558 -0.1670
 8591SOL     OW37405   2.100   3.948   4.524 -0.5045 -0.2721  0.1980
 8591SOL    HW137406   2.035   3.879   4.516  0.9969 -1.3487 -2.6481
 8591SOL    HW237407   2.102   3.992   4.439  0.9276  0.7174  0.7283
 8592SOL     OW37408   0.169   1.959   1.862 -0.0970  0.5931 -0.3494
 8592SOL    HW137409   0.135   1.912   1.938  0.5650  1.2331  0.3425
 8592SOL    HW237410   0.209   1.886   1.815 -0.3399  0.7212 -0.7604
 8593SOL     OW37411   0.056   3.101  17.366  0.2547 -0.0859 -0.0192
 8593SOL    HW137412   4.723   3.161  17.367 -0.2595 -0.6882 -3.9648
 8593SOL    HW237413   0.008   3.019  17.353 -2.5715  1.3949  1.1347
 8594SOL     OW37414   4.550   0.085  16.205  0.1480  0.7538  0.7894
 8594SOL    HW137415   4.489   0.023  16.164  0.7783 -0.2933  1.4619
 8594SOL    HW237416   4.563   0.142  16.129  2.3517 -1.5324 -0.5547
 8595SOL     OW37417   3.093   1.114   8.267 -0.1026  0.2853 -0.2320
 8595SOL    HW137418   3.086   1.053   8.341 -1.3877  2.0786  1.1138
 8595SOL    HW237419   3.127   1.052   8.203  0.8036  0.8026 -0.2544
 8596SOL     OW37420   2.267   0.764   3.129  0.1262 -0.3581 -0.4372
 8596SOL    HW137421   2.223   0.727   3.052  2.6139 -0.6712 -1.7022
 8596SOL    HW237422   2.350   0.797   3.095 -0.6532  1.8333 -0.2025
 8597SOL     OW37423   2.328   2.999   8.845  0.7369 -0.1116 -0.1608
 8597SOL    HW137424   2.385   3.075   8.843  0.4107  0.0787 -1.7311
 8597SOL    HW237425   2.378   2.934   8.896 -0.1207  1.6241  2.9004
 8598SOL     OW37426   1.195   0.212  17.039 -0.1320 -0.4016  0.2484
 8598SOL    HW137427   1.255   0.168  17.099  0.6111 -0.9784 -0.9017
 8598SOL    HW237428   1.151   0.133  17.008 -2.1601  0.2900  1.4285
 8599SOL     OW37429   1.413   4.283   9.837 -0.2970 -0.3807  0.1610
 8599SOL    HW137430   1.322   4.312   9.836 -0.6765 -1.5652  0.7896
 8599SOL    HW237431   1.404   4.190   9.820  1.2928 -0.7674  1.5374
 8600SOL     OW37432   4.514   4.041   7.090  0.0742  0.7613 -0.4832
 8600SOL    HW137433   4.558   4.028   7.174 -3.0390 -0.0485  1.0070
 8600SOL    HW237434   4.571   4.109   7.053 -2.4383  2.6210 -0.9338
 8601SOL     OW37435   4.476   1.273   9.980 -0.0186  0.0087  0.2718
 8601SOL    HW137436   4.567   1.288  10.006 -0.5484  0.0727  2.0888
 8601SOL    HW237437   4.445   1.363   9.969  0.4729  0.0269 -0.9481
 8602SOL     OW37438   2.897   1.121  13.404 -0.0452  0.2457 -0.2816
 8602SOL    HW137439   2.948   1.186  13.355 -0.4195 -0.9064 -2.1860
 8602SOL    HW237440   2.856   1.072  13.333 -0.0962  0.3119 -0.2977
 8603SOL     OW37441   0.935   1.879   3.322  0.1311  0.2009  0.5501
 8603SOL    HW137442   0.974   1.913   3.402  0.9208 -0.3902  0.4208
 8603SOL    HW237443   0.891   1.956   3.286 -0.6653 -0.4927  0.0362
 8604SOL     OW37444   2.361   1.907  12.370  0.2207  0.2634  0.2478
 8604SOL    HW137445   2.366   1.847  12.445  2.4007  1.0455  0.7133
 8604SOL    HW237446   2.427   1.881  12.306 -1.4402 -0.9581 -0.9885
 8605SOL     OW37447   1.731   4.659   1.327 -0.3104 -0.3926  0.1545
 8605SOL    HW137448   1.693   0.005   1.319  1.0364  0.2169  0.4538
 8605SOL    HW237449   1.712   4.635   1.236 -1.9348 -0.2018  0.4330
 8606SOL     OW37450   1.353   4.276   3.061 -0.0881 -0.3605 -0.1134
 8606SOL    HW137451   1.441   4.276   3.097 -0.4512  0.4562  0.7838
 8606SOL    HW237452   1.371   4.303   2.971  1.6296  1.2580  0.7267
 8607SOL     OW37453   4.375   0.783  12.421 -0.1808  0.4955 -0.0167
 8607SOL    HW137454   4.442   0.847  12.396 -0.1100 -0.4031 -2.1058
 8607SOL    HW237455   4.421   0.731  12.487  1.9709  0.7105 -1.3523
 8608SOL     OW37456   3.667   2.825  10.022  0.4160  0.3705  0.9923
 8608SOL    HW137457   3.733   2.882  10.062  1.3267  0.1001 -0.1278
 8608SOL    HW237458   3.629   2.786  10.101 -2.0232  0.5762 -0.0717
 8609SOL     OW37459   0.029   4.384  11.106 -0.2664 -0.1439  0.4334
 8609SOL    HW137460   0.055   4.329  11.032 -0.0672  1.0363 -0.3667
 8609SOL    HW237461   0.026   4.469  11.061 -1.1009 -0.7918 -0.7441
 8610SOL     OW37462   4.182   4.336   6.907 -0.3799 -0.4100 -0.6108
 8610SOL    HW137463   4.185   4.420   6.862  1.0941  0.1524  0.5459
 8610SOL    HW237464   4.097   4.299   6.881  0.2453 -2.2823 -0.0253
 8611SOL     OW37465   0.430   2.472   3.060 -0.4679 -0.2856 -0.0061
 8611SOL    HW137466   0.342   2.479   3.096 -0.0445 -0.1694  1.0279
 8611SOL    HW237467   0.466   2.556   3.087  1.1673 -0.8179 -0.5082
 8612SOL     OW37468   0.304   0.611  14.322  0.1999 -0.0926  0.3929
 8612SOL    HW137469   0.260   0.606  14.407 -0.2918  2.3474  0.2781
 8612SOL    HW237470   0.244   0.673  14.280  0.5338 -0.6307 -0.8850
 8613SOL     OW37471   2.552   1.030  17.703  0.4107  0.1997  0.2262
 8613SOL    HW137472   2.498   0.966  17.657 -0.9124  2.0820 -0.8010
 8613SOL    HW237473   2.510   1.115  17.696 -1.1542 -0.7141 -1.3658
 8614SOL     OW37474   3.517   2.434  13.277 -0.1201  0.0667  0.4252
 8614SOL    HW137475   3.571   2.506  13.243  0.5076 -0.3993  0.4528
 8614SOL    HW237476   3.490   2.455  13.366  2.4067  0.8787  0.9926
 8615SOL     OW37477   2.506   2.976   2.722 -0.1568  0.4167 -0.8837
 8615SOL    HW137478   2.480   2.951   2.634  0.7688  0.4747 -1.1741
 8615SOL    HW237479   2.592   2.934   2.731 -0.9177 -1.1458 -1.0208
 8616SOL     OW37480   3.916   1.911   4.387  0.0549 -0.2123 -0.3588
 8616SOL    HW137481   3.939   1.910   4.481 -0.2374  0.2433 -0.2858
 8616SOL    HW237482   3.982   1.850   4.354 -1.0776 -0.9324 -1.2781
 8617SOL     OW37483   3.827   2.563   1.256 -0.2145 -0.0787  0.3444
 8617SOL    HW137484   3.852   2.473   1.232  0.1469 -0.1636  1.0208
 8617SOL    HW237485   3.838   2.563   1.351 -2.5587 -1.7853  0.6179
 8618SOL     OW37486   4.585   4.461   8.911 -0.4291  0.3533 -0.2181
 8618SOL    HW137487   4.629   4.381   8.885 -2.0809 -0.4563 -0.4864
 8618SOL    HW237488   4.542   4.436   8.993 -1.6663  0.1588 -0.9186
 8619SOL     OW37489   1.218   1.017   5.633  0.1081  0.1283 -0.4414
 8619SOL    HW137490   1.242   1.105   5.662 -0.9278 -0.2376  1.5496
 8619SOL    HW237491   1.287   0.966   5.675  0.4076 -1.3187 -2.7016
 8620SOL     OW37492   3.978   3.745  17.479  0.4599  0.5403  0.0685
 8620SOL    HW137493   3.941   3.804  17.545  0.3483 -0.3911  0.8403
 8620SOL    HW237494   4.071   3.765  17.494  0.1275  0.0312  2.7812
 8621SOL     OW37495   0.252   4.429   7.080 -0.3915 -0.0304 -0.0314
 8621SOL    HW137496   0.240   4.407   7.172  2.1231  0.3355  0.3877
 8621SOL    HW237497   0.219   4.347   7.044  1.1919 -1.7861  2.5500
 8622SOL     OW37498   0.888   2.741  14.720  0.1623 -0.2240  0.4369
 8622SOL    HW137499   0.820   2.724  14.654  0.7886  3.1145 -1.0724
 8622SOL    HW237500   0.964   2.721  14.665  2.2298 -1.0020  3.5914
 8623SOL     OW37501   0.302   0.045   4.252 -0.2457 -0.1671 -0.4972
 8623SOL    HW137502   0.316   4.711   4.309 -2.0768  0.8088  1.2698
 8623SOL    HW237503   0.257   0.004   4.179  2.1215 -1.0360 -1.4663
 8624SOL     OW37504   3.618   4.572   6.487  0.2658 -0.0326  0.3173
 8624SOL    HW137505   3.693   4.520   6.458 -0.2588 -0.2584 -0.6622
 8624SOL    HW237506   3.666   4.650   6.514  0.4849 -0.5302  1.3397
 8625SOL     OW37507   4.672   2.760  10.526  0.5367  0.3997 -0.0398
 8625SOL    HW137508   4.636   2.847  10.542  1.2088  0.6631  0.0067
 8625SOL    HW237509   4.633   2.705  10.594  0.6111  0.4456  0.0385
 8626SOL     OW37510   1.792   0.030  12.458  0.1507 -0.2360  0.9029
 8626SOL    HW137511   1.868   0.022  12.402 -0.8693 -0.7091 -0.4116
 8626SOL    HW237512   1.747   4.693  12.426 -1.8449  1.1477  0.2674
 8627SOL     OW37513   1.760   4.571  15.474  0.0087 -0.1690 -0.2306
 8627SOL    HW137514   1.809   4.585  15.393  0.3415 -0.2406 -0.0420
 8627SOL    HW237515   1.698   4.513  15.428  1.6101 -3.0382  1.2493
 8628SOL     OW37516   0.223   3.021   9.633  0.3842  0.0520  0.3115
 8628SOL    HW137517   0.226   2.940   9.582 -0.1267 -0.2845  0.8078
 8628SOL    HW237518   0.317   3.033   9.645  0.2696 -0.9304  2.0767
 8629SOL     OW37519   2.130   4.480  13.094  0.4925 -0.4674  0.2672
 8629SOL    HW137520   2.129   4.568  13.057 -1.0056  0.5023  2.6063
 8629SOL    HW237521   2.149   4.500  13.185 -2.1030  0.5877  0.5802
 8630SOL     OW37522   2.121   2.011   5.341 -0.5113 -0.1293 -0.8470
 8630SOL    HW137523   2.166   1.984   5.260 -2.4487 -0.6517 -1.7473
 8630SOL    HW237524   2.107   2.095   5.297 -2.6300  0.5250  1.0895
 8631SOL     OW37525   0.722   3.722  12.222 -0.3184 -0.5752  0.0807
 8631SOL    HW137526   0.745   3.765  12.139  1.6273 -1.1266  0.3295
 8631SOL    HW237527   0.639   3.679  12.201  0.1583 -1.4003 -0.1164
 8632SOL     OW37528   2.967   3.581   5.568 -0.0881 -0.0279  0.1286
 8632SOL    HW137529   2.879   3.611   5.590  0.1432  1.2766 -0.7729
 8632SOL    HW237530   3.015   3.586   5.651  0.1657 -2.3844  0.1286
 8633SOL     OW37531   2.083   4.062   8.006 -0.1522  0.3550 -0.0164
 8633SOL    HW137532   2.014   3.998   8.022 -0.8838  0.8596 -1.1585
 8633SOL    HW237533   2.035   4.119   7.946 -0.8063  2.0332  2.1130
 8634SOL     OW37534   1.761   1.207   8.381 -0.4000  0.3113  0.1377
 8634SOL    HW137535   1.839   1.172   8.426 -0.5539  0.3438  0.4229
 8634SOL    HW237536   1.705   1.129   8.385 -0.9633  0.7768  1.2475
 8635SOL     OW37537   3.664   2.896   9.166 -0.1287 -0.1489  0.5260
 8635SOL    HW137538   3.705   2.838   9.230  0.1109 -0.6943 -0.1179
 8635SOL    HW237539   3.725   2.889   9.092  0.0688 -0.1769  0.6939
 8636SOL     OW37540   2.530   2.312  14.907 -0.1663  0.0623  0.3361
 8636SOL    HW137541   2.541   2.269  14.992  3.6728  0.5335  0.1020
 8636SOL    HW237542   2.591   2.255  14.859 -1.4998  0.4475 -1.8015
 8637SOL     OW37543   4.614   2.768   5.211  0.0552 -0.6982 -0.5684
 8637SOL    HW137544   4.619   2.763   5.307 -0.9986 -1.8171 -0.5686
 8637SOL    HW237545   4.526   2.801   5.195  0.7015  1.2698 -0.1084
 8638SOL     OW37546   2.901   1.592   4.730 -0.6167 -0.4357 -0.1707
 8638SOL    HW137547   2.955   1.525   4.687 -1.0108 -0.9304  0.1026
 8638SOL    HW237548   2.958   1.620   4.801  0.3859  1.7898 -1.8380
 8639SOL     OW37549   1.424   4.295   3.786  0.3274  0.3198  0.4510
 8639SOL    HW137550   1.470   4.212   3.802 -2.1175 -1.6898 -2.6939
 8639SOL    HW237551   1.492   4.353   3.818  0.0992  0.4687  0.6664
 8640SOL     OW37552   0.209   1.346  15.025  0.1835  0.2708 -0.2072
 8640SOL    HW137553   0.232   1.438  15.014 -1.6355  0.5551 -1.6811
 8640SOL    HW237554   0.239   1.331  15.114  0.7106 -2.5678 -0.8598
 8641SOL     OW37555   4.413   3.631   7.110 -0.3958 -0.0015 -0.0284
 8641SOL    HW137556   4.336   3.651   7.058 -0.1888  0.1299 -0.2879
 8641SOL    HW237557   4.388   3.541   7.129  0.0510 -0.1037  0.0717
 8642SOL     OW37558   4.724   4.680   3.818 -0.0294  0.1821 -0.3043
 8642SOL    HW137559   4.668   4.604   3.831  0.2730 -0.2542 -1.5453
 8642SOL    HW237560   4.664   0.010   3.840 -0.6119 -1.0127  1.9739
 8643SOL     OW37561   1.985   3.462   2.616 -0.1061  0.8193 -0.5963
 8643SOL    HW137562   2.024   3.383   2.579  0.0178  1.2613 -1.4179
 8643SOL    HW237563   1.987   3.443   2.710 -0.8031 -1.4618 -1.0345
 8644SOL     OW37564   3.278   3.049   0.946  0.0961 -0.5588 -0.2361
 8644SOL    HW137565   3.183   3.042   0.950  0.1052 -0.6633 -0.1984
 8644SOL    HW237566   3.286   3.144   0.941  0.4167 -0.6726 -1.9205
 8645SOL     OW37567   1.935   0.406   8.599  0.1546 -0.1173  0.2257
 8645SOL    HW137568   1.967   0.352   8.527 -0.3231  2.4620 -1.8880
 8645SOL    HW237569   1.864   0.356   8.639 -1.2495  1.6819 -0.0048
 8646SOL     OW37570   2.845   0.241   6.882  0.4218  0.4095 -0.4186
 8646SOL    HW137571   2.785   0.179   6.924 -0.9269  2.3923  0.5217
 8646SOL    HW237572   2.898   0.273   6.956  0.4987 -1.7681  0.4830
 8647SOL     OW37573   2.065   4.148   1.575 -0.0305 -1.0972 -0.0657
 8647SOL    HW137574   2.040   4.100   1.496 -0.8609 -0.7224 -0.0368
 8647SOL    HW237575   2.001   4.219   1.562  1.4761  0.2456 -0.1808
 8648SOL     OW37576   2.475   1.750   9.656 -0.1739  0.0051 -0.2002
 8648SOL    HW137577   2.427   1.692   9.715  0.5448 -1.7591 -1.3333
 8648SOL    HW237578   2.564   1.757   9.691  0.9308 -0.0497 -2.9922
 8649SOL     OW37579   1.473   2.150   6.389  0.1848  0.1528 -0.2732
 8649SOL    HW137580   1.566   2.156   6.368 -0.5525  1.6878 -3.1156
 8649SOL    HW237581   1.435   2.238   6.379  0.1844 -0.0243 -1.8318
 8650SOL     OW37582   3.116   3.337   2.821  0.2476  0.2720 -0.1057
 8650SOL    HW137583   3.093   3.300   2.736  1.9360  0.1062 -0.4855
 8650SOL    HW237584   3.097   3.431   2.814  0.2225  0.0762 -2.5122
 8651SOL     OW37585   2.272   2.987   6.245 -0.0108 -0.0908 -0.2911
 8651SOL    HW137586   2.204   3.051   6.269  0.0181 -0.5774  1.1143
 8651SOL    HW237587   2.338   2.997   6.314 -0.1689 -3.4675  0.3283
 8652SOL     OW37588   3.476   3.330  11.723  0.1907  0.5062 -0.3313
 8652SOL    HW137589   3.419   3.254  11.730 -0.0543  0.5529 -1.8877
 8652SOL    HW237590   3.540   3.311  11.791 -2.7553 -0.7782  2.0706
 8653SOL     OW37591   2.408   2.375   6.833  0.2293  0.3101  0.1282
 8653SOL    HW137592   2.473   2.441   6.809 -1.8510  2.3027 -0.1093
 8653SOL    HW237593   2.443   2.343   6.916  0.6568 -1.1946 -0.6511
 8654SOL     OW37594   1.639   1.076   5.355 -0.7637  0.0471  0.4424
 8654SOL    HW137595   1.645   1.172   5.352 -0.6647 -0.0112 -1.3499
 8654SOL    HW237596   1.735   1.069   5.353 -0.7439  0.2560  0.7314
 8655SOL     OW37597   0.032   0.504   1.593  0.4505  0.1275 -0.7684
 8655SOL    HW137598   4.736   0.417   1.605  0.0956  0.3823 -0.0180
 8655SOL    HW237599   4.695   0.552   1.623 -0.3346 -0.4279 -1.9206
 8656SOL     OW37600   1.814   2.845   7.459 -0.0589  0.0937 -0.2532
 8656SOL    HW137601   1.793   2.879   7.546  0.6545  0.7008 -0.3149
 8656SOL    HW237602   1.734   2.798   7.438  0.4837 -1.2542  0.7162
 8657SOL     OW37603   3.890   3.683  17.239 -0.2305 -0.3884  0.1049
 8657SOL    HW137604   3.935   3.694  17.323 -0.7656 -0.7710  0.4339
 8657SOL    HW237605   3.837   3.763  17.241  1.2247  0.6696 -2.8456
 8658SOL     OW37606   1.674   1.409  16.645  0.2085 -0.7008  0.0708
 8658SOL    HW137607   1.603   1.469  16.666  0.4748 -0.4146  0.1507
 8658SOL    HW237608   1.746   1.460  16.683 -1.8891  0.3179  2.6282
 8659SOL     OW37609   1.771   4.696   3.205  0.0241 -0.3674 -0.1970
 8659SOL    HW137610   1.701   4.719   3.265 -0.6997  0.6582 -1.4128
 8659SOL    HW237611   1.748   0.017   3.135  2.2413  0.0138 -0.5839
 8660SOL     OW37612   2.776   3.279  12.437  0.5226 -0.5621  0.0452
 8660SOL    HW137613   2.792   3.189  12.466  1.2600 -1.1028 -1.9865
 8660SOL    HW237614   2.759   3.326  12.518 -2.2981  1.3314 -1.6445
 8661SOL     OW37615   2.711   1.567   8.402  0.1101 -0.2965 -0.2290
 8661SOL    HW137616   2.712   1.662   8.413 -0.4433 -0.4109  0.8141
 8661SOL    HW237617   2.674   1.566   8.314 -1.7789  0.3976  0.5678
 8662SOL     OW37618   3.645   3.338   6.032  0.4816  0.3463  0.5237
 8662SOL    HW137619   3.599   3.404   5.979  0.7332  1.1099  1.2534
 8662SOL    HW237620   3.620   3.366   6.120  1.8617  1.2152  0.6449
 8663SOL     OW37621   3.380   2.559  14.362  0.3606 -0.7022 -0.0963
 8663SOL    HW137622   3.444   2.618  14.323  1.0342 -2.0313 -0.9898
 8663SOL    HW237623   3.302   2.576  14.309 -0.1690  0.1792  0.9621
 8664SOL     OW37624   1.322   1.391   2.136 -0.5558 -0.0795 -0.5248
 8664SOL    HW137625   1.248   1.410   2.194 -1.2789 -0.4790 -1.3056
 8664SOL    HW237626   1.390   1.361   2.196 -1.0003  2.0570  1.0302
 8665SOL     OW37627   1.432   1.853   7.108 -0.1944  0.0187 -0.3174
 8665SOL    HW137628   1.338   1.838   7.118  0.3981 -1.9430  2.1999
 8665SOL    HW237629   1.437   1.920   7.039 -0.2475  0.6798  0.3151
 8666SOL     OW37630   2.549   1.867   6.068 -0.1976 -0.7632  0.3861
 8666SOL    HW137631   2.617   1.872   6.001 -1.0173  1.8017 -0.2366
 8666SOL    HW237632   2.481   1.924   6.032 -0.4583  0.4644  2.8291
 8667SOL     OW37633   1.753   3.803   8.365  0.1688 -0.0251 -0.3376
 8667SOL    HW137634   1.822   3.828   8.427 -0.6460  0.6533  0.2778
 8667SOL    HW237635   1.712   3.889   8.358 -0.4494 -0.2580  0.4509
 8668SOL     OW37636   0.677   3.695  11.908 -0.7293 -0.2168  0.0740
 8668SOL    HW137637   0.764   3.699  11.947 -1.1373 -1.0929  1.0842
 8668SOL    HW237638   0.656   3.788  11.901  0.0897  0.0389  0.9513
 8669SOL     OW37639   0.543   1.037   4.954  0.3932  0.3153 -0.1571
 8669SOL    HW137640   0.568   1.120   4.996 -0.1659  1.4772 -2.1101
 8669SOL    HW237641   0.626   0.995   4.976  1.7379  2.1043 -1.8000
 8670SOL     OW37642   3.524   2.956   3.988 -0.2011  0.4040  0.2203
 8670SOL    HW137643   3.455   2.955   3.921 -0.8854 -0.4620  0.9358
 8670SOL    HW237644   3.579   2.880   3.969 -0.1016  0.1646  1.5020
 8671SOL     OW37645   0.629   4.441   1.346  0.2816  0.0328  0.4606
 8671SOL    HW137646   0.548   4.412   1.305  0.6235  0.7033 -0.7060
 8671SOL    HW237647   0.660   4.355   1.375 -0.7794  0.1600  1.9754
 8672SOL     OW37648   2.148   1.963   1.373 -0.3349  0.4701 -0.5919
 8672SOL    HW137649   2.157   2.056   1.349 -0.5935  0.3208 -1.2881
 8672SOL    HW237650   2.175   1.920   1.292 -0.2065  2.5331 -1.6637
 8673SOL     OW37651   0.577   1.253  13.488  0.0783 -0.2874  0.2787
 8673SOL    HW137652   0.577   1.337  13.534  1.0781  1.1686 -2.4144
 8673SOL    HW237653   0.485   1.232  13.474 -0.3465  2.4489 -0.8677
 8674SOL     OW37654   1.541   0.547   2.807 -0.1933  0.2368  0.5392
 8674SOL    HW137655   1.492   0.629   2.804 -1.2791 -0.4011  0.3881
 8674SOL    HW237656   1.491   0.503   2.737 -2.1330 -0.9831  2.6731
 8675SOL     OW37657   1.937   3.423  11.363 -0.0191  0.1441  0.4525
 8675SOL    HW137658   1.943   3.496  11.301 -1.1514 -0.9140 -0.9112
 8675SOL    HW237659   1.987   3.460  11.435 -1.3746  1.8932  0.4942
 8676SOL     OW37660   2.863   4.006   2.822  0.0550 -0.2069  0.0876
 8676SOL    HW137661   2.892   3.988   2.733  0.4062 -1.3974  0.4489
 8676SOL    HW237662   2.938   3.975   2.872  0.6756 -1.7938 -1.8499
 8677SOL     OW37663   2.047   1.472   7.968  0.0320  0.4008 -0.4428
 8677SOL    HW137664   2.085   1.419   8.038 -3.0426 -0.2695  0.7176
 8677SOL    HW237665   2.081   1.559   7.990 -2.3733  0.8793  1.2892
 8678SOL     OW37666   4.419   2.488  13.290 -0.3793 -0.4788  0.0964
 8678SOL    HW137667   4.473   2.542  13.348 -1.7371  1.6134 -0.5815
 8678SOL    HW237668   4.366   2.555  13.247  0.8440 -0.0161 -0.6764
 8679SOL     OW37669   2.822   4.084   3.442  0.1446 -0.0779 -0.2363
 8679SOL    HW137670   2.814   4.167   3.490  0.6334  0.6043 -1.3339
 8679SOL    HW237671   2.917   4.078   3.440  0.1185 -1.3016  2.2614
 8680SOL     OW37672   1.730   0.662   6.136  0.0651  0.3536 -0.6330
 8680SOL    HW137673   1.692   0.744   6.103 -0.5648  0.7690  1.1363
 8680SOL    HW237674   1.683   0.597   6.083  0.9970 -1.2218  0.4772
 8681SOL     OW37675   3.726   2.159   3.745  0.0193  0.7533 -0.3650
 8681SOL    HW137676   3.784   2.113   3.806  0.0589  2.0550  0.5848
 8681SOL    HW237677   3.720   2.103   3.668  0.4948  1.1238 -0.6749
 8682SOL     OW37678   4.688   0.644   0.549 -0.5364 -0.2143  0.2706
 8682SOL    HW137679   4.717   0.680   0.466  0.3596  0.2598  0.7916
 8682SOL    HW237680   4.684   0.716   0.612 -0.4482  0.0591 -0.0395
 8683SOL     OW37681   0.630   3.744   7.216 -0.4580  0.0645  0.4914
 8683SOL    HW137682   0.592   3.659   7.235  1.3345 -0.8285  0.0597
 8683SOL    HW237683   0.668   3.772   7.300 -0.5429  0.2252  0.4767
 8684SOL     OW37684   2.110   2.267  16.641 -0.2541  0.0161  0.0239
 8684SOL    HW137685   2.022   2.273  16.679 -0.3247 -0.9335 -0.0040
 8684SOL    HW237686   2.080   2.238  16.555  1.4450  1.8922 -1.2014
 8685SOL     OW37687   4.319   4.519   2.739 -0.4726  0.2255 -0.0122
 8685SOL    HW137688   4.274   4.558   2.814  3.4414  1.1275  1.8717
 8685SOL    HW237689   4.264   4.447   2.710 -0.7587  0.9258 -1.2146
 8686SOL     OW37690   0.409   3.534   1.890  0.1729  0.2578  0.2849
 8686SOL    HW137691   0.482   3.594   1.873  0.9101  0.3660  3.7688
 8686SOL    HW237692   0.410   3.463   1.827 -1.1121  0.3107  0.1981
 8687SOL     OW37693   2.103   3.974   2.157 -0.1452  0.1053  0.0451
 8687SOL    HW137694   2.028   3.962   2.100 -1.3381 -0.8501  1.8181
 8687SOL    HW237695   2.109   4.070   2.154 -1.5349  0.1728 -0.1395
 8688SOL     OW37696   0.506   4.607  10.712 -0.5236 -0.0662  0.5708
 8688SOL    HW137697   0.503   4.666  10.788 -0.0503  1.3549 -0.5077
 8688SOL    HW237698   0.464   4.664  10.648 -1.0921 -1.9482 -0.7126
 8689SOL     OW37699   1.273   0.036   2.101  0.0175  0.6957  0.0683
 8689SOL    HW137700   1.196   0.028   2.045  0.3402  1.1838 -0.4482
 8689SOL    HW237701   1.350   0.047   2.045  0.4372  0.7010  0.6425
 8690SOL     OW37702   2.672   4.274   4.625  0.2583  0.4851  0.7895
 8690SOL    HW137703   2.619   4.242   4.698 -0.1523 -0.3514  0.1256
 8690SOL    HW237704   2.740   4.207   4.620 -1.7085 -1.5265  0.9904
 8691SOL     OW37705   3.938   3.107   9.017 -0.0028  0.0733  0.4594
 8691SOL    HW137706   3.919   3.033   8.958 -0.1158 -0.8057  1.5989
 8691SOL    HW237707   3.972   3.058   9.092  1.7669 -0.4526 -0.6750
 8692SOL     OW37708   3.998   3.256   8.459 -0.4661 -0.4240 -0.6789
 8692SOL    HW137709   3.971   3.165   8.446 -0.7783 -0.4927  0.4482
 8692SOL    HW237710   4.082   3.265   8.415 -0.1703 -2.3700 -0.5070
 8693SOL     OW37711   0.381   1.554  13.067  1.0323  0.6183  0.1705
 8693SOL    HW137712   0.286   1.560  13.077  0.8569 -0.7846 -0.6611
 8693SOL    HW237713   0.402   1.643  13.036 -0.5262  0.8670 -0.1875
 8694SOL     OW37714   4.274   1.211   6.764  0.0568 -0.5015  0.1734
 8694SOL    HW137715   4.301   1.299   6.793  2.8040 -1.5077  0.6516
 8694SOL    HW237716   4.246   1.222   6.674  1.0442  0.5372 -0.0135
 8695SOL     OW37717   2.498   2.874   0.252  0.0746 -0.1892  0.3824
 8695SOL    HW137718   2.406   2.849   0.260 -0.5169  2.0752  0.7423
 8695SOL    HW237719   2.492   2.965   0.223  2.3889  0.4481  1.8910
 8696SOL     OW37720   3.005   2.857   4.999 -0.0890  0.1056  0.3459
 8696SOL    HW137721   3.085   2.824   4.959 -0.7208  0.8461 -1.5462
 8696SOL    HW237722   3.044   2.891   5.079 -0.3753  0.5894  0.2797
 8697SOL     OW37723   3.260   0.117   7.423 -0.4347  0.0923 -0.1272
 8697SOL    HW137724   3.352   0.137   7.440 -0.8496  0.8905  1.1729
 8697SOL    HW237725   3.256   0.134   7.329 -2.5755  0.9850  0.1203
 8698SOL     OW37726   0.019   1.619   7.945  0.3656 -0.0818 -0.2858
 8698SOL    HW137727   0.097   1.652   7.900  0.6596 -0.3480  0.0213
 8698SOL    HW237728   4.709   1.597   7.867 -0.9676  0.5208  0.4155
 8699SOL     OW37729   1.048   3.664   6.251  0.7552  0.0914  0.6273
 8699SOL    HW137730   1.027   3.725   6.180  1.7797  0.5360  0.7150
 8699SOL    HW237731   0.974   3.603   6.240 -0.8231  2.1021  0.0922
 8700SOL     OW37732   0.169   2.645   3.194 -0.8284 -0.4230  0.1466
 8700SOL    HW137733   0.179   2.731   3.236 -0.4357 -1.6174  2.5215
 8700SOL    HW237734   0.174   2.602   3.280  2.0839 -0.7421 -0.1995
 8701SOL     OW37735   3.249   2.657   2.050  0.3002 -0.0681  0.2366
 8701SOL    HW137736   3.242   2.602   1.971 -0.0456  0.8685 -0.3818
 8701SOL    HW237737   3.180   2.718   2.026  0.8395 -0.0457 -1.2666
 8702SOL     OW37738   3.995   1.468   2.617  0.0475  0.1769  0.0996
 8702SOL    HW137739   3.988   1.493   2.525 -1.6550 -0.1799  0.1305
 8702SOL    HW237740   3.954   1.382   2.607  1.9416 -0.7161 -0.0624
 8703SOL     OW37741   4.587   0.120   8.793  0.5691  0.3193  0.5682
 8703SOL    HW137742   4.509   0.073   8.822  1.3688 -0.7717  0.9532
 8703SOL    HW237743   4.617   0.155   8.877  0.2512  1.5837  0.1535
 8704SOL     OW37744   4.274   3.690   5.918  0.2794  0.1673 -0.0545
 8704SOL    HW137745   4.241   3.604   5.944 -0.5316  0.9253  1.4518
 8704SOL    HW237746   4.315   3.719   6.000 -1.6117  0.9225  0.6393
 8705SOL     OW37747   0.828   3.537   6.983  0.1395 -0.3404 -0.2319
 8705SOL    HW137748   0.768   3.593   6.934 -1.7869 -2.2779 -0.0529
 8705SOL    HW237749   0.906   3.591   6.966 -0.6163  1.5253  2.3127
 8706SOL     OW37750   4.485   2.538   4.778  0.3643  0.9809  0.1420
 8706SOL    HW137751   4.445   2.453   4.760  0.4664  0.6335  1.5579
 8706SOL    HW237752   4.500   2.528   4.872  0.7037  0.5207  0.0369
 8707SOL     OW37753   4.514   3.177   6.613 -0.5326  0.2551  0.0577
 8707SOL    HW137754   4.489   3.256   6.566 -2.6772 -0.6342 -0.3289
 8707SOL    HW237755   4.552   3.120   6.546  2.8573  4.0680 -1.2174
 8708SOL     OW37756   4.175   1.349   4.697 -0.2471  0.5633 -0.1896
 8708SOL    HW137757   4.153   1.348   4.604  0.0554  0.9884 -0.2652
 8708SOL    HW237758   4.194   1.439   4.724  0.9539  0.1777  0.2421
 8709SOL     OW37759   2.677   0.229  14.043  0.4585 -0.1389 -0.4128
 8709SOL    HW137760   2.765   0.266  14.048  1.0256 -1.8463  2.0109
 8709SOL    HW237761   2.632   0.300  13.996  1.0658  0.3873 -0.1942
 8710SOL     OW37762   2.242   4.297   7.180 -0.2520  0.4409 -0.1866
 8710SOL    HW137763   2.159   4.250   7.178 -1.1592  1.9546  0.9718
 8710SOL    HW237764   2.292   4.252   7.112 -1.1200  1.1772 -1.3055
 8711SOL     OW37765   0.912   4.204  15.322  0.2412  0.2331  0.1920
 8711SOL    HW137766   0.968   4.157  15.384 -0.5934 -0.3155  0.5472
 8711SOL    HW237767   0.972   4.205  15.248  0.6614  1.2292  0.5567
 8712SOL     OW37768   2.536   3.782   6.858 -0.3473  0.6188 -0.0137
 8712SOL    HW137769   2.608   3.738   6.902 -0.9863  0.7826  1.2075
 8712SOL    HW237770   2.477   3.708   6.844  1.8369 -1.2241  0.6956
 8713SOL     OW37771   2.389   1.090  12.210  0.0609 -0.3037 -0.6559
 8713SOL    HW137772   2.382   1.042  12.127 -0.8689 -1.5207  0.1325
 8713SOL    HW237773   2.484   1.103  12.216 -0.2179  1.3083  0.1489
 8714SOL     OW37774   0.248   4.107   9.217  0.2450 -0.4509 -0.5628
 8714SOL    HW137775   0.314   4.038   9.216  0.1320 -0.5897  3.1939
 8714SOL    HW237776   0.254   4.139   9.127  0.8852 -1.7340 -0.9728
 8715SOL     OW37777   2.572   0.804   6.508  0.3816 -0.1170 -0.1437
 8715SOL    HW137778   2.505   0.834   6.446 -2.1632 -1.0257  2.1476
 8715SOL    HW237779   2.608   0.731   6.457  0.3814  0.9889 -1.7439
 8716SOL     OW37780   3.675   0.040   2.180 -0.1218 -0.0334  0.5032
 8716SOL    HW137781   3.617   0.083   2.118  1.4796 -0.5251 -1.3358
 8716SOL    HW237782   3.613   4.717   2.214  0.0578  0.4820  1.7826
 8717SOL     OW37783   3.166   0.440   5.596  0.3431  0.7138  0.1447
 8717SOL    HW137784   3.088   0.494   5.586  1.3147  2.3927  1.6073
 8717SOL    HW237785   3.232   0.485   5.544  1.5441 -1.0603  0.1296
 8718SOL     OW37786   4.646   3.855   6.888  0.6857 -0.1750  0.5413
 8718SOL    HW137787   4.553   3.872   6.900  0.4204 -1.8964  0.9905
 8718SOL    HW237788   4.682   3.880   6.973 -2.1153 -1.9232  2.2367
 8719SOL     OW37789   1.794   3.641   4.484 -0.5510 -0.1220 -0.2741
 8719SOL    HW137790   1.701   3.645   4.464 -0.4768 -1.1485 -0.8574
 8719SOL    HW237791   1.813   3.734   4.494  1.5017 -0.5755  0.1425
 8720SOL     OW37792   1.972   3.336   4.160  0.5332 -0.2714 -0.7486
 8720SOL    HW137793   2.000   3.247   4.138 -2.3565 -1.3692 -0.0212
 8720SOL    HW237794   1.942   3.317   4.249  0.1098 -3.5085 -1.5509
 8721SOL     OW37795   0.193   1.477   5.560  0.2985 -0.1864  0.2892
 8721SOL    HW137796   0.259   1.546   5.562 -1.5240  1.5373  2.3934
 8721SOL    HW237797   0.222   1.415   5.627  0.2582  0.4476  0.8908
 8722SOL     OW37798   0.381   4.233  13.074 -0.3560 -0.0805  0.3744
 8722SOL    HW137799   0.331   4.232  12.992  0.1775 -4.2740  0.0716
 8722SOL    HW237800   0.456   4.289  13.054 -0.0386 -0.2095  1.2324
 8723SOL     OW37801   0.420   1.160  16.233  0.3973  0.1792  0.0744
 8723SOL    HW137802   0.461   1.185  16.150  0.0984  1.3286  0.2629
 8723SOL    HW237803   0.330   1.187  16.217  0.9034  0.2389 -2.6335
 8724SOL     OW37804   0.494   4.268   5.245  0.3122  0.1697  0.0804
 8724SOL    HW137805   0.494   4.247   5.152  0.5044  0.2609  0.0605
 8724SOL    HW237806   0.500   4.364   5.242 -0.7003  0.2376  0.2113
 8725SOL     OW37807   2.074   4.464   6.405  0.4987 -0.0834  0.0152
 8725SOL    HW137808   2.123   4.402   6.458 -1.2018 -1.9668 -0.6191
 8725SOL    HW237809   2.086   4.546   6.452 -0.1440  0.4433 -0.7313
 8726SOL     OW37810   3.860   3.448   9.930 -0.0011  0.8903 -0.0721
 8726SOL    HW137811   3.833   3.365   9.970  1.6056  0.7766  0.7774
 8726SOL    HW237812   3.774   3.485   9.911 -0.0574  0.4410 -0.7007
 8727SOL     OW37813   3.158   2.717   7.186 -0.3390  0.3148 -0.3648
 8727SOL    HW137814   3.225   2.664   7.143 -0.5876  0.6904 -1.2113
 8727SOL    HW237815   3.140   2.778   7.115 -0.2247 -0.0676 -0.7209
 8728SOL     OW37816   4.410   3.527   2.669  0.1048 -0.3772  0.2089
 8728SOL    HW137817   4.467   3.586   2.620  0.7325 -1.8451 -0.8371
 8728SOL    HW237818   4.461   3.448   2.684 -1.7890 -1.5258  0.6777
 8729SOL     OW37819   2.463   3.788   7.179 -0.5733  0.1645  0.5949
 8729SOL    HW137820   2.523   3.714   7.181  1.4708  1.8133 -0.3120
 8729SOL    HW237821   2.522   3.857   7.208  0.0802  0.1559 -0.7016
 8730SOL     OW37822   2.890   1.253   8.120 -0.3234  0.0922 -0.4998
 8730SOL    HW137823   2.962   1.204   8.160  1.4135  4.0022  1.0764
 8730SOL    HW237824   2.828   1.190   8.081  0.6411 -1.0825 -0.1430
 8731SOL     OW37825   4.433   1.723   7.332 -0.0621 -0.4798  0.3699
 8731SOL    HW137826   4.441   1.683   7.245 -1.0534 -3.8125  1.8015
 8731SOL    HW237827   4.497   1.677   7.386 -0.6032 -0.6573  0.8466
 8732SOL     OW37828   2.933   0.367   5.948 -0.1555  0.1443  0.0017
 8732SOL    HW137829   2.887   0.451   5.949 -1.3694 -0.5381  0.9464
 8732SOL    HW237830   2.877   0.311   6.001  0.8568 -0.5968  0.2792
 8733SOL     OW37831   1.214   4.537   2.286 -0.1607 -0.2074  0.0009
 8733SOL    HW137832   1.239   4.485   2.362  0.8567  0.5628  0.1883
 8733SOL    HW237833   1.201   4.623   2.327 -1.3761  0.0529 -0.9218
 8734SOL     OW37834   3.916   4.079   3.449 -0.2854 -0.6366 -0.2499
 8734SOL    HW137835   3.829   4.109   3.476 -0.5783 -0.9009 -0.8988
 8734SOL    HW237836   3.973   4.102   3.522 -0.0733 -2.1316  0.0518
 8735SOL     OW37837   4.542   2.934   8.335 -0.0145  0.0881 -0.1803
 8735SOL    HW137838   4.486   2.995   8.287 -2.0930 -0.8745  1.0290
 8735SOL    HW237839   4.473   2.877   8.368  0.5878 -0.0329  0.8830
 8736SOL     OW37840   0.118   2.960   4.234 -0.1103  0.4078 -0.4548
 8736SOL    HW137841   0.183   2.986   4.299  1.5993  1.0778 -2.3998
 8736SOL    HW237842   0.042   2.958   4.291 -0.8010 -1.1966 -1.4233
 8737SOL     OW37843   4.230   1.132  10.691  0.3736  0.0344 -0.4833
 8737SOL    HW137844   4.323   1.117  10.674 -0.1651 -1.9148 -1.6329
 8737SOL    HW237845   4.202   1.096  10.607 -1.3789  0.2802  0.0054
 8738SOL     OW37846   2.654   2.421   2.900  0.4056 -0.2318 -0.0654
 8738SOL    HW137847   2.704   2.356   2.951  2.2100 -0.4413 -2.0828
 8738SOL    HW237848   2.641   2.479   2.975 -4.2275  0.3736 -1.3269
 8739SOL     OW37849   0.040   3.679   3.592  0.2349  0.0675  0.3109
 8739SOL    HW137850   4.723   3.648   3.661 -1.2258 -1.2507 -1.5203
 8739SOL    HW237851   0.004   3.767   3.582 -0.8077 -0.1644  1.9061
 8740SOL     OW37852   2.146   1.584  10.430  0.5850  0.4389  0.2621
 8740SOL    HW137853   2.166   1.564  10.521 -1.6351  2.7974  1.2890
 8740SOL    HW237854   2.060   1.626  10.439  1.5717  1.8558  3.0845
 8741SOL     OW37855   0.760   2.046  10.809 -0.4054  0.0451 -0.5170
 8741SOL    HW137856   0.678   2.031  10.855 -0.5947 -1.3767 -1.3060
 8741SOL    HW237857   0.775   1.965  10.760  1.1002  0.9624 -1.5953
 8742SOL     OW37858   4.102   3.456  17.292  0.5252  0.3864  0.5851
 8742SOL    HW137859   4.027   3.449  17.232  0.7652  0.7421  0.2515
 8742SOL    HW237860   4.061   3.444  17.378  0.5999  1.0781  0.7156
 8743SOL     OW37861   3.473   2.337  10.059 -0.3840 -0.4353 -0.2185
 8743SOL    HW137862   3.536   2.301   9.996 -0.6683 -0.9451 -0.2102
 8743SOL    HW237863   3.460   2.428  10.030 -0.7334 -0.4069  0.0237
 8744SOL     OW37864   4.065   3.914  12.901 -0.0444  0.3916  0.3209
 8744SOL    HW137865   3.988   3.923  12.845 -0.2460  1.3130  0.7665
 8744SOL    HW237866   4.102   4.002  12.895  0.8229  0.0774  0.9074
 8745SOL     OW37867   2.213   3.063   6.661 -0.0471  0.3278  0.0462
 8745SOL    HW137868   2.221   3.039   6.753 -1.1502  0.3537  0.1473
 8745SOL    HW237869   2.138   3.011   6.634  1.6253 -3.2507  2.1886
 8746SOL     OW37870   4.407   2.827  12.199  0.1439 -0.2680 -0.6812
 8746SOL    HW137871   4.321   2.792  12.176 -0.3433  0.2004  0.4472
 8746SOL    HW237872   4.385   2.871  12.281  2.1258 -0.0792 -0.2431
 8747SOL     OW37873   3.381   2.319   7.590  0.2274  0.6877  0.4955
 8747SOL    HW137874   3.441   2.270   7.533 -1.7578  0.0693 -1.0469
 8747SOL    HW237875   3.308   2.346   7.535  0.9456  1.4986 -0.0522
 8748SOL     OW37876   4.065   0.170   5.890  0.5706  0.4792 -0.0969
 8748SOL    HW137877   4.133   0.234   5.871  1.2924 -0.3794 -0.4127
 8748SOL    HW237878   3.994   0.227   5.919  0.5967 -0.3636  1.6017
 8749SOL     OW37879   2.205   4.335   5.058 -0.2308  0.5891  0.6691
 8749SOL    HW137880   2.255   4.268   5.105  1.4326  1.6385  0.3916
 8749SOL    HW237881   2.212   4.410   5.117  0.3408  0.5051  0.7129
 8750SOL     OW37882   0.202   3.704  11.939  0.4951  0.0405 -0.0756
 8750SOL    HW137883   0.297   3.698  11.938  0.5222  0.4961 -0.0397
 8750SOL    HW237884   0.184   3.762  11.865 -1.6474  1.2702  1.3998
 8751SOL     OW37885   1.345   2.978   2.333 -0.0248 -0.1984 -0.0386
 8751SOL    HW137886   1.418   2.932   2.292 -0.7694 -0.3550 -1.1922
 8751SOL    HW237887   1.303   2.905   2.378  0.5563  0.1018  0.9786
 8752SOL     OW37888   0.550   0.351  17.563 -0.0133 -0.8092  0.0524
 8752SOL    HW137889   0.640   0.328  17.586  0.2365  1.0953  0.9794
 8752SOL    HW237890   0.520   0.394  17.644 -0.2709 -0.9203  0.0182
 8753SOL     OW37891   4.427   3.325   3.945 -0.3921  0.1601  0.2851
 8753SOL    HW137892   4.426   3.272   3.865  1.4124  1.1065 -0.3555
 8753SOL    HW237893   4.515   3.360   3.937 -1.4156  2.9802  1.2168
 8754SOL     OW37894   2.666   2.785  15.221 -0.9538 -0.2871  0.3174
 8754SOL    HW137895   2.625   2.843  15.285 -1.2898 -0.0944 -0.0724
 8754SOL    HW237896   2.598   2.793  15.154 -1.9234 -1.5922  1.1454
 8755SOL     OW37897   3.659   0.579  15.140 -0.9460  0.4745 -0.3561
 8755SOL    HW137898   3.730   0.627  15.098  0.1490 -0.6232  0.2251
 8755SOL    HW237899   3.706   0.525  15.204 -0.4386  0.3091 -0.8717
 8756SOL     OW37900   3.260   3.744   3.864  0.5559 -0.5558 -0.3163
 8756SOL    HW137901   3.341   3.754   3.814  0.8508 -1.3966 -0.0059
 8756SOL    HW237902   3.216   3.817   3.819  1.7191  0.3505  0.0287
 8757SOL     OW37903   0.167   3.604   3.332  0.0236  0.4753 -0.4999
 8757SOL    HW137904   0.121   3.664   3.392  0.4947 -1.1340  1.4942
 8757SOL    HW237905   0.230   3.564   3.393  1.5203  0.3498 -2.1493
 8758SOL     OW37906   2.844   1.730  10.231  0.4211 -0.4761  0.3034
 8758SOL    HW137907   2.768   1.677  10.253  0.4639 -1.3555 -1.6423
 8758SOL    HW237908   2.874   1.703  10.144  0.5698 -1.1571  0.5674
 8759SOL     OW37909   3.261   3.372   5.097 -0.3212  0.5346  0.5990
 8759SOL    HW137910   3.320   3.437   5.135 -0.9772  0.2886  2.0039
 8759SOL    HW237911   3.323   3.341   5.030 -1.7048 -0.3513 -0.2631
 8760SOL     OW37912   4.211   0.428   6.264  0.1240  1.1059 -0.3739
 8760SOL    HW137913   4.192   0.514   6.302 -1.1563  0.5315  0.2941
 8760SOL    HW237914   4.305   0.439   6.255 -0.1207  2.1205 -1.7460
 8761SOL     OW37915   1.876   3.767   1.448  0.1041 -0.6308 -0.0270
 8761SOL    HW137916   1.937   3.697   1.422 -1.2573 -1.2213 -1.6033
 8761SOL    HW237917   1.818   3.723   1.510  2.1499 -2.1462  0.8305
 8762SOL     OW37918   3.200   2.302   6.734  0.6659 -0.3829 -0.2981
 8762SOL    HW137919   3.160   2.317   6.820  0.4790  0.3356 -0.5100
 8762SOL    HW237920   3.290   2.318   6.763  0.8834 -1.8037 -0.1932
 8763SOL     OW37921   3.538   2.354   8.150  0.0623 -0.1450 -0.6451
 8763SOL    HW137922   3.603   2.284   8.157 -0.4273 -0.2726  2.5726
 8763SOL    HW237923   3.497   2.323   8.069 -0.5732  0.4897 -0.5602
 8764SOL     OW37924   4.403   1.169   4.597  0.1651  0.4461 -0.1017
 8764SOL    HW137925   4.376   1.162   4.505 -0.1606 -1.2138  0.1171
 8764SOL    HW237926   4.345   1.237   4.632  0.4122  0.6266 -0.0401
 8765SOL     OW37927   0.577   0.165   9.447 -0.0184  0.2704 -0.9902
 8765SOL    HW137928   0.485   0.168   9.422 -0.1357  1.7753 -0.3964
 8765SOL    HW237929   0.618   0.086   9.411 -0.3527 -0.3878  0.0793
 8766SOL     OW37930   1.596   0.348  16.549  0.6806 -0.4403  0.3853
 8766SOL    HW137931   1.538   0.370  16.621  1.0477  3.5369 -0.4902
 8766SOL    HW237932   1.649   0.427  16.566 -0.9949  0.1774  2.6581
 8767SOL     OW37933   0.004   3.536   8.608 -0.1327  0.3039 -0.4911
 8767SOL    HW137934   0.019   3.444   8.630  1.0598  0.5097 -0.4602
 8767SOL    HW237935   4.670   3.566   8.659 -0.2824 -0.6858 -0.1301
 8768SOL     OW37936   3.940   4.711   2.222  0.0737  0.6072 -0.1091
 8768SOL    HW137937   3.894   4.642   2.172 -0.4538  0.9422 -0.0849
 8768SOL    HW237938   3.864   0.026   2.235  0.0234 -0.5286  4.2701
 8769SOL     OW37939   2.000   0.209  16.145 -0.3803 -0.2872 -0.0100
 8769SOL    HW137940   2.066   0.270  16.114 -2.6099  2.1576  0.0936
 8769SOL    HW237941   1.927   0.270  16.143 -1.2237 -1.3685 -2.1036
 8770SOL     OW37942   0.363   4.102   3.364 -0.1360 -0.0928 -0.3417
 8770SOL    HW137943   0.411   4.107   3.281  1.3501  2.1186  0.6555
 8770SOL    HW237944   0.403   4.176   3.409  2.4688 -2.0004  0.4578
 8771SOL     OW37945   2.920   3.089   6.266 -0.1980  0.4953  0.2393
 8771SOL    HW137946   2.919   3.026   6.338  1.2750  1.6402  1.2295
 8771SOL    HW237947   2.962   3.027   6.206 -1.6094 -1.0868  0.8683
 8772SOL     OW37948   4.532   1.690   0.514  0.0128  0.3983 -0.4362
 8772SOL    HW137949   4.614   1.737   0.527  1.3284 -1.4714 -1.9593
 8772SOL    HW237950   4.577   1.627   0.458 -1.8300  0.9579 -2.5209
 8773SOL     OW37951   1.986   4.362  10.982  0.0609 -0.7216 -0.0255
 8773SOL    HW137952   2.025   4.289  11.031 -0.8898 -0.2476  1.4193
 8773SOL    HW237953   1.894   4.352  11.006  1.1631 -1.3240  3.8924
 8774SOL     OW37954   0.561   4.193   1.189  0.5674 -0.4742  0.6026
 8774SOL    HW137955   0.470   4.187   1.160  0.1418  0.1013  1.8602
 8774SOL    HW237956   0.596   4.255   1.124 -0.0509 -0.8407 -0.0825
 8775SOL     OW37957   2.307   0.340  15.803 -0.0019 -0.6526 -0.1393
 8775SOL    HW137958   2.312   0.323  15.897  0.7557 -0.7637 -0.2036
 8775SOL    HW237959   2.215   0.321  15.781 -0.1180  2.1357 -2.0425
 8776SOL     OW37960   4.622   1.189   9.129 -0.0494 -0.0949  0.0612
 8776SOL    HW137961   4.580   1.124   9.186 -0.8754 -0.6997 -1.2620
 8776SOL    HW237962   4.710   1.186   9.167  0.8628 -1.0476 -2.1505
 8777SOL     OW37963   3.017   1.386   5.399  0.0595 -0.6600 -0.7327
 8777SOL    HW137964   3.016   1.312   5.459 -0.2608 -0.4693 -0.4963
 8777SOL    HW237965   3.065   1.452   5.449 -1.1686  0.6284 -1.2507
 8778SOL     OW37966   0.376   0.418  15.109 -0.2302 -0.3021  0.6022
 8778SOL    HW137967   0.325   0.498  15.120 -0.1456 -0.0777 -0.6338
 8778SOL    HW237968   0.434   0.411  15.185 -0.3810  0.1360  0.7564
 8779SOL     OW37969   3.588   0.223   6.839 -0.5232 -0.1103 -0.2392
 8779SOL    HW137970   3.673   0.226   6.794  1.0931 -1.7274  2.7383
 8779SOL    HW237971   3.619   0.155   6.899 -0.0737  0.8671  0.6301
 8780SOL     OW37972   0.116   3.240   6.432 -0.9194 -0.1217  0.0695
 8780SOL    HW137973   0.211   3.243   6.441 -1.0754 -0.1318  1.6504
 8780SOL    HW237974   0.089   3.329   6.410 -2.4956 -0.4208  0.7964
 8781SOL     OW37975   0.951   4.328   7.412  0.5598 -0.0738 -0.0538
 8781SOL    HW137976   0.901   4.361   7.488  1.2672 -0.2770  0.4974
 8781SOL    HW237977   0.913   4.374   7.337 -2.1111 -2.7548 -0.3785
 8782SOL     OW37978   0.996   2.864   1.490  0.3687  0.0255 -0.6683
 8782SOL    HW137979   1.061   2.815   1.440  0.2775 -1.0296  0.2610
 8782SOL    HW237980   1.044   2.941   1.522  1.8142 -0.7882 -0.8710
 8783SOL     OW37981   3.230   2.643  12.507 -0.2489  0.5466  0.1189
 8783SOL    HW137982   3.222   2.726  12.555  1.7302  0.7062  0.1902
 8783SOL    HW237983   3.297   2.671  12.444  0.4000  0.7228  0.8960
 8784SOL     OW37984   1.231   0.211   5.631  0.1404  0.3307 -0.3763
 8784SOL    HW137985   1.266   0.200   5.719 -2.2469  0.0988  0.5403
 8784SOL    HW237986   1.308   0.233   5.578  0.3976 -0.4066 -0.3089
 8785SOL     OW37987   3.344   2.373  16.193  0.2058 -0.2951 -0.4677
 8785SOL    HW137988   3.294   2.403  16.270 -0.2820  1.3551 -1.4184
 8785SOL    HW237989   3.435   2.388  16.216  0.2098 -0.3474 -0.4494
 8786SOL     OW37990   0.928   3.399  17.175  0.4663  0.0604  0.0552
 8786SOL    HW137991   0.917   3.485  17.135  1.7215  0.0994 -0.2176
 8786SOL    HW237992   0.837   3.381  17.200  0.2090  1.9217  0.4289
 8787SOL     OW37993   3.814   1.297   5.232  0.4509 -0.8201 -0.1466
 8787SOL    HW137994   3.745   1.351   5.193  0.4664 -0.3132  0.5299
 8787SOL    HW237995   3.887   1.359   5.230 -2.2516  2.3489 -0.1056
 8788SOL     OW37996   2.166   3.395   1.671  0.2332 -0.1409 -0.8833
 8788SOL    HW137997   2.235   3.426   1.612  0.1601 -0.5972 -1.2142
 8788SOL    HW237998   2.211   3.404   1.755 -0.2945 -0.5381 -0.5558
 8789SOL     OW37999   3.687   0.633   8.747 -0.1266 -0.4802  0.2413
 8789SOL    HW138000   3.771   0.663   8.779 -0.0542  0.6599 -1.0100
 8789SOL    HW238001   3.661   0.567   8.811  0.4906  0.8476  1.8371
 8790SOL     OW38002   2.445   2.956   3.021 -0.6190  0.6121  0.0957
 8790SOL    HW138003   2.456   2.975   2.928  1.3218 -1.4001 -0.0873
 8790SOL    HW238004   2.508   2.889   3.047 -0.4883  0.3301 -0.9208
 8791SOL     OW38005   3.718   2.173   8.588  0.5285  0.4990  0.8117
 8791SOL    HW138006   3.719   2.147   8.496 -0.2909  1.2906  0.5881
 8791SOL    HW238007   3.723   2.087   8.630 -0.2986 -1.0207 -2.1498
 8792SOL     OW38008   3.567   4.160   6.846  0.9212  0.2880 -0.2772
 8792SOL    HW138009   3.606   4.245   6.866  1.3363  0.0216  0.0565
 8792SOL    HW238010   3.536   4.133   6.932  0.4013 -0.1352 -0.5945
 8793SOL     OW38011   3.742   3.240   7.520  0.3161 -0.5916 -0.0389
 8793SOL    HW138012   3.809   3.172   7.531 -0.4770 -1.3879 -0.1568
 8793SOL    HW238013   3.761   3.289   7.600  1.2980  0.1877 -0.7603
 8794SOL     OW38014   4.371   4.632   8.002 -0.4466 -0.3181  0.6858
 8794SOL    HW138015   4.369   4.651   8.096 -0.7145 -0.2381  0.6627
 8794SOL    HW238016   4.443   4.569   7.998 -0.8215 -0.7224  0.4136
 8795SOL     OW38017   3.462   3.389   9.729  0.6291 -0.7876  0.0083
 8795SOL    HW138018   3.544   3.435   9.714 -1.0296  2.1964  0.1562
 8795SOL    HW238019   3.460   3.402   9.824  2.1254 -0.8906  0.0539
 8796SOL     OW38020   3.020   2.368   3.211  0.3659 -0.1045  0.1434
 8796SOL    HW138021   3.064   2.452   3.201  1.1845 -0.4888  0.5270
 8796SOL    HW238022   3.098   2.315   3.194 -1.3049 -1.9146 -1.8916
 8797SOL     OW38023   1.959   4.295   3.561  0.4266 -0.0460  0.6858
 8797SOL    HW138024   1.903   4.353   3.612  0.1212  1.5925 -1.5085
 8797SOL    HW238025   1.894   4.268   3.496  1.2262  1.2552 -0.6512
 8798SOL     OW38026   0.988   4.501  10.581  0.4912  0.1691 -0.2760
 8798SOL    HW138027   0.962   4.589  10.554  0.7685  0.2844 -0.1668
 8798SOL    HW238028   0.901   4.461  10.585  0.5732  0.0223  0.0742
 8799SOL     OW38029   0.797   3.877   7.038  0.0578 -0.6624  0.4537
 8799SOL    HW138030   0.739   3.812   7.077  0.7542 -1.0938  0.7608
 8799SOL    HW238031   0.786   3.939   7.111  0.5404 -2.6780  2.2212
 8800SOL     OW38032   1.739   1.245   8.093  0.1571  0.0957 -0.1153
 8800SOL    HW138033   1.751   1.265   8.186  0.1541  0.9551 -0.2996
 8800SOL    HW238034   1.646   1.226   8.091  0.2645 -0.3358 -0.9584
 8801SOL     OW38035   3.585   3.035   6.067  0.0054  0.5192  0.6147
 8801SOL    HW138036   3.595   3.129   6.053  2.6428 -0.0069 -0.9648
 8801SOL    HW238037   3.667   3.014   6.111 -0.0362 -1.7511 -0.3879
 8802SOL     OW38038   3.654   0.537   2.961 -0.2952  0.6818 -0.0848
 8802SOL    HW138039   3.617   0.454   2.989 -0.7075  0.7925 -0.3026
 8802SOL    HW238040   3.738   0.538   3.007  0.6749  0.8891 -1.8534
 8803SOL     OW38041   0.637   1.730   4.684  0.8109  0.4880 -0.2390
 8803SOL    HW138042   0.547   1.705   4.707  1.1979 -0.2803  0.4129
 8803SOL    HW238043   0.679   1.766   4.762  0.5467  0.8905 -0.2796
 8804SOL     OW38044   0.150   2.790   3.603 -0.2522 -0.1354 -0.2786
 8804SOL    HW138045   0.183   2.786   3.693  2.1972  0.5171 -1.1423
 8804SOL    HW238046   0.200   2.867   3.576 -1.6275 -0.1771 -2.8534
 8805SOL     OW38047   4.708   4.163   3.233  0.5898 -0.6608 -0.3775
 8805SOL    HW138048   4.628   4.207   3.264  0.8998 -0.5250  0.2345
 8805SOL    HW238049   4.670   4.117   3.158 -0.1729 -0.6794  0.0154
 8806SOL     OW38050   1.056   3.578   2.051 -0.2822 -0.2607 -0.2533
 8806SOL    HW138051   1.121   3.580   1.981 -1.6251 -3.1642 -1.5490
 8806SOL    HW238052   1.039   3.672   2.059 -1.0736 -0.3824 -0.5534
 8807SOL     OW38053   2.429   2.643  10.217  0.1938 -0.0409 -0.3579
 8807SOL    HW138054   2.364   2.580  10.248 -0.4409  0.1783 -1.2504
 8807SOL    HW238055   2.443   2.621  10.125  3.3679 -0.2257  0.1817
 8808SOL     OW38056   4.255   1.558   5.842  0.4557 -0.6063  0.6915
 8808SOL    HW138057   4.339   1.527   5.877 -0.7757 -2.4993  1.9838
 8808SOL    HW238058   4.268   1.536   5.750  1.4579  0.2397  0.6350
 8809SOL     OW38059   0.368   3.528   4.546  0.1383 -0.3837  0.3439
 8809SOL    HW138060   0.334   3.485   4.467  0.4086  0.3360 -0.1573
 8809SOL    HW238061   0.411   3.455   4.591  1.5007 -0.3001 -0.8264
 8810SOL     OW38062   4.182   3.262   4.449  0.5507  0.2261  0.2192
 8810SOL    HW138063   4.161   3.319   4.523  1.8439  0.5850  0.3069
 8810SOL    HW238064   4.190   3.325   4.378  1.7987 -1.1904 -0.8966
 8811SOL     OW38065   2.490   2.988   8.004  0.2408 -0.9525  0.2966
 8811SOL    HW138066   2.469   2.920   8.068 -0.3063 -0.2933  0.8199
 8811SOL    HW238067   2.544   2.939   7.942  1.5005  0.1719  0.5158
 8812SOL     OW38068   2.614   1.258  17.429 -0.1257  0.4512  0.6567
 8812SOL    HW138069   2.564   1.339  17.416 -1.8971 -1.0441 -1.6208
 8812SOL    HW238070   2.549   1.191  17.449  0.8410 -1.2414 -1.8608
 8813SOL     OW38071   1.038   1.373   5.130 -0.0582  0.2583 -0.3004
 8813SOL    HW138072   1.051   1.279   5.116 -0.3648  0.2130 -0.2836
 8813SOL    HW238073   1.012   1.375   5.222  1.2562 -0.5620  0.0834
 8814SOL     OW38074   0.368   3.306  15.984 -0.0806  0.2162 -0.3540
 8814SOL    HW138075   0.281   3.323  16.019  0.0904 -1.3142  0.8081
 8814SOL    HW238076   0.361   3.215  15.958 -1.2659  0.2196 -0.0261
 8815SOL     OW38077   2.120   3.152   9.824  0.3121 -0.0383 -0.1884
 8815SOL    HW138078   2.043   3.126   9.773 -1.2673 -1.4070  2.8722
 8815SOL    HW238079   2.095   3.127   9.913 -0.6303 -0.1420 -0.4823
 8816SOL     OW38080   2.819   3.337  15.517  0.4866  0.1653 -0.0645
 8816SOL    HW138081   2.910   3.347  15.490  0.7581 -0.2782  0.6914
 8816SOL    HW238082   2.815   3.247  15.486 -0.8744  0.2129 -0.0324
 8817SOL     OW38083   2.499   2.291   7.087 -0.2486 -0.3417  0.6814
 8817SOL    HW138084   2.549   2.368   7.114  1.3498 -0.0979 -3.0698
 8817SOL    HW238085   2.448   2.280   7.168 -1.1458  0.7828  0.2739
 8818SOL     OW38086   1.781   2.853   2.928  0.2034 -0.9828 -0.0376
 8818SOL    HW138087   1.691   2.866   2.896  0.3944  2.4168  0.7523
 8818SOL    HW238088   1.831   2.906   2.866 -0.2359  0.0047  0.4404
 8819SOL     OW38089   3.772   3.318  17.381 -0.4517  0.5475 -0.2975
 8819SOL    HW138090   3.681   3.343  17.363 -0.4182 -0.1977 -1.4697
 8819SOL    HW238091   3.793   3.374  17.456  0.1422 -0.1427  0.0512
 8820SOL     OW38092   0.771   2.226   7.073  0.0703  0.2856  0.9357
 8820SOL    HW138093   0.728   2.282   7.009 -0.1232 -0.1915  0.6471
 8820SOL    HW238094   0.741   2.253   7.159  1.3602  3.1520  0.4652
 8821SOL     OW38095   1.524   3.537  15.615 -0.3706 -0.6853  0.1523
 8821SOL    HW138096   1.483   3.597  15.553 -0.0800 -0.9291 -0.2825
 8821SOL    HW238097   1.483   3.454  15.588  0.2422 -0.2557 -2.1026
 8822SOL     OW38098   1.817   1.519   7.816 -0.4540  0.8377  0.5291
 8822SOL    HW138099   1.862   1.548   7.736 -1.0913  0.8163  0.1648
 8822SOL    HW238100   1.883   1.505   7.884  1.2765  1.0508 -1.1267
 8823SOL     OW38101   3.096   0.949   5.240 -0.5057  0.1670  0.1292
 8823SOL    HW138102   3.175   0.943   5.187  1.1014 -0.6364  2.5804
 8823SOL    HW238103   3.050   1.013   5.186 -2.3879 -1.2916  0.0143
 8824SOL     OW38104   3.336   2.483   7.194  0.0821  0.1073  0.0883
 8824SOL    HW138105   3.370   2.525   7.115 -0.6176  0.8886  0.2094
 8824SOL    HW238106   3.394   2.527   7.256 -0.2620 -0.1013  0.5583
 8825SOL     OW38107   3.558   3.581  11.330  0.3037 -0.3044 -0.5376
 8825SOL    HW138108   3.468   3.606  11.351 -0.0371 -2.0328  0.0539
 8825SOL    HW238109   3.587   3.549  11.415  1.3171  1.4420 -0.2263
 8826SOL     OW38110   3.399   2.608   9.981  0.4565  0.6750  0.1262
 8826SOL    HW138111   3.441   2.694   9.990  5.1735 -1.7109  0.7540
 8826SOL    HW238112   3.307   2.634   9.984 -0.3036 -2.1148  0.3137
 8827SOL     OW38113   2.067   0.014   4.418  0.5176 -0.4731 -0.1779
 8827SOL    HW138114   2.033   4.705   4.343  1.3533 -1.4234  0.0825
 8827SOL    HW238115   2.024   4.715   4.493  0.3981 -1.2931 -0.6812
 8828SOL     OW38116   3.097   2.233  16.256 -0.3995  0.0788  0.3151
 8828SOL    HW138117   3.181   2.251  16.215 -0.8711 -0.7598 -1.0194
 8828SOL    HW238118   3.118   2.145  16.289 -1.1427  0.2167  1.1555
 8829SOL     OW38119   2.242   1.364   4.055 -0.1210  0.1637 -0.7248
 8829SOL    HW138120   2.224   1.270   4.052 -0.3975  0.2338 -1.3495
 8829SOL    HW238121   2.154   1.401   4.047 -0.2842  0.0677  0.6519
 8830SOL     OW38122   0.849   0.220  15.551  0.5270  0.8720 -0.0847
 8830SOL    HW138123   0.940   0.207  15.576  1.1962  0.4861 -2.7161
 8830SOL    HW238124   0.866   0.253  15.463  0.2243 -2.6879 -1.4908
 8831SOL     OW38125   3.015   3.247  12.955 -0.2688  0.4094  0.2874
 8831SOL    HW138126   3.092   3.303  12.947 -0.0459  0.1704  0.8085
 8831SOL    HW238127   2.964   3.296  13.019  0.2523  2.4698 -0.8633
 8832SOL     OW38128   0.980   0.094   5.118  0.0073  0.0497  0.5685
 8832SOL    HW138129   1.018   0.022   5.068 -0.2819  1.2519 -1.3701
 8832SOL    HW238130   0.910   0.052   5.167 -0.2033 -0.9774 -0.6259
 8833SOL     OW38131   3.149   0.265   1.671  0.8616  0.2710 -0.7382
 8833SOL    HW138132   3.115   0.176   1.668 -0.0955  0.6013  0.1304
 8833SOL    HW238133   3.161   0.276   1.766 -1.3469 -2.0011 -0.1978
 8834SOL     OW38134   2.188   4.231  16.995  0.2073  0.1349 -0.1046
 8834SOL    HW138135   2.148   4.231  17.082 -0.6096 -2.5742 -0.4799
 8834SOL    HW238136   2.107   4.214  16.946 -0.4133  1.3943  0.4961
 8835SOL     OW38137   4.213   4.472  12.559  0.3512 -0.2728  0.3464
 8835SOL    HW138138   4.251   4.536  12.620 -0.7407 -1.2255  2.0560
 8835SOL    HW238139   4.146   4.529  12.521 -0.9639 -1.2504  1.1750
 8836SOL     OW38140   0.277   2.611   4.363 -0.3182 -0.2860  0.1421
 8836SOL    HW138141   0.357   2.565   4.340 -1.0109 -1.2507 -0.3376
 8836SOL    HW238142   0.304   2.652   4.445  0.2300  2.5341 -1.4170
 8837SOL     OW38143   0.701   4.191   1.514  0.1756  0.3223 -0.6083
 8837SOL    HW138144   0.648   4.211   1.591  1.2057 -0.7041  0.3791
 8837SOL    HW238145   0.633   4.135   1.475  1.7584 -1.7405 -0.3863
 8838SOL     OW38146   3.398   0.437   8.372  0.0804 -0.5207 -0.3951
 8838SOL    HW138147   3.337   0.429   8.445  0.1549  1.4957 -0.1151
 8838SOL    HW238148   3.349   0.497   8.316  0.1372 -0.3780 -0.2914
 8839SOL     OW38149   1.034   3.485   9.681 -0.6205  0.9270  0.1290
 8839SOL    HW138150   1.113   3.513   9.727 -0.9808  0.6436  0.9194
 8839SOL    HW238151   0.998   3.565   9.642 -2.2507  0.0634 -0.1193
 8840SOL     OW38152   3.061   4.066   3.990 -0.5418 -0.1804 -0.1867
 8840SOL    HW138153   3.145   4.057   4.034 -0.2976 -0.8248 -0.7835
 8840SOL    HW238154   3.014   3.988   4.018  0.0995  0.5003  2.7557
 8841SOL     OW38155   3.000   2.502  12.880  0.0285  0.1334  0.1695
 8841SOL    HW138156   3.011   2.592  12.909  1.8302 -0.7259  2.2673
 8841SOL    HW238157   2.905   2.492  12.873 -0.1213 -0.1509  2.5818
 8842SOL     OW38158   4.659   0.674   2.268  0.4064  0.4652 -0.0617
 8842SOL    HW138159   4.658   0.769   2.259 -0.5041  0.1484 -3.6090
 8842SOL    HW238160   4.565   0.657   2.271  0.5675 -0.4373 -0.1057
 8843SOL     OW38161   4.319   4.335  14.806 -0.0725 -0.1731  0.4267
 8843SOL    HW138162   4.240   4.385  14.824 -0.3250 -1.1857  2.1577
 8843SOL    HW238163   4.295   4.247  14.835  2.0659 -1.0655 -0.4532
 8844SOL     OW38164   4.366   1.755   6.209 -0.0490 -0.4197 -0.0709
 8844SOL    HW138165   4.275   1.785   6.202 -0.2196 -0.7832  0.5982
 8844SOL    HW238166   4.382   1.783   6.299  2.4848 -1.6906 -0.1227
 8845SOL     OW38167   3.969   0.142   2.907  0.5949  0.0898  0.3033
 8845SOL    HW138168   3.996   0.234   2.908 -1.4002  0.6715  1.5626
 8845SOL    HW238169   3.881   0.134   2.870 -0.4437  0.1010  2.7576
 8846SOL     OW38170   1.894   4.693   6.723  0.2135  0.5437  0.0327
 8846SOL    HW138171   1.938   4.703   6.807 -0.7062  1.4360  0.4121
 8846SOL    HW238172   1.973   4.697   6.669 -0.0541  0.9866 -0.3275
 8847SOL     OW38173   2.329   3.352   0.793 -0.4197  0.1456  0.1384
 8847SOL    HW138174   2.247   3.313   0.764 -0.4307 -2.2129  3.3207
 8847SOL    HW238175   2.394   3.316   0.732  0.1371  0.2203  0.6859
 8848SOL     OW38176   4.736   1.584   5.051 -0.3081 -0.7759  0.5531
 8848SOL    HW138177   0.031   1.623   5.131  2.4191 -0.6171 -0.7516
 8848SOL    HW238178   0.016   1.490   5.053  2.9009 -0.0812 -0.3519
 8849SOL     OW38179   1.280   4.534   0.336 -0.1912  0.2237 -0.1911
 8849SOL    HW138180   1.252   4.534   0.427 -1.6662  0.7775 -0.6482
 8849SOL    HW238181   1.374   4.519   0.346  0.1696  0.3064 -3.2437
 8850SOL     OW38182   4.623   0.528  12.416  0.7368  0.9125  0.2223
 8850SOL    HW138183   4.532   0.501  12.414  0.9268  0.1377  2.4087
 8850SOL    HW238184   4.668   0.447  12.394  1.6796  1.3196  0.6471
 8851SOL     OW38185   2.514   0.853  13.981 -0.5166 -0.6444  0.1402
 8851SOL    HW138186   2.554   0.886  14.062 -0.7410  0.8641 -0.3694
 8851SOL    HW238187   2.524   0.930  13.925 -0.8509  0.8069  2.0437
 8852SOL     OW38188   1.576   0.976   2.607  0.4372 -0.5698  0.0185
 8852SOL    HW138189   1.655   1.000   2.558 -1.1336 -0.7370 -2.5802
 8852SOL    HW238190   1.574   1.037   2.681 -0.8473 -1.7063  0.9146
 8853SOL     OW38191   0.010   2.444   5.705  0.1105 -0.0095 -0.0116
 8853SOL    HW138192   0.050   2.383   5.767 -2.2800 -2.9130 -1.3677
 8853SOL    HW238193   0.023   2.400   5.621 -0.3350 -0.1552 -0.0045
 8854SOL     OW38194   2.902   2.152   8.660 -0.7089 -0.3964  0.0834
 8854SOL    HW138195   2.826   2.150   8.717 -0.9734  1.0737 -0.2095
 8854SOL    HW238196   2.954   2.077   8.689  0.9072  0.7901  0.3100
 8855SOL     OW38197   2.625   0.201  16.260  0.3406 -0.0250  0.4942
 8855SOL    HW138198   2.533   0.223  16.277  0.5131  0.3552  0.9570
 8855SOL    HW238199   2.620   0.128  16.198 -1.0542  0.1494  0.4052
 8856SOL     OW38200   3.503   0.779   1.308 -0.2725 -0.4808  0.3409
 8856SOL    HW138201   3.526   0.802   1.398  0.2867  1.0696 -0.2000
 8856SOL    HW238202   3.497   0.684   1.318  1.3393 -0.9811 -3.5530
 8857SOL     OW38203   4.025   4.430  16.424  0.0811 -0.1062  0.3951
 8857SOL    HW138204   3.940   4.427  16.469 -0.5786  0.0061 -0.8511
 8857SOL    HW238205   3.998   4.433  16.332  2.1736 -0.2531 -0.2119
 8858SOL     OW38206   1.371   0.061  10.988  0.2435 -1.0240 -0.8842
 8858SOL    HW138207   1.458   0.071  11.026 -0.6211  0.0633  0.8304
 8858SOL    HW238208   1.385   4.720  10.941  2.1121 -0.7123 -0.8391
 8859SOL     OW38209   0.733   0.369   3.441  0.3228  0.4895  0.7965
 8859SOL    HW138210   0.751   0.432   3.511 -1.6886 -1.8818  3.4274
 8859SOL    HW238211   0.759   0.413   3.360  0.8742  0.5330  0.9972
 8860SOL     OW38212   1.406   3.199   5.804 -1.1076  0.9078 -0.0233
 8860SOL    HW138213   1.440   3.175   5.890 -0.4630  0.9112 -0.2735
 8860SOL    HW238214   1.470   3.264   5.775  0.6777 -1.0728 -0.6090
 8861SOL     OW38215   0.402   3.530  11.598 -0.5717 -0.1458 -0.2434
 8861SOL    HW138216   0.410   3.434  11.593 -1.4746 -0.2126 -0.3537
 8861SOL    HW238217   0.413   3.549  11.691  1.7686  1.6838 -0.8771
 8862SOL     OW38218   4.738   3.402   4.743  0.0042 -0.0223 -0.1485
 8862SOL    HW138219   4.668   3.388   4.680 -1.4586  2.2218  0.9990
 8862SOL    HW238220   4.685   3.406   4.823 -0.9740 -2.2437 -0.6823
 8863SOL     OW38221   2.159   2.096   5.794 -0.2427 -0.1991 -0.4159
 8863SOL    HW138222   2.064   2.098   5.780 -0.5051 -1.0762  1.1859
 8863SOL    HW238223   2.199   2.126   5.713  0.8976  1.6730  0.8398
 8864SOL     OW38224   2.463   2.876   7.118  0.1147  0.0454  0.2266
 8864SOL    HW138225   2.372   2.845   7.119 -0.6209  2.1507  0.0962
 8864SOL    HW238226   2.457   2.958   7.168 -2.4741 -1.3031  2.1041
 8865SOL     OW38227   1.201   3.954   2.346 -0.3482 -0.2431 -0.1342
 8865SOL    HW138228   1.204   3.986   2.256  1.6158 -0.7098 -0.2267
 8865SOL    HW238229   1.293   3.952   2.374 -0.2941  0.4172 -0.2536
 8866SOL     OW38230   1.428   3.977   8.331  0.6765 -0.7529 -0.8186
 8866SOL    HW138231   1.465   3.977   8.419 -1.7208 -2.1137  0.1658
 8866SOL    HW238232   1.357   4.041   8.341 -1.3799 -3.1547  0.0026
 8867SOL     OW38233   2.684   1.116  15.772 -0.2112  0.1698 -0.2046
 8867SOL    HW138234   2.700   1.035  15.821  2.0233 -1.0529 -2.9679
 8867SOL    HW238235   2.767   1.163  15.786 -0.4522  0.3811  0.5324
 8868SOL     OW38236   4.150   2.755   7.185  0.0908 -0.1943  0.4029
 8868SOL    HW138237   4.212   2.807   7.135  0.5858 -3.2675 -2.2390
 8868SOL    HW238238   4.070   2.763   7.133 -0.3770  0.6221  1.2619
 8869SOL     OW38239   1.474   0.246   3.734 -0.2025 -0.0389  0.3181
 8869SOL    HW138240   1.546   0.307   3.746  0.3143 -0.6845  0.4824
 8869SOL    HW238241   1.414   0.288   3.796 -1.7172  0.2118 -1.3174
 8870SOL     OW38242   0.450   2.411  17.082 -0.0251 -0.0494 -0.5851
 8870SOL    HW138243   0.514   2.347  17.051 -0.2937 -0.1816 -0.8762
 8870SOL    HW238244   0.488   2.455  17.158  0.3458  0.7773 -1.2510
 8871SOL     OW38245   0.189   4.126  10.154 -0.1374  0.4002 -0.0905
 8871SOL    HW138246   0.175   4.220  10.144 -2.2503  0.0091 -0.6214
 8871SOL    HW238247   0.249   4.113  10.080 -0.6041 -0.7253 -0.2742
 8872SOL     OW38248   4.040   3.329   5.181  0.0039 -0.5602  0.3254
 8872SOL    HW138249   3.983   3.328   5.258  0.8129 -2.0745  0.9042
 8872SOL    HW238250   4.120   3.327   5.233  1.0950 -0.6183 -1.3415
 8873SOL     OW38251   1.565   0.511   5.981 -0.0826  0.0455  0.4785
 8873SOL    HW138252   1.569   0.539   5.890 -1.6824  3.0781  1.3370
 8873SOL    HW238253   1.489   0.556   6.020 -0.3928  0.0519 -0.1377
 8874SOL     OW38254   4.353   4.052   9.075  0.2434 -0.1793  0.5926
 8874SOL    HW138255   4.363   4.117   9.006 -2.6579  0.3098  0.6279
 8874SOL    HW238256   4.345   3.975   9.019  0.2784  1.3836 -1.5333
 8875SOL     OW38257   1.696   1.633   4.698  0.1612 -0.3354  0.7406
 8875SOL    HW138258   1.695   1.577   4.775 -1.9656 -1.3294  0.0003
 8875SOL    HW238259   1.624   1.689   4.728 -0.9925 -0.4869 -1.7337
 8876SOL     OW38260   4.243   3.943   8.344  0.2424 -0.2142  0.5509
 8876SOL    HW138261   4.154   3.940   8.309  0.6828  0.4141 -0.6404
 8876SOL    HW238262   4.263   3.850   8.345  2.7086  0.3420  2.2205
 8877SOL     OW38263   2.887   4.199   5.281  0.1060 -0.1718  0.6397
 8877SOL    HW138264   2.968   4.199   5.230 -0.6514  3.2278 -0.5187
 8877SOL    HW238265   2.911   4.252   5.357  0.8286  1.6786 -0.9093
 8878SOL     OW38266   1.687   0.088   4.211 -0.5192  0.6144  0.0007
 8878SOL    HW138267   1.723   0.126   4.131 -0.9732  0.2352 -0.3855
 8878SOL    HW238268   1.740   0.127   4.280 -3.4722 -0.0245  2.6836
 8879SOL     OW38269   0.109   0.519   3.030  0.6737  0.4463 -0.4610
 8879SOL    HW138270   0.073   0.596   2.986  0.7983 -0.4716 -2.1839
 8879SOL    HW238271   0.122   0.463   2.953  0.8499  1.3360 -1.0715
 8880SOL     OW38272   3.508   1.603   2.056  0.5824 -0.5456 -0.1371
 8880SOL    HW138273   3.438   1.636   1.999 -0.6169 -2.1089  0.4239
 8880SOL    HW238274   3.513   1.512   2.025 -1.8949 -0.8991  0.5130
 8881SOL     OW38275   3.045   3.130   3.658 -0.4712 -0.0321 -0.2841
 8881SOL    HW138276   3.103   3.127   3.734 -0.9416  3.9097  0.2669
 8881SOL    HW238277   3.022   3.039   3.642  1.0638 -0.1211 -2.0324
 8882SOL     OW38278   0.768   4.304   2.688 -0.1543  0.7701  0.2070
 8882SOL    HW138279   0.835   4.367   2.662  0.9899 -1.2409 -1.7664
 8882SOL    HW238280   0.818   4.224   2.670 -0.8457  0.3749  0.0288
 8883SOL     OW38281   4.712   1.254   6.604  0.8245  0.7998  0.4143
 8883SOL    HW138282   4.625   1.214   6.611  1.3369 -0.4312 -0.2078
 8883SOL    HW238283   0.016   1.185   6.554 -1.2687 -1.4485  1.6211
 8884SOL     OW38284   0.710   2.179  12.759 -0.0860 -0.4035 -0.0533
 8884SOL    HW138285   0.785   2.226  12.721  0.8378  0.2891  2.6700
 8884SOL    HW238286   0.636   2.205  12.703  0.0252  0.9607  0.4368
 8885SOL     OW38287   0.946   3.214   9.768  0.3814 -0.1157  0.2639
 8885SOL    HW138288   0.973   3.306   9.757 -0.3472 -0.1599 -1.8164
 8885SOL    HW238289   0.852   3.211   9.753  0.4556 -2.8745  0.4465
 8886SOL     OW38290   4.488   0.135  11.490  0.2514  0.4133 -0.1000
 8886SOL    HW138291   4.453   0.148  11.578  0.4345  1.2232 -0.1409
 8886SOL    HW238292   4.480   0.229  11.470  0.7809  0.7510  1.2913
 8887SOL     OW38293   1.832   3.393   1.375 -0.6115  0.0192  0.8239
 8887SOL    HW138294   1.859   3.466   1.318  0.0149 -0.4112  0.5661
 8887SOL    HW238295   1.742   3.423   1.391 -0.1861  1.3783  0.7300
 8888SOL     OW38296   0.421   1.794  12.955  0.1734 -0.6855 -0.2669
 8888SOL    HW138297   0.517   1.796  12.959  0.1289  0.3155  0.1141
 8888SOL    HW238298   0.417   1.889  12.948  0.6024 -0.7115 -0.8951
 8889SOL     OW38299   2.303   2.348   1.861  0.4307 -0.0317  0.2739
 8889SOL    HW138300   2.250   2.420   1.828 -1.5734 -1.2130  0.9184
 8889SOL    HW238301   2.393   2.375   1.840 -0.0947  1.7102  0.2687
 8890SOL     OW38302   3.098   2.780   4.276 -0.3721 -0.2538 -0.2191
 8890SOL    HW138303   3.116   2.872   4.261 -0.2247 -0.1386  0.6333
 8890SOL    HW238304   3.162   2.754   4.343  1.8277 -0.2035 -2.2796
 8891SOL     OW38305   1.070   4.357  16.107  0.4250 -0.0190 -0.5720
 8891SOL    HW138306   1.095   4.265  16.097  2.0193  0.2789  0.7358
 8891SOL    HW238307   1.022   4.370  16.025  2.4185 -0.6576 -1.8244
 8892SOL     OW38308   2.856   2.409   4.603  0.0008 -0.3189  0.0634
 8892SOL    HW138309   2.845   2.488   4.550  0.7111  1.1123  2.0631
 8892SOL    HW238310   2.851   2.355   4.524  0.3369 -1.4169  0.7892
 8893SOL     OW38311   1.076   0.789   6.206 -0.2651  0.3093  0.0242
 8893SOL    HW138312   1.102   0.773   6.115 -0.2446 -0.9354  0.2525
 8893SOL    HW238313   0.982   0.797   6.193 -0.4595  0.0315  1.2790
 8894SOL     OW38314   1.016   3.108   8.962  0.4071  0.2170 -0.2064
 8894SOL    HW138315   1.095   3.160   8.949  1.4753 -0.4301  3.6284
 8894SOL    HW238316   0.988   3.118   8.871  1.0757 -0.3555 -0.4788
 8895SOL     OW38317   2.074   1.351   2.734  0.0876  0.1535  0.6504
 8895SOL    HW138318   2.086   1.335   2.640  0.5274 -1.7043  1.0246
 8895SOL    HW238319   2.137   1.423   2.736 -0.8555  0.9956  0.2056
 8896SOL     OW38320   1.867   2.026   4.077  0.6689  0.3228 -0.7198
 8896SOL    HW138321   1.902   1.939   4.061  2.6948  0.7986  1.0481
 8896SOL    HW238322   1.930   2.062   4.139  2.2292 -2.4219 -0.7177
 8897SOL     OW38323   1.417   1.166   4.492  0.2418 -0.4238 -0.3177
 8897SOL    HW138324   1.330   1.176   4.530 -0.4374  1.6296 -2.3990
 8897SOL    HW238325   1.463   1.179   4.576 -0.3907 -4.2644  0.6243
 8898SOL     OW38326   4.605   1.733   9.421  0.0887 -0.0853  0.7439
 8898SOL    HW138327   4.689   1.777   9.403 -0.4715  0.5141 -0.3904
 8898SOL    HW238328   4.552   1.774   9.353 -0.2705 -1.1613  0.3806
 8899SOL     OW38329   2.234   2.804   0.291 -0.0899 -0.4306  0.2698
 8899SOL    HW138330   2.258   2.785   0.382 -0.6028 -0.1711  0.4539
 8899SOL    HW238331   2.150   2.850   0.297  0.6705  0.5887  3.1505
 8900SOL     OW38332   3.200   1.419   2.827 -0.2807  0.5101 -0.2787
 8900SOL    HW138333   3.227   1.334   2.793  1.6762  1.2155 -0.5019
 8900SOL    HW238334   3.105   1.412   2.827 -0.2733  0.3697 -2.1864
 8901SOL     OW38335   3.085   3.341   2.072 -0.2338  0.4086 -0.3053
 8901SOL    HW138336   3.164   3.325   2.124 -1.4766 -0.0092  1.4441
 8901SOL    HW238337   3.020   3.350   2.142  0.7623 -0.2223  0.7038
 8902SOL     OW38338   2.301   3.318   3.474  0.0520  0.4229  0.6952
 8902SOL    HW138339   2.335   3.383   3.535  1.4522 -2.7445  3.3031
 8902SOL    HW238340   2.342   3.245   3.521 -1.3806 -1.8335 -1.5330
 8903SOL     OW38341   4.130   2.037   8.941 -0.3255  0.1877 -0.3498
 8903SOL    HW138342   4.068   2.105   8.914 -0.1140  1.5731  2.6321
 8903SOL    HW238343   4.215   2.069   8.911  0.2482 -1.1204 -0.0973
 8904SOL     OW38344   1.233   4.677   3.586  0.2106 -0.0066 -0.2302
 8904SOL    HW138345   1.158   4.683   3.646  0.2092  0.0370 -0.2364
 8904SOL    HW238346   1.193   4.669   3.500  0.9014  1.2603 -0.6552
 8905SOL     OW38347   0.386   2.875   5.956 -0.1568 -0.0416  0.3946
 8905SOL    HW138348   0.404   2.964   5.925 -2.1662  0.3520  0.3539
 8905SOL    HW238349   0.452   2.826   5.908  0.6268  2.5477 -1.1744
 8906SOL     OW38350   0.607   2.630   9.698 -0.4965 -0.3254 -0.8382
 8906SOL    HW138351   0.582   2.540   9.676 -1.4608 -0.2513 -0.0441
 8906SOL    HW238352   0.644   2.625   9.786 -0.4833 -1.3316 -0.8963
 8907SOL     OW38353   1.617   0.556   4.020 -0.0108 -0.0562  0.0523
 8907SOL    HW138354   1.640   0.492   4.088 -2.0682 -0.3179  0.4953
 8907SOL    HW238355   1.697   0.578   3.972 -1.5585  2.1173 -1.4698
 8908SOL     OW38356   2.759   2.719   5.272 -0.1024 -1.1872 -0.2635
 8908SOL    HW138357   2.851   2.733   5.293 -0.1421 -0.2836 -0.7327
 8908SOL    HW238358   2.758   2.624   5.289 -2.0384 -0.9267  1.0958
 8909SOL     OW38359   2.520   1.040   8.616 -0.4853  0.1637 -0.0857
 8909SOL    HW138360   2.453   0.973   8.620  0.8873 -1.0341  2.5275
 8909SOL    HW238361   2.599   0.990   8.635  1.1611  1.1783 -4.1042
 8910SOL     OW38362   2.446   0.992  17.440 -0.4603  0.1448 -0.2786
 8910SOL    HW138363   2.375   0.928  17.440  1.0608 -1.5147  0.8891
 8910SOL    HW238364   2.514   0.947  17.390 -1.4602  1.3179 -2.7127
 8911SOL     OW38365   4.720   4.053   2.448 -0.2835  0.0677  0.1773
 8911SOL    HW138366   4.702   4.047   2.542  1.0957  2.2543  0.5740
 8911SOL    HW238367   0.062   4.101   2.449 -0.7147  0.7937  2.8765
 8912SOL     OW38368   0.402   0.970   7.318  0.0281 -0.1657  0.2861
 8912SOL    HW138369   0.337   0.986   7.386 -1.4701 -0.3608 -1.1146
 8912SOL    HW238370   0.356   0.953   7.236 -0.6385  2.0978  0.1821
 8913SOL     OW38371   2.243   3.842  15.481 -0.3722 -0.1462 -0.6144
 8913SOL    HW138372   2.184   3.804  15.546  0.3574  0.4646  0.4051
 8913SOL    HW238373   2.311   3.775  15.481 -0.4434 -0.2145 -0.8345
 8914SOL     OW38374   4.495   1.660   4.047  0.2974 -0.1521  0.0102
 8914SOL    HW138375   4.575   1.609   4.034  1.0895  1.4980 -1.4172
 8914SOL    HW238376   4.438   1.636   3.974  0.0160  2.1181 -0.4832
 8915SOL     OW38377   0.709   0.200  16.383 -0.0163 -0.2119  0.1615
 8915SOL    HW138378   0.752   0.254  16.317  0.2726  0.7207  1.1167
 8915SOL    HW238379   0.665   0.257  16.446 -0.5864 -0.6536  0.1616
 8916SOL     OW38380   3.867   1.156   6.003  0.1176  0.9203 -0.1912
 8916SOL    HW138381   3.882   1.062   5.992 -1.5786  0.6637 -0.3905
 8916SOL    HW238382   3.960   1.170   6.018 -0.2496  1.3981  1.6888
 8917SOL     OW38383   2.404   3.406   7.562  0.0180  0.0248  0.3142
 8917SOL    HW138384   2.394   3.459   7.641  0.2681 -1.1440  1.1459
 8917SOL    HW238385   2.391   3.317   7.597 -1.5433 -0.3627 -1.2846
 8918SOL     OW38386   2.669   3.214   7.326 -0.3826  0.1291  0.2460
 8918SOL    HW138387   2.682   3.289   7.384  1.0772  1.4501 -1.8345
 8918SOL    HW238388   2.758   3.178   7.328 -0.2288  0.6775  4.7885
 8919SOL     OW38389   4.685   2.209  10.124  0.4758  0.0307  0.0301
 8919SOL    HW138390   4.686   2.244  10.035  0.3643  0.1538  0.0775
 8919SOL    HW238391   4.707   2.116  10.122 -0.7719 -0.3093  2.7184
 8920SOL     OW38392   0.531   0.689   8.164  0.7341  0.2172 -0.0185
 8920SOL    HW138393   0.506   0.702   8.256 -1.2257 -1.8640 -0.2709
 8920SOL    HW238394   0.595   0.618   8.162 -0.9578 -1.3376  1.0397
 8921SOL     OW38395   1.573   4.061  14.532 -0.0783 -0.0461  0.1963
 8921SOL    HW138396   1.519   4.137  14.511 -1.8450 -1.1492  0.6995
 8921SOL    HW238397   1.626   4.083  14.608  0.4483 -1.8347  0.3422
 8922SOL     OW38398   0.452   0.582   2.709  0.7063 -0.3950 -0.0485
 8922SOL    HW138399   0.458   0.642   2.635 -1.7326  0.1213  0.1813
 8922SOL    HW238400   0.462   0.503   2.655 -0.1950  0.6368 -1.7185
 8923SOL     OW38401   2.291   1.043   4.004 -0.1652 -0.2585 -0.4269
 8923SOL    HW138402   2.383   1.024   3.986 -0.1893  1.4012 -2.1636
 8923SOL    HW238403   2.292   1.030   4.099 -3.6480  1.0313 -0.1960
 8924SOL     OW38404   3.471   0.990   9.281  0.2748 -0.1848  0.1737
 8924SOL    HW138405   3.538   0.959   9.342  1.8656  0.8026 -1.0739
 8924SOL    HW238406   3.521   1.028   9.209 -2.0292  1.8962 -0.3135
 8925SOL     OW38407   0.116   4.239   0.682 -0.6884 -0.1774 -0.4881
 8925SOL    HW138408   0.135   4.145   0.672  0.3137 -0.1824  1.5006
 8925SOL    HW238409   0.195   4.283   0.650 -1.9082  2.2676 -0.1256
 8926SOL     OW38410   2.823   4.340  16.945 -0.2141  0.5266  0.2860
 8926SOL    HW138411   2.841   4.433  16.939  1.3131  0.1908 -0.3001
 8926SOL    HW238412   2.799   4.328  16.853  1.2725  0.2319 -0.0648
 8927SOL     OW38413   4.140   4.193  12.614  0.4805 -0.0388 -0.0596
 8927SOL    HW138414   4.172   4.191  12.704 -3.1699  0.9720  1.2621
 8927SOL    HW238415   4.151   4.287  12.601  0.6316 -0.0623 -0.0985
 8928SOL     OW38416   0.884   0.076  14.515 -0.1426  0.6305 -0.8465
 8928SOL    HW138417   0.796   0.075  14.551  0.8810  0.8904  1.6642
 8928SOL    HW238418   0.887   0.165  14.480  1.2574  0.2156 -1.8130
 8929SOL     OW38419   1.912   1.686   3.322  0.6372 -0.4587 -0.2155
 8929SOL    HW138420   1.847   1.715   3.386  1.5798 -0.8037  0.9096
 8929SOL    HW238421   1.992   1.731   3.349  1.3954 -0.8575 -1.8494
 8930SOL     OW38422   2.163   3.589  14.184 -0.2299  0.0336 -0.7227
 8930SOL    HW138423   2.227   3.543  14.238 -0.0491 -0.2164 -1.1473
 8930SOL    HW238424   2.216   3.638  14.120  0.6262  0.2875  0.1832
 8931SOL     OW38425   1.922   3.751  11.644 -0.5378  0.3522 -0.2092
 8931SOL    HW138426   1.892   3.672  11.688 -1.0886  1.0599  0.6720
 8931SOL    HW238427   1.961   3.803  11.714 -0.9248 -0.1646  0.3923
 8932SOL     OW38428   0.051   4.347   9.255 -0.5927  0.0712 -0.2821
 8932SOL    HW138429   0.043   4.303   9.339 -0.4509 -3.3318 -2.0332
 8932SOL    HW238430   0.114   4.299   9.202 -0.4799  0.4022 -0.4487
 8933SOL     OW38431   1.104   4.097   7.481  0.7240 -0.0734  0.2218
 8933SOL    HW138432   1.087   4.117   7.573  0.9528 -1.6839  0.6223
 8933SOL    HW238433   1.066   4.165   7.427  4.1443  1.9672  0.3941
 8934SOL     OW38434   1.587   4.226   8.276 -0.5603  0.0989  0.0699
 8934SOL    HW138435   1.653   4.288   8.309  0.9033 -1.2928 -0.2414
 8934SOL    HW238436   1.619   4.143   8.313  0.2257  0.4818  0.2429
 8935SOL     OW38437   2.412   4.570   5.997 -0.0360  0.6073 -0.2900
 8935SOL    HW138438   2.358   4.493   6.015  1.1883 -0.2942 -0.5365
 8935SOL    HW238439   2.386   4.608   5.912 -0.8122  0.1711 -0.2506
 8936SOL     OW38440   3.785   2.852  16.718  0.5349  0.4110  0.4517
 8936SOL    HW138441   3.784   2.832  16.625  0.9980 -0.2651  0.5936
 8936SOL    HW238442   3.693   2.839  16.738  0.3247  1.2075 -0.0020
 8937SOL     OW38443   0.267   1.523   2.416 -0.5039 -0.6597  0.3460
 8937SOL    HW138444   0.177   1.497   2.435 -1.0069  1.0986  0.4274
 8937SOL    HW238445   0.285   1.457   2.350  2.9843  0.2118  0.4189
 8938SOL     OW38446   0.954   0.801   3.452 -0.2751 -0.0730 -0.2616
 8938SOL    HW138447   0.902   0.743   3.398 -1.9746  1.1286  0.0901
 8938SOL    HW238448   1.021   0.832   3.390  1.0176 -0.5071  0.9049
 8939SOL     OW38449   2.807   2.215   7.138 -0.3341 -0.5053  0.0479
 8939SOL    HW138450   2.774   2.301   7.164 -0.0873  0.1201 -1.7699
 8939SOL    HW238451   2.722   2.172   7.146 -1.3906  1.0068 -3.3846
 8940SOL     OW38452   1.393   3.032  10.215  0.2374 -0.0938 -0.0761
 8940SOL    HW138453   1.365   2.987  10.135  0.1276 -1.4608  0.7363
 8940SOL    HW238454   1.312   3.075  10.245 -1.5612 -3.0586 -0.6295
 8941SOL     OW38455   2.608   1.959   9.950 -0.0829  0.0281  0.2283
 8941SOL    HW138456   2.639   1.967  10.040 -1.0693 -1.1532  0.6762
 8941SOL    HW238457   2.677   1.905   9.911 -1.5865 -1.6401 -0.1510
 8942SOL     OW38458   1.788   3.205   7.523  0.2619  0.1030  0.1423
 8942SOL    HW138459   1.874   3.180   7.556  1.5960  1.8166 -1.9755
 8942SOL    HW238460   1.815   3.291   7.489  2.0617 -0.6514 -0.3298
 8943SOL     OW38461   1.096   1.801  13.640 -0.7008  0.5280  0.6597
 8943SOL    HW138462   1.120   1.833  13.553  1.4234  0.4181  1.2134
 8943SOL    HW238463   1.010   1.767  13.615  0.0833 -0.3145 -0.8966
 8944SOL     OW38464   3.686   3.669  12.566  1.2037  0.1502 -0.2463
 8944SOL    HW138465   3.610   3.616  12.544  1.0022  0.2462  0.2149
 8944SOL    HW238466   3.720   3.607  12.631 -2.4836  0.4485  1.9478
 8945SOL     OW38467   3.001   2.330  11.272  0.5114  0.1478 -0.3936
 8945SOL    HW138468   3.052   2.409  11.254 -0.2792  0.6338 -0.5073
 8945SOL    HW238469   3.062   2.263  11.243  1.2699  0.2181  1.0368
 8946SOL     OW38470   3.578   0.756   9.093  0.1025 -0.1932 -1.0266
 8946SOL    HW138471   3.661   0.798   9.069  0.0176 -0.2859 -1.4811
 8946SOL    HW238472   3.593   0.745   9.187  2.6128 -2.4026 -1.6954
 8947SOL     OW38473   4.088   3.915   6.479 -0.0957 -0.0048 -0.1951
 8947SOL    HW138474   4.118   3.849   6.416  1.3066 -1.4951  2.0157
 8947SOL    HW238475   4.148   3.902   6.553 -0.5631  2.2965  0.5773
 8948SOL     OW38476   1.422   0.675   8.157  0.4565  0.6086  0.2555
 8948SOL    HW138477   1.475   0.608   8.113  0.3180 -0.2150  1.3509
 8948SOL    HW238478   1.359   0.693   8.087  0.2982  1.1920  0.5410
 8949SOL     OW38479   3.453   1.316  14.159  0.5182 -0.2548 -0.4474
 8949SOL    HW138480   3.514   1.247  14.133 -1.7831 -1.8476 -1.5740
 8949SOL    HW238481   3.412   1.343  14.076 -1.1727 -0.5497  0.2878
 8950SOL     OW38482   2.134   1.487   6.496  0.2438  0.7155  0.3117
 8950SOL    HW138483   2.195   1.466   6.567  1.3591  1.9453 -0.2788
 8950SOL    HW238484   2.191   1.516   6.424  1.5652 -0.5684  0.8391
 8951SOL     OW38485   0.753   3.400  12.630  0.1154 -0.4768  0.3717
 8951SOL    HW138486   0.743   3.332  12.563 -1.1302  1.5403 -1.5017
 8951SOL    HW238487   0.750   3.478  12.574 -2.0588 -0.2429  0.8152
 8952SOL     OW38488   3.844   1.185   9.396 -0.2180  0.6201 -0.2300
 8952SOL    HW138489   3.928   1.141   9.390 -1.0761 -1.0629  0.0641
 8952SOL    HW238490   3.862   1.260   9.339  0.5847 -0.5891 -1.5787
 8953SOL     OW38491   3.370   2.382   2.780  0.2333  0.4696  0.1463
 8953SOL    HW138492   3.323   2.419   2.855  2.1875 -0.9989  2.0797
 8953SOL    HW238493   3.311   2.419   2.714 -0.3438 -0.1918  0.2920
 8954SOL     OW38494   4.048   3.037   1.981  0.3925  0.0634  0.2168
 8954SOL    HW138495   4.039   3.059   2.074 -0.3533  0.3474  0.0721
 8954SOL    HW238496   4.073   3.120   1.941  1.9776 -0.5569 -0.0914
 8955SOL     OW38497   1.199   4.006   6.133 -0.5777  0.7298 -0.6938
 8955SOL    HW138498   1.260   4.017   6.060  1.1065 -0.9496  0.4349
 8955SOL    HW238499   1.117   4.011   6.085  0.7836  0.3100 -3.0856
 8956SOL     OW38500   3.706   0.531   2.174  0.8058 -1.1530  0.3321
 8956SOL    HW138501   3.776   0.571   2.225 -0.8132  0.8457  0.9886
 8956SOL    HW238502   3.707   0.451   2.226 -1.4000 -1.7589 -0.5411
 8957SOL     OW38503   2.323   4.295   1.216  0.3606 -0.2270  0.2704
 8957SOL    HW138504   2.300   4.385   1.194  0.6422 -0.0746  0.5870
 8957SOL    HW238505   2.284   4.245   1.144  0.0016 -0.3217  0.5297
 8958SOL     OW38506   2.503   0.302  12.807 -0.0665  0.3855  0.7001
 8958SOL    HW138507   2.411   0.322  12.826 -0.2702  1.2134 -1.2213
 8958SOL    HW238508   2.532   0.259  12.888  0.8880  0.0885  0.2000
 8959SOL     OW38509   2.619   2.077   7.506 -0.2032  0.2339  0.6062
 8959SOL    HW138510   2.673   2.124   7.569 -0.3159  1.4368 -0.1916
 8959SOL    HW238511   2.623   1.992   7.551 -2.3369 -0.0834  0.1846
 8960SOL     OW38512   0.231   2.813  14.533  0.1716 -0.1997  0.4412
 8960SOL    HW138513   0.136   2.814  14.520  0.1093 -1.5241  0.7678
 8960SOL    HW238514   0.258   2.727  14.500  0.6134 -0.4110  1.3567
 8961SOL     OW38515   3.464   1.230   8.029  0.1684  0.1515  0.0903
 8961SOL    HW138516   3.483   1.215   7.937  0.4315 -0.6361  0.2716
 8961SOL    HW238517   3.396   1.296   8.012 -0.3371 -0.1292  0.9824
 8962SOL     OW38518   1.141   3.529   0.848  0.0934  0.5444 -0.0946
 8962SOL    HW138519   1.078   3.462   0.821  0.2784  0.3169  0.0408
 8962SOL    HW238520   1.086   3.608   0.846  0.0472  0.5552  2.4975
 8963SOL     OW38521   0.157   4.670   8.629  0.3820 -0.0425  0.4166
 8963SOL    HW138522   0.251   4.665   8.644  0.5171  0.6929 -0.1933
 8963SOL    HW238523   0.121   4.637   8.711  0.2171 -1.4735 -0.2389
 8964SOL     OW38524   0.486   0.559   7.461  0.1774 -0.0121  0.4288
 8964SOL    HW138525   0.519   0.617   7.530 -0.0382 -0.2587  0.7414
 8964SOL    HW238526   0.486   0.623   7.390 -0.2801  0.6614  1.0419
 8965SOL     OW38527   1.127   1.407   2.314 -0.5312 -0.0811  0.2349
 8965SOL    HW138528   1.056   1.410   2.250  0.1656  0.8449 -0.4901
 8965SOL    HW238529   1.098   1.479   2.370  0.0218  1.4397 -1.4413
 8966SOL     OW38530   1.006   2.957  12.081 -0.4366 -0.3543 -0.3920
 8966SOL    HW138531   1.098   2.938  12.066 -0.7195 -1.2790 -0.9726
 8966SOL    HW238532   0.990   3.039  12.034 -1.8315  0.3355  1.2607
 8967SOL     OW38533   3.557   2.511   2.023  0.5223  0.2464  0.1438
 8967SOL    HW138534   3.596   2.558   1.949  0.3186 -0.5387 -0.4635
 8967SOL    HW238535   3.517   2.586   2.066  0.4809  0.2892  0.0311
 8968SOL     OW38536   3.931   0.404   5.746 -0.1548  0.2887  0.4208
 8968SOL    HW138537   3.914   0.351   5.824  1.2470  1.1059  1.2923
 8968SOL    HW238538   3.856   0.406   5.687  0.3348  3.1219 -0.0992
 8969SOL     OW38539   2.838   3.063  17.354 -0.0011  0.1090  0.2380
 8969SOL    HW138540   2.810   3.021  17.435 -4.2385  2.0117 -0.2108
 8969SOL    HW238541   2.819   2.990  17.295 -0.9052  0.5658 -0.0475
 8970SOL     OW38542   2.201   4.585   3.606 -0.1897  0.1874  0.0914
 8970SOL    HW138543   2.208   4.635   3.688  2.1273  0.4678 -0.2929
 8970SOL    HW238544   2.161   4.657   3.556 -0.8763 -0.3348 -0.1112
 8971SOL     OW38545   3.929   2.784  11.866  0.5274  0.1942 -0.2460
 8971SOL    HW138546   3.969   2.729  11.800 -1.0396  2.3170 -2.9542
 8971SOL    HW238547   3.924   2.730  11.945  1.7754  1.0214  0.4025
 8972SOL     OW38548   1.182   2.758  13.966  0.5313  0.2239 -0.1085
 8972SOL    HW138549   1.205   2.700  13.893  0.7161 -0.2345  0.3163
 8972SOL    HW238550   1.265   2.798  13.991  0.8573 -1.4850  1.5071
 8973SOL     OW38551   4.149   1.626   5.323  0.0706  0.4384 -0.0759
 8973SOL    HW138552   4.156   1.588   5.411 -0.5876 -0.1273 -0.2680
 8973SOL    HW238553   4.130   1.719   5.336  2.4212  0.9703 -0.4753
 8974SOL     OW38554   3.829   2.683   8.020 -1.0518  0.1665 -0.1323
 8974SOL    HW138555   3.736   2.701   8.034 -0.5894  1.2751  1.5557
 8974SOL    HW238556   3.823   2.595   7.984  2.3110 -0.9789  2.1356
 8975SOL     OW38557   0.060   1.187   6.966 -0.1664 -0.3585 -0.0718
 8975SOL    HW138558   4.714   1.195   7.005  0.0884 -0.3156  0.4841
 8975SOL    HW238559   0.067   1.273   6.923  1.8983 -0.4511  0.0895
 8976SOL     OW38560   4.030   0.368   1.870  0.0022  0.0573 -0.2438
 8976SOL    HW138561   3.960   0.434   1.875  0.0911  0.2781 -1.8594
 8976SOL    HW238562   3.988   0.294   1.913  1.4448 -0.0553  0.9517
 8977SOL     OW38563   0.436   3.846   8.418  0.7070 -0.9463 -0.1686
 8977SOL    HW138564   0.485   3.765   8.407  0.0089 -1.5363  1.0252
 8977SOL    HW238565   0.500   3.908   8.384 -0.6526  0.6190  0.0854
 8978SOL     OW38566   4.609   2.153   8.695  0.3942 -0.3318 -0.2351
 8978SOL    HW138567   4.677   2.121   8.753  0.4325  2.2230  1.1197
 8978SOL    HW238568   4.646   2.241   8.686 -1.6381  0.7653  2.2518
 8979SOL     OW38569   0.995   1.891  12.636  0.0330  0.3325 -0.0857
 8979SOL    HW138570   0.980   1.958  12.569 -2.0563 -1.5286 -1.5035
 8979SOL    HW238571   1.051   1.941  12.694 -1.9644  1.0661  1.2221
 8980SOL     OW38572   0.023   1.901   5.269  0.5802 -0.1103  0.5609
 8980SOL    HW138573   0.057   1.812   5.254  2.2340  0.6806 -0.4149
 8980SOL    HW238574   0.058   1.907   5.358 -0.4956 -3.6799  1.2423
 8981SOL     OW38575   0.422   3.200   6.916  0.0014 -0.5828  0.4096
 8981SOL    HW138576   0.350   3.158   6.963 -0.0223 -1.1608 -0.1441
 8981SOL    HW238577   0.487   3.220   6.983 -0.2026 -0.9707  0.7228
 8982SOL     OW38578   0.550   1.911  10.959 -0.0622  0.7581  0.9468
 8982SOL    HW138579   0.506   1.846  11.014 -2.4656  0.7404 -0.9338
 8982SOL    HW238580   0.525   2.000  10.985  1.7718  1.0585  1.6600
 8983SOL     OW38581   1.276   1.653   3.304 -0.1578 -0.2131 -0.7771
 8983SOL    HW138582   1.269   1.648   3.209  2.8114  2.3193 -1.1043
 8983SOL    HW238583   1.247   1.566   3.334  1.7590 -0.6867 -0.3136
 8984SOL     OW38584   3.434   2.753   4.171 -0.3482  0.0201 -0.1064
 8984SOL    HW138585   3.416   2.750   4.265 -0.9259  1.4387 -0.1827
 8984SOL    HW238586   3.422   2.844   4.144  1.4599  0.4216  0.4753
 8985SOL     OW38587   1.701   1.322   7.208 -0.1497  0.2920 -0.5137
 8985SOL    HW138588   1.625   1.327   7.266 -0.0904  1.0516 -0.4989
 8985SOL    HW238589   1.708   1.228   7.194  0.0186  0.2203  0.0579
 8986SOL     OW38590   1.163   2.088   6.686  0.1120  0.6685 -0.4963
 8986SOL    HW138591   1.160   2.092   6.781  0.6648  0.7500 -0.4825
 8986SOL    HW238592   1.179   2.179   6.660 -0.3965  0.3713 -1.8874
 8987SOL     OW38593   1.182   3.604   1.588 -0.9739  0.2569 -0.1168
 8987SOL    HW138594   1.169   3.546   1.663  0.5922 -1.2303 -1.0230
 8987SOL    HW238595   1.215   3.542   1.523  2.4292  1.8991  0.0778
 8988SOL     OW38596   2.578   3.186  12.242  0.0360  0.2463 -0.7354
 8988SOL    HW138597   2.521   3.197  12.318  1.0149  0.7506 -0.0683
 8988SOL    HW238598   2.655   3.230  12.279  0.9052 -0.1157 -2.1266
 8989SOL     OW38599   1.317   2.760   7.245 -0.5471 -0.4174  0.3681
 8989SOL    HW138600   1.223   2.755   7.231 -0.8262 -1.2337  2.4998
 8989SOL    HW238601   1.337   2.671   7.274  0.2631 -0.1912  0.5091
 8990SOL     OW38602   3.736   0.151   0.962 -0.6293 -0.5854 -0.1027
 8990SOL    HW138603   3.774   0.089   0.899  0.9256 -0.5206  0.7610
 8990SOL    HW238604   3.751   0.241   0.933  0.9907 -1.7434 -2.9245
 8991SOL     OW38605   1.158   2.703   7.766 -0.0991  0.0302 -0.2748
 8991SOL    HW138606   1.185   2.764   7.698  3.6753 -1.8326 -0.4174
 8991SOL    HW238607   1.081   2.745   7.806  1.6408  4.9951 -2.1622
 8992SOL     OW38608   0.442   2.267   8.242 -0.2166  0.4913  0.3202
 8992SOL    HW138609   0.493   2.271   8.161  0.7559  0.6675  0.9419
 8992SOL    HW238610   0.417   2.174   8.240 -1.1731  0.7477  0.5509
 8993SOL     OW38611   3.231   0.224   0.923  0.0896  0.0680  0.1690
 8993SOL    HW138612   3.157   0.244   0.980 -1.9784 -0.3846 -2.3193
 8993SOL    HW238613   3.288   0.300   0.933  0.9544 -0.5192 -0.2768
 8994SOL     OW38614   2.194   2.753   4.167 -0.3167  0.0207 -0.1388
 8994SOL    HW138615   2.258   2.823   4.178 -0.9563  0.8782 -1.9192
 8994SOL    HW238616   2.116   2.791   4.207  1.4040  0.8446  2.4487
 8995SOL     OW38617   2.504   2.773   8.220 -0.1504  0.4207  0.2491
 8995SOL    HW138618   2.433   2.710   8.205 -0.5290  1.2825 -1.5793
 8995SOL    HW238619   2.574   2.725   8.176  0.1491  1.4721 -0.4268
 8996SOL     OW38620   2.500   0.030   5.332  0.2752  0.1475 -0.0292
 8996SOL    HW138621   2.568   4.722   5.379  1.0485  0.9802 -0.2735
 8996SOL    HW238622   2.537   0.068   5.252  1.8242  0.8343  1.0283
 8997SOL     OW38623   2.325   0.645   4.177 -0.0052 -0.3447 -0.0937
 8997SOL    HW138624   2.340   0.551   4.169 -0.2947 -0.1350 -3.1553
 8997SOL    HW238625   2.239   0.654   4.217 -0.5899 -0.2526 -1.3703
 8998SOL     OW38626   3.964   3.095   4.554  0.0780 -0.1946 -0.1279
 8998SOL    HW138627   3.906   3.043   4.498 -0.1391 -0.3044  0.1975
 8998SOL    HW238628   4.022   3.130   4.487 -0.4458 -0.2335 -0.5987
 8999SOL     OW38629   2.179   0.413   5.688 -0.5435  0.0734 -0.0138
 8999SOL    HW138630   2.263   0.374   5.712 -0.7596  0.9158  2.1755
 8999SOL    HW238631   2.159   0.365   5.608 -0.8572 -0.2419  0.2574
 9000SOL     OW38632   2.505   4.661   4.047 -0.2067  0.0165  0.9752
 9000SOL    HW138633   2.597   4.634   4.042 -0.2059  0.2172 -0.0820
 9000SOL    HW238634   2.517   4.734   4.107 -0.9473 -0.4406  1.6883
 9001SOL     OW38635   0.345   1.975   2.082 -0.1995 -0.0781 -0.0652
 9001SOL    HW138636   0.278   1.995   2.147 -1.0884 -1.8578 -0.4432
 9001SOL    HW238637   0.310   2.017   2.004 -0.2170  1.9854  1.0286
 9002SOL     OW38638   4.067   2.442   8.869  0.0300 -0.7377  0.2533
 9002SOL    HW138639   4.006   2.396   8.926 -0.1834 -1.9004 -0.9209
 9002SOL    HW238640   4.152   2.416   8.903  0.0522  1.5204  1.9576
 9003SOL     OW38641   1.225   0.663  13.123  0.4376  0.4603  0.1180
 9003SOL    HW138642   1.223   0.643  13.217 -3.2771  0.3850  0.0189
 9003SOL    HW238643   1.131   0.660  13.103  0.6782  2.8681 -1.4160
 9004SOL     OW38644   1.100   0.496  10.547 -0.0289  0.2932 -0.4757
 9004SOL    HW138645   1.098   0.585  10.513  2.1420 -0.0741 -1.5753
 9004SOL    HW238646   1.100   0.525  10.638 -0.1573  2.5639 -1.2100
 9005SOL     OW38647   1.010   4.228   7.100 -0.3678  0.1390  0.0441
 9005SOL    HW138648   1.065   4.203   7.174 -1.6204  0.9507  1.2358
 9005SOL    HW238649   1.016   4.158   7.035 -0.0760 -0.5512  0.8131
 9006SOL     OW38650   1.243   4.542   7.206 -0.3572 -0.0840  0.2439
 9006SOL    HW138651   1.166   4.593   7.230  0.0320  0.6989 -0.1510
 9006SOL    HW238652   1.251   4.483   7.280  2.6883  1.1291  0.8575
 9007SOL     OW38653   1.989   4.319   2.518  0.8075 -0.0859 -0.2799
 9007SOL    HW138654   1.916   4.258   2.521 -1.1466  2.2930  0.3700
 9007SOL    HW238655   2.053   4.262   2.561 -0.5302 -1.9863 -0.8288
 9008SOL     OW38656   2.133   0.257  12.534 -0.9070  0.2736 -0.2210
 9008SOL    HW138657   2.191   0.320  12.490  1.5897  0.0998  2.8192
 9008SOL    HW238658   2.118   0.184  12.474  2.1071 -0.4131 -0.1404
 9009SOL     OW38659   0.381   3.168   3.039  0.1629 -0.0385 -0.7758
 9009SOL    HW138660   0.399   3.184   2.946 -1.9652  0.6675 -1.0830
 9009SOL    HW238661   0.306   3.228   3.041  0.1561 -0.0727 -0.0521
 9010SOL     OW38662   1.218   3.295   8.972 -0.3251 -0.5639  0.4333
 9010SOL    HW138663   1.198   3.388   8.969 -0.2754 -0.5262  1.1503
 9010SOL    HW238664   1.249   3.301   9.063  1.5835  1.4083 -0.3552
 9011SOL     OW38665   1.564   2.215   2.964  0.3016 -0.3153  0.2777
 9011SOL    HW138666   1.630   2.187   2.901  0.3755  0.8862 -0.1832
 9011SOL    HW238667   1.604   2.193   3.049  1.3457 -1.3461 -0.4812
 9012SOL     OW38668   3.197   1.884  17.554 -0.1337 -0.2861 -0.4527
 9012SOL    HW138669   3.152   1.866  17.472 -0.6403 -2.5509  0.2960
 9012SOL    HW238670   3.286   1.856  17.535 -0.3177 -2.4636  1.8072
 9013SOL     OW38671   3.781   2.081   4.729  0.3433 -0.3781 -0.1160
 9013SOL    HW138672   3.740   2.152   4.680 -0.0834 -1.9485 -2.0230
 9013SOL    HW238673   3.865   2.127   4.739  1.0014 -1.1592 -2.0874
 9014SOL     OW38674   0.223   1.416  10.339 -0.0113  0.1358  0.1384
 9014SOL    HW138675   0.257   1.487  10.393 -0.6663  0.2947  0.3430
 9014SOL    HW238676   0.173   1.470  10.279 -0.4757 -1.2210 -0.6900
 9015SOL     OW38677   4.241   0.785   3.130  0.0292 -0.3776  0.8688
 9015SOL    HW138678   4.221   0.812   3.040  0.6178  1.6279  1.3240
 9015SOL    HW238679   4.291   0.712   3.094  0.9489 -0.3002  2.0007
 9016SOL     OW38680   2.983   2.613   4.804  0.2209  0.2032  0.0941
 9016SOL    HW138681   2.920   2.674   4.844  0.3466 -0.0521  0.6800
 9016SOL    HW238682   2.924   2.564   4.747 -1.5784  0.3814  1.8135
 9017SOL     OW38683   4.066   0.145  16.123 -0.1757  0.1101  0.7576
 9017SOL    HW138684   4.063   0.234  16.157  1.0183  0.5919 -0.3909
 9017SOL    HW238685   4.088   0.158  16.031 -1.3179 -0.9263  0.3432
 9018SOL     OW38686   3.000   0.448   8.366  0.9414  0.0950  0.1752
 9018SOL    HW138687   2.938   0.378   8.385  0.8222  0.0781 -0.2795
 9018SOL    HW238688   3.070   0.416   8.423  0.1047  0.8126  1.5927
 9019SOL     OW38689   2.484   1.050  13.825  0.1114  0.0784  0.5356
 9019SOL    HW138690   2.401   1.094  13.809 -0.5679 -1.2406  0.5046
 9019SOL    HW238691   2.519   1.062  13.737  1.5616  1.1713  1.2624
 9020SOL     OW38692   2.084   4.027   5.029  0.0435  0.1777  0.0686
 9020SOL    HW138693   2.167   4.068   5.050  0.3173 -0.3818  0.0919
 9020SOL    HW238694   2.068   4.000   5.119  1.1296 -0.0217  0.1966
 9021SOL     OW38695   4.488   4.238   2.394 -0.1528 -0.0229 -0.1617
 9021SOL    HW138696   4.499   4.328   2.425  1.6567 -0.4038  0.2926
 9021SOL    HW238697   4.533   4.180   2.455 -1.7705  0.5029  1.5308
 9022SOL     OW38698   2.662   1.894   9.382 -0.0167 -0.1194  0.3396
 9022SOL    HW138699   2.635   1.802   9.387 -0.8289  0.1328  0.6538
 9022SOL    HW238700   2.603   1.931   9.315  0.2468  1.9046  1.2113
 9023SOL     OW38701   1.441   3.741   1.205  0.3821 -0.4279  0.7610
 9023SOL    HW138702   1.396   3.824   1.223 -0.3357 -0.7682  0.5003
 9023SOL    HW238703   1.371   3.681   1.181  0.7742  0.0492 -1.5876
 9024SOL     OW38704   4.280   4.225   4.226 -0.1379 -0.5767 -0.0828
 9024SOL    HW138705   4.342   4.278   4.175  1.5255 -0.1661  2.4078
 9024SOL    HW238706   4.248   4.164   4.159 -1.3164 -0.6773  0.5712
 9025SOL     OW38707   2.255   1.655   7.293 -0.6534 -0.1746 -0.4447
 9025SOL    HW138708   2.262   1.592   7.221 -0.1847  0.7635 -1.2184
 9025SOL    HW238709   2.228   1.611   7.373 -1.3051  1.8070  0.4365
 9026SOL     OW38710   0.696   1.023  10.191 -0.4051  0.0278 -0.5321
 9026SOL    HW138711   0.779   0.980  10.170 -0.0619 -0.2177  1.3300
 9026SOL    HW238712   0.729   1.083  10.258 -1.1040 -0.3625  0.1557
 9027SOL     OW38713   0.790   3.951   2.365 -0.2201  0.2330 -0.2074
 9027SOL    HW138714   0.839   3.950   2.447  0.8771 -0.0170 -0.8655
 9027SOL    HW238715   0.845   3.899   2.307 -2.6119 -0.7342 -1.6130
 9028SOL     OW38716   2.163   4.478   4.818 -0.4378  0.5597  0.8035
 9028SOL    HW138717   2.227   4.543   4.845  0.3220  0.5353 -0.9079
 9028SOL    HW238718   2.166   4.417   4.892  0.9463 -0.8412 -0.3759
 9029SOL     OW38719   0.526   3.319   2.264 -0.2299  0.0859 -0.1854
 9029SOL    HW138720   0.529   3.339   2.170 -1.7552  0.1887 -0.2183
 9029SOL    HW238721   0.436   3.336   2.292  0.2727  1.0526  0.8151
 9030SOL     OW38722   2.918   3.658   3.397 -0.2168  0.1469 -0.0389
 9030SOL    HW138723   2.882   3.657   3.308  1.1713 -1.5485 -0.5827
 9030SOL    HW238724   3.001   3.702   3.378 -0.5944  1.3213  1.0474
 9031SOL     OW38725   2.094   1.472  15.797  0.1235  0.5885 -0.7738
 9031SOL    HW138726   2.030   1.539  15.771 -1.3199 -0.5544 -0.1784
 9031SOL    HW238727   2.074   1.399  15.738 -2.5880 -0.0740  1.0027
 9032SOL     OW38728   1.578   2.469   3.702  0.0481 -0.6130 -0.0362
 9032SOL    HW138729   1.648   2.404   3.708  0.3621 -0.2449  0.2602
 9032SOL    HW238730   1.593   2.507   3.615 -1.0950  0.9346  0.4364
 9033SOL     OW38731   0.725   0.238   7.232  0.2657 -0.1486  0.2559
 9033SOL    HW138732   0.632   0.256   7.217  0.6465  0.1990 -1.6224
 9033SOL    HW238733   0.761   0.301   7.170  1.8260 -0.9838  0.3137
 9034SOL     OW38734   1.984   4.357   1.221  0.0005  0.6598 -0.1850
 9034SOL    HW138735   1.922   4.363   1.148  0.8247  0.2531 -0.9178
 9034SOL    HW238736   2.018   4.272   1.195  0.2416  1.0746 -1.2307
 9035SOL     OW38737   4.028   1.607   8.968 -0.3288  0.4501 -0.7521
 9035SOL    HW138738   4.105   1.628   9.019 -0.7187  0.3443 -0.1213
 9035SOL    HW238739   4.058   1.549   8.898 -0.9886 -0.7038 -0.0781
 9036SOL     OW38740   1.152   0.113   4.425 -0.3140 -0.2206 -0.2323
 9036SOL    HW138741   1.074   0.149   4.384  0.0749 -0.1292 -0.8923
 9036SOL    HW238742   1.115   0.067   4.500 -0.8443 -0.0431 -0.3848
 9037SOL     OW38743   4.366   1.992  16.227  0.0095 -0.1706 -0.5101
 9037SOL    HW138744   4.318   2.029  16.153 -0.3634 -1.1545 -0.7640
 9037SOL    HW238745   4.402   2.068  16.272  2.6665 -3.9084  3.7069
 9038SOL     OW38746   3.707   4.109   7.704 -0.8505 -0.3232 -0.1928
 9038SOL    HW138747   3.619   4.099   7.741  0.5761  0.1444  3.3085
 9038SOL    HW238748   3.699   4.034   7.645 -0.0343 -0.1679 -0.4969
 9039SOL     OW38749   4.317   0.230  16.788  0.0755  0.0612 -0.1362
 9039SOL    HW138750   4.400   0.214  16.833 -0.3977 -0.6495  0.4719
 9039SOL    HW238751   4.286   0.308  16.833  2.1678  1.7074 -1.5440
 9040SOL     OW38752   0.443   1.568   7.618 -0.2148 -0.6091 -0.2100
 9040SOL    HW138753   0.438   1.645   7.674  1.7018  0.8711 -2.0590
 9040SOL    HW238754   0.431   1.491   7.673 -1.3081  0.6341  1.2772
 9041SOL     OW38755   2.198   3.842   7.186 -0.3491 -0.1014  0.4543
 9041SOL    HW138756   2.286   3.805   7.197  0.5198  1.3325 -1.6593
 9041SOL    HW238757   2.176   3.818   7.096 -1.0979  1.7701  0.1189
 9042SOL     OW38758   1.033   0.423   6.959 -0.1720  0.1716  0.2737
 9042SOL    HW138759   1.049   0.392   7.048  1.8039  0.2001 -0.0711
 9042SOL    HW238760   1.029   0.340   6.911  1.0377  1.0500 -1.3581
 9043SOL     OW38761   3.775   2.340   4.961  0.1035  0.6316 -0.3040
 9043SOL    HW138762   3.706   2.405   4.967  0.5185  1.2110 -1.8805
 9043SOL    HW238763   3.739   2.281   4.894 -2.3982 -0.7427  2.2661
 9044SOL     OW38764   2.207   1.298  14.419 -0.1324  0.2455 -0.0262
 9044SOL    HW138765   2.143   1.367  14.436  0.1293  0.0928  1.5559
 9044SOL    HW238766   2.261   1.343  14.354  0.4342 -0.6559 -0.1763
 9045SOL     OW38767   4.244   2.507   3.782  0.0462 -0.2623 -0.3229
 9045SOL    HW138768   4.334   2.540   3.782 -0.4062  0.9185  1.0107
 9045SOL    HW238769   4.235   2.461   3.865 -0.4209 -1.9146 -1.2762
 9046SOL     OW38770   2.882   1.211   9.287  0.4918  0.1219 -0.3851
 9046SOL    HW138771   2.943   1.173   9.224 -1.4259  0.8344 -2.6684
 9046SOL    HW238772   2.822   1.261   9.232 -2.2751 -1.9203  0.7704
 9047SOL     OW38773   1.918   3.766  17.597 -0.2725 -0.1024  0.2500
 9047SOL    HW138774   1.888   3.730  17.514  0.5716  0.1110 -0.1437
 9047SOL    HW238775   1.920   3.860  17.578  2.2845  0.3408  2.5513
 9048SOL     OW38776   0.348   3.884   8.121 -0.0321 -0.1167 -0.5398
 9048SOL    HW138777   0.358   3.791   8.103 -0.8171 -0.2823 -0.0996
 9048SOL    HW238778   0.393   3.893   8.205  1.5298  0.1189 -1.4086
 9049SOL     OW38779   2.388   2.212  14.382  0.2019 -0.1211 -0.1111
 9049SOL    HW138780   2.296   2.238  14.389  0.5225  1.6751 -2.5739
 9049SOL    HW238781   2.428   2.264  14.452 -2.1535  2.7400 -0.8831
 9050SOL     OW38782   1.003   2.508   6.614  0.1396  0.1535 -0.3509
 9050SOL    HW138783   1.008   2.482   6.706  2.5075  0.3554 -0.4071
 9050SOL    HW238784   1.083   2.561   6.607  1.8858 -2.5681 -0.8339
 9051SOL     OW38785   0.683   0.718   5.824 -0.5444 -0.2602 -0.4126
 9051SOL    HW138786   0.709   0.635   5.783 -1.0982 -1.0560  0.8676
 9051SOL    HW238787   0.717   0.771   5.752  2.2977 -2.5073 -0.7282
 9052SOL     OW38788   1.428   1.350   4.762 -0.0507 -0.5247 -0.1156
 9052SOL    HW138789   1.441   1.438   4.727 -2.1227  0.5320  1.7671
 9052SOL    HW238790   1.362   1.355   4.832  0.0287 -0.6422 -0.0332
 9053SOL     OW38791   0.081   4.665  17.216  0.2736 -0.1622  0.0418
 9053SOL    HW138792   0.056   4.574  17.233 -1.9780  0.2176 -1.2207
 9053SOL    HW238793   0.096   4.663  17.122 -1.6081  1.5366 -0.2894
 9054SOL     OW38794   1.104   0.032   0.853 -0.2617 -0.1250  0.2486
 9054SOL    HW138795   1.110   4.678   0.849  0.5672 -0.1339  1.7777
 9054SOL    HW238796   1.056   0.045   0.771  0.3609 -2.5291 -0.5040
 9055SOL     OW38797   3.931   2.807   3.700 -0.0941 -0.8076  0.1590
 9055SOL    HW138798   4.007   2.757   3.671 -0.5206 -0.4269 -1.5980
 9055SOL    HW238799   3.873   2.834   3.629  1.5979 -0.2095 -0.9985
 9056SOL     OW38800   3.009   3.354   6.190  0.4171  0.4300 -0.1717
 9056SOL    HW138801   3.002   3.260   6.203 -0.4208  0.5581  0.2618
 9056SOL    HW238802   3.011   3.360   6.094 -0.2148  0.0718 -0.2057
 9057SOL     OW38803   1.848   1.919  11.991  0.4101  0.1508  0.5298
 9057SOL    HW138804   1.766   1.876  12.015 -0.3304  0.3990 -1.5596
 9057SOL    HW238805   1.823   1.979  11.921 -1.2277  2.8392  3.3909
 9058SOL     OW38806   2.063   3.070  10.487 -0.4018  0.1728  0.1587
 9058SOL    HW138807   2.129   3.140  10.480  1.1421 -1.3953 -0.9956
 9058SOL    HW238808   1.998   3.101  10.424 -0.5974 -2.5934 -0.9828
 9059SOL     OW38809   2.287   3.860   7.805  0.0457  0.4300  0.2275
 9059SOL    HW138810   2.227   3.806   7.856 -0.7150 -0.2462 -1.3965
 9059SOL    HW238811   2.306   3.806   7.728 -1.8068  0.1426 -0.0229
 9060SOL     OW38812   3.415   4.669   2.177 -0.7970 -0.0127  0.0284
 9060SOL    HW138813   3.374   4.675   2.264  1.8691  0.7945  1.2170
 9060SOL    HW238814   3.374   4.585   2.159 -0.5791 -0.3182  0.9486
 9061SOL     OW38815   3.629   1.074  15.007 -0.1160 -0.3758  0.0031
 9061SOL    HW138816   3.555   1.024  14.972 -2.4251  2.8218  0.3298
 9061SOL    HW238817   3.618   1.153  14.954 -2.2936 -1.8046 -1.6675
 9062SOL     OW38818   1.975   1.270   7.210  0.1386  0.4463  0.0822
 9062SOL    HW138819   1.961   1.257   7.303  0.3949 -1.1949 -0.1119
 9062SOL    HW238820   1.884   1.276   7.181  0.5016 -0.5484 -1.2411
 9063SOL     OW38821   0.752   1.294   5.358 -0.1247 -0.4333 -0.0561
 9063SOL    HW138822   0.776   1.385   5.377  1.5896 -0.6363 -1.1913
 9063SOL    HW238823   0.706   1.310   5.275 -1.6679  0.4596  0.9707
 9064SOL     OW38824   0.977   4.048   9.499 -1.0193 -0.3415  0.0378
 9064SOL    HW138825   0.886   4.072   9.516 -1.2769 -1.6382  0.4685
 9064SOL    HW238826   1.034   4.118   9.528  1.6800 -1.7583 -1.8586
 9065SOL     OW38827   0.716   3.450  11.740 -0.6984 -0.2048 -0.8304
 9065SOL    HW138828   0.722   3.536  11.782 -1.0958 -1.0837  1.0385
 9065SOL    HW238829   0.718   3.386  11.812 -0.2365  0.6888 -0.0459
 9066SOL     OW38830   3.683   2.363   5.268 -0.1313 -0.1534 -0.0342
 9066SOL    HW138831   3.759   2.373   5.210  1.3202  1.0682  2.1028
 9066SOL    HW238832   3.689   2.273   5.300  0.7124  0.2996  1.0827
 9067SOL     OW38833   1.879   4.050   1.139  0.0929  0.4392  0.4421
 9067SOL    HW138834   1.871   4.127   1.083 -0.4356 -0.4110 -0.6371
 9067SOL    HW238835   1.803   3.995   1.118  0.3779  0.5833 -0.9650
 9068SOL     OW38836   3.451   2.407   2.312  0.3520  0.1824  0.3000
 9068SOL    HW138837   3.417   2.369   2.231  0.8777  1.0685 -0.3412
 9068SOL    HW238838   3.502   2.336   2.351  0.4666 -0.8674 -1.7723
 9069SOL     OW38839   2.682   2.793  10.202  0.2903  0.4933 -0.1645
 9069SOL    HW138840   2.617   2.724  10.194  1.5214 -0.3143 -3.2571
 9069SOL    HW238841   2.765   2.745  10.193 -0.9334 -1.4544 -1.0059
 9070SOL     OW38842   2.102   1.071   7.094 -0.2417  0.4212 -0.3629
 9070SOL    HW138843   2.075   1.143   7.150 -0.7990  1.2299 -1.6828
 9070SOL    HW238844   2.037   1.004   7.115 -2.3463  2.7663  0.4342
 9071SOL     OW38845   2.413   0.831  13.170  0.6922 -0.4117  0.3129
 9071SOL    HW138846   2.323   0.857  13.148  0.9164  1.8793  2.1136
 9071SOL    HW238847   2.405   0.795  13.258 -0.8147 -0.5365  0.1317
 9072SOL     OW38848   4.237   0.970  10.164 -0.4516  1.0006  0.2943
 9072SOL    HW138849   4.269   1.016  10.086 -0.0476  0.2584  0.0264
 9072SOL    HW238850   4.157   0.933  10.128 -0.1337  1.4821 -0.8955
 9073SOL     OW38851   2.643   2.096   8.816 -0.2417  0.1057  0.9047
 9073SOL    HW138852   2.624   2.179   8.773  0.1671 -0.2717 -0.0083
 9073SOL    HW238853   2.562   2.045   8.808 -0.8842  1.5301 -1.4788
 9074SOL     OW38854   2.337   3.018   9.770 -0.0663 -0.2563 -0.1003
 9074SOL    HW138855   2.261   3.069   9.795 -0.0997  0.2466 -1.2657
 9074SOL    HW238856   2.373   2.995   9.856 -2.3213 -0.8627  0.6865
 9075SOL     OW38857   3.794   2.342   9.556 -0.4925  0.7036  0.3044
 9075SOL    HW138858   3.822   2.285   9.485 -0.2386 -0.2263  1.1605
 9075SOL    HW238859   3.874   2.330   9.607  0.8291  2.8379 -1.2693
 9076SOL     OW38860   1.075   4.330   5.308 -0.8807  0.0455 -0.8572
 9076SOL    HW138861   0.991   4.358   5.346 -0.9518  0.6858 -1.4956
 9076SOL    HW238862   1.088   4.249   5.358  0.3715 -0.8167 -2.6250
 9077SOL     OW38863   0.453   4.041   2.291 -0.2897  0.1548 -1.1442
 9077SOL    HW138864   0.475   4.076   2.377  2.3515 -0.0537 -1.7273
 9077SOL    HW238865   0.359   4.058   2.286 -0.2195  1.1622  1.0586
 9078SOL     OW38866   0.955   0.940   4.873 -0.5084  0.4124 -0.3451
 9078SOL    HW138867   0.959   0.947   4.777 -0.7570  3.6292 -0.1117
 9078SOL    HW238868   0.873   0.893   4.884 -0.5103 -0.2931 -3.4202
 9079SOL     OW38869   1.292   2.189   8.509 -0.4467  0.3317  0.3496
 9079SOL    HW138870   1.225   2.139   8.463 -1.3405  1.9299 -0.0815
 9079SOL    HW238871   1.307   2.269   8.460  0.7535  1.1802  2.0807
 9080SOL     OW38872   0.279   0.025  11.324  0.6420 -0.0886  0.4002
 9080SOL    HW138873   0.191   0.023  11.362 -0.1261  1.4367 -1.2804
 9080SOL    HW238874   0.328   4.735  11.400  2.0426  2.1196  0.4239
 9081SOL     OW38875   2.345   2.734   7.464  0.2925  0.0772  0.2464
 9081SOL    HW138876   2.407   2.806   7.453 -0.7416  0.7818 -1.1277
 9081SOL    HW238877   2.257   2.771   7.457  0.3446  0.0797 -0.4158
 9082SOL     OW38878   0.794   1.202  10.378  0.4571 -0.2575 -0.0968
 9082SOL    HW138879   0.778   1.224  10.470  2.4002  3.1784 -0.6164
 9082SOL    HW238880   0.889   1.208  10.371  0.5354  0.7939  2.1163
 9083SOL     OW38881   4.654   0.732  15.140  0.4053 -0.8471 -0.3974
 9083SOL    HW138882   4.604   0.723  15.222  2.4139 -0.9262  0.8205
 9083SOL    HW238883   4.741   0.697  15.158  0.4382 -1.4121 -1.7139
 9084SOL     OW38884   0.538   0.471   9.727 -0.0401 -0.2140  0.0464
 9084SOL    HW138885   0.623   0.499   9.693  0.5470 -0.7883  1.0345
 9084SOL    HW238886   0.530   0.535   9.798  0.5017  0.3584 -0.4094
 9085SOL     OW38887   2.131   0.823  10.976 -0.5482 -0.3664 -0.0172
 9085SOL    HW138888   2.052   0.828  11.030  0.4621 -0.2343  1.4713
 9085SOL    HW238889   2.132   0.913  10.943 -1.2179 -0.0803  0.7530
 9086SOL     OW38890   2.253   3.628   2.238  0.6322  0.3586  1.4319
 9086SOL    HW138891   2.164   3.657   2.218  1.1165  0.8769  0.0179
 9086SOL    HW238892   2.305   3.707   2.230 -0.4139  1.1025  1.9163
 9087SOL     OW38893   0.898   4.579   6.733  0.0116  0.1766 -0.2111
 9087SOL    HW138894   0.970   4.547   6.788 -0.0068 -1.1626 -0.9533
 9087SOL    HW238895   0.862   4.651   6.784 -1.7384 -0.9582  0.1287
 9088SOL     OW38896   3.551   3.502   2.983  0.2009  0.0994 -0.3636
 9088SOL    HW138897   3.566   3.518   2.889  2.2630  0.2404 -0.0058
 9088SOL    HW238898   3.608   3.568   3.022  0.2354 -1.2203  1.7757
 9089SOL     OW38899   3.862   2.648   3.484 -0.0562  0.0218 -0.2056
 9089SOL    HW138900   3.956   2.646   3.500 -0.0713  1.8822  0.1791
 9089SOL    HW238901   3.840   2.560   3.455  0.9242  0.3959 -2.1257
 9090SOL     OW38902   3.936   1.543  10.019 -0.0864  0.4831  0.0601
 9090SOL    HW138903   3.881   1.621  10.023  0.9385  1.2382 -0.5949
 9090SOL    HW238904   3.891   1.496   9.949 -1.6716  4.4051 -1.5822
 9091SOL     OW38905   0.345   1.801   2.969 -0.2662 -0.8461  0.2810
 9091SOL    HW138906   0.394   1.719   2.954  0.8964 -0.4892  2.0752
 9091SOL    HW238907   0.412   1.864   2.942  0.8973 -2.5359 -0.8352
 9092SOL     OW38908   2.470   4.625   1.696  0.0221 -0.0713 -0.0669
 9092SOL    HW138909   2.518   4.678   1.632 -0.6710 -0.3346 -0.8154
 9092SOL    HW238910   2.378   4.632   1.671 -0.2221  0.6799  1.0712
 9093SOL     OW38911   2.061   4.257   3.938  0.0057 -0.1467  0.2748
 9093SOL    HW138912   2.028   4.329   3.885  0.5313  1.8601  2.6949
 9093SOL    HW238913   2.126   4.301   3.992  0.7553  1.2007 -1.7099
 9094SOL     OW38914   2.769   2.098  16.805  0.5907 -0.2100 -0.5371
 9094SOL    HW138915   2.708   2.171  16.793 -0.8338 -1.2117  0.6886
 9094SOL    HW238916   2.790   2.081  16.713  0.8198 -2.3079 -0.0822
 9095SOL     OW38917   3.316   4.092   3.579  0.2528  0.0061 -0.4887
 9095SOL    HW138918   3.357   4.059   3.658  0.8953 -0.1099 -0.8765
 9095SOL    HW238919   3.224   4.075   3.603  0.1495  2.4286  0.9095
 9096SOL     OW38920   1.647   3.319   2.716  0.0907 -0.1644 -0.8734
 9096SOL    HW138921   1.572   3.259   2.722 -1.0150  1.3283  0.1753
 9096SOL    HW238922   1.716   3.270   2.761 -0.8082 -0.7009 -0.0766
 9097SOL     OW38923   3.012   1.913   5.856 -0.0715  0.5367  0.0930
 9097SOL    HW138924   3.088   1.949   5.810 -0.1312  1.1237  0.4507
 9097SOL    HW238925   3.024   1.820   5.837  0.7489  0.6575  0.0447
 9098SOL     OW38926   1.815   2.386   9.145  0.5132 -0.0718  0.5452
 9098SOL    HW138927   1.804   2.345   9.231 -0.3897  2.8859  1.8572
 9098SOL    HW238928   1.816   2.307   9.091  0.2634  1.4799 -1.7023
 9099SOL     OW38929   3.165   2.521   5.855 -0.4901 -0.1075 -0.2344
 9099SOL    HW138930   3.222   2.546   5.928  0.6602 -0.6191 -0.9492
 9099SOL    HW238931   3.127   2.606   5.831  0.3371  0.4768  0.5129
 9100SOL     OW38932   4.632   1.805  10.153  0.0157 -0.4453 -0.0876
 9100SOL    HW138933   4.656   1.783  10.063  1.0448 -1.6222  0.4702
 9100SOL    HW238934   4.544   1.843  10.153  1.0266  1.8233  0.5203
 9101SOL     OW38935   1.543   2.420   6.573  0.1568 -0.2040  0.2378
 9101SOL    HW138936   1.591   2.338   6.588  1.4377  0.3033 -1.1380
 9101SOL    HW238937   1.460   2.391   6.534  0.4438 -0.0382 -0.4966
 9102SOL     OW38938   4.521   3.284   2.819  0.5429  0.5142 -0.1877
 9102SOL    HW138939   4.600   3.328   2.851  0.2999  1.5575 -1.0350
 9102SOL    HW238940   4.531   3.208   2.876 -3.1886 -0.4171 -0.7912
 9103SOL     OW38941   4.132   1.023  10.457 -0.1663 -0.1838  0.0839
 9103SOL    HW138942   4.170   1.013  10.370  1.6595 -0.0656  0.8856
 9103SOL    HW238943   4.050   1.062  10.425 -0.6693 -0.8630  0.5408
 9104SOL     OW38944   1.208   2.694   1.390 -0.6643 -0.6615  0.0588
 9104SOL    HW138945   1.298   2.708   1.420 -0.9795  0.9000  0.2625
 9104SOL    HW238946   1.197   2.604   1.422  2.3590 -0.8967  0.4772
 9105SOL     OW38947   2.876   3.869   5.724  0.2405  1.0707 -0.1838
 9105SOL    HW138948   2.884   3.962   5.748 -0.2111  0.5057  2.1436
 9105SOL    HW238949   2.928   3.822   5.789 -0.6780  0.0749 -0.1867
 9106SOL     OW38950   2.011   4.389   7.980 -0.4951 -0.2820 -0.5273
 9106SOL    HW138951   1.959   4.330   7.925 -1.4669  2.4450 -2.4934
 9106SOL    HW238952   2.010   4.478   7.945  0.5652  0.6644  1.8328
 9107SOL     OW38953   2.803   4.341   3.533 -0.1455  0.2949  0.6658
 9107SOL    HW138954   2.733   4.354   3.469  0.5298 -0.7119 -0.2748
 9107SOL    HW238955   2.767   4.394   3.603  0.8418  0.9792  0.6482
 9108SOL     OW38956   3.813   4.585  14.402 -0.3403  0.1938 -0.0340
 9108SOL    HW138957   3.890   4.624  14.361 -0.5103  0.8813  0.3098
 9108SOL    HW238958   3.746   4.608  14.338  1.5113  1.2456 -1.5781
 9109SOL     OW38959   4.735   1.459  17.556 -0.3011 -0.4286 -0.5856
 9109SOL    HW138960   4.666   1.432  17.495  0.5312  0.3380 -1.8699
 9109SOL    HW238961   0.045   1.511  17.493  0.4586 -0.8160 -0.2948
 9110SOL     OW38962   0.579   3.303   6.016  0.7239  0.3145 -0.3261
 9110SOL    HW138963   0.670   3.291   6.045  0.7606  0.4368 -0.3924
 9110SOL    HW238964   0.592   3.387   5.973 -2.3226  2.0022  2.0907
 9111SOL     OW38965   1.030   4.005   8.507  0.5177 -0.0071 -0.1911
 9111SOL    HW138966   0.938   3.984   8.522  0.5177  0.8552  0.9859
 9111SOL    HW238967   1.061   3.916   8.488  2.0272  0.7517 -1.2573
 9112SOL     OW38968   2.015   3.399   8.203 -0.2611 -0.1798 -0.1777
 9112SOL    HW138969   1.936   3.404   8.256 -0.6560  1.2088 -0.9045
 9112SOL    HW238970   2.009   3.303   8.207 -1.8308 -0.0291  0.8894
 9113SOL     OW38971   1.981   4.621   4.639  0.2914 -0.5218 -0.1479
 9113SOL    HW138972   2.028   4.572   4.706 -2.8511 -1.5510  1.2962
 9113SOL    HW238973   1.903   4.566   4.628 -0.5213  0.7948 -0.9144
 9114SOL     OW38974   0.130   1.500   2.801  0.0270 -0.1216 -0.1351
 9114SOL    HW138975   0.074   1.575   2.822 -0.3764 -0.4223 -0.1235
 9114SOL    HW238976   0.135   1.475   2.893  0.0492  0.0406 -0.0934
 9115SOL     OW38977   4.617   1.682  14.721  0.3619 -0.5363  0.1123
 9115SOL    HW138978   4.636   1.605  14.775  0.1933 -0.3562  0.4276
 9115SOL    HW238979   4.543   1.719  14.769 -1.2207 -0.5206 -2.3184
 9116SOL     OW38980   3.118   2.078  14.416 -0.6397 -0.9772 -0.6661
 9116SOL    HW138981   3.148   2.168  14.424 -0.6778 -0.9703 -0.6013
 9116SOL    HW238982   3.196   2.036  14.379 -0.0349  0.2311 -0.7500
 9117SOL     OW38983   4.581   4.542   9.229 -0.0731  0.4672  0.6784
 9117SOL    HW138984   4.527   4.462   9.226 -1.0924  1.1757 -0.0231
 9117SOL    HW238985   4.663   4.493   9.225 -0.1886  0.2663  0.7635
 9118SOL     OW38986   3.923   2.392   8.626  0.0622  0.0652  0.1388
 9118SOL    HW138987   3.834   2.416   8.653 -0.5404 -0.2262 -1.5708
 9118SOL    HW238988   3.961   2.388   8.713  0.1805 -0.3822  0.0654
 9119SOL     OW38989   0.287   2.132   5.017  0.4287 -1.0757  0.0319
 9119SOL    HW138990   0.216   2.196   5.015  0.7614 -0.7665 -1.9259
 9119SOL    HW238991   0.296   2.100   5.107  0.2202  1.1472  0.8313
 9120SOL     OW38992   4.488   1.880   4.200 -0.3844  0.3245  0.0535
 9120SOL    HW138993   4.484   1.801   4.145 -1.6607  0.8174 -0.5582
 9120SOL    HW238994   4.579   1.868   4.226  0.1086  1.1887 -1.2570
 9121SOL     OW38995   0.734   0.414   6.046 -0.1571 -0.2619  0.1625
 9121SOL    HW138996   0.822   0.427   6.082  0.6365  1.7167 -2.4918
 9121SOL    HW238997   0.715   0.324   6.070 -3.1190  0.1634 -0.6027
 9122SOL     OW38998   2.438   1.324   2.683 -0.1029  0.4858  0.0734
 9122SOL    HW138999   2.414   1.233   2.702  0.0813  0.7486  1.5616
 9122SOL    HW239000   2.521   1.311   2.728  0.1692 -1.4022 -0.9818
 9123SOL     OW39001   3.979   2.830   1.421  0.5425  0.0479 -0.1041
 9123SOL    HW139002   3.999   2.791   1.337  0.9565  0.1412 -0.0466
 9123SOL    HW239003   3.901   2.780   1.445  1.7063 -1.3136  0.8129
 9124SOL     OW39004   0.730   3.501   8.845  0.2264 -0.0772 -0.2498
 9124SOL    HW139005   0.657   3.520   8.905 -0.3484 -0.4346 -0.8325
 9124SOL    HW239006   0.764   3.585   8.814  2.3762 -1.1315 -0.7579
 9125SOL     OW39007   1.615   0.372   3.034 -0.2556 -0.5989  0.4973
 9125SOL    HW139008   1.559   0.416   3.098 -0.9640  0.0627 -0.5763
 9125SOL    HW239009   1.570   0.402   2.955  1.9903  1.4890  0.0150
 9126SOL     OW39010   2.709   3.713   5.565  0.3269 -0.4131  0.0187
 9126SOL    HW139011   2.726   3.744   5.476 -1.3574 -2.1124 -0.8913
 9126SOL    HW239012   2.762   3.778   5.612 -0.7806  1.7428 -1.7212
 9127SOL     OW39013   2.005   0.661   2.260  0.5455 -0.3675 -0.3887
 9127SOL    HW139014   1.997   0.662   2.356  1.8310 -0.1949 -0.2866
 9127SOL    HW239015   1.915   0.670   2.228 -0.6926 -0.6377  2.9130
 9128SOL     OW39016   1.543   4.150   2.039 -0.1300 -0.5338 -0.6787
 9128SOL    HW139017   1.493   4.192   2.109  1.3936  1.0260 -0.5243
 9128SOL    HW239018   1.534   4.058   2.065  1.6291 -0.4378  0.3158
 9129SOL     OW39019   2.351   2.268  13.136 -0.0697 -0.7950  0.5618
 9129SOL    HW139020   2.303   2.189  13.158 -1.5068  0.5325  2.2022
 9129SOL    HW239021   2.349   2.314  13.220 -0.7102  0.3367 -0.0681
 9130SOL     OW39022   2.401   1.472   2.462  0.0422 -0.2900 -0.3685
 9130SOL    HW139023   2.370   1.555   2.498  2.0232  0.2701  0.0617
 9130SOL    HW239024   2.414   1.418   2.540 -1.1711 -2.0777 -1.4086
 9131SOL     OW39025   4.148   1.025   7.484 -0.2259 -0.1219 -0.2212
 9131SOL    HW139026   4.159   0.982   7.569  1.5376  0.1732 -0.2999
 9131SOL    HW239027   4.186   0.963   7.421  0.5467  0.3892 -0.2627
 9132SOL     OW39028   1.280   4.198  14.184  0.6171  0.3039  0.3300
 9132SOL    HW139029   1.322   4.283  14.170  1.0291 -0.3223 -2.1604
 9132SOL    HW239030   1.354   4.140  14.167 -0.2180 -0.6495 -0.0427
 9133SOL     OW39031   4.327   2.417   7.690  0.2414  0.0883 -0.3654
 9133SOL    HW139032   4.279   2.499   7.699  1.0651  0.6396 -1.0474
 9133SOL    HW239033   4.304   2.361   7.764  0.5165 -0.1079 -0.4273
 9134SOL     OW39034   0.867   3.874   7.363 -0.0693 -0.9461 -0.2463
 9134SOL    HW139035   0.786   3.867   7.413 -1.1400 -0.6178 -1.9226
 9134SOL    HW239036   0.857   3.964   7.332  0.6618 -1.5258 -2.1648
 9135SOL     OW39037   0.982   3.390   8.821  0.8758 -0.4778  0.3119
 9135SOL    HW139038   0.893   3.399   8.855 -0.1913 -1.9891 -2.1573
 9135SOL    HW239039   1.025   3.447   8.885  0.2481 -0.8116  1.0355
 9136SOL     OW39040   3.116   1.748   2.973  0.3862  0.7083 -0.1406
 9136SOL    HW139041   3.083   1.670   2.926 -2.6133  0.9534  1.5722
 9136SOL    HW239042   3.089   1.737   3.064 -0.2591  0.8492 -0.3178
 9137SOL     OW39043   4.293   3.243   8.452 -0.3392  0.4620  0.2420
 9137SOL    HW139044   4.313   3.277   8.365  2.6389  2.2930  1.6396
 9137SOL    HW239045   4.328   3.317   8.502  2.1315 -1.5124  1.4586
 9138SOL     OW39046   4.349   3.328   7.036 -0.2746  0.3690 -0.5361
 9138SOL    HW139047   4.381   3.275   6.963  0.8082  0.2302  0.0450
 9138SOL    HW239048   4.346   3.265   7.108 -2.0521  1.7880  0.6289
 9139SOL     OW39049   1.902   1.940   6.909  0.1877 -0.1806  0.2826
 9139SOL    HW139050   1.851   1.888   6.847 -1.6299  1.5834  0.2646
 9139SOL    HW239051   1.945   1.876   6.965 -1.6325 -0.3179  1.5228
 9140SOL     OW39052   4.218   2.781   8.694 -0.2339 -0.5135  0.7314
 9140SOL    HW139053   4.304   2.779   8.736 -0.6250  2.3120  1.6532
 9140SOL    HW239054   4.226   2.859   8.639 -1.8834 -0.5423  0.4458
 9141SOL     OW39055   0.166   2.820  10.295  0.3877 -1.0635 -0.3037
 9141SOL    HW139056   0.227   2.757  10.257  0.3429 -1.4599  0.2720
 9141SOL    HW239057   0.143   2.774  10.376  0.4407 -1.5748 -0.5816
 9142SOL     OW39058   1.321   4.109   2.723 -0.3385  0.3076  0.9838
 9142SOL    HW139059   1.312   4.092   2.817 -0.6281 -1.0251  0.7158
 9142SOL    HW239060   1.410   4.081   2.700 -0.2734  2.8844 -1.9041
 9143SOL     OW39061   3.534   3.195   4.096 -0.3807  0.0691 -0.0454
 9143SOL    HW139062   3.628   3.202   4.115  0.0186  0.5874 -2.2346
 9143SOL    HW239063   3.532   3.105   4.064  0.3243 -0.3600  1.1246
 9144SOL     OW39064   1.362   3.551   2.083  0.2725  0.0162  0.1642
 9144SOL    HW139065   1.422   3.538   2.157 -0.1177  1.8105  0.7968
 9144SOL    HW239066   1.416   3.536   2.006  0.4706 -0.1779  0.3403
 9145SOL     OW39067   3.177   2.202   2.538 -0.8076  0.2255 -0.0021
 9145SOL    HW139068   3.202   2.110   2.534 -0.5234  0.3411 -0.7760
 9145SOL    HW239069   3.108   2.198   2.604 -1.2996 -2.6065 -0.6835
 9146SOL     OW39070   3.238   1.897  16.674 -0.3494 -0.0687  0.2667
 9146SOL    HW139071   3.220   1.832  16.742  0.2239 -0.3276  0.1765
 9146SOL    HW239072   3.165   1.880  16.615 -0.6249  0.6686  0.4003
 9147SOL     OW39073   3.642   3.011  10.238  0.1234  0.1000 -0.0687
 9147SOL    HW139074   3.727   3.000  10.282 -0.4820 -2.1087  0.5174
 9147SOL    HW239075   3.614   2.921  10.248  1.8682 -0.4443 -0.0828
 9148SOL     OW39076   0.816   4.223  10.719  0.3975 -0.8538  0.2376
 9148SOL    HW139077   0.730   4.221  10.762  0.7753  1.8696  1.0853
 9148SOL    HW239078   0.788   4.197  10.631 -0.3368  2.4442 -0.4957
 9149SOL     OW39079   2.541   2.907   7.611  0.0966 -0.5561  0.1779
 9149SOL    HW139080   2.594   2.907   7.691 -0.4153 -0.3834  0.5192
 9149SOL    HW239081   2.615   2.931   7.555  0.3120 -0.4875  0.4919
 9150SOL     OW39082   0.347   1.516   3.361  0.1305  0.2848  0.4370
 9150SOL    HW139083   0.319   1.425   3.356 -0.8598  0.7578 -2.6308
 9150SOL    HW239084   0.419   1.523   3.299  0.2601  4.0271  1.0023
 9151SOL     OW39085   1.044   0.327   7.200  0.1306 -0.6227 -0.0695
 9151SOL    HW139086   1.092   0.257   7.244 -1.6216 -0.9593  1.2932
 9151SOL    HW239087   1.031   0.378   7.280 -1.2700  0.1630 -0.7922
 9152SOL     OW39088   3.877   0.436  13.697  0.0235  0.1647  0.0700
 9152SOL    HW139089   3.835   0.369  13.643 -2.1026  2.5582 -1.2517
 9152SOL    HW239090   3.890   0.503  13.630  3.9735 -1.6107 -0.9574
 9153SOL     OW39091   1.481   2.804  13.858  0.0819  0.1879  0.1756
 9153SOL    HW139092   1.500   2.822  13.766  1.5142 -0.6934  0.2963
 9153SOL    HW239093   1.541   2.734  13.883 -0.9982 -0.6419  0.4466
 9154SOL     OW39094   3.746   1.886   8.468  0.1123  1.0914 -0.2051
 9154SOL    HW139095   3.679   1.886   8.400 -0.3487  1.6567  0.2516
 9154SOL    HW239096   3.772   1.793   8.466 -2.1268  0.4551  0.0603
 9155SOL     OW39097   4.307   4.466   0.341  0.2095 -0.1478  0.2756
 9155SOL    HW139098   4.367   4.514   0.398 -2.2808 -0.5159  3.2007
 9155SOL    HW239099   4.265   4.402   0.398 -1.4675  1.3449  0.7233
 9156SOL     OW39100   3.676   3.092   1.272  0.0760 -0.1345 -0.7190
 9156SOL    HW139101   3.613   3.047   1.328 -0.1021  2.5951  1.3141
 9156SOL    HW239102   3.631   3.068   1.192  0.1315  0.1635 -0.8406
 9157SOL     OW39103   2.766   2.414   2.378  0.1438 -0.1940  0.4314
 9157SOL    HW139104   2.676   2.380   2.380  0.2222 -0.6223 -3.3285
 9157SOL    HW239105   2.794   2.424   2.469 -0.8768  0.7295  0.6399
 9158SOL     OW39106   2.044   0.416   3.271  0.2044 -0.2836  0.0853
 9158SOL    HW139107   2.117   0.391   3.329  1.0475  2.9503  0.3915
 9158SOL    HW239108   2.029   0.502   3.311  1.0940 -0.2445  0.3452
 9159SOL     OW39109   3.846   2.117  10.521  0.2630 -0.3174 -0.3099
 9159SOL    HW139110   3.933   2.154  10.506  0.0196  0.4282  0.0915
 9159SOL    HW239111   3.841   2.061  10.444  0.3361 -1.1806  0.3210
 9160SOL     OW39112   0.474   0.794   5.990  0.1197 -0.1000 -0.0190
 9160SOL    HW139113   0.509   0.874   6.030  0.8601 -0.2237 -0.4184
 9160SOL    HW239114   0.542   0.770   5.927  1.6997  1.7812  0.9321
 9161SOL     OW39115   4.045   0.391   2.838  0.5186  0.0764 -0.8524
 9161SOL    HW139116   4.140   0.380   2.844  0.1043 -2.1495  1.6208
 9161SOL    HW239117   4.041   0.422   2.748 -0.5304 -0.8801 -1.1386
 9162SOL     OW39118   1.030   1.282   2.778 -0.6033  0.6879  0.0599
 9162SOL    HW139119   1.061   1.196   2.751 -0.7855 -0.0567  2.2626
 9162SOL    HW239120   1.070   1.284   2.865 -0.4616  1.4209 -0.0198
 9163SOL     OW39121   2.108   2.511   5.426 -0.5262 -0.1963  0.4759
 9163SOL    HW139122   2.108   2.585   5.487  3.4992  1.9623 -2.1202
 9163SOL    HW239123   2.027   2.462   5.441 -0.5138 -1.0279 -2.2112
 9164SOL     OW39124   1.378   2.733   6.985  0.2449  0.4950  0.3418
 9164SOL    HW139125   1.377   2.773   7.072 -2.0018 -0.0963  0.6085
 9164SOL    HW239126   1.365   2.638   6.995  0.9826  0.2289 -1.3128
 9165SOL     OW39127   0.689   3.613   6.325 -0.0955 -0.1943 -0.4713
 9165SOL    HW139128   0.721   3.687   6.376  1.4131 -0.5889 -0.8229
 9165SOL    HW239129   0.670   3.650   6.239 -1.0863  1.0839  0.2984
 9166SOL     OW39130   0.267   4.245  13.319 -0.4891  0.2575 -0.0319
 9166SOL    HW139131   0.236   4.336  13.314 -1.1923 -0.1070 -2.4784
 9166SOL    HW239132   0.303   4.223  13.233  0.2463  1.5612 -0.0619
 9167SOL     OW39133   1.602   4.585   4.135  0.6700 -0.2390  0.3857
 9167SOL    HW139134   1.628   4.666   4.178 -0.6839 -0.1797  1.0813
 9167SOL    HW239135   1.509   4.589   4.154  0.3251 -2.7163 -0.7194
 9168SOL     OW39136   2.701   0.952   9.094 -0.1164  0.3363 -0.3749
 9168SOL    HW139137   2.726   1.013   9.025 -0.1620  0.9983  0.1937
 9168SOL    HW239138   2.686   1.005   9.172 -0.2890 -0.1336 -0.0874
 9169SOL     OW39139   2.824   2.239   4.198  0.7539 -0.3617 -0.1784
 9169SOL    HW139140   2.864   2.154   4.179  1.9834 -0.1740  1.5955
 9169SOL    HW239141   2.757   2.240   4.129  0.6836  4.3159 -0.0260
 9170SOL     OW39142   1.846   3.624   5.474 -0.6153 -0.1501  0.1258
 9170SOL    HW139143   1.763   3.628   5.426  0.0208  0.3414 -0.9262
 9170SOL    HW239144   1.809   3.651   5.558  0.4550 -2.2900  1.2874
 9171SOL     OW39145   0.239   3.615   9.732  0.3227  0.0511  0.4750
 9171SOL    HW139146   0.230   3.660   9.815 -1.3938  0.6815 -0.0757
 9171SOL    HW239147   0.149   3.600   9.705  1.0999  0.3199 -2.3136
 9172SOL     OW39148   2.754   3.457   6.475 -0.1853  0.3034 -0.4466
 9172SOL    HW139149   2.786   3.508   6.401 -1.1177 -1.8831 -2.3701
 9172SOL    HW239150   2.792   3.511   6.544 -3.7407 -0.8683  2.4128
 9173SOL     OW39151   2.812   2.148  11.022  0.0325  0.1299  0.1690
 9173SOL    HW139152   2.741   2.210  11.004 -1.0601 -1.1227  0.1453
 9173SOL    HW239153   2.813   2.102  10.939  0.3681  0.5590 -0.0644
 9174SOL     OW39154   2.981   0.527   5.374  0.4109 -0.2614 -0.2633
 9174SOL    HW139155   2.967   0.599   5.313 -0.5232  0.9543  1.3963
 9174SOL    HW239156   2.906   0.537   5.433  1.0763 -0.3317  0.5922
 9175SOL     OW39157   1.814   0.313   5.777  0.4332  0.4033 -0.2305
 9175SOL    HW139158   1.791   0.402   5.750 -1.1393  0.2263  0.4865
 9175SOL    HW239159   1.823   0.268   5.693 -2.2316  3.7607 -2.3404
 9176SOL     OW39160   3.530   3.608   8.648  0.0479  0.0135 -0.3235
 9176SOL    HW139161   3.580   3.529   8.670  0.0947 -0.2087 -1.2261
 9176SOL    HW239162   3.597   3.676   8.649  0.5957 -0.5434  1.7714
 9177SOL     OW39163   2.530   3.370  13.232  0.5499 -0.0295 -0.7634
 9177SOL    HW139164   2.597   3.431  13.203  1.5999  1.1684  4.1373
 9177SOL    HW239165   2.492   3.344  13.149 -0.2214  0.4698 -0.5684
 9178SOL     OW39166   0.546   0.191   8.928  0.2603  0.2225  0.0765
 9178SOL    HW139167   0.623   0.212   8.981 -0.1664 -2.4432  1.7576
 9178SOL    HW239168   0.533   0.098   8.944  1.5667 -0.3342 -2.0174
 9179SOL     OW39169   4.421   2.248   4.754 -0.0267 -0.7594 -0.1884
 9179SOL    HW139170   4.478   2.175   4.730 -0.3572 -1.6196  1.5441
 9179SOL    HW239171   4.424   2.242   4.850 -3.2928 -0.2381 -0.0424
 9180SOL     OW39172   2.116   3.233   5.897 -0.1571  0.0832 -0.1256
 9180SOL    HW139173   2.196   3.198   5.937 -0.0884 -2.1609 -2.2823
 9180SOL    HW239174   2.156   3.295   5.836  2.1111 -1.6107 -0.3665
 9181SOL     OW39175   0.769   2.326   8.396  0.2267 -0.3088  0.0383
 9181SOL    HW139176   0.760   2.395   8.463 -1.3483  0.2491 -0.7364
 9181SOL    HW239177   0.766   2.243   8.442 -0.1544 -1.3396 -1.8596
 9182SOL     OW39178   3.175   0.996   5.496  0.1810 -0.1916 -0.1331
 9182SOL    HW139179   3.158   0.956   5.411 -0.6464 -0.9515  0.3901
 9182SOL    HW239180   3.256   1.043   5.477 -0.7251  1.7568  0.8281
 9183SOL     OW39181   2.231   2.739   1.015  0.0252 -0.5759  0.0705
 9183SOL    HW139182   2.143   2.772   1.000 -0.1080 -0.7694  0.4281
 9183SOL    HW239183   2.213   2.690   1.095 -1.3528 -1.5931 -0.8616
 9184SOL     OW39184   2.674   3.977   4.234  0.0547 -0.1174 -0.1420
 9184SOL    HW139185   2.687   4.065   4.269  2.5549 -0.6720  0.2792
 9184SOL    HW239186   2.579   3.968   4.233 -0.0215  0.5283  0.8604
 9185SOL     OW39187   1.949   1.011   5.668 -0.0041 -0.1920 -0.0751
 9185SOL    HW139188   1.920   0.953   5.739  0.9794  1.4971  1.7046
 9185SOL    HW239189   1.894   1.089   5.669  1.7694  1.0845 -2.7274
 9186SOL     OW39190   1.428   0.882   5.678 -0.0570  0.6280  0.3134
 9186SOL    HW139191   1.476   0.880   5.595  0.7820 -1.3635  0.8330
 9186SOL    HW239192   1.495   0.905   5.743 -1.1221  1.2595  1.1852
 9187SOL     OW39193   1.695   0.595   1.407  0.3801  0.1694  0.2503
 9187SOL    HW139194   1.677   0.687   1.429  0.3663  0.3142 -0.3476
 9187SOL    HW239195   1.626   0.556   1.461  0.1970  0.5067  0.2633
 9188SOL     OW39196   2.310   0.200  11.823  0.4076  0.0052 -0.2958
 9188SOL    HW139197   2.291   0.135  11.891 -0.3305  0.0761 -0.4354
 9188SOL    HW239198   2.335   0.143  11.750 -0.3597 -1.7576  0.8196
 9189SOL     OW39199   1.595   0.812   2.087 -0.1811 -0.3879 -0.0989
 9189SOL    HW139200   1.613   0.874   2.157  0.1847  1.2892 -1.6512
 9189SOL    HW239201   1.583   0.866   2.009 -0.4865 -0.4123 -0.0674
 9190SOL     OW39202   4.728   1.278   3.074  0.1256  0.2165  0.4141
 9190SOL    HW139203   0.035   1.360   3.060 -1.1818  0.9015  0.0011
 9190SOL    HW239204   4.656   1.296   3.014 -0.2017 -2.8763 -0.1033
 9191SOL     OW39205   3.339   3.200   3.301  0.9518 -0.3328 -0.4931
 9191SOL    HW139206   3.344   3.233   3.391  3.9891 -0.9746 -0.4169
 9191SOL    HW239207   3.246   3.213   3.282  1.2498 -2.8595 -3.6416
 9192SOL     OW39208   2.725   3.956   5.293  0.2899  0.9989  0.0408
 9192SOL    HW139209   2.674   3.959   5.374 -0.9424  0.3520 -0.7163
 9192SOL    HW239210   2.749   4.047   5.275  0.8156  0.4510 -2.0047
 9193SOL     OW39211   1.616   3.409  10.356  0.0995 -0.4109  0.4432
 9193SOL    HW139212   1.524   3.387  10.337  0.0350  0.1981  0.0356
 9193SOL    HW239213   1.621   3.448  10.443  3.5369  0.4643 -0.1376
 9194SOL     OW39214   4.653   0.079   2.601  0.0800 -0.1484  1.2273
 9194SOL    HW139215   0.007   0.094   2.601 -0.0701  0.8867  3.9039
 9194SOL    HW239216   4.619   0.153   2.651 -1.6004 -0.3436  0.3702
 9195SOL     OW39217   0.822   0.585   2.962 -0.6524  0.3312  0.3783
 9195SOL    HW139218   0.859   0.668   2.933 -0.0449  0.2732  1.0168
 9195SOL    HW239219   0.730   0.605   2.944 -0.3028  1.5176 -0.0880
 9196SOL     OW39220   0.280   3.571   7.285 -0.1576 -0.3361 -0.3367
 9196SOL    HW139221   0.371   3.541   7.293  0.1068  0.7614  0.8649
 9196SOL    HW239222   0.236   3.487   7.280  0.4592 -0.7141  0.4693
 9197SOL     OW39223   2.121   1.793   8.949  0.4476 -0.7149  0.2993
 9197SOL    HW139224   2.094   1.824   8.863  1.3876  0.3036  0.3782
 9197SOL    HW239225   2.033   1.805   8.985  0.3236  0.0931 -0.2813
 9198SOL     OW39226   3.458   2.681   8.775  0.1946 -0.0361 -0.0224
 9198SOL    HW139227   3.394   2.653   8.709 -0.8459  1.1607  0.4905
 9198SOL    HW239228   3.535   2.645   8.732  0.8286 -0.1029  1.1784
 9199SOL     OW39229   2.994   3.830  12.345  0.1091 -0.2306 -0.0097
 9199SOL    HW139230   3.044   3.760  12.387  2.4853  0.8713 -0.9987
 9199SOL    HW239231   2.973   3.883  12.422  0.5634  0.9726 -0.7144
 9200SOL     OW39232   1.248   2.989   3.853  0.6643  0.2591  0.3052
 9200SOL    HW139233   1.299   2.908   3.855  2.0749  1.0811 -1.6311
 9200SOL    HW239234   1.169   2.975   3.905  0.1389  0.7082 -0.3722
 9201SOL     OW39235   4.123   0.273   4.088  0.3826  0.4078  0.4205
 9201SOL    HW139236   4.068   0.216   4.034  0.2223  0.7777  0.1940
 9201SOL    HW239237   4.192   0.217   4.122  0.3597  0.1228 -0.0043
 9202SOL     OW39238   0.459   3.599  12.214  0.2114 -0.0911 -0.2309
 9202SOL    HW139239   0.443   3.577  12.306  0.5457  0.0189 -0.1489
 9202SOL    HW239240   0.425   3.519  12.175  0.4033 -0.7663  1.0016
 9203SOL     OW39241   1.339   0.400   1.190  0.5442 -0.1411  0.5617
 9203SOL    HW139242   1.409   0.428   1.132 -1.5838  0.8999 -1.5305
 9203SOL    HW239243   1.278   0.369   1.122 -0.8441 -0.6202  2.0342
 9204SOL     OW39244   1.360   0.286   2.858  0.0545  0.5612 -0.2775
 9204SOL    HW139245   1.298   0.265   2.928  1.7308 -2.6026  0.2442
 9204SOL    HW239246   1.304   0.330   2.794  0.4161 -1.4988 -2.0316
 9205SOL     OW39247   1.964   1.659   2.864 -0.1501 -0.1988 -0.0073
 9205SOL    HW139248   2.008   1.654   2.950  0.6470  3.2637 -0.2016
 9205SOL    HW239249   2.046   1.649   2.816 -0.3483  1.5880 -0.7214
 9206SOL     OW39250   0.801   0.074   1.890 -0.0537  0.2163  0.1355
 9206SOL    HW139251   0.824   0.087   1.798  2.7509 -1.2642  0.6258
 9206SOL    HW239252   0.893   0.082   1.918  1.0273 -2.4234 -2.6748
 9207SOL     OW39253   4.238   2.162   7.172 -0.5234 -0.3312 -0.2548
 9207SOL    HW139254   4.318   2.150   7.121 -0.0157 -0.5575  0.6044
 9207SOL    HW239255   4.246   2.257   7.167 -1.2336 -0.2174  0.9392
 9208SOL     OW39256   1.083   0.423   9.028 -0.2576 -0.7770 -0.2688
 9208SOL    HW139257   1.089   0.336   9.069  0.6010 -1.1879 -1.2849
 9208SOL    HW239258   1.153   0.477   9.062  0.3917 -0.7849 -1.6110
 9209SOL     OW39259   1.512   3.752   5.141  1.2114  0.1657 -0.1922
 9209SOL    HW139260   1.445   3.813   5.174  1.1039  0.3948 -0.8246
 9209SOL    HW239261   1.578   3.805   5.096 -0.0056  1.7265 -0.1704
 9210SOL     OW39262   3.348   0.985  12.637  0.1415  0.5993  0.1055
 9210SOL    HW139263   3.350   1.021  12.548 -1.5622 -2.5768 -1.1938
 9210SOL    HW239264   3.442   0.983  12.657  0.5761 -1.0925 -2.0712
 9211SOL     OW39265   0.999   3.770   5.970 -0.0473 -0.3804  0.0692
 9211SOL    HW139266   1.086   3.733   5.956 -0.7164 -2.0812  0.4100
 9211SOL    HW239267   0.995   3.848   5.915 -0.5858 -0.3004  0.2191
 9212SOL     OW39268   0.539   0.955   2.812 -0.3269  0.4272 -0.5077
 9212SOL    HW139269   0.549   1.048   2.792 -0.0104  0.5969  0.4142
 9212SOL    HW239270   0.447   0.947   2.786 -0.8977  4.2877  0.3277
 9213SOL     OW39271   3.125   0.753   5.778  0.9411 -0.1866 -0.3805
 9213SOL    HW139272   3.217   0.738   5.757  0.2161 -1.6622 -2.5592
 9213SOL    HW239273   3.119   0.687   5.847 -0.1083  0.5142  0.2071
 9214SOL     OW39274   3.971   0.960   3.666 -0.7056  0.5343 -0.8426
 9214SOL    HW139275   3.933   0.876   3.691 -1.8240  0.6206 -2.2594
 9214SOL    HW239276   3.999   0.999   3.749 -0.0537 -0.2196 -0.7083
 9215SOL     OW39277   2.533   1.269   8.474  0.2356 -0.3472 -0.2239
 9215SOL    HW139278   2.530   1.189   8.528  0.0263  0.7802  1.4430
 9215SOL    HW239279   2.526   1.341   8.537  2.4827 -0.7339  0.4626
 9216SOL     OW39280   1.621   3.471  17.105  0.1543 -0.4066 -0.2201
 9216SOL    HW139281   1.661   3.526  17.173  1.6332 -0.5343 -0.9875
 9216SOL    HW239282   1.678   3.487  17.030  1.4032 -1.4402  0.5093
 9217SOL     OW39283   0.163   0.659   2.639 -0.3581  0.0452 -0.1874
 9217SOL    HW139284   0.160   0.664   2.543  0.0921 -1.6370 -0.2896
 9217SOL    HW239285   0.173   0.565   2.650 -0.8187 -0.0932 -0.9450
 9218SOL     OW39286   3.273   3.764   7.167 -0.1558  0.0050 -0.0111
 9218SOL    HW139287   3.300   3.675   7.145 -0.8551 -0.2884  0.3482
 9218SOL    HW239288   3.298   3.773   7.259  0.2784 -0.5199 -0.0732
 9219SOL     OW39289   3.665   1.872   7.609 -0.2178  0.1370 -0.1163
 9219SOL    HW139290   3.720   1.817   7.665 -0.7382 -0.7176 -0.4392
 9219SOL    HW239291   3.643   1.813   7.537 -1.2302 -1.5831  1.6002
 9220SOL     OW39292   1.818   4.196   4.105 -0.0576  0.2248 -0.0688
 9220SOL    HW139293   1.875   4.180   4.030  0.3634 -0.9794  0.5216
 9220SOL    HW239294   1.882   4.243   4.159 -0.1272  1.4685 -1.0511
 9221SOL     OW39295   3.049   3.426  12.021  0.5468 -0.0806  0.8920
 9221SOL    HW139296   3.125   3.432  11.963  0.9673 -2.2260  1.2349
 9221SOL    HW239297   2.979   3.466  11.969 -0.5174  0.8801  3.0653
 9222SOL     OW39298   0.064   0.210   7.488  0.0520 -0.2093 -0.3346
 9222SOL    HW139299   0.048   0.221   7.582  1.5878 -0.4977 -0.0382
 9222SOL    HW239300   0.121   0.285   7.468 -2.4559  1.6358 -0.5661
 9223SOL     OW39301   4.108   2.495   9.474  0.1563 -0.7101  0.2364
 9223SOL    HW139302   4.194   2.525   9.445 -0.5072  0.2979 -0.6582
 9223SOL    HW239303   4.112   2.408   9.434  2.2081 -0.6022  0.1821
 9224SOL     OW39304   4.613   2.989   5.938 -0.0382  0.0093  0.4207
 9224SOL    HW139305   4.518   2.982   5.929  0.1064 -2.6483  0.9144
 9224SOL    HW239306   4.600   3.053   6.008 -0.8696 -0.7553  0.9618
 9225SOL     OW39307   0.237   4.492   7.567  0.1440  0.6513  0.6238
 9225SOL    HW139308   0.254   4.563   7.630  1.1864  1.5742 -0.7001
 9225SOL    HW239309   0.208   4.552   7.499  0.7085  1.0544  0.7379
 9226SOL     OW39310   1.854   0.864   3.388 -0.2249  0.0536  0.2364
 9226SOL    HW139311   1.897   0.886   3.471 -2.2049 -0.9521  1.4991
 9226SOL    HW239312   1.770   0.908   3.398 -0.0330  0.2783  0.8650
 9227SOL     OW39313   2.817   4.549   4.351 -0.0902 -0.2091 -0.0781
 9227SOL    HW139314   2.774   4.519   4.431 -0.1788 -1.4555 -0.5849
 9227SOL    HW239315   2.882   4.608   4.389 -0.2177 -0.0813 -0.0578
 9228SOL     OW39316   2.062   0.796  13.299  0.5693  0.0211  0.5902
 9228SOL    HW139317   2.116   0.861  13.344  1.2327  0.1082 -0.3378
 9228SOL    HW239318   1.981   0.791  13.351 -1.5473  1.0312 -2.6525
 9229SOL     OW39319   0.306   0.799   9.778 -0.0881 -0.5921 -0.2945
 9229SOL    HW139320   0.271   0.873   9.728  0.2731  0.2432  0.6766
 9229SOL    HW239321   0.241   0.793   9.849 -0.1207  0.1900 -0.2555
 9230SOL     OW39322   2.304   1.131   6.471  0.1858 -0.4826  0.0925
 9230SOL    HW139323   2.388   1.136   6.425  0.6770  0.8304  1.1371
 9230SOL    HW239324   2.242   1.167   6.408 -0.3600  0.0982  0.9658
 9231SOL     OW39325   0.591   1.390  13.114 -0.4052 -0.0460  0.0078
 9231SOL    HW139326   0.664   1.452  13.117  0.6567 -1.2507 -0.9839
 9231SOL    HW239327   0.513   1.444  13.103  1.1006  1.4354 -3.3225
 9232SOL     OW39328   3.201   4.623   7.098 -0.0040  0.0488 -0.0432
 9232SOL    HW139329   3.236   4.590   7.181  1.1535  0.7942 -0.2307
 9232SOL    HW239330   3.233   4.713   7.102  1.0706 -0.3427  0.1879
 9233SOL     OW39331   3.305   2.696  16.640 -0.1094  0.1175  0.2945
 9233SOL    HW139332   3.222   2.648  16.636 -0.4002  0.6735 -0.5485
 9233SOL    HW239333   3.280   2.755  16.568 -0.6938  0.3219  0.6586
 9234SOL     OW39334   1.746   0.014   3.662  0.3301  0.4126 -0.2487
 9234SOL    HW139335   1.655   0.011   3.690  0.6003  1.2074  0.7331
 9234SOL    HW239336   1.751   4.673   3.614 -0.8391 -1.0715  2.1690
 9235SOL     OW39337   1.567   4.663   4.579  0.5367  0.0653  0.0530
 9235SOL    HW139338   1.498   4.606   4.546 -1.3902  2.5724 -0.2463
 9235SOL    HW239339   1.635   4.599   4.601  1.1075  0.1812 -1.3941
 9236SOL     OW39340   0.295   0.072   6.936  0.7104 -0.6384  0.1170
 9236SOL    HW139341   0.202   0.089   6.952  0.9673  0.9740 -0.0704
 9236SOL    HW239342   0.305   0.137   6.866 -1.1217  0.0862  0.5295
 9237SOL     OW39343   1.525   2.589   4.193 -0.1617  0.0410  0.6324
 9237SOL    HW139344   1.431   2.598   4.184 -0.0498  1.0595  0.4452
 9237SOL    HW239345   1.571   2.655   4.140  0.2306 -2.2994 -1.9471
 9238SOL     OW39346   3.781   3.854  11.015 -0.6183  0.2851 -0.1523
 9238SOL    HW139347   3.748   3.830  11.101 -0.9326 -0.6226 -0.5241
 9238SOL    HW239348   3.757   3.773  10.970 -1.0967  0.8899 -1.0059
 9239SOL     OW39349   4.641   1.997   9.705  0.4738  0.1658 -0.3053
 9239SOL    HW139350   4.640   1.984   9.610  0.7268  2.0699 -0.5820
 9239SOL    HW239351   4.597   2.082   9.705  1.9359  0.9097  1.8951
 9240SOL     OW39352   1.138   1.433  15.169 -0.2304 -0.5809 -0.2460
 9240SOL    HW139353   1.112   1.366  15.105 -0.4232  0.8501 -1.6715
 9240SOL    HW239354   1.223   1.466  15.138  0.2694 -0.7669  0.9191
 9241SOL     OW39355   2.444   4.085  14.369  0.8999  0.1342  0.0259
 9241SOL    HW139356   2.452   3.991  14.384  0.3499  0.0486 -0.2369
 9241SOL    HW239357   2.435   4.087  14.274 -0.5881 -0.6948  0.1519
 9242SOL     OW39358   3.010   1.502   6.998  0.0733  0.6151  0.0525
 9242SOL    HW139359   2.983   1.417   6.963  0.0885  0.8595 -0.5465
 9242SOL    HW239360   2.937   1.560   6.979 -0.2059  1.6305  4.1586
 9243SOL     OW39361   1.608   1.054   2.863 -0.9362  0.3920 -0.7680
 9243SOL    HW139362   1.667   0.982   2.881 -1.4698  0.3625  0.8499
 9243SOL    HW239363   1.608   1.093   2.951 -2.8289 -1.5008  0.0578
 9244SOL     OW39364   4.739   3.271  13.724  0.3050 -0.3758 -0.5105
 9244SOL    HW139365   0.047   3.207  13.672 -0.3173  0.5041 -2.1635
 9244SOL    HW239366   0.057   3.345  13.707 -2.1328  1.3703 -1.2698
 9245SOL     OW39367   1.252   0.386  11.676  0.6777 -0.0663  0.1778
 9245SOL    HW139368   1.256   0.382  11.772 -0.7396  1.9926  0.3093
 9245SOL    HW239369   1.220   0.300  11.648 -0.7844  1.0186 -1.4102
 9246SOL     OW39370   2.793   3.510   0.795  0.0136 -0.3489 -0.1808
 9246SOL    HW139371   2.809   3.586   0.851  1.2306 -0.6382 -0.1276
 9246SOL    HW239372   2.729   3.546   0.734 -2.2992 -1.2256  1.7052
 9247SOL     OW39373   3.808   3.421   7.328  0.0718 -0.2549  0.4963
 9247SOL    HW139374   3.798   3.365   7.405 -0.1268  1.9480  2.0691
 9247SOL    HW239375   3.903   3.426   7.314  0.0462  0.7896  0.7178
 9248SOL     OW39376   0.836   0.305   2.971 -0.3854 -0.2693 -1.1967
 9248SOL    HW139377   0.744   0.295   2.995 -0.2054  0.0336 -0.3548
 9248SOL    HW239378   0.830   0.398   2.949 -1.3329 -0.5723 -2.2052
 9249SOL     OW39379   0.596   3.083   7.814 -0.0717  0.3314  0.2321
 9249SOL    HW139380   0.583   3.134   7.894 -1.0820  0.0203  0.2710
 9249SOL    HW239381   0.569   2.993   7.831 -2.5313  1.2825  1.4214
 9250SOL     OW39382   3.655   1.313  11.943  0.1454 -0.1603 -0.0329
 9250SOL    HW139383   3.710   1.382  11.907 -0.8938  0.3366 -0.6591
 9250SOL    HW239384   3.573   1.319  11.895  1.0172 -3.1226 -1.9580
 9251SOL     OW39385   1.111   3.968   4.314  0.2339 -0.0910 -0.2441
 9251SOL    HW139386   1.136   4.042   4.369 -0.5030  0.6486 -0.8940
 9251SOL    HW239387   1.188   3.913   4.309 -0.7807 -1.6349  1.2177
 9252SOL     OW39388   0.961   3.919   2.887 -0.2347 -0.6199  0.3122
 9252SOL    HW139389   1.046   3.905   2.928  0.1379 -0.7739 -0.5048
 9252SOL    HW239390   0.916   3.849   2.933  1.9762 -1.3941  1.3123
 9253SOL     OW39391   2.400   1.905   7.826 -0.7627 -0.4877 -0.3521
 9253SOL    HW139392   2.343   1.982   7.824  2.1234  1.6425 -0.2381
 9253SOL    HW239393   2.470   1.953   7.870 -1.1683  0.5484 -0.8382
 9254SOL     OW39394   4.365   2.053   7.434  0.2909  0.1803  0.1109
 9254SOL    HW139395   4.293   2.095   7.387  0.2203  1.1331  1.0673
 9254SOL    HW239396   4.311   1.977   7.455 -0.1110  0.1704 -0.9232
 9255SOL     OW39397   0.441   2.869   0.004 -0.1271  0.0541 -0.4919
 9255SOL    HW139398   0.481   2.878   0.090  1.6594 -2.7276 -1.0218
 9255SOL    HW239399   0.349   2.862   0.029  0.6134 -1.1696  1.8379
 9256SOL     OW39400   4.276   2.166   1.996  0.2318  0.6564  0.1111
 9256SOL    HW139401   4.260   2.201   2.084 -3.6901 -1.2564  0.1742
 9256SOL    HW239402   4.350   2.219   1.968  1.1371 -1.5036 -1.5603
 9257SOL     OW39403   4.682   2.863   5.524  0.6901 -0.0190 -0.3073
 9257SOL    HW139404   4.611   2.820   5.572  0.3407 -0.1560 -0.9598
 9257SOL    HW239405   0.019   2.814   5.552  0.0446 -0.9317 -0.1117
 9258SOL     OW39406   2.957   4.595   5.823  0.4100  0.0297  0.0226
 9258SOL    HW139407   3.021   4.630   5.886  0.3017 -2.4662  1.5039
 9258SOL    HW239408   2.940   4.507   5.856 -0.3793 -0.3649 -1.4795
 9259SOL     OW39409   3.029   0.079   2.512  0.1094  0.5490  0.8914
 9259SOL    HW139410   2.998   0.024   2.583 -0.6216  3.3229  2.7109
 9259SOL    HW239411   2.977   0.041   2.441  0.7228 -0.6469  1.0802
 9260SOL     OW39412   0.823   2.974  13.490  0.5354  0.4345 -0.3547
 9260SOL    HW139413   0.791   3.053  13.535 -1.3309  0.2341 -1.3094
 9260SOL    HW239414   0.906   2.956  13.534  1.1934  0.6411 -1.5044
 9261SOL     OW39415   2.367   3.264   5.436  0.2993 -0.2569  0.1876
 9261SOL    HW139416   2.443   3.219   5.402  1.0318 -1.3975  3.3744
 9261SOL    HW239417   2.373   3.267   5.531 -0.8436 -0.0088  0.2542
 9262SOL     OW39418   0.624   3.076   5.668 -0.3546 -0.3717  0.4766
 9262SOL    HW139419   0.686   3.048   5.600 -0.4488  2.0616 -0.5960
 9262SOL    HW239420   0.686   3.133   5.713  0.5916 -1.5480  0.6778
 9263SOL     OW39421   2.186   3.710   1.837 -0.1715 -0.2670 -0.4263
 9263SOL    HW139422   2.205   3.802   1.818  2.0782 -0.9857 -1.5980
 9263SOL    HW239423   2.140   3.672   1.763  2.2387 -0.2224 -1.9546
 9264SOL     OW39424   0.363   3.942  13.389  0.3898  0.0002  0.5069
 9264SOL    HW139425   0.394   3.880  13.456  2.0262  0.0589 -0.1844
 9264SOL    HW239426   0.300   3.993  13.439  0.6707  0.0263  0.8427
 9265SOL     OW39427   2.161   3.529   7.236  0.5263  0.1696 -0.0309
 9265SOL    HW139428   2.195   3.538   7.147  0.3921 -0.4171 -0.1473
 9265SOL    HW239429   2.089   3.466   7.223  0.1628  0.5448  0.1705
 9266SOL     OW39430   0.533   2.703  11.837 -0.4354  0.6726  0.5363
 9266SOL    HW139431   0.476   2.767  11.795  0.5902  1.1352 -0.1465
 9266SOL    HW239432   0.568   2.645  11.770 -0.8863 -0.4716  1.2817
 9267SOL     OW39433   0.374   3.183  12.923 -0.2443 -0.2374 -0.4881
 9267SOL    HW139434   0.345   3.160  13.011  1.6855 -1.6148 -0.2061
 9267SOL    HW239435   0.460   3.223  12.938  0.6897 -1.4455 -2.6917
 9268SOL     OW39436   0.043   1.891   5.808  0.4360 -0.2699 -0.5954
 9268SOL    HW139437   4.721   1.910   5.877  0.5880 -0.0618 -0.5114
 9268SOL    HW239438   0.121   1.852   5.847  0.5408  2.1853  1.6751
 9269SOL     OW39439   0.792   1.544   5.792 -0.8394  0.3452  0.5566
 9269SOL    HW139440   0.700   1.572   5.794 -1.3797 -1.3819  0.0101
 9269SOL    HW239441   0.789   1.466   5.847 -1.0757 -0.1204 -0.1066
 9270SOL     OW39442   3.900   3.475  17.084 -0.4037  0.3421  0.5720
 9270SOL    HW139443   3.914   3.555  17.134  3.2838  0.4253 -0.6082
 9270SOL    HW239444   3.804   3.470  17.078 -0.4353 -0.3020  1.5724
 9271SOL     OW39445   0.099   2.515   2.194  0.4033  0.1309 -0.3679
 9271SOL    HW139446   0.036   2.484   2.260  1.0185 -0.2529  0.0402
 9271SOL    HW239447   0.176   2.524   2.250  0.2805 -0.7930 -0.0519
 9272SOL     OW39448   2.891   3.685  13.278 -0.1043 -0.2015 -0.1633
 9272SOL    HW139449   2.837   3.627  13.331  0.9765 -0.8228  0.2489
 9272SOL    HW239450   2.826   3.755  13.269  2.0284  1.9195  0.8207
 9273SOL     OW39451   4.476   2.943  11.926  0.4235 -0.2046  0.0143
 9273SOL    HW139452   4.381   2.940  11.911  0.3085  0.8906  0.5224
 9273SOL    HW239453   4.484   2.932  12.021  3.2490  0.0987 -0.1987
 9274SOL     OW39454   2.789   1.021   2.578  0.7178 -0.1219  0.3757
 9274SOL    HW139455   2.738   1.052   2.653 -2.0763 -2.0938 -0.6823
 9274SOL    HW239456   2.856   0.965   2.616  1.4287 -0.0354 -0.7416
 9275SOL     OW39457   1.746   4.604  12.951  0.2183  0.1667  0.0262
 9275SOL    HW139458   1.783   4.525  12.990  0.6816  0.1101 -0.5379
 9275SOL    HW239459   1.819   4.662  12.929  0.9547 -0.7189  0.1653
 9276SOL     OW39460   1.339   4.296  11.980  0.4709 -0.5454 -0.7206
 9276SOL    HW139461   1.268   4.251  11.935  0.6752 -1.1500 -0.4361
 9276SOL    HW239462   1.398   4.300  11.905 -1.3731 -1.2597 -2.2211
 9277SOL     OW39463   1.731   1.964  12.977 -0.3725 -0.5754  0.0539
 9277SOL    HW139464   1.766   1.876  12.968 -0.8360 -0.9102  1.5623
 9277SOL    HW239465   1.815   2.002  13.006 -0.8562 -1.5295  2.6832
 9278SOL     OW39466   3.753   3.891   9.400 -0.0071 -0.1943  0.0018
 9278SOL    HW139467   3.681   3.832   9.421 -1.8967  1.5975 -1.4518
 9278SOL    HW239468   3.703   3.972   9.397  0.2004 -0.1291 -1.6103
 9279SOL     OW39469   2.773   1.655  17.136  0.1129 -0.2334  0.1581
 9279SOL    HW139470   2.720   1.735  17.126  0.3050 -0.3948 -1.9792
 9279SOL    HW239471   2.706   1.591  17.157 -0.5159  0.1213 -0.7539
 9280SOL     OW39472   1.095   2.284  16.792  0.3479 -0.4624  0.8384
 9280SOL    HW139473   1.083   2.356  16.730 -0.9715 -3.8592 -2.7751
 9280SOL    HW239474   1.089   2.214  16.728 -0.5728 -0.2146  0.6572
 9281SOL     OW39475   4.629   4.497   5.088  0.0115  0.0849 -0.2042
 9281SOL    HW139476   4.621   4.520   5.181  1.8582 -0.0826 -0.0051
 9281SOL    HW239477   4.584   4.413   5.085 -0.0691  0.1382 -0.4436
 9282SOL     OW39478   3.899   2.726  14.012 -0.2633  0.5923 -0.3463
 9282SOL    HW139479   3.952   2.664  13.961 -1.2724  0.5187 -1.3278
 9282SOL    HW239480   3.821   2.726  13.955 -0.5594 -1.1436  0.0334
 9283SOL     OW39481   3.384   1.890  12.801  0.3356  0.3481  0.1138
 9283SOL    HW139482   3.358   1.982  12.801 -0.6433  0.0741  0.6080
 9283SOL    HW239483   3.305   1.841  12.826  0.5111  0.5717  1.0799
 9284SOL     OW39484   4.731   3.528   7.804  0.1288 -0.2086 -0.0187
 9284SOL    HW139485   0.076   3.541   7.843  0.0586 -1.4298  0.5350
 9284SOL    HW239486   4.671   3.588   7.850  0.5461 -0.3096  0.6505
 9285SOL     OW39487   3.013   0.973   3.402 -0.9609  0.4907 -0.1106
 9285SOL    HW139488   3.077   0.939   3.464  1.4457  5.3260  0.0478
 9285SOL    HW239489   2.940   0.978   3.465  0.1485  2.4109  1.0337
 9286SOL     OW39490   2.503   2.326   2.495  0.0701 -0.1145 -0.0281
 9286SOL    HW139491   2.526   2.414   2.524 -0.5619 -0.1360  0.5309
 9286SOL    HW239492   2.409   2.335   2.482  0.0211 -0.2808  0.1951
 9287SOL     OW39493   2.054   0.707   1.364  0.3099 -0.0014  0.2156
 9287SOL    HW139494   2.000   0.758   1.425 -0.7923 -1.8015  0.7508
 9287SOL    HW239495   2.142   0.704   1.402 -0.5732 -1.0958  2.1637
 9288SOL     OW39496   0.614   0.776   9.680 -0.3584  0.7106  0.1415
 9288SOL    HW139497   0.589   0.865   9.703 -1.1005  0.8736 -1.3163
 9288SOL    HW239498   0.701   0.756   9.716 -1.1949 -1.2208  1.1032
 9289SOL     OW39499   1.334   2.958   9.957 -0.3270  0.5854  0.3379
 9289SOL    HW139500   1.240   2.943   9.964 -0.4612 -0.2323 -3.1086
 9289SOL    HW239501   1.328   3.026   9.890  0.2885 -1.2605 -1.5934
 9290SOL     OW39502   2.668   4.460  13.195 -0.7192 -0.1937  0.3591
 9290SOL    HW139503   2.631   4.548  13.194 -0.7402 -0.1981  0.7270
 9290SOL    HW239504   2.612   4.422  13.262 -0.6661 -2.2666 -0.7677
 9291SOL     OW39505   4.463   2.949   7.439  0.3285  0.7437  0.0436
 9291SOL    HW139506   4.534   2.994   7.393 -0.1840  0.8198 -0.6622
 9291SOL    HW239507   4.496   2.859   7.442 -2.3738 -0.2564  0.3357
 9292SOL     OW39508   4.739   0.036  10.725  0.2131 -0.2212  0.5410
 9292SOL    HW139509   0.070   0.096  10.742 -1.4803  1.6412  1.0629
 9292SOL    HW239510   4.710   0.054  10.635  1.3578 -0.6186  0.0849
 9293SOL     OW39511   1.357   4.635   9.697 -0.2710 -0.9360  0.1090
 9293SOL    HW139512   1.311   4.602   9.774  0.9930  2.5341  2.3878
 9293SOL    HW239513   1.444   4.655   9.732  0.3121 -0.5901 -1.5626
 9294SOL     OW39514   3.315   2.192  13.888  0.0068 -0.6196  0.0690
 9294SOL    HW139515   3.260   2.231  13.820 -1.8737  0.7619  2.3813
 9294SOL    HW239516   3.256   2.124  13.919  1.2155 -0.5561  2.5332
 9295SOL     OW39517   4.253   1.528   4.909  0.8111 -0.2915 -0.0299
 9295SOL    HW139518   4.215   1.601   4.859 -2.5979 -0.9502  1.6349
 9295SOL    HW239519   4.311   1.571   4.972  1.7613 -2.4362  0.5684
 9296SOL     OW39520   2.288   1.874   1.603 -0.2582 -0.2812 -0.3228
 9296SOL    HW139521   2.292   1.961   1.644  0.7149  0.0036 -1.0301
 9296SOL    HW239522   2.243   1.896   1.522 -1.1047  1.8745  0.7148
 9297SOL     OW39523   3.507   1.917  10.627 -0.9242  0.6594 -0.3831
 9297SOL    HW139524   3.511   1.990  10.565  2.5294  0.3757 -0.5120
 9297SOL    HW239525   3.435   1.962  10.672  1.3038  2.1799  1.6947
 9298SOL     OW39526   0.690   4.292  17.353  0.0979 -0.1301  0.8893
 9298SOL    HW139527   0.640   4.211  17.343 -1.0977  0.9435 -1.8939
 9298SOL    HW239528   0.776   4.261  17.379  0.0314 -0.9779  0.1154
 9299SOL     OW39529   0.748   4.040   5.372  0.2485  0.3318  0.2615
 9299SOL    HW139530   0.653   4.032   5.377  0.2542  0.3273  0.3733
 9299SOL    HW239531   0.760   4.132   5.348  0.2660  0.6478  1.4950
 9300SOL     OW39532   3.107   1.629   8.987 -0.0931 -0.2178  0.5442
 9300SOL    HW139533   3.020   1.670   8.983  0.3456  0.7651  0.9895
 9300SOL    HW239534   3.138   1.632   8.897 -0.7472  2.2693  0.3960
 9301SOL     OW39535   2.082   4.028  17.224 -0.0166  0.2612 -0.1831
 9301SOL    HW139536   2.156   4.045  17.281  1.1130 -3.7783 -0.4614
 9301SOL    HW239537   2.034   4.110  17.235 -0.5383 -0.0650  0.0069
 9302SOL     OW39538   1.746   4.670  11.466  0.4290 -0.5284 -0.4125
 9302SOL    HW139539   1.829   4.681  11.513  1.2685 -1.2327 -1.6959
 9302SOL    HW239540   1.776   4.706  11.382  0.4356  2.7078  0.9736
 9303SOL     OW39541   4.321   0.271   2.540 -0.2862 -0.2978 -0.7721
 9303SOL    HW139542   4.232   0.274   2.505 -0.0239 -0.3586 -1.4453
 9303SOL    HW239543   4.325   0.179   2.567 -0.3701  0.1154  0.6521
 9304SOL     OW39544   2.101   4.043   4.219 -0.1006 -0.0737  0.5849
 9304SOL    HW139545   2.016   3.999   4.225 -0.6109  0.5152 -2.3317
 9304SOL    HW239546   2.081   4.135   4.239  2.5614  0.2139  1.8334
 9305SOL     OW39547   1.245   4.057   9.782 -0.2973 -0.8636 -0.2658
 9305SOL    HW139548   1.329   4.020   9.809  0.1665  0.9871  0.8084
 9305SOL    HW239549   1.181   3.992   9.810 -1.6077 -0.0674 -1.4025
 9306SOL     OW39550   1.552   4.204   1.386 -0.3728  0.0606  0.0375
 9306SOL    HW139551   1.618   4.135   1.379 -0.4600 -0.1042  0.8838
 9306SOL    HW239552   1.551   4.217   1.480 -4.2808 -4.1170  0.5537
 9307SOL     OW39553   3.888   4.607   5.824  0.2434  0.1641 -0.0346
 9307SOL    HW139554   3.832   4.541   5.783 -1.0663  0.5371  1.1508
 9307SOL    HW239555   3.825   4.679   5.820  1.8888  1.5496 -0.9717
 9308SOL     OW39556   3.103   1.621   7.243  0.0060  0.5123 -0.1138
 9308SOL    HW139557   3.071   1.555   7.182  1.8891 -0.0685 -0.4835
 9308SOL    HW239558   3.163   1.567   7.294 -1.9928  0.3259  2.0133
 9309SOL     OW39559   4.614   2.043   4.769 -0.3109 -0.2535 -0.1326
 9309SOL    HW139560   4.683   2.109   4.766  0.0673 -0.6423  0.0064
 9309SOL    HW239561   4.650   1.988   4.699 -1.4174 -1.8387  0.5309
 9310SOL     OW39562   2.368   1.787   6.267  0.2130  0.0202  0.3647
 9310SOL    HW139563   2.391   1.832   6.349  0.5782  0.4996  0.0007
 9310SOL    HW239564   2.434   1.820   6.206 -0.6561  0.3000 -0.4282
 9311SOL     OW39565   3.028   3.873   4.746 -0.6724  0.3056  0.4825
 9311SOL    HW139566   2.934   3.886   4.741 -0.9841 -1.6576  1.3783
 9311SOL    HW239567   3.041   3.786   4.709 -1.0774  0.4403  0.0306
 9312SOL     OW39568   1.853   3.572   8.482  0.4072 -0.0989 -0.3965
 9312SOL    HW139569   1.828   3.521   8.406  1.5228  0.4519 -1.1364
 9312SOL    HW239570   1.811   3.657   8.469 -1.5915 -1.3369 -1.8525
 9313SOL     OW39571   4.507   3.332   4.595  0.0271  0.3089  0.0991
 9313SOL    HW139572   4.422   3.359   4.629  0.0335  1.0370 -0.4676
 9313SOL    HW239573   4.498   3.345   4.500 -2.8205 -1.7652  0.0742
 9314SOL     OW39574   0.969   4.564  13.355  0.1797  0.4614  0.2006
 9314SOL    HW139575   1.030   4.627  13.317 -2.6530  4.1205  1.6159
 9314SOL    HW239576   0.982   4.574  13.450 -1.4752 -2.3404  0.7339
 9315SOL     OW39577   3.303   3.966   4.794  0.1443 -0.4612 -0.5173
 9315SOL    HW139578   3.305   3.896   4.859 -0.8345 -2.9232 -3.1103
 9315SOL    HW239579   3.213   3.958   4.762 -0.8129  1.0693  1.8364
 9316SOL     OW39580   0.984   2.917  15.247  0.4417 -0.0464  0.3036
 9316SOL    HW139581   1.062   2.916  15.303  0.3750  1.9321  0.4226
 9316SOL    HW239582   1.022   2.869  15.173 -0.4812 -0.3621  0.0447
 9317SOL     OW39583   1.054   2.241   3.216  0.2563  0.3288  0.0058
 9317SOL    HW139584   1.140   2.200   3.229  0.7421  1.0061 -1.0484
 9317SOL    HW239585   1.063   2.276   3.127  3.5505  0.0530  0.2259
 9318SOL     OW39586   1.073   3.123   3.466 -0.4570  0.0886  0.4866
 9318SOL    HW139587   1.129   3.152   3.393 -1.9878  1.2330 -0.2442
 9318SOL    HW239588   1.146   3.103   3.524  0.3906  1.0691 -0.2451
 9319SOL     OW39589   3.667   0.538   4.399  0.1829 -0.0303  0.2589
 9319SOL    HW139590   3.590   0.577   4.440 -0.0606 -0.0135 -0.2096
 9319SOL    HW239591   3.632   0.460   4.356  0.6632  0.1594 -0.4766
 9320SOL     OW39592   2.017   4.425  11.313  0.5605  0.4172  0.0981
 9320SOL    HW139593   2.042   4.364  11.383  0.9012 -2.5807 -2.6551
 9320SOL    HW239594   2.039   4.371  11.238 -0.3991 -0.4823  0.4667
 9321SOL     OW39595   2.436   4.493   9.004 -0.4358  0.2061  0.2220
 9321SOL    HW139596   2.463   4.520   8.916  1.6094 -2.1615  0.1011
 9321SOL    HW239597   2.388   4.413   8.982 -1.9148  0.8190  1.2491
 9322SOL     OW39598   4.623   4.257   7.854 -0.2691 -0.3066  0.6723
 9322SOL    HW139599   4.583   4.212   7.780 -0.9350  0.4771  0.5462
 9322SOL    HW239600   4.603   4.193   7.923  0.1154 -0.6386  0.4737
 9323SOL     OW39601   1.438   4.736   5.408 -0.6468  0.1623  0.2218
 9323SOL    HW139602   1.364   4.721   5.467 -2.7519  1.6626 -2.0559
 9323SOL    HW239603   1.432   0.090   5.397 -0.6751  0.1652  0.2585
 9324SOL     OW39604   4.087   3.608   9.908  0.1336  0.4723  0.2404
 9324SOL    HW139605   4.121   3.657   9.983  0.1604  0.1743  0.4219
 9324SOL    HW239606   3.995   3.584   9.918  0.0471 -0.5616 -3.1346
 9325SOL     OW39607   0.221   4.579   3.754 -0.1185 -0.0638  0.3627
 9325SOL    HW139608   0.190   4.494   3.723 -1.0091  0.5079 -0.3308
 9325SOL    HW239609   0.137   4.625   3.763 -0.6872 -0.9081 -0.6776
 9326SOL     OW39610   2.002   4.519   2.017  0.0147  0.4951 -0.5885
 9326SOL    HW139611   2.058   4.597   2.012  2.2048 -0.9598  1.5486
 9326SOL    HW239612   1.990   4.497   1.925 -0.1472  0.9973 -0.6881
 9327SOL     OW39613   1.179   1.930  16.023  0.1594 -0.1406  0.6857
 9327SOL    HW139614   1.218   2.014  16.047  2.0081 -0.8174  0.0949
 9327SOL    HW239615   1.159   1.891  16.108  0.1193 -0.7694  0.3842
 9328SOL     OW39616   3.009   0.656   4.886 -0.5538  0.4419 -0.7188
 9328SOL    HW139617   3.002   0.621   4.975 -2.1694 -0.4030 -1.1760
 9328SOL    HW239618   2.918   0.638   4.864 -0.0977  1.2650 -3.3040
 9329SOL     OW39619   3.996   4.705   3.131  0.3892 -0.1240  0.3198
 9329SOL    HW139620   3.952   0.035   3.084  1.0383 -0.1636 -0.3442
 9329SOL    HW239621   4.012   0.011   3.213  1.2870  0.3923 -0.1379
 9330SOL     OW39622   3.400   2.189   9.347  0.1025 -0.5430  0.1256
 9330SOL    HW139623   3.446   2.252   9.401 -3.2288  1.8290  0.1978
 9330SOL    HW239624   3.424   2.104   9.385 -0.3524 -0.3555  0.8351
 9331SOL     OW39625   1.175   2.438  14.973 -0.2482 -0.0205  0.4536
 9331SOL    HW139626   1.214   2.352  14.989 -0.7558 -0.2293  0.5684
 9331SOL    HW239627   1.142   2.425  14.884  0.7760 -3.9759  0.6537
 9332SOL     OW39628   4.013   0.118   7.202  0.1650  0.6597 -0.3478
 9332SOL    HW139629   4.067   0.099   7.278  0.1509  0.9217 -0.2740
 9332SOL    HW239630   3.965   0.198   7.222  0.8541  0.7029  1.0701
 9333SOL     OW39631   4.113   0.052  13.688 -0.1764 -0.0715 -0.2188
 9333SOL    HW139632   4.045   0.102  13.732  0.4839 -1.0102  1.8688
 9333SOL    HW239633   4.168   0.023  13.761 -0.1571  1.7085  0.4923
 9334SOL     OW39634   0.470   1.820  10.645 -0.4640  0.2874 -0.9425
 9334SOL    HW139635   0.467   1.906  10.604  0.6673  1.1971  0.8494
 9334SOL    HW239636   0.564   1.804  10.642 -0.3108  0.5926  1.6616
 9335SOL     OW39637   1.416   1.655   4.427  0.4068 -0.1361  0.0521
 9335SOL    HW139638   1.347   1.598   4.393  1.1395 -1.0541  0.1095
 9335SOL    HW239639   1.394   1.655   4.520 -1.3131 -1.3828 -0.3421
 9336SOL     OW39640   2.371   2.141   8.999 -0.6307 -0.3282  0.5020
 9336SOL    HW139641   2.399   2.232   9.009 -1.7932  0.2393 -1.5535
 9336SOL    HW239642   2.281   2.141   9.032 -1.2680  0.9937 -1.2113
 9337SOL     OW39643   2.902   3.381   6.950 -0.0406 -0.5038 -0.1297
 9337SOL    HW139644   2.954   3.370   7.029 -1.8496  0.5063  1.2126
 9337SOL    HW239645   2.827   3.328   6.979 -1.0199  0.7764 -0.2988
 9338SOL     OW39646   2.441   1.949   4.068  0.5092  0.4554  0.4716
 9338SOL    HW139647   2.463   1.859   4.042 -1.8229  1.0752 -3.6866
 9338SOL    HW239648   2.487   1.996   3.998 -1.9619 -0.4578 -1.7651
 9339SOL     OW39649   0.550   1.195   9.419 -0.3770  0.0179  0.4662
 9339SOL    HW139650   0.548   1.175   9.325 -2.4739  0.0355  0.5081
 9339SOL    HW239651   0.640   1.222   9.434 -1.3901  2.9095  1.3070
 9340SOL     OW39652   2.430   1.620   9.156  0.2458  0.0318  0.4938
 9340SOL    HW139653   2.338   1.636   9.174  0.2447  0.2948  0.2636
 9340SOL    HW239654   2.425   1.540   9.104 -1.6352 -0.5541  1.5810
 9341SOL     OW39655   1.053   1.130   6.878  0.2595 -0.8431 -0.0033
 9341SOL    HW139656   1.089   1.156   6.794 -3.1799 -0.6906 -1.4155
 9341SOL    HW239657   1.116   1.169   6.939 -1.5077  1.7212  0.1674
 9342SOL     OW39658   2.477   2.877   3.928 -0.5568 -0.5067 -0.0556
 9342SOL    HW139659   2.568   2.892   3.955 -0.8202 -1.3314  1.2954
 9342SOL    HW239660   2.488   2.833   3.845  0.1929 -0.3006 -0.0679
 9343SOL     OW39661   3.489   3.139   9.960 -0.0854 -0.5469 -0.0271
 9343SOL    HW139662   3.509   3.108  10.048 -2.5574 -0.5441  0.5247
 9343SOL    HW239663   3.470   3.229   9.986 -1.4046 -1.2804  1.5418
 9344SOL     OW39664   2.230   0.018   7.395 -0.2478 -0.0145  0.5370
 9344SOL    HW139665   2.148   0.037   7.350 -0.6277 -1.6745  0.5101
 9344SOL    HW239666   2.259   4.678   7.353 -0.1963  0.4247 -0.2592
 9345SOL     OW39667   0.192   4.650  10.498  0.2297 -0.4585  0.2120
 9345SOL    HW139668   0.163   4.712  10.565  2.1640 -0.4174  1.0364
 9345SOL    HW239669   0.275   4.692  10.474 -0.3128  0.3056 -0.3083
 9346SOL     OW39670   4.528   3.869   8.696  0.0883  0.7334  0.8771
 9346SOL    HW139671   4.524   3.774   8.702  0.2958  0.6224 -0.7769
 9346SOL    HW239672   4.495   3.889   8.609 -0.2799 -0.0431  0.8399
 9347SOL     OW39673   2.852   2.509  14.677 -0.1607  0.6869 -0.4238
 9347SOL    HW139674   2.894   2.433  14.717  3.4946  1.7230 -2.2552
 9347SOL    HW239675   2.914   2.524  14.605  1.7322  1.0767  1.3087
 9348SOL     OW39676   3.733   3.978  16.093 -0.4452 -0.1439  0.3011
 9348SOL    HW139677   3.774   3.917  16.032 -0.6650  0.5324 -0.5145
 9348SOL    HW239678   3.665   3.919  16.123 -0.2757 -0.6815 -0.3845
 9349SOL     OW39679   2.309   3.636   4.301 -0.4079 -0.1994  0.2515
 9349SOL    HW139680   2.320   3.620   4.395  0.9369  2.5267  0.5467
 9349SOL    HW239681   2.218   3.609   4.289 -0.7558  2.1181 -2.2213
 9350SOL     OW39682   1.367   1.099   5.280 -0.2069  0.3389  0.4354
 9350SOL    HW139683   1.461   1.083   5.273 -0.4617 -0.8196 -0.4924
 9350SOL    HW239684   1.348   1.047   5.358 -0.6439 -0.2284 -0.0482
 9351SOL     OW39685   0.034   1.422   2.567 -0.0502 -0.3660  0.0688
 9351SOL    HW139686   0.083   1.455   2.643  1.3569  1.2598 -1.5335
 9351SOL    HW239687   4.688   1.456   2.588  0.3924  1.1343 -0.5285
 9352SOL     OW39688   3.093   1.788   9.697 -0.6595 -0.4272  0.3483
 9352SOL    HW139689   3.164   1.823   9.751 -0.5883 -0.2935  0.1668
 9352SOL    HW239690   3.141   1.756   9.621  1.4222 -1.6192  2.1514
 9353SOL     OW39691   4.332   3.056   4.373 -0.2094 -0.0009  0.1959
 9353SOL    HW139692   4.328   2.990   4.442  2.0552  1.9649  2.2036
 9353SOL    HW239693   4.295   3.133   4.415 -2.0405  0.0306 -1.4290
 9354SOL     OW39694   2.522   3.029  16.670  0.5741 -0.1460  0.4715
 9354SOL    HW139695   2.455   2.979  16.715 -0.1155 -0.7910 -1.2609
 9354SOL    HW239696   2.496   3.008  16.580 -0.5164 -0.0294  0.7668
 9355SOL     OW39697   1.508   3.040   6.659 -0.0595 -0.0355  0.5018
 9355SOL    HW139698   1.456   3.075   6.732  1.3003  0.0865  1.4166
 9355SOL    HW239699   1.553   3.115   6.620  0.4238 -0.7563 -0.3174
 9356SOL     OW39700   2.112   1.548   1.900  0.1600  0.2280  0.4410
 9356SOL    HW139701   2.185   1.586   1.851 -2.8646  1.4682 -3.0841
 9356SOL    HW239702   2.139   1.551   1.992 -1.1027 -0.3542  0.8277
 9357SOL     OW39703   4.547   2.387   4.429  0.4813 -0.0390 -0.3658
 9357SOL    HW139704   4.621   2.434   4.392  0.9299 -1.1408 -0.8828
 9357SOL    HW239705   4.484   2.394   4.357  0.6327 -0.0995 -0.5045
 9358SOL     OW39706   3.859   2.942   5.889 -0.7067  0.6428 -0.1929
 9358SOL    HW139707   3.921   2.888   5.939  2.3370  3.5021 -0.8598
 9358SOL    HW239708   3.825   2.980   5.969  0.3921 -1.3602  1.2398
 9359SOL     OW39709   3.491   1.723   3.210  0.3493 -0.5324  0.2589
 9359SOL    HW139710   3.408   1.689   3.176 -0.5747  1.1499  0.8162
 9359SOL    HW239711   3.529   1.641   3.240 -2.6181 -1.8735  0.3600
 9360SOL     OW39712   0.285   3.225  13.574 -0.0503 -0.1685  0.1335
 9360SOL    HW139713   0.286   3.221  13.670 -0.8212 -0.6159  0.1229
 9360SOL    HW239714   0.372   3.199  13.547 -0.2362  0.5975 -1.2032
 9361SOL     OW39715   3.144   1.175   4.801 -0.2607 -0.0978  0.1848
 9361SOL    HW139716   3.155   1.080   4.796 -0.6808 -0.1301 -0.1346
 9361SOL    HW239717   3.060   1.193   4.758  0.1711  3.3265  0.8127
 9362SOL     OW39718   4.463   1.275   5.465  0.0758 -0.3811  0.1531
 9362SOL    HW139719   4.541   1.265   5.518  0.4533 -0.1738 -0.3599
 9362SOL    HW239720   4.484   1.353   5.413  1.9025  0.3346  1.9824
 9363SOL     OW39721   3.451   1.096   1.209  0.4376 -0.0896  0.1334
 9363SOL    HW139722   3.489   1.166   1.262 -0.3345  0.5962 -0.2414
 9363SOL    HW239723   3.431   1.029   1.275  2.6876  1.3317  2.2848
 9364SOL     OW39724   1.860   0.121  13.036  0.3295  0.1997  0.5439
 9364SOL    HW139725   1.821   0.100  13.121 -0.1191 -0.0299  0.2823
 9364SOL    HW239726   1.934   0.176  13.059  0.3861 -0.0600  0.9792
 9365SOL     OW39727   2.081   2.642   4.966 -0.1819  0.0251  0.3025
 9365SOL    HW139728   1.994   2.652   5.003 -0.3147  1.2697 -0.3326
 9365SOL    HW239729   2.096   2.734   4.943 -0.1152 -0.7827 -2.9445
 9366SOL     OW39730   0.782   0.134   5.786 -0.3326 -0.4683 -0.1044
 9366SOL    HW139731   0.784   0.187   5.866  0.5832 -1.7213  0.7111
 9366SOL    HW239732   0.697   0.093   5.800 -0.3071 -0.2877  0.6010
 9367SOL     OW39733   3.494   2.822  16.805  0.7186  0.1138  0.0048
 9367SOL    HW139734   3.481   2.916  16.791  1.7570  0.0988 -1.0892
 9367SOL    HW239735   3.424   2.790  16.747 -0.1178 -2.0731  2.2489
 9368SOL     OW39736   4.736   0.331   7.722 -0.4099 -0.2089 -0.3126
 9368SOL    HW139737   0.040   0.411   7.696 -1.1907  0.7081  1.1616
 9368SOL    HW239738   4.710   0.344   7.813 -1.8854 -1.7213 -0.5251
 9369SOL     OW39739   4.469   0.255   7.288  0.0753 -0.1733  0.0835
 9369SOL    HW139740   4.428   0.217   7.366 -2.5305  1.6096 -0.4201
 9369SOL    HW239741   4.447   0.348   7.296 -1.7537 -0.8482  2.9548
 9370SOL     OW39742   0.200   1.348   6.067 -0.2520  0.2158 -0.1716
 9370SOL    HW139743   0.120   1.382   6.106 -0.0187 -1.0853  1.4434
 9370SOL    HW239744   0.158   1.267   6.037 -0.2404 -0.6293  2.1195
 9371SOL     OW39745   4.676   2.080   1.583 -0.5468  0.3171  0.1610
 9371SOL    HW139746   4.588   2.114   1.566 -0.9149 -1.2306 -1.0244
 9371SOL    HW239747   4.739   2.139   1.541  0.1475 -0.0836  0.6208
 9372SOL     OW39748   1.806   3.111   4.664 -0.1571  0.1676 -0.4252
 9372SOL    HW139749   1.729   3.082   4.713 -1.1860  1.9924 -0.9869
 9372SOL    HW239750   1.854   3.150   4.737 -0.2421  0.5623 -0.5837
 9373SOL     OW39751   4.180   0.052   7.887 -0.0274 -0.1814 -0.3913
 9373SOL    HW139752   4.206   0.135   7.927  0.1104 -1.0694  1.3841
 9373SOL    HW239753   4.252   4.735   7.914  1.5281  1.2049 -1.5071
 9374SOL     OW39754   2.064   3.696   0.055  0.1597 -0.3296 -0.1193
 9374SOL    HW139755   2.049   3.745  17.735  0.7532  4.2600  2.5231
 9374SOL    HW239756   1.974   3.694   0.089 -0.5481  1.9075 -1.8716
 9375SOL     OW39757   3.458   1.122   3.158  0.4403 -0.0419 -0.1101
 9375SOL    HW139758   3.554   1.128   3.158  0.3481  1.3409  0.0022
 9375SOL    HW239759   3.435   1.213   3.175  0.3108  0.2601 -1.8720
 9376SOL     OW39760   1.089   1.334   3.322 -0.2869 -0.8619  0.0350
 9376SOL    HW139761   1.073   1.300   3.234 -3.0417  0.3317  0.0942
 9376SOL    HW239762   1.184   1.320   3.330 -0.6482 -1.6743  2.7560
 9377SOL     OW39763   3.825   4.215   7.357 -0.4981 -0.5048  0.7780
 9377SOL    HW139764   3.749   4.202   7.414 -1.1737 -0.3256 -0.0869
 9377SOL    HW239765   3.869   4.131   7.372 -1.5039 -0.5382  3.4261
 9378SOL     OW39766   4.544   2.333   8.421 -0.1343 -0.0661 -0.0366
 9378SOL    HW139767   4.456   2.308   8.394  0.0912  0.4257 -1.2289
 9378SOL    HW239768   4.542   2.311   8.514 -0.6385 -1.5049 -0.3961
 9379SOL     OW39769   4.380   4.598  17.582 -0.3017  0.4724  0.2042
 9379SOL    HW139770   4.357   4.596  17.674  0.7103 -2.8873  0.3813
 9379SOL    HW239771   4.409   4.508  17.566 -0.7017  0.2042  0.9904
 9380SOL     OW39772   2.261   0.384   2.643 -0.7904 -0.2968  0.1551
 9380SOL    HW139773   2.288   0.450   2.579  5.4041 -3.1921 -0.2431
 9380SOL    HW239774   2.346   0.347   2.667  0.1409  1.3681 -0.6081
 9381SOL     OW39775   0.410   2.573   2.813  0.1865 -0.4030  0.0566
 9381SOL    HW139776   0.391   2.494   2.761  4.3025 -0.5463 -1.2608
 9381SOL    HW239777   0.421   2.529   2.897 -0.8665 -1.7051 -0.4896
 9382SOL     OW39778   1.343   3.610   7.425  0.4937  0.4098 -0.1422
 9382SOL    HW139779   1.353   3.549   7.352 -0.0519  2.3748 -1.8505
 9382SOL    HW239780   1.272   3.577   7.481  2.7162 -1.9531  1.2983
 9383SOL     OW39781   3.213   4.709   9.992 -0.1322  0.2155  0.3865
 9383SOL    HW139782   3.185   0.057   9.972  1.5356  1.2823  2.6668
 9383SOL    HW239783   3.151   4.658   9.941  0.7791 -1.4137  0.9021
 9384SOL     OW39784   2.839   3.674   2.838  0.5521  0.0173 -0.2102
 9384SOL    HW139785   2.793   3.642   2.760  0.5076 -0.0018 -0.1759
 9384SOL    HW239786   2.780   3.747   2.857 -0.0028 -0.6189  0.5235
 9385SOL     OW39787   2.111   2.442  14.141 -0.1802 -0.2380  0.4296
 9385SOL    HW139788   2.202   2.433  14.115 -0.0062 -0.9935  1.3317
 9385SOL    HW239789   2.092   2.359  14.184 -1.7896 -0.2230 -0.2271
 9386SOL     OW39790   2.784   4.531   5.154 -0.1411  0.1048 -0.0681
 9386SOL    HW139791   2.843   4.582   5.209  1.2116 -0.5757 -0.8856
 9386SOL    HW239792   2.832   4.449   5.160 -1.1390 -0.5273 -0.6836
 9387SOL     OW39793   1.138   1.960  13.406 -0.0576  0.3660  0.2537
 9387SOL    HW139794   1.056   2.009  13.393 -1.2155 -1.0797  2.2160
 9387SOL    HW239795   1.188   1.996  13.333  0.0611 -0.4527 -0.0683
 9388SOL     OW39796   4.503   4.601  12.431 -0.0081 -0.5209 -0.1098
 9388SOL    HW139797   4.536   4.676  12.481 -0.8371  0.0714 -0.4680
 9388SOL    HW239798   4.427   4.648  12.398 -0.4754 -1.4304 -0.3239
 9389SOL     OW39799   0.940   2.020   7.768  0.1728  0.1298  0.5872
 9389SOL    HW139800   1.005   2.008   7.838  0.5696 -2.4118 -0.2364
 9389SOL    HW239801   0.862   1.980   7.807  0.3662 -0.6831  0.1302
 9390SOL     OW39802   4.342   3.525   1.915  0.4620  0.7805 -0.0758
 9390SOL    HW139803   4.377   3.583   1.848  3.4863 -1.3748 -0.3590
 9390SOL    HW239804   4.362   3.579   1.991 -0.5313  1.9979 -0.6896
 9391SOL     OW39805   4.081   2.402   2.751  0.8047  0.2459 -0.1153
 9391SOL    HW139806   3.994   2.439   2.764  1.1664  1.0601 -0.0139
 9391SOL    HW239807   4.123   2.446   2.826 -2.2274 -0.5564  2.0600
 9392SOL     OW39808   2.037   2.900   4.913 -0.1026 -0.2243 -0.4791
 9392SOL    HW139809   1.951   2.868   4.886 -0.0701 -1.2803  0.6638
 9392SOL    HW239810   2.009   2.987   4.941  0.8163 -0.3685  0.8850
 9393SOL     OW39811   1.756   2.604   2.171 -0.0543  0.4645  0.1320
 9393SOL    HW139812   1.815   2.557   2.112  1.5728 -0.4185  2.4729
 9393SOL    HW239813   1.773   2.567   2.258  1.5421 -1.9453 -1.2189
 9394SOL     OW39814   4.407   1.202   7.743  0.1954  0.3645 -0.2606
 9394SOL    HW139815   4.490   1.242   7.715  0.7460 -0.3990  0.2717
 9394SOL    HW239816   4.395   1.240   7.829  0.5899  0.0509 -0.0633
 9395SOL     OW39817   2.794   2.331  11.484 -0.0391  0.1845  0.0402
 9395SOL    HW139818   2.702   2.316  11.461  0.1878 -0.0884 -0.6933
 9395SOL    HW239819   2.839   2.324  11.400 -0.7772 -0.8072 -0.2740
 9396SOL     OW39820   4.148   4.706   9.188 -0.4271 -0.4115  0.0325
 9396SOL    HW139821   4.121   4.681   9.277  2.7782 -3.2618  0.1817
 9396SOL    HW239822   4.070   0.004   9.148  1.3867  2.5231 -0.6819
 9397SOL     OW39823   0.822   3.337   6.531 -0.5405 -0.5746  0.0242
 9397SOL    HW139824   0.745   3.375   6.574  1.5615  1.5146  1.9093
 9397SOL    HW239825   0.796   3.245   6.524 -2.1496 -0.0818 -0.5245
 9398SOL     OW39826   1.954   0.852   2.764 -0.0565  0.5446  0.4498
 9398SOL    HW139827   1.916   0.868   2.850 -0.7855 -1.5221  0.5051
 9398SOL    HW239828   1.912   0.767   2.748  0.2510  0.0679  2.2048
 9399SOL     OW39829   1.688   3.760   3.816 -0.5147  0.2263 -0.1110
 9399SOL    HW139830   1.720   3.674   3.790 -0.2895  1.3830 -3.6957
 9399SOL    HW239831   1.755   3.821   3.787  0.8400 -0.8029  0.8635
 9400SOL     OW39832   4.200   0.105   5.237  0.3647  0.3242 -0.7973
 9400SOL    HW139833   4.225   0.197   5.226  0.3175  0.0846 -2.9961
 9400SOL    HW239834   4.110   0.118   5.209 -0.5041 -0.5061  1.6441
 9401SOL     OW39835   3.083   4.046   4.501  0.0367 -0.6646 -0.4895
 9401SOL    HW139836   3.056   3.964   4.542 -0.3937 -0.3864 -0.2144
 9401SOL    HW239837   2.998   4.069   4.464  1.5787  1.5770 -2.6005
 9402SOL     OW39838   3.054   4.427   6.494 -0.3708  0.1922  0.5559
 9402SOL    HW139839   3.142   4.463   6.487  0.8247 -3.0110 -0.8635
 9402SOL    HW239840   3.046   4.440   6.589 -1.0321 -1.8138  0.7733
 9403SOL     OW39841   4.400   1.622  15.373  0.6142  0.3303  0.0653
 9403SOL    HW139842   4.314   1.618  15.415  0.1758  0.7165 -0.7934
 9403SOL    HW239843   4.447   1.552  15.419  0.4484  0.5052  0.4997
 9404SOL     OW39844   1.302   1.272   1.139 -0.1533  0.8515 -0.4022
 9404SOL    HW139845   1.269   1.222   1.213  0.4817 -2.3460 -2.2837
 9404SOL    HW239846   1.269   1.358   1.165 -1.6832 -0.1947  1.1184
 9405SOL     OW39847   1.264   3.758   7.683 -0.2228  0.5677  0.5408
 9405SOL    HW139848   1.243   3.673   7.645 -1.3892  1.6969 -1.3562
 9405SOL    HW239849   1.200   3.809   7.634 -2.3692 -0.9093  1.7896
 9406SOL     OW39850   2.868   3.590   6.675  0.4520  0.6220  0.2327
 9406SOL    HW139851   2.941   3.652   6.686  0.2196  0.9640 -0.1876
 9406SOL    HW239852   2.825   3.602   6.760  4.1214  2.3042  1.8713
 9407SOL     OW39853   3.342   0.748   8.573 -0.5266  0.1327 -0.3990
 9407SOL    HW139854   3.281   0.676   8.556 -1.0265  0.0726  1.7075
 9407SOL    HW239855   3.395   0.699   8.635 -0.8043  1.9967  1.2883
 9408SOL     OW39856   1.210   2.148   6.950 -0.1000 -0.3103 -0.1319
 9408SOL    HW139857   1.293   2.195   6.949  0.0655 -0.5672  1.5150
 9408SOL    HW239858   1.209   2.127   7.043 -0.2123 -0.4545 -0.1647
 9409SOL     OW39859   1.206   2.917   6.863 -0.4965  0.0799 -0.0933
 9409SOL    HW139860   1.274   2.983   6.879  0.1253 -0.0426 -2.1853
 9409SOL    HW239861   1.230   2.844   6.920  0.2385  1.9571  2.0362
 9410SOL     OW39862   0.992   2.196   4.013 -0.7324  1.3201 -0.0478
 9410SOL    HW139863   1.018   2.204   3.922  2.1121 -0.1992  0.6481
 9410SOL    HW239864   1.049   2.260   4.055 -0.4372  0.4361  0.9145
 9411SOL     OW39865   0.226   3.621   7.022 -0.1912 -0.0158 -0.9105
 9411SOL    HW139866   0.252   3.637   7.113  1.7446 -0.9176 -1.3042
 9411SOL    HW239867   0.142   3.583   7.048 -0.0204  0.6850  0.6506
 9412SOL     OW39868   4.236   3.821   6.170 -0.3091 -0.0596 -0.3543
 9412SOL    HW139869   4.181   3.899   6.160  0.3598  0.4173 -0.2911
 9412SOL    HW239870   4.306   3.854   6.226  0.6539 -0.0336 -1.5684
 9413SOL     OW39871   3.267   2.973   4.920  0.1732  0.0724  0.6107
 9413SOL    HW139872   3.229   3.053   4.885  0.4126  0.0560  0.3079
 9413SOL    HW239873   3.348   3.002   4.962  0.5458 -0.0071 -0.0491
 9414SOL     OW39874   3.387   4.012   6.707  0.3748  0.1531  0.3447
 9414SOL    HW139875   3.462   4.065   6.733  1.3826 -1.2925  0.3821
 9414SOL    HW239876   3.394   3.943   6.773 -0.3322  0.4208  0.7012
 9415SOL     OW39877   1.913   2.696   8.307  0.6955 -0.3318  0.1705
 9415SOL    HW139878   1.988   2.648   8.342  1.2550  1.1152  0.9486
 9415SOL    HW239879   1.839   2.646   8.341  1.8826 -0.6594  2.3356
 9416SOL     OW39880   0.457   3.473  12.545 -0.0955 -0.5148  0.0853
 9416SOL    HW139881   0.505   3.493  12.626  1.1767 -1.5637 -0.4101
 9416SOL    HW239882   0.428   3.383  12.559 -0.3688 -0.5242 -0.5637
 9417SOL     OW39883   0.096   4.492   4.210 -0.0837 -0.5288  0.1166
 9417SOL    HW139884   0.115   4.435   4.135 -1.9450 -0.1142 -0.6804
 9417SOL    HW239885   0.066   4.572   4.166 -0.4841 -2.2581 -2.8007
 9418SOL     OW39886   1.639   4.396   6.917 -0.6291 -0.1766 -0.0809
 9418SOL    HW139887   1.550   4.391   6.953 -0.0957  1.2653  1.4532
 9418SOL    HW239888   1.619   4.450   6.841 -1.6204  0.4605  0.6240
 9419SOL     OW39889   2.707   3.012   8.810 -0.0533 -0.3409  0.1955
 9419SOL    HW139890   2.786   3.052   8.847 -1.9046  0.4697  3.3024
 9419SOL    HW239891   2.704   2.933   8.864  0.2172 -0.0664  0.6140
 9420SOL     OW39892   0.153   1.939   3.100  0.1621  0.4720 -0.1035
 9420SOL    HW139893   0.239   1.906   3.075 -0.6051 -1.0758 -0.6711
 9420SOL    HW239894   0.118   1.860   3.141 -0.8401  0.0780 -1.6995
 9421SOL     OW39895   3.467   0.902   1.040  0.4300 -0.2185  0.1370
 9421SOL    HW139896   3.466   0.981   1.094  2.7375  0.1804 -0.4019
 9421SOL    HW239897   3.471   0.839   1.112 -1.0030 -1.1047 -0.5569
 9422SOL     OW39898   0.263   4.647  11.057 -0.1895  0.1014  0.1764
 9422SOL    HW139899   0.291   4.680  11.142 -0.0417  1.3721 -0.3628
 9422SOL    HW239900   0.293   4.557  11.072  1.7846  0.8922  0.9507
 9423SOL     OW39901   1.022   2.275   4.515  0.0330  0.8159  0.4341
 9423SOL    HW139902   1.070   2.202   4.476  0.1513  1.0659  0.1116
 9423SOL    HW239903   1.075   2.301   4.591  1.1389 -1.2442  0.3570
 9424SOL     OW39904   2.774   1.784   6.253  0.1188 -0.2655 -0.2180
 9424SOL    HW139905   2.717   1.825   6.318 -1.3059  0.9437 -2.2127
 9424SOL    HW239906   2.721   1.809   6.177 -0.6870  1.2805  0.8529
 9425SOL     OW39907   4.085   0.206   6.353 -0.6484  0.1717 -0.1031
 9425SOL    HW139908   4.143   0.172   6.421 -0.1231 -0.4018 -0.8429
 9425SOL    HW239909   4.134   0.287   6.337  1.5557 -0.9070  1.2354
 9426SOL     OW39910   3.311   3.029   3.790 -0.0701 -0.3200  0.1090
 9426SOL    HW139911   3.377   3.095   3.772  0.6213 -0.3850  2.4775
 9426SOL    HW239912   3.252   3.080   3.845 -0.4972 -0.3997 -0.2683
 9427SOL     OW39913   1.996   3.286  12.542  0.7350 -0.1778  0.5844
 9427SOL    HW139914   1.978   3.214  12.482  0.9980  1.0021 -0.9109
 9427SOL    HW239915   1.989   3.241  12.626  0.1038 -0.5213  0.3414
 9428SOL     OW39916   2.722   3.813   2.323 -0.6662 -0.2117  0.4102
 9428SOL    HW139917   2.745   3.732   2.368 -2.1021 -0.8294  0.0283
 9428SOL    HW239918   2.775   3.807   2.244 -0.0613 -0.7649  0.8609
 9429SOL     OW39919   0.171   2.274   9.164 -0.3291 -0.2044 -0.8265
 9429SOL    HW139920   0.231   2.283   9.091  1.0471  1.1460  0.4691
 9429SOL    HW239921   0.153   2.180   9.167  0.1692 -0.2381  1.8837
 9430SOL     OW39922   3.084   2.589   7.636 -0.8018 -0.2831 -0.4165
 9430SOL    HW139923   3.095   2.529   7.710  0.8685 -2.0794 -2.1131
 9430SOL    HW239924   3.102   2.528   7.564 -1.5322  0.0327 -0.8649
 9431SOL     OW39925   4.146   2.547   0.940 -0.2441 -0.4914 -0.7276
 9431SOL    HW139926   4.093   2.594   0.876 -1.2423 -0.7629 -0.1092
 9431SOL    HW239927   4.098   2.466   0.921 -0.6098 -0.6440  0.8511
 9432SOL     OW39928   0.917   3.776   8.256  0.2476 -0.7722  0.6178
 9432SOL    HW139929   0.952   3.694   8.220 -3.8705 -1.9397 -0.7745
 9432SOL    HW239930   0.826   3.751   8.266 -0.9467  3.4827  0.4039
 9433SOL     OW39931   2.736   2.232   8.446  0.2841  0.4704 -0.1278
 9433SOL    HW139932   2.734   2.327   8.449  1.5466  0.5135 -0.8724
 9433SOL    HW239933   2.789   2.212   8.523  1.5546  0.2197 -1.0641
 9434SOL     OW39934   4.739   1.203   7.947 -0.1306  0.1455  0.3529
 9434SOL    HW139935   0.064   1.146   7.907  0.4923  1.4317 -0.4611
 9434SOL    HW239936   4.696   1.241   7.870  0.7240 -0.7080 -0.5331
 9435SOL     OW39937   1.164   2.039   4.354 -0.0224 -0.1314  0.4640
 9435SOL    HW139938   1.239   1.979   4.359 -1.1367 -1.3465  2.4527
 9435SOL    HW239939   1.204   2.108   4.302 -0.4255  0.9933  1.6456
 9436SOL     OW39940   0.691   1.549   5.121  0.0678 -0.2091 -0.0263
 9436SOL    HW139941   0.732   1.581   5.202  0.4230  1.4669 -0.8828
 9436SOL    HW239942   0.600   1.549   5.150  0.1129 -0.2561  0.1171
 9437SOL     OW39943   1.264   4.173   1.128 -0.0719  0.0337  0.3156
 9437SOL    HW139944   1.267   4.103   1.194 -1.1445  0.6367  1.0007
 9437SOL    HW239945   1.303   4.244   1.179 -0.8484  0.6952 -0.0130
 9438SOL     OW39946   3.749   1.129   7.144  0.4951 -0.1043 -0.1633
 9438SOL    HW139947   3.684   1.188   7.182  0.3251 -0.5744  0.2678
 9438SOL    HW239948   3.833   1.165   7.171  0.6291 -0.8309  0.3923
 9439SOL     OW39949   1.094   1.876   2.138 -0.1118  0.4963 -0.0739
 9439SOL    HW139950   1.073   1.956   2.090 -4.1726 -0.7024 -0.2814
 9439SOL    HW239951   1.007   1.866   2.175 -0.7392  0.0142 -1.6828
 9440SOL     OW39952   0.715   1.491   8.643 -0.3064 -0.0130  0.2574
 9440SOL    HW139953   0.808   1.468   8.642 -0.6795 -1.5890  1.1333
 9440SOL    HW239954   0.676   1.404   8.650 -2.9704  1.0887 -0.6858
 9441SOL     OW39955   2.356   1.444  10.319 -0.6274 -0.2040  0.2513
 9441SOL    HW139956   2.281   1.493  10.352 -0.0288 -0.7906  2.4912
 9441SOL    HW239957   2.373   1.380  10.388 -0.0471 -1.3941 -0.9873
 9442SOL     OW39958   0.346   1.364   8.704  0.0621 -0.2181 -0.4826
 9442SOL    HW139959   0.435   1.346   8.735  0.8243  0.7732 -2.0624
 9442SOL    HW239960   0.319   1.292   8.648  2.1160 -1.7364  0.4897
 9443SOL     OW39961   3.681   3.610   7.825 -0.4668  0.3428 -0.4028
 9443SOL    HW139962   3.650   3.663   7.898  0.9911 -0.9160  1.1233
 9443SOL    HW239963   3.625   3.636   7.752  0.6102  1.6943 -0.7295
 9444SOL     OW39964   0.203   3.773  10.002 -0.2712  0.0236 -0.0431
 9444SOL    HW139965   0.241   3.733  10.080 -1.3510 -2.1635 -0.6402
 9444SOL    HW239966   0.116   3.786  10.041 -0.8917 -0.7100 -1.1866
 9445SOL     OW39967   3.998   3.427   2.903 -0.2549  0.2537 -0.0579
 9445SOL    HW139968   4.060   3.359   2.930  1.2587  1.5226 -0.3500
 9445SOL    HW239969   3.936   3.423   2.975 -1.6328 -0.3708 -1.2770
 9446SOL     OW39970   3.112   3.662  11.355 -0.2677  0.2023  0.3371
 9446SOL    HW139971   3.164   3.608  11.296 -0.0420  0.1957  0.5430
 9446SOL    HW239972   3.108   3.606  11.433 -1.7366 -0.2033 -0.0176
 9447SOL     OW39973   3.122   2.267   1.443 -0.5485 -0.3708  0.1668
 9447SOL    HW139974   3.210   2.302   1.455 -0.6646  0.5112 -1.4705
 9447SOL    HW239975   3.079   2.348   1.415  0.8643  0.5556  0.7049
 9448SOL     OW39976   2.381   1.914   5.593 -0.1315  0.1089 -0.7699
 9448SOL    HW139977   2.403   1.862   5.515  1.4203 -1.9722  1.0459
 9448SOL    HW239978   2.345   1.855   5.658  0.6750  0.1814 -0.2473
 9449SOL     OW39979   3.502   0.806   1.580  0.4047 -0.6875  0.3022
 9449SOL    HW139980   3.552   0.758   1.646 -0.8774 -0.3723  1.5111
 9449SOL    HW239981   3.411   0.774   1.583 -0.2047  1.0179  0.0138
 9450SOL     OW39982   0.860   4.172   3.601  0.2190 -0.6435  0.8685
 9450SOL    HW139983   0.846   4.093   3.654 -1.2487 -0.4588  0.7807
 9450SOL    HW239984   0.775   4.210   3.625  0.0465 -0.1422 -0.5223
 9451SOL     OW39985   1.706   1.380   2.228  0.7008  0.3906  0.0867
 9451SOL    HW139986   1.702   1.316   2.300 -0.9079  0.2215 -0.1462
 9451SOL    HW239987   1.641   1.446   2.254  0.4685  1.1282 -2.3690
 9452SOL     OW39988   3.598   2.352  14.283  0.4137  0.2804 -0.5012
 9452SOL    HW139989   3.692   2.363  14.298  0.4668 -1.6714  0.5796
 9452SOL    HW239990   3.582   2.439  14.246  1.4952  0.6140 -0.1748
 9453SOL     OW39991   3.615   0.357   8.827 -0.1014 -0.2979 -0.2939
 9453SOL    HW139992   3.525   0.383   8.848 -0.3871 -0.6008 -1.1528
 9453SOL    HW239993   3.660   0.387   8.906  0.0326  0.6017 -0.7202
 9454SOL     OW39994   0.023   0.840   5.615 -0.0041 -0.0321  0.4123
 9454SOL    HW139995   0.080   0.881   5.549  0.8743 -3.5002 -0.9772
 9454SOL    HW239996   0.073   0.773   5.661  0.2155  0.1279  0.4091
 9455SOL     OW39997   1.989   2.644   9.595 -0.4236 -0.4566  0.2430
 9455SOL    HW139998   1.949   2.730   9.605 -2.4929 -1.4274  0.3246
 9455SOL    HW239999   1.917   2.589   9.562 -1.2505  0.4614  0.5471
 9456SOL     OW40000   4.597   0.278   8.352  0.3206 -0.1793 -1.0309
 9456SOL    HW140001   4.674   0.221   8.344 -0.6425 -1.9575  2.3890
 9456SOL    HW240002   4.630   0.335   8.422 -1.6152 -0.2265 -0.0771
 9457SOL     OW40003   1.390   4.536   5.795 -0.5292  0.0964 -0.3251
 9457SOL    HW140004   1.335   4.546   5.716 -1.2241 -0.5990  0.0737
 9457SOL    HW240005   1.369   4.449   5.827  1.3395 -0.5006 -0.7133
 9458SOL     OW40006   0.440   1.047   4.689  0.2083  0.2574 -0.4733
 9458SOL    HW140007   0.491   1.026   4.767 -0.0888 -0.7238 -0.5470
 9458SOL    HW240008   0.349   1.036   4.717  1.0017 -0.9287  1.6228
 9459SOL     OW40009   4.643   0.641   4.615 -0.0173 -0.8428  0.6165
 9459SOL    HW140010   4.665   0.587   4.691  1.5388  0.3904  1.0355
 9459SOL    HW240011   4.677   0.593   4.539  0.4545 -2.9171  2.1356
 9460SOL     OW40012   3.455   4.543  10.773  1.0012 -0.0942 -0.0328
 9460SOL    HW140013   3.401   4.468  10.747  1.0490  0.1122 -0.7258
 9460SOL    HW240014   3.447   4.595  10.693  0.0067 -1.3967 -0.7629
 9461SOL     OW40015   0.703   2.735   7.103  0.6147 -0.2428  0.5298
 9461SOL    HW140016   0.647   2.771   7.034  0.7239 -3.1564 -1.0852
 9461SOL    HW240017   0.773   2.697   7.050  0.3461 -0.7867  0.5610
 9462SOL     OW40018   2.478   3.290   6.159  0.0777  0.2863  0.1769
 9462SOL    HW140019   2.420   3.221   6.127 -1.0494  0.5225  1.7425
 9462SOL    HW240020   2.540   3.250   6.220  1.2887  2.8847  0.6556
 9463SOL     OW40021   3.299   1.403   9.591 -0.0958 -0.3976 -0.3324
 9463SOL    HW140022   3.325   1.317   9.559  0.5557 -0.1651 -0.4316
 9463SOL    HW240023   3.204   1.395   9.603 -0.3027  1.3782 -0.8074
 9464SOL     OW40024   2.590   3.609   4.317 -0.2376  0.3639  0.1441
 9464SOL    HW140025   2.507   3.597   4.270 -0.4514  0.5883  0.4692
 9464SOL    HW240026   2.622   3.520   4.335 -0.3920  0.9356  3.2559
 9465SOL     OW40027   1.560   3.214   8.459  0.0288 -0.2069 -0.1966
 9465SOL    HW140028   1.555   3.217   8.555  1.9563 -1.0345 -0.0493
 9465SOL    HW240029   1.598   3.298   8.436 -1.3646  1.0860  2.2213
 9466SOL     OW40030   3.353   4.025  10.410 -0.0159 -0.0463 -0.0415
 9466SOL    HW140031   3.354   4.089  10.339  0.4529  1.0482  0.9518
 9466SOL    HW240032   3.315   4.077  10.481 -2.2802 -0.0358 -1.2567
 9467SOL     OW40033   1.845   4.493   8.292 -0.0592 -0.0643 -0.2853
 9467SOL    HW140034   1.762   4.540   8.295  0.1634  0.1871  2.1494
 9467SOL    HW240035   1.889   4.547   8.226 -0.1678  0.3316 -0.0358
 9468SOL     OW40036   3.403   3.503  14.421  0.2609 -0.0061 -0.1255
 9468SOL    HW140037   3.353   3.435  14.468 -1.4554  1.3424  0.0025
 9468SOL    HW240038   3.493   3.472  14.431 -0.0818 -1.0496 -0.1878
 9469SOL     OW40039   0.457   0.639   4.077 -0.5940  0.1866  0.4342
 9469SOL    HW140040   0.465   0.719   4.025  0.3551  0.1536  0.5268
 9469SOL    HW240041   0.449   0.676   4.165 -0.1581  0.8341  0.1945
 9470SOL     OW40042   0.305   1.622   7.401  0.5895 -0.0011  0.3095
 9470SOL    HW140043   0.356   1.587   7.473 -0.2245  1.4507  1.5810
 9470SOL    HW240044   0.226   1.653   7.446  0.1304  0.1123 -0.5671
 9471SOL     OW40045   2.368   3.587   1.557 -0.1540 -0.5051  0.1377
 9471SOL    HW140046   2.324   3.557   1.478 -1.2088  1.9986 -0.2330
 9471SOL    HW240047   2.344   3.679   1.544  1.5448 -0.1261 -0.3674
 9472SOL     OW40048   3.658   3.764   6.615 -0.1217  1.0599  0.3414
 9472SOL    HW140049   3.635   3.761   6.708 -0.5412  0.2726  0.2072
 9472SOL    HW240050   3.686   3.855   6.605  2.1196  0.5984  2.3721
 9473SOL     OW40051   3.249   1.157   6.015  0.6961  0.2571 -0.3743
 9473SOL    HW140052   3.229   1.109   5.934  1.2886  3.7697 -2.5776
 9473SOL    HW240053   3.320   1.207   5.976  0.9181 -0.5188 -0.9802
 9474SOL     OW40054   4.426   1.426  17.694 -0.2427  0.1802  0.2693
 9474SOL    HW140055   4.384   1.503  17.733 -0.4841 -0.0265  0.4137
 9474SOL    HW240056   4.475   1.470  17.624 -1.6174  2.4289  0.7341
 9475SOL     OW40057   2.712   3.223   7.050  0.3303 -0.1551 -0.3396
 9475SOL    HW140058   2.653   3.148   7.039  1.6629 -1.2294 -0.1025
 9475SOL    HW240059   2.698   3.249   7.140  1.8625 -3.2369  0.8149
 9476SOL     OW40060   0.398   3.150   0.680 -0.6114 -0.1231  0.1678
 9476SOL    HW140061   0.482   3.148   0.724  0.4008  0.8594 -1.7187
 9476SOL    HW240062   0.401   3.244   0.661  1.0388 -0.4262 -0.9800
 9477SOL     OW40063   1.312   3.961   1.580 -0.5062 -0.6109 -0.5297
 9477SOL    HW140064   1.380   3.893   1.576  0.4112  0.3566 -1.2330
 9477SOL    HW240065   1.340   4.008   1.658  1.2878 -0.7534 -1.0811
 9478SOL     OW40066   4.011   1.158   8.529  0.2281  0.2222 -0.3887
 9478SOL    HW140067   4.005   1.079   8.584  2.2416 -0.6966 -1.4965
 9478SOL    HW240068   3.954   1.216   8.580 -1.2685 -2.6376  1.2198
 9479SOL     OW40069   1.146   0.454   2.581 -0.7075  0.5329 -0.2688
 9479SOL    HW140070   1.173   0.511   2.510  0.6081 -1.9987 -1.8134
 9479SOL    HW240071   1.134   0.512   2.656  0.9393 -0.1361  0.5085
 9480SOL     OW40072   3.818   0.489   5.153  0.3649  0.1002 -0.6091
 9480SOL    HW140073   3.837   0.433   5.078  0.0151 -0.5981 -0.1760
 9480SOL    HW240074   3.844   0.574   5.119 -0.3990 -0.3895 -2.3907
 9481SOL     OW40075   1.151   0.681   7.202 -0.7678  0.0452  0.2753
 9481SOL    HW140076   1.168   0.761   7.152 -0.0642 -1.0032 -1.1570
 9481SOL    HW240077   1.062   0.706   7.229 -1.2283 -0.1280 -1.0908
 9482SOL     OW40078   0.740   3.975   2.689  0.0237 -0.4023  0.4144
 9482SOL    HW140079   0.706   3.888   2.711  1.7260 -1.0412  0.5541
 9482SOL    HW240080   0.827   3.977   2.729  1.3502 -0.7740 -2.4579
 9483SOL     OW40081   4.503   0.775  13.494 -0.3692  0.0759  0.4596
 9483SOL    HW140082   4.420   0.761  13.449  0.1760  0.7719 -0.7480
 9483SOL    HW240083   4.486   0.849  13.553 -3.2545  0.8731 -1.3710
 9484SOL     OW40084   0.019   0.315   9.728 -0.6148  0.6435  0.6332
 9484SOL    HW140085   0.042   0.375   9.799  0.0188 -0.0678  1.0210
 9484SOL    HW240086   0.017   0.233   9.776 -0.6023 -0.7609 -1.7838
 9485SOL     OW40087   1.567   3.838  14.377  0.3874 -0.0410 -0.3331
 9485SOL    HW140088   1.556   3.909  14.440  0.4488 -0.6022  0.3122
 9485SOL    HW240089   1.629   3.885  14.321 -0.6611 -0.7073 -2.0154
 9486SOL     OW40090   2.108   3.356   5.632 -0.1315  0.0399  0.6388
 9486SOL    HW140091   2.191   3.314   5.653 -0.9902 -1.1082  1.7324
 9486SOL    HW240092   2.122   3.447   5.659 -0.2215  0.4855 -0.7818
 9487SOL     OW40093   2.533   2.322   4.103  1.0080 -0.1167 -0.2366
 9487SOL    HW140094   2.557   2.294   4.014  1.0902  0.6450 -0.4517
 9487SOL    HW240095   2.540   2.417   4.094 -0.7844  0.0612  0.3597
 9488SOL     OW40096   3.098   4.669   4.196 -0.4332 -0.2731 -0.0983
 9488SOL    HW140097   3.159   4.713   4.256 -0.2349 -0.3901 -0.2144
 9488SOL    HW240098   3.044   0.002   4.171 -1.4673 -1.0628 -0.1700
 9489SOL     OW40099   3.254   0.327   7.877 -0.3936  0.4471  0.0807
 9489SOL    HW140100   3.222   0.293   7.960 -0.7669  1.8373  0.5107
 9489SOL    HW240101   3.349   0.321   7.883 -0.1868  0.4074 -3.0209
 9490SOL     OW40102   2.984   4.683   4.527  0.2239  0.3206  0.4406
 9490SOL    HW140103   3.057   4.730   4.568  0.3531 -0.1906  0.7934
 9490SOL    HW240104   2.920   0.010   4.548  1.5176  1.4478  0.7181
 9491SOL     OW40105   4.529   0.800   7.266 -0.1905  0.3071  0.0923
 9491SOL    HW140106   4.579   0.807   7.185 -1.0373  0.4163 -0.4221
 9491SOL    HW240107   4.575   0.870   7.313  0.4264  0.6999 -1.1018
 9492SOL     OW40108   2.348   1.345   5.272  0.3640 -0.3004  0.4169
 9492SOL    HW140109   2.259   1.310   5.285 -0.3101  1.3621  0.2671
 9492SOL    HW240110   2.330   1.430   5.313 -1.1915  0.6678 -2.2834
 9493SOL     OW40111   1.699   3.879   5.018 -0.3494 -0.1649 -0.0860
 9493SOL    HW140112   1.767   3.831   4.971  1.0896  0.1986  1.6212
 9493SOL    HW240113   1.737   3.963   5.047  2.3850 -1.1253 -0.9039
 9494SOL     OW40114   2.364   0.476   0.415  0.6919  0.3297 -0.1604
 9494SOL    HW140115   2.444   0.507   0.372  1.8720 -0.9009  1.1812
 9494SOL    HW240116   2.337   0.402   0.361  0.2801 -1.0198  1.8872
 9495SOL     OW40117   3.113   1.764   6.753 -0.2993 -0.2982  0.7836
 9495SOL    HW140118   3.137   1.855   6.770  2.0486 -0.4224 -1.9667
 9495SOL    HW240119   3.032   1.770   6.704  0.3093 -0.5115 -0.2406
 9496SOL     OW40120   2.767   3.017   6.744 -0.3864 -0.5159  0.3077
 9496SOL    HW140121   2.697   3.077   6.769 -0.9577 -1.1162  0.1423
 9496SOL    HW240122   2.750   2.988   6.654  2.4785  0.6765 -0.6253
 9497SOL     OW40123   3.473   0.746   5.724 -0.1013 -0.2980 -0.7842
 9497SOL    HW140124   3.484   0.668   5.669 -0.6803  0.2043 -1.5932
 9497SOL    HW240125   3.555   0.794   5.710  1.1252 -1.8218  1.1901
 9498SOL     OW40126   3.909   3.120   3.092  0.6167  0.3936 -0.4360
 9498SOL    HW140127   3.878   3.198   3.046 -3.0332  0.2543  1.7842
 9498SOL    HW240128   3.849   3.057   3.052  0.5697 -0.1374  0.4748
 9499SOL     OW40129   1.629   4.279   5.759  0.5936  0.6976 -0.6089
 9499SOL    HW140130   1.554   4.249   5.810  2.3845 -0.5438  1.2701
 9499SOL    HW240131   1.585   4.293   5.675  0.3464  0.7030 -0.4769
 9500SOL     OW40132   3.004   1.290   1.111 -0.3990 -0.1155 -0.2117
 9500SOL    HW140133   3.032   1.257   1.026  0.1941 -1.6636  0.5767
 9500SOL    HW240134   3.042   1.378   1.118 -0.1802 -0.1674 -0.7741
 9501SOL     OW40135   3.756   1.721   7.153 -0.1617 -0.1921  0.0710
 9501SOL    HW140136   3.805   1.789   7.106 -0.2222  0.3964  0.8492
 9501SOL    HW240137   3.818   1.649   7.159 -1.6106 -1.4249  0.2706
 9502SOL     OW40138   4.164   3.043   3.892 -0.2797  0.6786 -0.6037
 9502SOL    HW140139   4.222   2.967   3.893  1.4174  1.9643  1.3519
 9502SOL    HW240140   4.146   3.035   3.798  1.0533 -0.6721 -0.7520
 9503SOL     OW40141   1.338   4.277   4.152 -0.3786  0.2823 -0.6985
 9503SOL    HW140142   1.429   4.247   4.150 -0.7094 -0.8878  1.7115
 9503SOL    HW240143   1.311   4.237   4.235  0.9041  0.2276 -0.3109
 9504SOL     OW40144   4.558   3.799   7.461 -0.8338 -0.3031  0.4135
 9504SOL    HW140145   4.472   3.819   7.424 -1.3700 -2.1536  0.6176
 9504SOL    HW240146   4.606   3.855   7.401  0.4688 -0.3366  1.4264
 9505SOL     OW40147   2.108   1.868   6.354 -0.4735 -0.5584  0.3353
 9505SOL    HW140148   2.195   1.869   6.314  0.0260 -1.0715  1.4268
 9505SOL    HW240149   2.079   1.959   6.339  1.9348  0.3288  1.1031
 9506SOL     OW40150   3.459   3.643   5.962 -0.2361 -0.5110 -0.0464
 9506SOL    HW140151   3.384   3.702   5.958  0.7617  0.8345  0.8605
 9506SOL    HW240152   3.455   3.622   5.869 -0.9843 -1.3688  0.1790
 9507SOL     OW40153   3.891   4.333   2.535 -0.1936 -0.3041  0.2644
 9507SOL    HW140154   3.916   4.330   2.442 -0.2945 -0.1782  0.2328
 9507SOL    HW240155   3.796   4.349   2.529  0.0699  1.7909  1.7169
 9508SOL     OW40156   2.349   3.318   7.314 -0.0617 -0.1021 -0.1893
 9508SOL    HW140157   2.300   3.396   7.289  2.2379  1.2371 -0.5333
 9508SOL    HW240158   2.372   3.345   7.403  0.1934  0.9722 -0.5869
 9509SOL     OW40159   0.257   1.798   2.495  0.7079 -0.5926 -0.0697
 9509SOL    HW140160   0.270   1.710   2.462 -0.3741 -1.0952  0.8285
 9509SOL    HW240161   0.226   1.846   2.418 -2.7347  0.9568  2.2733
 9510SOL     OW40162   0.464   1.131   4.196 -0.2869 -0.1541 -0.1927
 9510SOL    HW140163   0.542   1.074   4.192  0.6604  0.9540  2.4322
 9510SOL    HW240164   0.471   1.180   4.114  1.8864  0.9679  0.6669
 9511SOL     OW40165   1.360   2.666   4.434 -0.7024  0.3552  0.2247
 9511SOL    HW140166   1.415   2.725   4.384 -0.2277 -0.5889 -0.3487
 9511SOL    HW240167   1.283   2.667   4.377 -0.8687  1.5051  0.4544
 9512SOL     OW40168   1.584   3.870   1.863 -0.4071 -1.0892 -0.2864
 9512SOL    HW140169   1.579   3.852   1.957 -0.8105  1.4937  0.1854
 9512SOL    HW240170   1.504   3.827   1.833 -0.7748  0.1047 -0.9813
 9513SOL     OW40171   1.227   1.174   9.719 -0.3984 -0.1941 -0.3634
 9513SOL    HW140172   1.189   1.250   9.763  0.9313  0.6135 -0.6120
 9513SOL    HW240173   1.319   1.194   9.703 -0.3781  1.3984  1.7897
 9514SOL     OW40174   4.523   2.723   4.554 -0.4357 -0.2120 -0.3417
 9514SOL    HW140175   4.464   2.724   4.630 -0.3811  1.7353 -0.3348
 9514SOL    HW240176   4.509   2.631   4.530  0.7630 -0.6484  0.6629
 9515SOL     OW40177   2.577   3.333   2.636  0.5742 -0.1989 -0.3767
 9515SOL    HW140178   2.600   3.359   2.726  1.6259 -0.0145 -0.7024
 9515SOL    HW240179   2.612   3.244   2.643  0.1209 -0.3092  0.5803
 9516SOL     OW40180   3.914   2.667   2.572  0.2278 -0.2710  0.2423
 9516SOL    HW140181   3.847   2.702   2.513 -0.0878 -2.2672 -0.5671
 9516SOL    HW240182   3.921   2.576   2.542 -0.7408  0.0795 -1.0409
 9517SOL     OW40183   0.753   3.870   9.271  0.5620  0.3477  0.4764
 9517SOL    HW140184   0.683   3.822   9.316 -0.3182  0.6325 -0.5733
 9517SOL    HW240185   0.777   3.941   9.331  3.7064  0.6051 -1.0827
 9518SOL     OW40186   0.803   4.702   6.404  0.1757 -0.6137 -0.0241
 9518SOL    HW140187   0.883   4.681   6.358  0.4031 -0.1558  0.1558
 9518SOL    HW240188   0.787   0.056   6.408  1.4688 -0.3511 -1.2860
 9519SOL     OW40189   2.197   0.104  10.639 -1.0535 -0.4136  0.2696
 9519SOL    HW140190   2.232   0.026  10.683  2.2506 -0.1535 -1.9400
 9519SOL    HW240191   2.182   0.160  10.715 -0.5599  0.5888 -0.3630
 9520SOL     OW40192   1.826   4.735  11.217 -0.5814  0.0945  0.6094
 9520SOL    HW140193   1.920   0.012  11.209 -0.3781 -1.0505  0.3397
 9520SOL    HW240194   1.806   4.656  11.166  1.0106  0.1281 -0.0659
 9521SOL     OW40195   1.606   1.797   1.897  0.2325 -0.4212  0.3233
 9521SOL    HW140196   1.536   1.823   1.957 -0.3869 -3.3602  0.8460
 9521SOL    HW240197   1.682   1.807   1.955  1.1700  1.8871 -1.2789
 9522SOL     OW40198   0.445   1.994   4.605 -0.2891  0.1794 -0.5199
 9522SOL    HW140199   0.477   1.949   4.684 -1.2835  1.6521  0.7247
 9522SOL    HW240200   0.358   1.956   4.593 -0.5390  1.1490 -1.6912
 9523SOL     OW40201   2.230   0.575   0.976 -0.5802 -0.0591  0.7127
 9523SOL    HW140202   2.204   0.502   0.919 -1.9012  0.9714 -0.0005
 9523SOL    HW240203   2.145   0.610   1.001 -0.2765 -2.0910  4.5670
 9524SOL     OW40204   3.122   1.933   1.861  0.0663 -0.1594  0.5919
 9524SOL    HW140205   3.159   1.846   1.878 -0.6298 -0.5677 -0.0123
 9524SOL    HW240206   3.056   1.937   1.929 -0.7312  1.2971 -0.2603
 9525SOL     OW40207   0.711   0.169   5.412 -0.4651  0.5503 -0.6741
 9525SOL    HW140208   0.794   0.181   5.458 -0.3772  0.1713 -0.7397
 9525SOL    HW240209   0.719   0.076   5.392  1.4199  0.5568  0.0235
 9526SOL     OW40210   4.479   2.053   5.527  0.5950  0.2364  0.2299
 9526SOL    HW140211   4.493   2.008   5.610  2.3263  0.7486  0.2199
 9526SOL    HW240212   4.446   2.139   5.555 -0.1847 -0.2430  0.7778
 9527SOL     OW40213   0.630   4.691   4.816 -0.0187 -0.4024 -0.4272
 9527SOL    HW140214   0.598   4.709   4.904  0.1740 -0.3873 -0.3602
 9527SOL    HW240215   0.579   0.018   4.772 -2.3259 -1.3014  0.8408
 9528SOL     OW40216   3.820   0.774   6.571 -0.5763 -0.3682 -0.9127
 9528SOL    HW140217   3.828   0.857   6.523  0.2994  1.6975  2.7896
 9528SOL    HW240218   3.746   0.800   6.626 -0.3336 -0.0558 -0.7331
 9529SOL     OW40219   3.360   4.666  11.918  0.8268  0.0262 -0.2701
 9529SOL    HW140220   3.278   4.711  11.897  1.9663  1.4172 -1.8081
 9529SOL    HW240221   3.372   4.713  12.001 -0.0707  1.7793 -1.1145
 9530SOL     OW40222   3.495   0.194  13.295 -0.3828  0.7460  0.7587
 9530SOL    HW140223   3.469   0.274  13.341 -0.5087  0.8413  0.5227
 9530SOL    HW240224   3.471   0.120  13.351  0.6558 -1.3036 -1.4860
 9531SOL     OW40225   2.977   3.222   8.662 -0.7122  0.7419  0.3597
 9531SOL    HW140226   2.962   3.210   8.755 -2.7963 -0.8826 -0.1762
 9531SOL    HW240227   2.963   3.316   8.657 -0.6229  0.7560  0.3757
 9532SOL     OW40228   0.520   4.503  16.524 -0.2722 -0.0794 -0.3012
 9532SOL    HW140229   0.476   4.446  16.586  0.4157 -0.4356 -0.1401
 9532SOL    HW240230   0.448   4.543  16.475  0.0589  1.4781  0.4664
 9533SOL     OW40231   0.817   3.215   7.250  0.5033 -0.2338 -0.2985
 9533SOL    HW140232   0.746   3.270   7.286  0.8474  0.0210 -0.0060
 9533SOL    HW240233   0.781   3.192   7.165  0.7888 -1.6254 -0.0399
 9534SOL     OW40234   3.843   2.399   9.126 -0.4260  0.0570 -0.0628
 9534SOL    HW140235   3.794   2.323   9.096  0.3470 -0.9150  1.0889
 9534SOL    HW240236   3.770   2.448   9.162 -0.4182  2.4860 -3.4150
 9535SOL     OW40237   4.218   3.629  10.771 -0.3179  0.2241  0.0062
 9535SOL    HW140238   4.245   3.695  10.707 -1.0236  0.9319  0.4370
 9535SOL    HW240239   4.294   3.577  10.795 -0.5678 -0.3075 -0.3484
 9536SOL     OW40240   1.237   1.219  14.523 -0.1030  0.5172 -0.3735
 9536SOL    HW140241   1.197   1.240  14.438  2.3476 -0.0905 -1.6736
 9536SOL    HW240242   1.180   1.150  14.555 -1.2220  1.3487 -0.5921
 9537SOL     OW40243   2.344   0.150   3.434 -0.2671 -0.0015 -0.0948
 9537SOL    HW140244   2.277   0.085   3.413  0.1320 -0.7697  1.0194
 9537SOL    HW240245   2.288   0.223   3.459 -1.1341 -0.7087  0.0556
 9538SOL     OW40246   0.859   3.994   8.869  0.2230 -0.4340  0.6128
 9538SOL    HW140247   0.919   4.065   8.848  0.9193 -0.5812  2.1061
 9538SOL    HW240248   0.773   4.033   8.856  0.4835  0.0480  0.3405
 9539SOL     OW40249   4.532   4.390   3.685  0.4169  0.2319  0.0983
 9539SOL    HW140250   4.491   4.330   3.747 -0.0346  1.9833  1.4991
 9539SOL    HW240251   4.558   4.337   3.611 -0.2712 -0.2274  0.1847
 9540SOL     OW40252   0.470   4.685   0.789 -0.1084 -0.0858 -0.1239
 9540SOL    HW140253   0.458   0.008   0.718  2.6181  0.7898  0.2322
 9540SOL    HW240254   0.524   4.613   0.756 -2.0174 -0.8722 -1.5464
 9541SOL     OW40255   2.054   1.819   4.010  0.6846  0.2586 -0.5629
 9541SOL    HW140256   1.989   1.780   4.068  1.9002  2.7511  2.4835
 9541SOL    HW240257   2.130   1.825   4.068  0.4130  0.2777 -0.2099
 9542SOL     OW40258   1.623   1.835  14.944 -0.7491  0.3248  0.0748
 9542SOL    HW140259   1.660   1.782  15.015 -1.0668  0.5222  0.3897
 9542SOL    HW240260   1.570   1.769  14.899 -2.0876  0.5259  1.3381
 9543SOL     OW40261   0.034   1.868   6.861 -0.6469  0.3902 -0.0236
 9543SOL    HW140262   0.033   1.774   6.881  0.4562  0.3623 -0.0876
 9543SOL    HW240263   0.127   1.884   6.877  0.0441 -0.2226 -3.4233
 9544SOL     OW40264   2.320   0.518  17.398  0.8251 -0.0045 -0.1128
 9544SOL    HW140265   2.309   0.469  17.317  1.1829 -2.0314  1.0798
 9544SOL    HW240266   2.391   0.574  17.365 -0.9845  0.8288 -2.5850
 9545SOL     OW40267   2.958   4.369   5.486  0.3041 -0.3180 -0.1001
 9545SOL    HW140268   2.891   4.370   5.555  0.9892 -0.1218  0.5647
 9545SOL    HW240269   3.007   4.446   5.514 -0.0065  0.6398 -2.2110
 9546SOL     OW40270   4.408   2.973   6.385  0.2351  0.3255 -0.3231
 9546SOL    HW140271   4.479   3.026   6.348  1.1873  0.0527  1.1443
 9546SOL    HW240272   4.458   2.911   6.438 -0.6401  1.2947  1.6543
 9547SOL     OW40273   4.161   2.231   3.475 -0.5211 -0.8452 -0.2725
 9547SOL    HW140274   4.116   2.149   3.452 -0.5702 -0.1940 -2.4594
 9547SOL    HW240275   4.100   2.264   3.542  0.4677  0.2531  0.0878
 9548SOL     OW40276   1.117   1.649   4.152 -0.4636 -0.0217  0.8851
 9548SOL    HW140277   1.030   1.666   4.188 -0.9316 -1.2247  0.3152
 9548SOL    HW240278   1.141   1.589   4.222 -1.7291 -1.5297  0.0380
 9549SOL     OW40279   1.966   0.096   7.266 -0.0953  0.4950 -0.0725
 9549SOL    HW140280   1.891   0.037   7.273 -0.2108  0.6855  0.3039
 9549SOL    HW240281   1.935   0.166   7.323  0.5990  1.4783 -0.9234
 9550SOL     OW40282   1.707   0.808   3.726  0.5972  0.0760  0.1427
 9550SOL    HW140283   1.699   0.751   3.650 -1.4870  0.1294  0.3167
 9550SOL    HW240284   1.798   0.838   3.714 -0.3597  2.8958 -0.1790
 9551SOL     OW40285   3.517   2.044   7.778 -0.3765 -0.2021  0.1267
 9551SOL    HW140286   3.548   1.992   7.705 -2.0382 -0.3636 -0.4625
 9551SOL    HW240287   3.523   2.134   7.746  1.2323 -0.7060 -1.0123
 9552SOL     OW40288   4.224   2.913  16.556  0.1829  0.3345  0.6910
 9552SOL    HW140289   4.315   2.942  16.561  0.1334  0.5001  0.6569
 9552SOL    HW240290   4.187   2.976  16.494 -0.4191 -0.3114  0.4032
 9553SOL     OW40291   2.460   0.324   2.293  0.3625 -0.0724  0.0119
 9553SOL    HW140292   2.372   0.291   2.308 -0.8029  2.6110 -0.8166
 9553SOL    HW240293   2.517   0.264   2.341  2.1029  1.6912  0.1721
 9554SOL     OW40294   0.871   0.679  13.720 -0.1258 -0.4198  0.2172
 9554SOL    HW140295   0.832   0.635  13.645 -0.7232  3.1520 -1.5702
 9554SOL    HW240296   0.835   0.639  13.799 -0.8086 -0.4999 -0.1389
 9555SOL     OW40297   0.537   3.368  14.265 -0.1316  0.3972 -0.1877
 9555SOL    HW140298   0.510   3.438  14.324 -0.2511 -0.4373  0.7463
 9555SOL    HW240299   0.617   3.324  14.292  0.6132  0.1558 -2.7631
 9556SOL     OW40300   3.535   3.495   3.669 -0.1934  0.4639 -0.6032
 9556SOL    HW140301   3.467   3.553   3.635 -0.8855 -1.5804 -2.7287
 9556SOL    HW240302   3.543   3.523   3.760  0.1807 -1.8120  0.0682
 9557SOL     OW40303   2.382   3.538   7.791  0.3158 -0.0925 -0.4440
 9557SOL    HW140304   2.442   3.550   7.864  0.7878 -2.3945 -0.4338
 9557SOL    HW240305   2.310   3.492   7.834 -0.6385  1.6842 -0.1571
 9558SOL     OW40306   3.345   0.896   3.259  0.9693  0.2571  0.5087
 9558SOL    HW140307   3.269   0.910   3.315  0.4611  0.1747 -0.1518
 9558SOL    HW240308   3.356   0.983   3.220  1.3045  0.0753  0.2039
 9559SOL     OW40309   2.190   2.752   4.461 -0.2837  0.0213 -0.4785
 9559SOL    HW140310   2.126   2.686   4.436  2.3875 -2.7016 -0.1337
 9559SOL    HW240311   2.132   2.825   4.482 -0.3358 -0.6975  1.8335
 9560SOL     OW40312   2.697   1.624   7.443  0.3708 -0.2435 -0.4127
 9560SOL    HW140313   2.669   1.542   7.402 -1.2855  0.6210 -1.0099
 9560SOL    HW240314   2.745   1.664   7.371  0.2324  1.6049  0.5158
 9561SOL     OW40315   0.275   3.171  15.149 -0.1314 -0.2348  0.0016
 9561SOL    HW140316   0.343   3.123  15.197  0.8070  0.4179 -0.6611
 9561SOL    HW240317   0.208   3.182  15.216  0.4094 -0.5864  0.5964
 9562SOL     OW40318   0.499   0.057  10.921 -1.0517  0.2165 -0.1789
 9562SOL    HW140319   0.501   0.151  10.939 -0.8554  0.3464 -0.8603
 9562SOL    HW240320   0.422   0.032  10.971 -0.5845  1.5902  1.2026
 9563SOL     OW40321   2.678   3.387   3.386 -0.2135  0.0807 -0.1417
 9563SOL    HW140322   2.655   3.460   3.445  0.2814  0.4030 -0.3465
 9563SOL    HW240323   2.662   3.424   3.299 -4.1946 -1.1961  0.0391
 9564SOL     OW40324   3.181   0.082  10.241 -0.3121 -0.1430  0.2279
 9564SOL    HW140325   3.195   0.014  10.175  0.5106 -0.7098  0.9764
 9564SOL    HW240326   3.154   0.163  10.199  0.0455 -0.5205 -0.7301
 9565SOL     OW40327   4.350   0.679  14.735 -0.0343  0.2333  0.5096
 9565SOL    HW140328   4.337   0.588  14.760  0.1193  0.2718  0.7265
 9565SOL    HW240329   4.368   0.707  14.824  1.7748 -2.4187  0.9718
 9566SOL     OW40330   0.510   0.561   9.400 -0.0469 -0.1937  0.2176
 9566SOL    HW140331   0.468   0.556   9.314 -1.8744  1.7485  1.0033
 9566SOL    HW240332   0.446   0.601   9.459  0.2200  1.5236 -0.6264
 9567SOL     OW40333   2.773   2.766   8.929 -0.3173  0.1768  0.0817
 9567SOL    HW140334   2.854   2.731   8.966  0.1129 -1.7265 -2.6876
 9567SOL    HW240335   2.711   2.707   8.972  1.5430 -0.5677  1.7261
 9568SOL     OW40336   4.277   3.068   9.956  0.8383 -0.0356  0.0612
 9568SOL    HW140337   4.353   3.048  10.012 -0.7674  3.3336  3.4415
 9568SOL    HW240338   4.220   3.055  10.032 -0.8099  0.7816 -1.0566
 9569SOL     OW40339   1.910   0.261   2.440 -0.9449 -0.2218 -0.0293
 9569SOL    HW140340   1.888   0.325   2.372 -2.2123  0.1510  0.7367
 9569SOL    HW240341   1.936   0.188   2.384  1.1694  1.9377 -1.9232
 9570SOL     OW40342   0.510   3.375   5.631 -0.2003  0.3784 -0.0169
 9570SOL    HW140343   0.523   3.450   5.688 -0.8543 -0.3823  1.1447
 9570SOL    HW240344   0.599   3.340   5.620  0.0220  0.4927  1.4017
 9571SOL     OW40345   2.247   3.040   4.656  0.2157  0.2130 -0.3186
 9571SOL    HW140346   2.270   2.992   4.735 -0.3580 -3.1921 -2.2302
 9571SOL    HW240347   2.333   3.043   4.615 -0.1703 -0.1794 -1.1526
   4.74102   4.74102  17.76143
