Membrane in water
40347
    1TMC1    C1    1   0.528   0.092  11.255  0.1591  0.6891 -0.5617
    1TMC1    C2    2   0.580   0.186  11.344 -1.0856  0.2381  0.5428
    1TMC1    C3    3   0.698   0.252  11.311  0.4827 -0.0903  0.3173
    1TMC1    C4    4   0.563   0.093  11.124  0.4021 -0.1524  0.0883
    1TMC1    C5    5   0.667   0.172  11.085  0.0266 -0.4725  0.6521
    1TMC1    C6    6   0.732   0.249  11.179 -0.2113  0.0490 -0.5230
    1TMC1     C    7   0.392   0.048  11.266 -0.3016 -0.7014  0.0346
    1TMC1     O    8   0.318   0.064  11.166  0.0026 -0.0019 -0.0418
    1TMC1     H    9   0.544   0.198  11.445 -0.4154 -0.1028  0.8218
    1TMC1    H1   10   0.520   0.024  11.052  1.0458  1.2654 -1.6432
    1TMC1    H2   11   0.823   0.300  11.149 -0.1702 -0.1464 -0.7288
    1TMC1    C7   12   0.718   0.144  10.952  0.6521  0.9253  0.5494
    1TMC1    C8   13   0.698   0.386  11.364  0.1692  0.5955 -0.0420
    1TMC1    O1   14   0.717   0.035  10.897 -0.0586  0.2705 -0.0655
    1TMC1    O2   15   0.598   0.438  11.420  0.1137  0.3114  0.1306
    1TMC1    O3   16   0.799   0.244  10.911  0.4288 -1.1415 -0.0925
    1TMC1    H3   17   0.790   0.325  10.966 -0.9612 -0.7645 -0.8443
    1TMC1    O5   18   0.818   0.418  11.395 -0.3224 -0.3455  0.0636
    1TMC1    H5   19   0.896   0.369  11.360 -0.3266 -1.2495  1.3058
    2MPD2     C   20   0.013   4.657  11.582  0.8951  0.3721 -0.7494
    2MPD2    C1   21   0.127   4.660  11.652 -0.3012 -0.4075 -0.0105
    2MPD2    C2   22   0.242   4.694  11.591 -0.0542 -0.1291  0.2333
    2MPD2    C3   23   0.244   4.723  11.457 -0.0022  0.7282 -0.5024
    2MPD2    C4   24   0.128   4.703  11.384 -0.5161  0.1772  0.2494
    2MPD2    C5   25   0.012   4.677  11.446 -0.2159 -0.3942  0.5682
    2MPD2     H   26   0.335   4.695  11.647 -1.0380  0.6866  1.8675
    2MPD2    H1   27   0.126   4.717  11.277 -0.4798  1.7902  0.4472
    2MPD2    H2   28   4.657   4.639  11.634 -0.0329 -1.2805 -2.9854
    2MPD2    H3   29   4.655   4.666  11.394 -0.5362 -0.6248  1.1870
    2MPD2     N   30   0.366   0.031  11.400  0.1185 -0.5604  0.4278
    2MPD2    H5   31   0.441   0.003  11.462  1.2014  0.6741 -0.3296
    2MPD2    N1   32   0.121   4.642  11.788  0.0901  0.4075  0.0975
    2MPD2    H7   33   0.030   4.621  11.829  0.1632  0.5153  0.3143
    3TMC1    C1   34   4.607   0.743  10.576  1.0022 -0.5913 -0.1577
    3TMC1    C2   35   4.730   0.805  10.579 -0.3353  0.2154  0.2839
    3TMC1    C3   36   0.074   0.784  10.471 -0.6885 -0.1159  0.1666
    3TMC1    C4   37   4.584   0.654  10.479  0.0322  0.0277  0.0610
    3TMC1    C5   38   4.660   0.640  10.369  0.3894 -0.0720 -0.9569
    3TMC1    C6   39   0.039   0.706  10.359  0.0184 -0.6796  0.4283
    3TMC1     C   40   4.536   0.763  10.697 -0.0590 -0.0655  0.2484
    3TMC1     O   41   4.462   0.670  10.727 -0.1417 -0.1453 -0.7351
    3TMC1     H   42   0.034   0.864  10.660 -0.6522  0.8390 -0.0116
    3TMC1    H1   43   4.490   0.601  10.487  0.4688 -0.6763  0.5315
    3TMC1    H2   44   0.104   0.698  10.273 -1.7604 -1.3172 -0.8381
    3TMC1    C7   45   4.644   0.509  10.301  0.0739  0.2463 -0.5161
    3TMC1    C8   46   0.202   0.849  10.464 -0.2976  0.5823  0.4797
    3TMC1    O1   47   4.601   0.411  10.358 -0.1790 -0.1073 -0.5042
    3TMC1    O2   48   0.288   0.805  10.393  0.5779 -0.0537  0.3275
    3TMC1    O3   49   4.702   0.509  10.174  0.1284  0.2723  0.2598
    3TMC1    H3   50   4.732   0.594  10.136 -0.3661  0.1369 -0.4428
    3TMC1    O5   51   0.178   0.980  10.496 -0.3527 -0.4632  0.0684
    3TMC1    H5   52   0.090   1.009  10.527  0.5504  0.8013  1.4721
    4MPD2     C   53   4.372   1.035  11.099  0.2134  0.0031  0.2139
    4MPD2    C1   54   4.443   1.116  11.017  0.4384  0.8150  0.4604
    4MPD2    C2   55   4.503   1.064  10.904  0.5980 -0.2991 -0.4377
    4MPD2    C3   56   4.484   0.934  10.867 -0.4452  0.0858  0.1747
    4MPD2    C4   57   4.416   0.845  10.952 -0.0491 -0.1073  0.2031
    4MPD2    C5   58   4.361   0.901  11.068  0.6472  0.5244 -0.5392
    4MPD2     H   59   4.549   1.139  10.841 -1.4895  0.5572 -0.9359
    4MPD2    H1   60   4.403   0.739  10.932  2.0805 -0.6037  1.4255
    4MPD2    H2   61   4.329   1.070  11.192  2.0323  2.9771 -0.0547
    4MPD2    H3   62   4.295   0.842  11.131  1.3032  1.8414  1.3834
    4MPD2     N   63   4.547   0.890  10.752 -0.2127  0.0361  0.4607
    4MPD2    H5   64   4.597   0.956  10.694 -0.5124 -1.0430 -1.0119
    4MPD2    N1   65   4.462   1.256  11.034 -0.9634 -0.1446 -0.4741
    4MPD2    H7   66   4.531   1.299  10.973 -1.5713  1.5515  0.0384
    5TCq1    O1   67   1.022   2.315  12.139  0.4191 -0.2602  0.1775
    5TCq1    C1   68   1.048   2.379  12.021 -0.3371 -0.6902  0.0367
    5TCq1    O2   69   1.132   2.340  11.944  0.3384 -0.4809 -0.2198
    5TCq1    C2   70   0.939   2.466  11.976 -0.2350  0.2148  0.2523
    5TCq1    C3   71   0.853   2.513  12.069 -0.4303  0.6164  0.2888
    5TCq1    C4   72   0.727   2.553  12.029  0.1504  0.4070  0.3253
    5TCq1    C5   73   0.684   2.542  11.899 -0.0517  0.3116  0.7750
    5TCq1    C6   74   0.777   2.500  11.803  0.4925 -0.0484 -0.0287
    5TCq1    C7   75   0.904   2.455  11.843 -0.0500 -0.0698 -0.5058
    5TCq1    C8   76   0.745   2.492  11.660 -0.5254 -0.3474 -0.1164
    5TCq1    O4   77   0.823   2.431  11.592 -0.0929 -0.9097  0.1903
    5TCq1    C9   78   0.639   2.603  12.130  0.7814 -0.3248  0.3032
    5TCq1    O5   79   0.651   2.547  12.240  0.0289 -0.3266 -0.0021
    5TCq1    O6   80   0.544   2.679  12.095 -0.2333  0.1553 -0.1811
    5TCq1    H1   81   0.934   2.338  12.177  1.4699  1.5762  1.4957
    5TCq1    H2   82   0.890   2.533  12.169 -1.5877  0.8637  0.6706
    5TCq1    H3   83   0.583   2.577  11.880 -0.7496 -1.1458  1.7871
    5TCq1    H4   84   0.977   2.400  11.785  1.9736  0.8247  1.2114
    6MPD2     C   85   0.477   2.668  11.486 -1.0012  0.0453 -0.2491
    6MPD2    C1   86   0.570   2.572  11.502 -0.3718  0.0786  0.3735
    6MPD2    C2   87   0.588   2.481  11.400  0.0342 -0.1895 -0.1180
    6MPD2    C3   88   0.519   2.480  11.286  0.0059 -0.2463  0.1682
    6MPD2    C4   89   0.429   2.578  11.262 -0.5570 -0.4464 -0.2289
    6MPD2    C5   90   0.405   2.669  11.364 -0.1596  0.2410  0.2541
    6MPD2     H   91   0.657   2.398  11.416 -0.4930 -0.5450  0.3346
    6MPD2    H1   92   0.393   2.605  11.163  1.4570 -2.1567 -1.4249
    6MPD2    H2   93   0.457   2.724  11.577  0.7432 -0.9600  0.7475
    6MPD2    H3   94   0.340   2.752  11.340 -0.4899  0.0954  0.6285
    6MPD2     N   95   0.532   2.363  11.202  0.6532  0.1637  0.3165
    6MPD2    H5   96   0.596   2.287  11.224  0.2414  0.1660  1.5098
    6MPD2    N1   97   0.636   2.561  11.627  0.3692  0.2789  0.1054
    6MPD2    H7   98   0.602   2.624  11.699  0.2703  2.9570 -2.3254
    7TCq1    O1   99   2.313   2.724  13.058  0.1471  0.4917 -0.0264
    7TCq1    C1  100   2.438   2.700  13.115  0.4727  0.3751  0.0436
    7TCq1    O2  101   2.461   2.717  13.232  0.1194  0.1356  0.7951
    7TCq1    C2  102   2.481   2.587  13.034  0.5078  1.0104 -0.2241
    7TCq1    C3  103   2.435   2.569  12.907  0.2644  0.0220 -0.0626
    7TCq1    C4  104   2.449   2.441  12.854  0.1071  0.6024 -0.1043
    7TCq1    C5  105   2.511   2.339  12.924  0.6659  0.5144 -0.3671
    7TCq1    C6  106   2.574   2.370  13.050 -0.2203 -0.2944  0.1991
    7TCq1    C7  107   2.541   2.491  13.105 -0.5337 -0.6511 -0.3516
    7TCq1    C8  108   2.671   2.275  13.100  0.4978  0.3132 -0.4709
    7TCq1    O4  109   2.673   2.161  13.061 -0.4462 -0.1705  0.2176
    7TCq1    C9  110   2.409   2.410  12.716 -0.4424 -0.4718 -0.1671
    7TCq1    O5  111   2.451   2.299  12.671  0.3569  0.2293 -0.0189
    7TCq1    O6  112   2.327   2.490  12.662  0.2942  0.2528 -0.0181
    7TCq1    H1  113   2.307   2.680  12.971 -0.0224 -0.1830  0.3233
    7TCq1    H2  114   2.389   2.646  12.846 -1.2879 -0.0033  1.0911
    7TCq1    H3  115   2.523   2.244  12.873  3.5410 -0.5611  2.3143
    7TCq1    H4  116   2.558   2.515  13.209  2.0759 -0.9915 -0.6823
    8MPD2     C  117   2.996   2.113  13.458 -0.3604 -0.0176 -0.1917
    8MPD2    C1  118   2.938   2.050  13.353 -0.5214  0.0526 -0.5124
    8MPD2    C2  119   2.865   2.114  13.257  0.5669  0.1624 -0.2765
    8MPD2    C3  120   2.832   2.244  13.282 -0.3793 -0.3474  0.3794
    8MPD2    C4  121   2.883   2.308  13.399 -0.1804 -0.0321 -0.0128
    8MPD2    C5  122   2.980   2.247  13.471 -0.3312  0.0069 -0.0176
    8MPD2     H  123   2.824   2.054  13.176  3.4561  1.1111 -2.4554
    8MPD2    H1  124   2.869   2.413  13.422  1.4227 -0.2228  1.8144
    8MPD2    H2  125   3.047   2.053  13.532 -0.5878  2.4814  1.9648
    8MPD2    H3  126   3.026   2.295  13.556 -1.0022  0.8362 -0.1207
    8MPD2     N  127   2.741   2.321  13.209  0.2960 -0.8314 -0.4262
    8MPD2    H5  128   2.730   2.418  13.237  0.0422 -0.9931  0.0383
    8MPD2    N1  129   2.967   1.913  13.347  0.3132 -0.3833 -0.4631
    8MPD2    H7  130   3.040   1.879  13.409  3.3819  0.1629 -3.7073
    9TMC1    C1  131   4.488   1.252  12.530  0.6221 -0.4116 -0.9106
    9TMC1    C2  132   4.411   1.247  12.418  0.2768 -0.5457  0.1798
    9TMC1    C3  133   4.465   1.284  12.301  0.9102  0.7311  0.6792
    9TMC1    C4  134   4.622   1.276  12.529 -0.2324  0.0758  0.0544
    9TMC1    C5  135   4.667   1.317  12.410 -0.3971 -0.1618 -0.2046
    9TMC1    C6  136   4.595   1.323  12.288 -0.1220  0.0785 -0.0996
    9TMC1     C  137   4.431   1.193  12.651  0.5772 -0.8123 -0.9760
    9TMC1     O  138   4.483   1.228  12.757  0.0344 -0.0232  0.8786
    9TMC1     H  139   4.303   1.242  12.426  0.2633  0.1442  0.3674
    9TMC1    H1  140   4.670   1.298  12.623 -1.7024  0.5594  0.6880
    9TMC1    H2  141   4.638   1.363  12.197 -3.0446 -1.2308 -2.0390
    9TMC1    C7  142   0.072   1.353  12.393  0.4799 -0.2553  0.4789
    9TMC1    C8  143   4.386   1.293  12.178 -0.5287 -0.3018  0.0267
    9TMC1    O1  144   0.107   1.422  12.298 -0.7429 -0.4728  0.0489
    9TMC1    O2  145   4.436   1.338  12.076  0.2643  0.0201 -0.5004
    9TMC1    O3  146   0.150   1.296  12.492 -0.5775 -0.0525 -0.2598
    9TMC1    H3  147   0.099   1.245  12.558  2.7631 -2.2940  0.6209
    9TMC1    O5  148   4.298   1.192  12.178  0.2178 -0.1418 -0.1429
    9TMC1    H5  149   4.283   1.146  12.263  2.3359  0.4236  0.5413
   10MPD2     C  150   4.265   1.063  12.874  0.4261 -0.1428 -0.5478
   10MPD2    C1  151   4.253   1.033  12.737 -0.1021 -0.3853  0.3335
   10MPD2    C2  152   4.175   0.924  12.699  0.0802  0.5324 -0.4841
   10MPD2    C3  153   4.113   0.847  12.796  0.1221  0.5076  0.0705
   10MPD2    C4  154   4.125   0.874  12.927 -0.2621  0.8104  0.2182
   10MPD2    C5  155   4.193   0.986  12.960  0.5857  0.0771  0.5007
   10MPD2     H  156   4.185   0.887  12.597  0.0688 -2.1507  0.4845
   10MPD2    H1  157   4.086   0.819  13.011  0.7969  0.7422  0.6659
   10MPD2    H2  158   4.319   1.151  12.908 -3.1695  1.8256  0.1793
   10MPD2    H3  159   4.217   1.006  13.064 -2.9144 -1.9072  1.6818
   10MPD2     N  160   4.066   0.711  12.768  0.2375 -1.1875  0.1320
   10MPD2    H5  161   4.027   0.660  12.847  0.1417  0.5010  1.1803
   10MPD2    N1  162   4.321   1.112  12.636  0.2475 -0.7224  0.4578
   10MPD2    H7  163   4.296   1.090  12.540  0.1842 -1.0556  0.5509
   11TCq1    O1  164   0.011   0.538  15.192 -0.0921 -0.4417 -0.5020
   11TCq1    C1  165   4.661   0.563  15.094 -0.5412  0.0316 -0.1174
   11TCq1    O2  166   4.554   0.619  15.112 -0.2725  0.2361  0.0435
   11TCq1    C2  167   4.712   0.538  14.964 -0.3260  0.1902  0.7507
   11TCq1    C3  168   0.117   0.546  14.944  0.7303 -0.6482  0.3164
   11TCq1    C4  169   0.165   0.520  14.814 -0.2758  0.3023 -0.0665
   11TCq1    C5  170   0.082   0.474  14.715 -0.5507  0.2232 -0.1086
   11TCq1    C6  171   4.687   0.485  14.735  0.5639 -0.4136 -0.6703
   11TCq1    C7  172   4.633   0.515  14.859 -0.1557  0.3309  0.0576
   11TCq1    C8  173   4.588   0.472  14.635 -0.5082 -0.4337  0.0554
   11TCq1    O4  174   4.485   0.536  14.646 -0.5205 -0.3245  0.2743
   11TCq1    C9  175   0.311   0.532  14.790 -0.0689  0.3634 -0.0716
   11TCq1    O5  176   0.347   0.507  14.672  0.1818  0.1126 -0.6160
   11TCq1    O6  177   0.389   0.568  14.880 -0.0590  0.0452  0.1525
   11TCq1    H1  178   0.082   0.470  15.179 -1.3102 -1.7859 -0.1740
   11TCq1    H2  179   0.180   0.590  15.019  1.0443 -0.4891 -0.0401
   11TCq1    H3  180   0.125   0.454  14.618 -0.4433  2.5507 -0.5316
   11TCq1    H4  181   4.526   0.522  14.874 -0.1899  0.6256 -0.3203
   12MPD2     C  182   4.437   0.408  14.385 -0.0618  0.1898 -0.2183
   12MPD2    C1  183   4.562   0.359  14.415 -0.4913 -1.1525  0.1113
   12MPD2    C2  184   4.628   0.289  14.316  0.3887 -0.4544  0.4347
   12MPD2    C3  185   4.566   0.264  14.190 -0.0743  0.1931 -0.1445
   12MPD2    C4  186   4.442   0.311  14.167  0.1858  0.1730  0.2937
   12MPD2    C5  187   4.379   0.390  14.265  0.7133 -0.2397  0.4629
   12MPD2     H  188   4.734   0.273  14.332  0.3311  0.3653  1.6718
   12MPD2    H1  189   4.398   0.300  14.069 -0.8686  0.6219  0.7185
   12MPD2    H2  190   4.375   0.466  14.452  1.2108  0.4135  0.7522
   12MPD2    H3  191   4.279   0.428  14.251  1.3212  1.6825  1.3787
   12MPD2     N  192   4.626   0.199  14.085 -0.0494 -0.6052  0.2300
   12MPD2    H5  193   4.567   0.188  14.003  2.2105 -0.3395 -1.4568
   12MPD2    N1  194   4.633   0.395  14.530  0.7252 -0.2338  0.0955
   12MPD2    H7  195   4.730   0.365  14.530 -0.2275 -3.3611  0.3346
   13TCq1    O1  196   0.589   0.570  10.401  0.4442 -0.1918  0.7396
   13TCq1    C1  197   0.515   0.577  10.517 -0.1479  0.7476 -0.2879
   13TCq1    O2  198   0.556   0.600  10.634 -0.0357  0.1414 -0.2688
   13TCq1    C2  199   0.397   0.502  10.495  0.1011 -0.1639  0.5908
   13TCq1    C3  200   0.384   0.418  10.381  0.9834 -0.0423 -0.7107
   13TCq1    C4  201   0.268   0.350  10.373 -0.4594  0.8337 -0.1003
   13TCq1    C5  202   0.172   0.352  10.464 -0.6606 -0.9266 -0.7067
   13TCq1    C6  203   0.194   0.426  10.577 -0.2322 -0.7448 -0.6592
   13TCq1    C7  204   0.303   0.504  10.597  0.0122  0.5209 -0.1261
   13TCq1    C8  205   0.099   0.419  10.683 -0.1185 -0.3888  0.2811
   13TCq1    O4  206   0.126   0.479  10.787  0.4927  0.1431 -0.0303
   13TCq1    C9  207   0.256   0.253  10.263 -0.5101  0.2491  0.0729
   13TCq1    O5  208   0.327   0.270  10.156  0.5700 -0.1191  0.3228
   13TCq1    O6  209   0.163   0.171  10.269 -0.6378 -0.4463 -0.0137
   13TCq1    H1  210   0.529   0.576  10.324  1.7899 -2.6488 -0.4846
   13TCq1    H2  211   0.445   0.415  10.292  1.3363  0.5993 -0.4908
   13TCq1    H3  212   0.092   0.280  10.458  0.2102 -1.7282 -2.4669
   13TCq1    H4  213   0.324   0.568  10.682  0.5743  0.6067 -0.3300
   14MPD2     C  214   4.498   0.274  10.684  0.2008  0.3149  0.2045
   14MPD2    C1  215   4.618   0.309  10.743  0.2655  0.3875  0.0632
   14MPD2    C2  216   4.627   0.298  10.880  0.0588  0.4209 -0.2130
   14MPD2    C3  217   4.514   0.252  10.956  0.1394 -0.0312  0.1977
   14MPD2    C4  218   4.394   0.223  10.892 -0.0017 -0.0819  0.1682
   14MPD2    C5  219   4.390   0.239  10.756 -0.4781 -0.4644  0.9368
   14MPD2     H  220   4.722   0.326  10.924 -0.4351  0.0860  1.0797
   14MPD2    H1  221   4.300   0.196  10.940  0.1064  1.1516  1.0740
   14MPD2    H2  222   4.476   0.291  10.580  0.3601  0.7163  0.2326
   14MPD2    H3  223   4.302   0.210  10.699  0.6385 -0.3599 -0.8133
   14MPD2     N  224   4.528   0.227  11.094 -0.3507  0.1387  0.0163
   14MPD2    H5  225   4.609   0.268  11.139 -0.6080  0.2180  0.4060
   14MPD2    N1  226   4.719   0.352  10.653  0.1759  0.3531  0.5801
   14MPD2    H7  227   4.694   0.351  10.555  3.4239  0.6626 -0.2780
   15TCq1    O1  228   2.659   4.719   1.873  0.5571  0.4632 -0.5502
   15TCq1    C1  229   2.540   0.025   1.824  0.1816 -0.2661 -0.1651
   15TCq1    O2  230   2.496   0.137   1.843 -0.4600 -0.5607  0.1654
   15TCq1    C2  231   2.547   4.717   1.683 -0.7909  0.1937  0.0091
   15TCq1    C3  232   2.577   0.060   1.579  0.1898  0.0116  0.6436
   15TCq1    C4  233   2.578   0.006   1.453 -0.4522  0.4430  0.9403
   15TCq1    C5  234   2.575   4.607   1.428  0.4520 -0.3330 -0.8200
   15TCq1    C6  235   2.557   4.528   1.535 -0.7126  0.3083 -0.2033
   15TCq1    C7  236   2.542   4.578   1.662 -0.4851  0.3470  0.5551
   15TCq1    C8  237   2.494   4.403   1.517 -0.1616  0.5005 -0.3080
   15TCq1    O4  238   2.530   4.312   1.587  0.0489  0.2698 -0.2298
   15TCq1    C9  239   2.619   0.099   1.353  0.5638  0.3689 -0.1936
   15TCq1    O5  240   2.671   0.057   1.248 -0.1606  0.2680 -1.0273
   15TCq1    O6  241   2.616   0.214   1.386  0.4936 -0.1118  0.1149
   15TCq1    H1  242   2.699   4.647   1.821  2.4953  0.8739  0.4025
   15TCq1    H2  243   2.586   0.165   1.601  0.7493  0.1757 -0.3521
   15TCq1    H3  244   2.607   4.573   1.330 -2.1057  1.4473 -2.2735
   15TCq1    H4  245   2.529   4.510   1.745  2.0607 -0.4638  0.2716
   16MPD2     C  246   2.261   4.326   1.255 -0.1007 -0.0258  0.4888
   16MPD2    C1  247   2.331   4.303   1.369  0.4821 -0.3256 -0.5517
   16MPD2    C2  248   2.324   4.184   1.428 -1.3561 -0.9719  0.6290
   16MPD2    C3  249   2.233   4.085   1.380 -0.2552  0.1747  0.6758
   16MPD2    C4  250   2.147   4.115   1.277 -0.6658 -0.4293  0.0278
   16MPD2    C5  251   2.170   4.235   1.211 -0.1701  0.6343  0.1224
   16MPD2     H  252   2.388   4.163   1.513 -0.5518 -1.4890 -0.1079
   16MPD2    H1  253   2.078   4.042   1.234 -0.2010 -0.0616 -1.3561
   16MPD2    H2  254   2.271   4.423   1.208  2.5588  0.1335  1.3810
   16MPD2    H3  255   2.124   4.241   1.112 -0.9068  1.4169  0.5165
   16MPD2     N  256   2.229   3.959   1.445  0.0835 -0.0955  0.4102
   16MPD2    H5  257   2.302   3.940   1.512 -1.2622  0.9060  2.1415
   16MPD2    N1  258   2.412   4.412   1.413 -0.1906 -0.1171 -0.9815
   16MPD2    H7  259   2.407   4.504   1.371 -1.3190  1.3701  2.4816
   17TMC1    C1  260   4.353   3.883  10.301 -0.2297  0.1369 -0.2233
   17TMC1    C2  261   4.385   3.760  10.260 -0.3937 -0.5369 -0.8889
   17TMC1    C3  262   4.293   3.682  10.200  0.0171  0.0482 -0.3566
   17TMC1    C4  263   4.225   3.933  10.283  0.3308  0.1732  0.6088
   17TMC1    C5  264   4.130   3.847  10.240 -0.3173  0.3732  0.8687
   17TMC1    C6  265   4.163   3.724  10.187  0.0253 -0.2597 -0.3130
   17TMC1     C  266   4.469   3.974  10.312  0.2158 -0.7547  0.8735
   17TMC1     O  267   4.581   3.921  10.295  0.1184  0.0276  0.0805
   17TMC1     H  268   4.485   3.724  10.280  0.1154  1.1243 -0.4873
   17TMC1    H1  269   4.203   4.038  10.296  3.6286  0.8667  0.6226
   17TMC1    H2  270   4.096   3.662  10.130  1.2161 -2.7848  1.0102
   17TMC1    C7  271   4.002   3.892  10.191 -0.1863 -0.6870  0.1103
   17TMC1    C8  272   4.336   3.555  10.152 -0.0036 -0.0406  0.4030
   17TMC1    O1  273   3.967   3.875  10.078 -0.0731  0.4362  0.2838
   17TMC1    O2  274   4.272   3.455  10.142 -0.8877 -0.0779  0.0340
   17TMC1    O3  275   3.969   3.999  10.260  0.0137 -1.1116 -0.1635
   17TMC1    H3  276   3.993   3.983  10.354  0.3155  2.2881  0.3605
   17TMC1    O5  277   4.447   3.583  10.079  0.0426  0.0261 -0.4759
   17TMC1    H5  278   4.482   3.674  10.079  0.5557 -0.1636  1.1853
   18MPD2     C  279   4.632   4.214  10.318 -0.0097  0.2557 -0.5819
   18MPD2    C1  280   4.533   4.198  10.404 -0.5496  0.3923  0.3446
   18MPD2    C2  281   4.497   4.296  10.499  0.2193 -0.5979  0.2159
   18MPD2    C3  282   4.582   4.408  10.502 -0.0614 -0.6549 -0.4664
   18MPD2    C4  283   4.679   4.435  10.404  0.1109 -0.6640 -0.1069
   18MPD2    C5  284   4.709   4.330  10.322  0.0310 -0.2958 -0.4561
   18MPD2     H  285   4.416   4.295  10.571 -0.5619 -1.3219 -0.6640
   18MPD2    H1  286   0.001   4.527  10.398  0.1067 -0.5660  1.3306
   18MPD2    H2  287   4.663   4.144  10.241 -4.5220  0.5829 -2.6954
   18MPD2    H3  288   0.050   4.343  10.248  2.2331 -1.7507  1.6164
   18MPD2     N  289   4.567   4.511  10.602  0.0426 -0.4329 -0.1092
   18MPD2    H5  290   4.639   4.583  10.601  0.0474 -0.4414 -0.3439
   18MPD2    N1  291   4.442   4.090  10.386  0.3918 -0.6217  0.1176
   18MPD2    H7  292   4.356   4.097  10.439  1.7679  0.3372  2.2369
   19TMC2    C1  293   2.013   4.269  13.861  0.6502 -0.2985  0.2416
   19TMC2    C2  294   2.005   4.256  13.723  0.4857  0.7227  0.1820
   19TMC2    C3  295   1.884   4.231  13.667 -0.2579  0.0910 -0.1969
   19TMC2    C4  296   1.900   4.260  13.938 -0.3856 -0.1223 -0.5136
   19TMC2    C5  297   1.781   4.230  13.881 -0.4274  0.6328  0.1475
   19TMC2    C6  298   1.774   4.209  13.746 -0.5800  0.0410 -0.0989
   19TMC2     C  299   2.125   4.336  13.910  0.4942 -0.3730 -0.0215
   19TMC2     O  300   2.219   4.327  13.837  0.2933  0.2182  0.0332
   19TMC2     H  301   2.091   4.273  13.659  2.3128  1.3041  2.7576
   19TMC2    H1  302   1.911   4.253  14.046 -0.7203 -0.9716 -0.5324
   19TMC2    H2  303   1.680   4.192  13.695 -0.7249 -1.0256  0.5151
   19TMC2    C7  304   1.662   4.204  13.960 -0.1693  0.2240 -0.1354
   19TMC2    C8  305   1.882   4.201  13.530  0.4577  0.0970  0.4907
   19TMC2    O1  306   1.555   4.220  13.903 -0.5414  0.7379 -0.2543
   19TMC2    O2  307   1.812   4.115  13.476 -0.0851  0.1151 -0.2883
   19TMC2    O5  308   1.919   4.318  13.475  0.0266 -0.1575 -0.3447
   19TMC2    H5  309   1.946   4.394  13.532  0.9379 -0.9548  0.2660
   20MPD2     C  310   2.333   4.451  14.087 -0.3600 -1.0616  0.9534
   20MPD2    C1  311   2.198   4.485  14.100  0.2046 -0.1380  0.0054
   20MPD2    C2  312   2.150   4.578  14.196 -0.1623  0.0928  0.0730
   20MPD2    C3  313   2.242   4.634  14.280 -0.1015  0.5935  0.4458
   20MPD2    C4  314   2.376   4.598  14.268 -0.0019  0.4790 -0.3174
   20MPD2    C5  315   2.421   4.514  14.169 -0.2419 -0.0665  0.3372
   20MPD2     H  316   2.045   4.604  14.201  0.6711  3.2004  1.0347
   20MPD2    H1  317   2.452   4.646  14.329 -1.0579  1.1536  0.4708
   20MPD2    H2  318   2.384   4.393  14.011  3.4827 -0.8714  3.4047
   20MPD2    H3  319   2.528   4.499  14.161 -0.0348  1.6588 -0.2792
   20MPD2     N  320   2.199   4.723  14.387  0.1028 -0.2139  0.3963
   20MPD2    H5  321   2.273   0.008  14.453 -0.1430  0.9573  0.2907
   20MPD2    N1  322   2.097   4.416  14.026  1.2659  0.5665 -0.3550
   20MPD2    H7  323   1.998   4.422  14.046  1.7741  0.1913  2.2025
   21TMC2    C1  324   3.763   0.167  14.751 -0.3065 -0.0921 -0.1989
   21TMC2    C2  325   3.776   0.087  14.861 -0.1549 -0.3217 -0.3454
   21TMC2    C3  326   3.693   0.107  14.968 -0.0831 -0.7392  0.2254
   21TMC2    C4  327   3.687   0.275  14.751 -1.0960 -0.9629 -0.4102
   21TMC2    C5  328   3.602   0.292  14.858 -0.1411  0.3156 -0.3162
   21TMC2    C6  329   3.598   0.206  14.962 -0.5601 -0.0214 -0.1570
   21TMC2     C  330   3.873   0.163  14.658 -0.2965 -0.1496 -0.6225
   21TMC2     O  331   3.958   0.073  14.670  0.0647  0.0081 -0.0233
   21TMC2     H  332   3.839   4.736  14.869  0.3795  0.1446  0.6252
   21TMC2    H1  333   3.697   0.355  14.677 -1.3799  0.7938  1.4506
   21TMC2    H2  334   3.523   0.213  15.041 -3.5532  0.3142 -3.0414
   21TMC2    C7  335   3.553   0.426  14.876 -0.3827  0.5723  0.3487
   21TMC2    C8  336   3.677   4.725  15.044 -0.0295  0.3665 -0.1730
   21TMC2    O1  337   3.556   0.464  14.990  0.0138 -0.1728 -0.7964
   21TMC2    O2  338   3.766   4.692  15.123  0.6166  0.0212 -0.2591
   21TMC2    O5  339   3.547   4.694  15.042  0.4291 -0.0391 -0.2909
   21TMC2    H5  340   3.497   0.016  14.982  0.1003 -1.2566 -1.2001
   22MPD2     C  341   4.092   0.154  14.201  0.0836  0.9072 -0.3620
   22MPD2    C1  342   4.144   0.135  14.327  0.0381 -0.0740 -0.7294
   22MPD2    C2  343   4.076   0.176  14.441  0.1534  0.0283  0.3059
   22MPD2    C3  344   3.940   0.219  14.433  0.1356  0.5812  0.1079
   22MPD2    C4  345   3.883   0.243  14.307  0.2930  0.4303  0.5118
   22MPD2    C5  346   3.960   0.207  14.191  0.2499  0.4960  0.3337
   22MPD2     H  347   4.120   0.153  14.537 -1.4866  2.6536  1.7064
   22MPD2    H1  348   3.787   0.291  14.292  0.1384  0.2633  0.9484
   22MPD2    H2  349   4.141   0.120  14.110  0.2197  1.3753 -0.4649
   22MPD2    H3  350   3.916   0.221  14.093 -4.1002  1.0774  2.3691
   22MPD2     N  351   3.848   0.225  14.541 -0.2389  0.2186 -0.1064
   22MPD2    H5  352   3.760   0.273  14.534 -0.5074 -0.0841  1.1587
   22MPD2    N1  353   4.277   0.074  14.356  0.0275 -0.8297  0.2108
   22MPD2    H7  354   4.305   0.088  14.452  2.1082 -1.0322 -0.3834
   23TMC2    C1  355   1.024   1.354  14.184  0.4238  1.0530 -0.0201
   23TMC2    C2  356   1.050   1.488  14.162  0.5454  0.6823 -0.1690
   23TMC2    C3  357   0.946   1.559  14.104 -0.3277 -0.1769  0.1247
   23TMC2    C4  358   0.911   1.288  14.152 -0.3313  0.7306  0.4185
   23TMC2    C5  359   0.813   1.366  14.084  0.2071  0.2308 -0.5744
   23TMC2    C6  360   0.825   1.502  14.064  0.1474 -0.5729  0.2571
   23TMC2     C  361   1.088   1.300  14.303  0.1349 -0.1886  0.5748
   23TMC2     O  362   1.014   1.235  14.377 -0.1458 -0.0391  0.5612
   23TMC2     H  363   1.146   1.534  14.185  0.0454  1.3715  0.5472
   23TMC2    H1  364   0.889   1.187  14.183  3.3852 -0.6819 -1.4803
   23TMC2    H2  365   0.751   1.547  14.000  0.1962 -2.3682 -1.0436
   23TMC2    C7  366   0.680   1.311  14.086  0.1560  0.2859  0.2418
   23TMC2    C8  367   0.996   1.677  14.042  0.2077  0.2912 -0.4949
   23TMC2    O1  368   0.677   1.188  14.091 -0.6742  0.0628  0.1471
   23TMC2    O2  369   1.105   1.729  14.070  0.0941  0.0179 -0.0809
   23TMC2    O5  370   0.889   1.750  14.018 -0.4305 -0.6800 -1.1112
   23TMC2    H5  371   0.801   1.715  14.041  0.6041 -2.3960  0.2085
   24MPD2     C  372   1.463   1.271  14.647  0.5414  0.0560  0.7500
   24MPD2    C1  373   1.333   1.240  14.657  0.0846  0.5561  0.0345
   24MPD2    C2  374   1.246   1.270  14.553  0.0208  1.0595  1.2065
   24MPD2    C3  375   1.295   1.325  14.432 -0.1636  0.6975 -0.0406
   24MPD2    C4  376   1.431   1.356  14.424  0.6119 -0.5168 -0.0417
   24MPD2    C5  377   1.511   1.338  14.529 -0.2654  0.4923  0.1586
   24MPD2     H  378   1.139   1.256  14.561 -0.2369  0.8500 -2.3032
   24MPD2    H1  379   1.477   1.392  14.333  1.1071 -1.2162 -0.0650
   24MPD2    H2  380   1.528   1.260  14.732 -0.2117  0.7266  1.4165
   24MPD2    H3  381   1.610   1.382  14.524 -0.0059 -0.1919 -0.6870
   24MPD2     N  382   1.212   1.347  14.321 -0.0172 -0.2962  0.3756
   24MPD2    H5  383   1.261   1.385  14.240 -1.7879 -0.6908 -0.8761
   24MPD2    N1  384   1.271   1.187  14.775  0.5891  0.8196  0.3569
   24MPD2    H7  385   1.170   1.191  14.768  0.5750 -1.2260 -0.5685
   25TMC2    C1  386   4.271   4.184  11.563  0.3721 -0.2346 -0.1360
   25TMC2    C2  387   4.308   4.168  11.430 -0.2541 -0.3363  1.2848
   25TMC2    C3  388   4.236   4.234  11.331 -0.7095 -0.2814 -0.1718
   25TMC2    C4  389   4.163   4.265  11.597  0.7356  0.2875 -0.6385
   25TMC2    C5  390   4.093   4.326  11.490  0.6114 -0.1213 -0.6271
   25TMC2    C6  391   4.130   4.312  11.357  0.0968  0.4380  0.0754
   25TMC2     C  392   4.297   4.080  11.652 -0.0522  0.7801  0.5560
   25TMC2     O  393   4.237   4.082  11.759  0.8679  0.1856  0.0011
   25TMC2     H  394   4.385   4.096  11.407 -1.0832 -0.2117 -1.8657
   25TMC2    H1  395   4.129   4.258  11.700 -2.4334 -0.2921 -1.7144
   25TMC2    H2  396   4.063   4.351  11.281  0.5971  0.8646 -0.1505
   25TMC2    C7  397   3.949   4.348  11.518  0.1520 -0.2446 -0.2589
   25TMC2    C8  398   4.292   4.241  11.195 -0.5378  0.7005  0.1064
   25TMC2    O1  399   3.876   4.402  11.438  0.2175 -0.0529 -0.2460
   25TMC2    O2  400   4.350   4.140  11.153  0.0325  0.2051 -0.0844
   25TMC2    O5  401   4.235   4.335  11.117 -0.0681 -0.3756  0.4073
   25TMC2    H5  402   4.229   4.417  11.172  1.6265  0.3776 -0.5295
   26MPD2     C  403   4.343   3.596  11.754 -0.4922 -0.2551 -0.0806
   26MPD2    C1  404   4.354   3.606  11.617 -0.1899 -0.0056 -0.0038
   26MPD2    C2  405   4.370   3.729  11.563  0.0315 -0.3528 -0.3246
   26MPD2    C3  406   4.363   3.846  11.644  0.1689  0.1715  0.3456
   26MPD2    C4  407   4.369   3.838  11.780 -0.5169 -0.1009  0.0647
   26MPD2    C5  408   4.357   3.711  11.834  0.4635 -0.4393  0.6089
   26MPD2     H  409   4.366   3.739  11.455  0.2124 -1.3108 -0.4201
   26MPD2    H1  410   4.378   3.926  11.843  0.4183  0.0322 -0.2523
   26MPD2    H2  411   4.327   3.498  11.798 -0.3018 -0.3036 -0.1185
   26MPD2    H3  412   4.359   3.703  11.942  0.6359  1.8218  0.7670
   26MPD2     N  413   4.342   3.969  11.584  0.4983  0.1228 -0.3999
   26MPD2    H5  414   4.352   3.981  11.484  1.6495 -2.8387 -0.6473
   26MPD2    N1  415   4.341   3.487  11.541  0.1606 -0.2973  0.1401
   26MPD2    H7  416   4.310   3.408  11.597  1.2109  0.1421  1.3463
   27TMC2    C1  417   3.553   0.991  12.141 -0.0684  0.2355  0.0972
   27TMC2    C2  418   3.498   1.065  12.035 -0.1586  0.1581  0.0110
   27TMC2    C3  419   3.557   1.186  12.005  0.0777 -0.8750 -0.7357
   27TMC2    C4  420   3.653   1.046  12.217  0.5975  0.0686  0.3727
   27TMC2    C5  421   3.713   1.168  12.186  0.2481  0.5542 -0.1519
   27TMC2    C6  422   3.658   1.239  12.083 -0.8900  0.0902 -0.0973
   27TMC2     C  423   3.472   0.892  12.214 -0.6268  0.6650  0.5015
   27TMC2     O  424   3.515   0.862  12.325 -0.4852  0.2847 -0.2496
   27TMC2     H  425   3.418   1.024  11.973  0.4840 -0.0683 -0.6603
   27TMC2    H1  426   3.682   1.004  12.313  0.0314  0.2012  0.6021
   27TMC2    H2  427   3.698   1.333  12.049 -0.0416 -0.1959  0.1166
   27TMC2    C7  428   3.696   1.239  12.315 -0.2894  0.0457  0.1414
   27TMC2    C8  429   3.506   1.271  11.895 -0.0745  0.3696 -0.8735
   27TMC2    O1  430   3.594   1.309  12.330 -0.1734  0.2607 -0.8677
   27TMC2    O2  431   3.560   1.377  11.867 -0.0752  0.8966 -0.2336
   27TMC2    O5  432   3.381   1.230  11.851  0.9914  0.0794 -0.4275
   27TMC2    H5  433   3.338   1.178  11.922 -0.5442  1.1366 -0.5831
   28MPD2     C  434   3.042   0.638  12.284  0.3165  0.8210  0.0847
   28MPD2    C1  435   3.120   0.713  12.371 -0.4007 -0.2584 -0.1744
   28MPD2    C2  436   3.230   0.773  12.317 -0.2194 -0.4586 -0.0140
   28MPD2    C3  437   3.270   0.758  12.183 -0.3340  0.5444 -0.4959
   28MPD2    C4  438   3.192   0.687  12.094  0.3046 -0.4924  0.1930
   28MPD2    C5  439   3.078   0.628  12.149 -0.7213  0.2913  0.1075
   28MPD2     H  440   3.291   0.840  12.377 -1.0730 -0.6281  1.0479
   28MPD2    H1  441   3.220   0.670  11.991  0.6022  1.2531 -0.0123
   28MPD2    H2  442   2.944   0.608  12.318  0.4050 -0.5271 -0.8625
   28MPD2    H3  443   3.001   0.577  12.092 -1.0654  0.9115  0.0089
   28MPD2     N  444   3.386   0.822  12.134  0.4660 -0.1539  0.3894
   28MPD2    H5  445   3.376   0.855  12.039 -2.0030 -0.4047  0.5725
   28MPD2    N1  446   3.062   0.753  12.489  0.3115  0.3207  0.1248
   28MPD2    H7  447   2.971   0.713  12.512  0.7252  0.7473  2.4919
   29TMC2    C1  448   2.981   3.361  14.169  0.2657 -0.2761 -0.0278
   29TMC2    C2  449   3.016   3.322  14.302  0.3347 -0.5910 -0.2394
   29TMC2    C3  450   3.031   3.422  14.395 -0.3597 -0.5762 -0.5402
   29TMC2    C4  451   2.938   3.488  14.147  0.2034  0.7583 -0.4520
   29TMC2    C5  452   2.959   3.577  14.248  0.5825  0.7961  0.0951
   29TMC2    C6  453   3.002   3.554  14.374  0.2039  0.2270 -0.1940
   29TMC2     C  454   2.964   3.251  14.071  0.8489  0.4998  0.5531
   29TMC2     O  455   3.021   3.145  14.087 -0.3861  0.3361 -0.2092
   29TMC2     H  456   3.058   3.223  14.321  1.5198  0.1597  1.0301
   29TMC2    H1  457   2.917   3.516  14.045 -0.2106  0.1976 -0.5165
   29TMC2    H2  458   3.012   3.627  14.453  1.9347  1.0044 -1.1421
   29TMC2    C7  459   2.964   3.717  14.206  0.4161 -0.6733  0.3935
   29TMC2    C8  460   3.091   3.389  14.522  0.1406  0.0286  0.7080
   29TMC2    O1  461   2.893   3.739  14.109 -0.0884  0.2893 -0.1047
   29TMC2    O2  462   3.150   3.474  14.581  0.1930 -0.3467 -0.0584
   29TMC2    O5  463   3.012   3.293  14.574 -0.3885 -0.3664  0.2722
   29TMC2    H5  464   2.938   3.261  14.519  0.3332 -1.6438  0.0374
   30MPD2     C  465   2.665   3.026  13.717  0.0351  0.0810  0.0172
   30MPD2    C1  466   2.773   2.981  13.781 -0.3617  0.5878  0.4477
   30MPD2    C2  467   2.843   3.067  13.869 -0.1892 -0.7370  0.0486
   30MPD2    C3  468   2.796   3.187  13.897  0.5095  0.1128  0.1618
   30MPD2    C4  469   2.679   3.229  13.840 -0.0703 -0.2974 -0.7311
   30MPD2    C5  470   2.615   3.149  13.753  0.1803  0.5410 -0.2319
   30MPD2     H  471   2.938   3.037  13.911  0.6597  0.2059 -1.1987
   30MPD2    H1  472   2.635   3.323  13.872 -0.1885 -0.2265 -1.0999
   30MPD2    H2  473   2.604   2.968  13.649  1.8421  0.6359 -2.0537
   30MPD2    H3  474   2.535   3.188  13.690  2.5295  0.8508 -3.0125
   30MPD2     N  475   2.858   3.275  13.987 -0.4088 -0.3410  0.4290
   30MPD2    H5  476   2.803   3.360  13.995  1.0943  0.7389 -0.7860
   30MPD2    N1  477   2.828   2.850  13.758 -0.1993  0.0306 -0.1932
   30MPD2    H7  478   2.916   2.831  13.803 -0.4232  0.5148  0.4441
   31TMC2    C1  479   0.361   2.166  15.593 -1.5751  0.0694 -0.0961
   31TMC2    C2  480   0.257   2.226  15.662 -0.0355  0.2025 -0.0578
   31TMC2    C3  481   0.256   2.193  15.798 -0.4785  0.2374 -0.5843
   31TMC2    C4  482   0.456   2.087  15.657 -0.3353 -0.3209  0.1727
   31TMC2    C5  483   0.452   2.065  15.789  0.1362 -0.1677 -0.3710
   31TMC2    C6  484   0.343   2.110  15.858 -0.5030  0.4558  0.0232
   31TMC2     C  485   0.376   2.193  15.452 -0.6437 -0.5497 -0.7632
   31TMC2     O  486   0.306   2.284  15.412 -0.0865 -0.4629 -0.4221
   31TMC2     H  487   0.191   2.291  15.606 -2.4173 -0.0534  2.4117
   31TMC2    H1  488   0.535   2.034  15.604  0.8519 -0.5515  2.1841
   31TMC2    H2  489   0.330   2.083  15.963 -0.5534  0.8892  0.1258
   31TMC2    C7  490   0.530   1.959  15.853  0.1292  0.5177  0.4328
   31TMC2    C8  491   0.130   2.213  15.866  0.1733  0.1277  0.9955
   31TMC2    O1  492   0.563   1.867  15.774 -0.6756  0.6312  0.0371
   31TMC2    O2  493   0.076   2.132  15.939  0.0006  0.0101  0.2646
   31TMC2    O5  494   0.130   2.343  15.895 -0.3230  0.4066  0.3031
   31TMC2    H5  495   0.201   2.396  15.852 -1.8254  0.7718 -1.6879
   32MPD2     C  496   0.706   2.246  15.066 -0.4360  0.5152 -0.2750
   32MPD2    C1  497   0.629   2.339  15.123 -0.0868  0.1546  0.5674
   32MPD2    C2  498   0.548   2.307  15.228 -0.0648 -0.4574 -0.0926
   32MPD2    C3  499   0.559   2.183  15.283  1.0956 -0.2999  0.0525
   32MPD2    C4  500   0.634   2.086  15.210 -0.4118  0.1767  0.1107
   32MPD2    C5  501   0.702   2.117  15.100  0.9674 -0.7464 -0.6588
   32MPD2     H  502   0.493   2.386  15.278  1.1074  0.1073  0.3243
   32MPD2    H1  503   0.629   1.984  15.246  0.0776  0.1107 -0.0074
   32MPD2    H2  504   0.761   2.274  14.977 -1.7387 -0.9809 -1.5641
   32MPD2    H3  505   0.766   2.042  15.056  2.4667 -0.6479  1.3876
   32MPD2     N  506   0.484   2.131  15.395  0.0793  0.0250 -0.8234
   32MPD2    H5  507   0.502   2.035  15.422 -1.8243 -0.7436 -2.2772
   32MPD2    N1  508   0.621   2.468  15.059 -0.0772 -0.4791 -0.6520
   32MPD2    H7  509   0.688   2.486  14.984 -0.7927 -0.5745 -1.3133
   33TMC2    C1  510   0.602   0.130  10.358 -0.3842  0.1498  0.2238
   33TMC2    C2  511   0.565   0.038  10.258  0.4152  0.1117 -0.1035
   33TMC2    C3  512   0.613   0.077  10.136 -0.7737  0.4611 -0.3809
   33TMC2    C4  513   0.674   0.244  10.332 -0.3026 -0.2504 -1.1449
   33TMC2    C5  514   0.707   0.274  10.207  0.3725  0.1018 -0.3109
   33TMC2    C6  515   0.673   0.193  10.100 -0.0726  1.3188 -0.6552
   33TMC2     C  516   0.532   0.126  10.482 -0.0624  0.2412  0.5399
   33TMC2     O  517   0.446   0.036  10.488 -0.1517 -0.3072  0.1315
   33TMC2     H  518   0.486   4.702  10.271 -0.9430  1.8507  1.3376
   33TMC2    H1  519   0.701   0.318  10.406  0.0626 -1.2837 -0.2435
   33TMC2    H2  520   0.710   0.209   9.999 -2.5611 -1.7331 -2.0641
   33TMC2    C7  521   0.756   0.407  10.192 -0.3376  0.6813  0.2749
   33TMC2    C8  522   0.545   0.014  10.023 -0.3015  0.6598 -0.3122
   33TMC2    O1  523   0.839   0.457  10.267  0.4261  0.0094  0.0872
   33TMC2    O2  524   0.609   4.682   9.942  0.1942  0.2331 -0.8377
   33TMC2    O5  525   0.458   0.113   9.999  0.2363 -0.1012 -0.0972
   33TMC2    H5  526   0.415   0.159  10.074  0.6430 -1.3147  0.8849
   34MPD2     C  527   0.361   0.287  10.930  0.3390 -0.6533  0.0248
   34MPD2    C1  528   0.310   0.198  10.839 -0.1876 -0.0490 -0.2364
   34MPD2    C2  529   0.368   0.184  10.716 -0.0453 -0.2421 -0.1363
   34MPD2    C3  530   0.491   0.246  10.691  0.6287  0.3265  0.3414
   34MPD2    C4  531   0.541   0.340  10.780 -0.0997 -0.1542 -0.1183
   34MPD2    C5  532   0.472   0.361  10.898  0.4115 -0.7178  0.1409
   34MPD2     H  533   0.326   0.125  10.637  0.9251  0.9234 -1.5223
   34MPD2    H1  534   0.630   0.399  10.758  0.7063 -0.5344  2.0783
   34MPD2    H2  535   0.325   0.307  11.030  3.6695 -3.2965  1.7489
   34MPD2    H3  536   0.515   0.417  10.979 -1.6065  2.1396 -0.7813
   34MPD2     N  537   0.568   0.218  10.579 -0.2590 -0.1891 -0.3655
   34MPD2    H5  538   0.661   0.260  10.578  0.6236 -2.1333 -0.8543
   34MPD2    N1  539   0.197   0.124  10.875 -0.2514 -0.3534 -0.1381
   34MPD2    H7  540   0.170   0.117  10.973 -0.3145 -3.5073 -0.4064
   35TMC2    C1  541   1.410   1.355  11.647 -0.0072  0.1858  0.1876
   35TMC2    C2  542   1.287   1.376  11.593  0.5565 -0.4610  0.2164
   35TMC2    C3  543   1.188   1.285  11.630  0.7744  0.4540 -0.2207
   35TMC2    C4  544   1.436   1.249  11.724  0.1399  0.4891  0.2456
   35TMC2    C5  545   1.332   1.171  11.766 -0.7300 -0.7808  0.8248
   35TMC2    C6  546   1.206   1.182  11.722 -0.0408  0.4671  0.1039
   35TMC2     C  547   1.515   1.428  11.579 -0.2017  0.5266 -0.2404
   35TMC2     O  548   1.474   1.515  11.502 -0.6471  0.0810 -0.2585
   35TMC2     H  549   1.266   1.451  11.517  0.2386 -1.5731 -0.7907
   35TMC2    H1  550   1.537   1.219  11.750 -0.3341 -0.4252  1.0260
   35TMC2    H2  551   1.132   1.106  11.749  1.5781 -0.1067  3.0068
   35TMC2    C7  552   1.371   1.045  11.813 -0.0660 -0.3486  0.0101
   35TMC2    C8  553   1.061   1.296  11.560 -0.1232 -0.1315  0.3253
   35TMC2    O1  554   1.305   0.953  11.765 -0.7535 -0.0755  0.1705
   35TMC2    O2  555   1.047   1.356  11.455  0.5070 -0.7694  0.6400
   35TMC2    O5  556   0.954   1.290  11.652 -0.0040 -0.1220 -0.0722
   35TMC2    H5  557   0.977   1.265  11.745 -0.9071 -0.8042 -0.0358
   36MPD2     C  558   1.995   1.560  11.456  0.2186 -0.0365 -0.3538
   36MPD2    C1  559   1.996   1.475  11.565 -0.0455  0.1520  0.0628
   36MPD2    C2  560   1.877   1.436  11.620 -0.0605 -0.7724 -0.6900
   36MPD2    C3  561   1.756   1.463  11.562  0.2038 -0.0399  0.3602
   36MPD2    C4  562   1.754   1.535  11.445 -0.2284  0.2479 -0.2683
   36MPD2    C5  563   1.872   1.582  11.403  0.3816 -0.0446  1.1229
   36MPD2     H  564   1.873   1.369  11.706  0.2361  0.4300  0.2608
   36MPD2    H1  565   1.673   1.563  11.379 -1.5485 -1.0141  0.8100
   36MPD2    H2  566   2.084   1.597  11.406 -0.0023 -0.7251 -1.2427
   36MPD2    H3  567   1.877   1.644  11.314 -3.1052  1.7087  2.1484
   36MPD2     N  568   1.642   1.406  11.623  0.1901  0.3122  0.0372
   36MPD2    H5  569   1.661   1.345  11.701 -0.2916  0.0913 -0.0209
   36MPD2    N1  570   2.128   1.430  11.613 -0.1932 -0.0506 -0.5483
   36MPD2    H7  571   2.212   1.470  11.573  0.7609 -0.3395  1.1737
   37TMC2    C1  572   4.425   1.756  12.044  0.0931  0.1534  0.0456
   37TMC2    C2  573   4.393   1.819  11.925  0.1512  0.3745 -0.3007
   37TMC2    C3  574   4.500   1.865  11.850  0.1588  0.3085 -0.5087
   37TMC2    C4  575   4.549   1.720  12.077  0.7569  0.1973  0.0233
   37TMC2    C5  576   4.649   1.747  11.984  0.4495  0.0585  0.5983
   37TMC2    C6  577   4.633   1.832  11.878 -0.2577 -0.0072 -0.1991
   37TMC2     C  578   4.322   1.687  12.125  0.1947 -0.1933  0.7960
   37TMC2     O  579   4.210   1.684  12.075 -0.0282 -0.5342  0.0581
   37TMC2     H  580   4.295   1.854  11.896  0.0810  0.3876 -0.0451
   37TMC2    H1  581   4.564   1.653  12.160 -0.3156  2.2850  1.8888
   37TMC2    H2  582   4.709   1.869  11.811  0.2438  2.3021  1.6635
   37TMC2    C7  583   0.047   1.731  12.033  0.4660  0.6877 -0.5801
   37TMC2    C8  584   4.491   2.003  11.802 -0.0772  0.3576 -0.2167
   37TMC2    O1  585   0.057   1.721  12.154 -0.0501  0.1540  0.2532
   37TMC2    O2  586   4.583   2.052  11.736  0.8451  0.6981 -0.1851
   37TMC2    O5  587   4.465   2.061  11.919 -0.5210 -0.0162 -0.4280
   37TMC2    H5  588   4.395   2.025  11.977  1.3137 -1.4090  0.9315
   38MPD2     C  589   4.137   1.519  12.584 -0.0064  0.2791 -0.7174
   38MPD2    C1  590   4.266   1.566  12.595 -0.1618  0.7014  0.2843
   38MPD2    C2  591   4.330   1.615  12.482  0.1379 -0.2617  0.6758
   38MPD2    C3  592   4.272   1.619  12.358  0.4100  0.7040  0.0989
   38MPD2    C4  593   4.137   1.578  12.350  0.2959 -0.5134  0.0037
   38MPD2    C5  594   4.082   1.517  12.453 -0.0317  0.0866 -0.1839
   38MPD2     H  595   4.432   1.650  12.493  0.0774  0.9496 -2.4183
   38MPD2    H1  596   4.082   1.572  12.257  0.3217 -0.1668 -0.0318
   38MPD2    H2  597   4.091   1.465  12.666  1.6217  1.4649  0.9507
   38MPD2    H3  598   3.985   1.471  12.438  0.1679 -0.7356  1.0844
   38MPD2     N  599   4.355   1.664  12.255 -0.5523 -0.3057 -0.3409
   38MPD2    H5  600   4.447   1.697  12.283 -0.8194 -1.2709  1.7047
   38MPD2    N1  601   4.360   1.544  12.707  0.0755 -0.2725 -0.0872
   38MPD2    H7  602   4.451   1.587  12.696  0.8396 -1.5281  1.2821
   39TMC2    C1  603   1.970   4.065   1.755 -0.5369 -0.5897 -0.0123
   39TMC2    C2  604   1.987   4.184   1.698 -0.1632 -0.7373 -0.1333
   39TMC2    C3  605   2.102   4.251   1.722 -0.5707  0.5570 -0.1125
   39TMC2    C4  606   2.071   3.998   1.819  0.0205 -0.5828  0.2225
   39TMC2    C5  607   2.180   4.071   1.851 -0.5915 -0.7873 -0.6055
   39TMC2    C6  608   2.195   4.199   1.805 -0.0729 -0.0844 -0.3157
   39TMC2     C  609   1.867   3.975   1.710  0.2459  0.4017  0.5487
   39TMC2     O  610   1.849   3.869   1.771 -0.6252 -0.0748  0.0242
   39TMC2     H  611   1.898   4.233   1.660  0.3460  2.4848  2.9079
   39TMC2    H1  612   2.053   3.899   1.860 -4.0522  0.0578  0.0109
   39TMC2    H2  613   2.264   4.267   1.852  0.4008 -1.3556  0.8174
   39TMC2    C7  614   2.282   4.025   1.938  0.2315 -0.0545 -0.4108
   39TMC2    C8  615   2.105   4.394   1.691 -0.0702  0.0992  0.0896
   39TMC2    O1  616   2.264   3.916   1.991 -0.0015  0.2009 -0.1217
   39TMC2    O2  617   2.189   4.458   1.750  0.0196 -0.4469 -0.1420
   39TMC2    O5  618   2.041   4.432   1.583  0.7345 -0.3378  0.2689
   39TMC2    H5  619   1.974   4.369   1.550  0.9597 -0.4919  0.1018
   40MPD2     C  620   1.690   3.985   1.388 -0.2788  0.5296  0.0821
   40MPD2    C1  621   1.736   3.925   1.507  0.6025  0.0859  0.1335
   40MPD2    C2  622   1.702   3.796   1.534 -0.5941 -0.6634 -0.6598
   40MPD2    C3  623   1.646   3.715   1.435 -0.4057 -0.0777 -0.0428
   40MPD2    C4  624   1.623   3.772   1.308 -0.2711  0.7494 -0.6491
   40MPD2    C5  625   1.636   3.907   1.290 -0.1350  0.1239  0.0046
   40MPD2     H  626   1.730   3.747   1.627 -2.4592 -1.6685 -0.6322
   40MPD2    H1  627   1.596   3.700   1.231  1.1538  1.3749 -1.7339
   40MPD2    H2  628   1.689   4.093   1.372  1.7160  0.6083  0.4697
   40MPD2    H3  629   1.606   3.946   1.194  0.8798  0.6018 -0.1180
   40MPD2     N  630   1.620   3.581   1.442  0.3529 -0.0732  0.5591
   40MPD2    H5  631   1.599   3.532   1.356  1.1584  0.6222 -0.0469
   40MPD2    N1  632   1.825   4.004   1.583  0.2926 -0.1825 -0.4398
   40MPD2    H7  633   1.859   4.086   1.534  0.8546 -0.7277 -0.9557
   41TMC2    C1  634   2.099   1.756  14.055 -0.5652  0.1651  0.0344
   41TMC2    C2  635   2.006   1.861  14.043 -0.9293 -0.1767  0.2014
   41TMC2    C3  636   1.996   1.908  13.914  0.4504  0.1645 -0.3148
   41TMC2    C4  637   2.181   1.713  13.958  0.1045  0.2247  0.6823
   41TMC2    C5  638   2.154   1.757  13.831 -0.5985  0.2886  0.0523
   41TMC2    C6  639   2.065   1.854  13.806  0.3207  0.0235 -0.7023
   41TMC2     C  640   2.110   1.678  14.177  0.0411 -0.0943  0.7478
   41TMC2     O  641   2.211   1.607  14.190 -0.3370  0.2739  0.1651
   41TMC2     H  642   1.958   1.911  14.127 -2.8378 -2.0907  0.2596
   41TMC2    H1  643   2.233   1.619  13.973 -0.0050 -0.1138 -1.0647
   41TMC2    H2  644   2.080   1.913  13.717  1.6492  2.6345  1.2721
   41TMC2    C7  645   2.219   1.697  13.725 -0.7411  0.2963 -0.2287
   41TMC2    C8  646   1.924   2.036  13.900 -0.1058 -0.1672 -0.5023
   41TMC2    O1  647   2.309   1.614  13.747  0.6459  0.0948 -0.0946
   41TMC2    O2  648   1.860   2.084  13.996  0.1325  0.0907 -0.9012
   41TMC2    O5  649   1.887   2.045  13.770 -0.3141  0.6544  0.0672
   41TMC2    H5  650   1.915   1.976  13.705 -1.8023 -0.8892  1.0733
   42MPD2     C  651   2.072   1.537  14.434  0.5395 -0.8531 -0.3995
   42MPD2    C1  652   1.983   1.628  14.384 -0.1350 -0.3300  0.5524
   42MPD2    C2  653   1.889   1.675  14.468 -0.3433  0.0987 -0.6606
   42MPD2    C3  654   1.869   1.632  14.595  0.9929 -0.6202  0.3322
   42MPD2    C4  655   1.965   1.548  14.646  0.0998 -0.4268 -0.0163
   42MPD2    C5  656   2.062   1.497  14.565 -0.3675  0.4259  0.3130
   42MPD2     H  657   1.822   1.751  14.430 -2.7055 -0.5130  2.2861
   42MPD2    H1  658   1.968   1.512  14.748  2.3477  0.2254  0.1478
   42MPD2    H2  659   2.143   1.488  14.369  0.8219  0.9498 -1.4725
   42MPD2    H3  660   2.124   1.426  14.618 -0.1353 -0.7094 -1.4975
   42MPD2     N  661   1.757   1.652  14.674 -0.9230 -0.6083  0.2578
   42MPD2    H5  662   1.760   1.613  14.768  0.0996  0.6991  0.7616
   42MPD2    N1  663   2.000   1.695  14.260  0.3083  0.4246 -0.0522
   42MPD2    H7  664   1.920   1.749  14.230 -0.6571 -1.1628 -0.3634
   43TMC2    C1  665   3.142   0.545   1.190 -0.4675  0.6486  1.1483
   43TMC2    C2  666   3.150   0.662   1.113 -0.4175  0.2146 -0.4363
   43TMC2    C3  667   3.156   0.780   1.185 -0.0058  0.2757  0.0760
   43TMC2    C4  668   3.095   0.549   1.315  0.0250  0.4607 -0.8559
   43TMC2    C5  669   3.089   0.671   1.374  0.1815  0.2235 -0.6089
   43TMC2    C6  670   3.129   0.785   1.314 -0.0783 -0.0494  0.3095
   43TMC2     C  671   3.091   0.436   1.113  0.0175  0.1725  0.3560
   43TMC2     O  672   3.111   0.326   1.163 -0.6774 -0.3034  0.1227
   43TMC2     H  673   3.163   0.659   1.006 -0.2633 -0.7176 -0.3908
   43TMC2    H1  674   3.075   0.456   1.367  1.3352  0.6511 -0.0201
   43TMC2    H2  675   3.124   0.882   1.363 -1.0911 -0.9496  1.9817
   43TMC2    C7  676   3.000   0.693   1.481 -0.0866  0.6936 -0.1265
   43TMC2    C8  677   3.184   0.902   1.115  0.6282 -1.3216  0.4217
   43TMC2    O1  678   3.007   0.805   1.526 -0.4388 -0.1941 -0.3085
   43TMC2    O2  679   3.170   1.008   1.174  0.1843 -0.2923  0.2504
   43TMC2    O5  680   3.285   0.865   1.034  0.1081 -0.2464  0.6954
   43TMC2    H5  681   3.312   0.771   1.049 -1.1586 -0.5217  1.2284
   44MPD2     C  682   2.773   0.238   0.777  0.2710  0.2198 -0.0818
   44MPD2    C1  683   2.875   0.180   0.845 -0.2195  0.4010 -0.7776
   44MPD2    C2  684   2.948   0.264   0.927 -0.0181 -0.5329  0.0942
   44MPD2    C3  685   2.927   0.400   0.939 -0.6349 -0.0084  0.4658
   44MPD2    C4  686   2.824   0.452   0.869 -0.2841  0.8138  0.2839
   44MPD2    C5  687   2.741   0.371   0.789 -0.1773  0.0475  0.8566
   44MPD2     H  688   3.032   0.209   0.968 -0.8460 -2.1745 -0.4174
   44MPD2    H1  689   2.792   0.555   0.877  2.6653  1.8228 -0.5828
   44MPD2    H2  690   2.708   0.169   0.725  2.3330 -0.4091 -1.8084
   44MPD2    H3  691   2.653   0.410   0.740  0.5181  0.2240 -0.2554
   44MPD2     N  692   3.011   0.485   1.014  0.0295 -0.0449  0.5125
   44MPD2    H5  693   2.983   0.582   1.018  0.3579  0.0082  1.6166
   44MPD2    N1  694   2.913   0.042   0.835  0.6398  0.2867 -0.1231
   44MPD2    H7  695   2.989   0.014   0.896  1.5105 -0.3819 -1.5227
   45TMC2    C1  696   3.921   1.745   9.716  0.5555  0.1787  0.6250
   45TMC2    C2  697   4.055   1.718   9.697  0.0114 -0.4331  0.4622
   45TMC2    C3  698   4.144   1.773   9.780 -0.0726  0.1755 -0.3476
   45TMC2    C4  699   3.878   1.838   9.809  0.3696 -0.2519  0.6121
   45TMC2    C5  700   3.979   1.893   9.887 -0.2730 -0.1740 -0.3018
   45TMC2    C6  701   4.108   1.857   9.879 -0.2749 -0.1885 -0.6285
   45TMC2     C  702   3.821   1.679   9.625 -0.1349  0.1897  0.7824
   45TMC2     O  703   3.859   1.572   9.593  0.1653  0.0374 -0.2153
   45TMC2     H  704   4.092   1.643   9.627  0.7404  0.2010  0.1724
   45TMC2    H1  705   3.771   1.851   9.822  0.0394 -1.3472 -0.9132
   45TMC2    H2  706   4.176   1.887   9.958 -1.8540 -1.0312  1.0566
   45TMC2    C7  707   3.958   2.012   9.968 -0.0035 -0.2151 -0.2558
   45TMC2    C8  708   4.285   1.749   9.759 -0.6245  0.1527 -0.0432
   45TMC2    O1  709   4.042   2.040  10.052  0.0555 -0.0020  0.3311
   45TMC2    O2  710   4.328   1.656   9.689  0.0646 -0.3505  0.9100
   45TMC2    O5  711   4.350   1.870   9.771  0.2163 -0.2568 -0.5595
   45TMC2    H5  712   4.303   1.951   9.801 -0.5751 -0.4824 -1.2126
   46MPD2     C  713   3.595   1.566   9.468  0.1859  0.2436  0.8139
   46MPD2    C1  714   3.600   1.694   9.518 -0.8828 -0.3017  0.3302
   46MPD2    C2  715   3.489   1.774   9.513  0.1358 -0.1538 -0.1648
   46MPD2    C3  716   3.371   1.727   9.453 -0.0476  0.1225  0.1022
   46MPD2    C4  717   3.373   1.601   9.377  0.3407  0.2321 -0.1288
   46MPD2    C5  718   3.482   1.524   9.400 -0.0834  0.1563 -0.2899
   46MPD2     H  719   3.485   1.875   9.552 -0.2289 -0.2436  0.0273
   46MPD2    H1  720   3.290   1.571   9.313  1.2188  0.4627 -1.3690
   46MPD2    H2  721   3.671   1.490   9.482  0.1713  0.2281  0.8096
   46MPD2    H3  722   3.479   1.424   9.358  0.7935 -0.8764  2.1147
   46MPD2     N  723   3.256   1.805   9.457 -0.5778  0.4411 -0.0289
   46MPD2    H5  724   3.265   1.894   9.505 -1.4690 -0.4562  1.7682
   46MPD2    N1  725   3.703   1.747   9.595  0.2636  0.4409  0.4632
   46MPD2    H7  726   3.686   1.841   9.629  1.0782  1.0701 -0.8786
   47TMC2    C1  727   1.391   2.908   9.198  0.2261 -0.6297  0.7144
   47TMC2    C2  728   1.356   2.789   9.132 -0.5877  0.3760  0.3724
   47TMC2    C3  729   1.277   2.808   9.007 -0.0683 -0.2742 -0.0808
   47TMC2    C4  730   1.359   3.033   9.148  0.3195 -0.5597  0.3144
   47TMC2    C5  731   1.273   3.043   9.041  0.3391 -0.5082 -0.1284
   47TMC2    C6  732   1.221   2.928   8.979  0.7459  0.5935 -0.5554
   47TMC2     C  733   1.478   2.897   9.316 -0.3045 -0.2659  0.1184
   47TMC2     O  734   1.509   3.001   9.370 -0.2843 -0.1703  0.3705
   47TMC2     H  735   1.363   2.687   9.167  0.1995  0.4469  0.4342
   47TMC2    H1  736   1.405   3.122   9.191  1.4229  0.2308 -2.4986
   47TMC2    H2  737   1.139   2.936   8.909 -2.8527 -3.1894  3.2267
   47TMC2    C7  738   1.234   3.182   9.001  0.4360 -0.5199 -0.1309
   47TMC2    C8  739   1.218   2.692   8.949  0.2266 -0.1909  0.5058
   47TMC2    O1  740   1.269   3.273   9.070 -0.0364 -0.1280 -0.0467
   47TMC2    O2  741   1.195   2.583   9.001  0.0836 -0.2805 -0.2502
   47TMC2    O5  742   1.220   2.718   8.816  0.1808 -0.6754  0.4102
   47TMC2    H5  743   1.252   2.808   8.795  0.5306 -0.6819  0.9134
   48MPD2     C  744   1.569   2.821   9.582 -0.2724 -0.0340  0.3783
   48MPD2    C1  745   1.549   2.727   9.481 -0.0949 -0.2907 -0.6581
   48MPD2    C2  746   1.577   2.594   9.508  0.1322  0.0818 -0.6577
   48MPD2    C3  747   1.623   2.553   9.636 -0.4485 -0.2940 -0.7887
   48MPD2    C4  748   1.639   2.647   9.731  0.2636 -0.1051  0.4650
   48MPD2    C5  749   1.611   2.776   9.701 -0.4247  0.3549 -0.4719
   48MPD2     H  750   1.553   2.516   9.436 -1.8544  1.7337 -1.7580
   48MPD2    H1  751   1.660   2.625   9.834  4.0094 -0.4496 -0.3802
   48MPD2    H2  752   1.547   2.926   9.575  3.0574  0.5819 -0.5965
   48MPD2    H3  753   1.624   2.848   9.781 -0.4888 -1.1985  0.9449
   48MPD2     N  754   1.635   2.411   9.665  0.6036 -0.3040 -0.2249
   48MPD2    H5  755   1.602   2.344   9.597  0.5987  0.0474 -0.5714
   48MPD2    N1  756   1.506   2.761   9.354  0.6713  0.2816  0.0977
   48MPD2    H7  757   1.477   2.690   9.287  0.1129  2.6659 -2.1925
   49TMC2    C1  758   4.578   4.576  10.090  0.2944 -0.4352  0.3816
   49TMC2    C2  759   4.581   4.709  10.120  0.1649 -0.3670  0.0477
   49TMC2    C3  760   4.680   0.052  10.095 -1.1079  0.6505  0.5750
   49TMC2    C4  761   4.677   4.532  10.009  0.4896 -0.0707  0.3957
   49TMC2    C5  762   0.050   4.614   9.981  0.5809  0.3270  0.5968
   49TMC2    C6  763   0.055   0.004  10.029  0.2581  0.2645 -0.0866
   49TMC2     C  764   4.451   4.512  10.095  0.3064 -0.1692 -0.5149
   49TMC2     O  765   4.427   4.428  10.012  0.4423  0.3341 -0.6223
   49TMC2     H  766   4.505   0.018  10.182 -1.3815 -0.8299 -1.4959
   49TMC2    H1  767   4.664   4.434   9.965 -0.6333 -0.8735  2.4979
   49TMC2    H2  768   0.140   0.071  10.014 -1.7831  2.9130  0.1595
   49TMC2    C7  769   0.163   4.577   9.900  0.1582  0.5010 -0.9911
   49TMC2    C8  770   4.634   0.191  10.072 -0.7912  0.0500 -0.4530
   49TMC2    O1  771   0.234   4.670   9.860 -0.4124 -0.1674 -0.4277
   49TMC2    O2  772   4.538   0.222  10.004  0.4369  0.4867 -0.3675
   49TMC2    O5  773   0.014   0.249  10.049 -0.6572  0.5677  0.0355
   49TMC2    H5  774   0.075   0.211  10.115 -1.1879 -1.0624 -0.3903
   50MPD2     C  775   4.194   4.389  10.171 -0.1588  0.1515 -0.9572
   50MPD2    C1  776   4.274   4.462  10.256 -0.8320 -0.2000  0.0918
   50MPD2    C2  777   4.255   4.456  10.393  0.8814  0.3604  0.6440
   50MPD2    C3  778   4.156   4.377  10.443 -0.2443  0.2763  0.4257
   50MPD2    C4  779   4.068   4.310  10.362  0.4194  0.9581 -0.1495
   50MPD2    C5  780   4.095   4.313  10.229 -0.3292  0.0345 -0.1281
   50MPD2     H  781   4.322   4.518  10.452  0.2897  1.2837  0.3467
   50MPD2    H1  782   3.992   4.243  10.402  0.9629  0.7428  0.5234
   50MPD2    H2  783   4.210   4.385  10.064  1.6707 -0.9224 -0.6336
   50MPD2    H3  784   4.036   4.248  10.165 -0.1027  1.0814 -1.3973
   50MPD2     N  785   4.141   4.380  10.579 -0.6017  0.4197  0.8451
   50MPD2    H5  786   4.220   4.417  10.632  0.2515  0.9914 -0.8017
   50MPD2    N1  787   4.382   4.544  10.209  0.3690  0.1382 -0.5203
   50MPD2    H7  788   4.420   4.604  10.281 -0.5140  0.3360 -0.2307
   51TMC2    C1  789   3.689   2.981   1.691  0.0852  0.4706 -0.9294
   51TMC2    C2  790   3.584   2.986   1.774 -0.7487  0.3316 -0.1390
   51TMC2    C3  791   3.507   3.109   1.776 -0.2389 -0.3568 -0.5052
   51TMC2    C4  792   3.721   3.088   1.609 -0.6314  0.1872 -0.0305
   51TMC2    C5  793   3.660   3.211   1.627  0.5666 -0.7864 -0.3841
   51TMC2    C6  794   3.550   3.224   1.709  0.0464  0.6760 -0.2152
   51TMC2     C  795   3.760   2.853   1.657 -0.3689 -0.6400  0.1955
   51TMC2     O  796   3.813   2.840   1.548  0.5999 -0.4539 -0.8156
   51TMC2     H  797   3.544   2.897   1.821 -2.1475  0.2480 -1.4774
   51TMC2    H1  798   3.806   3.075   1.544 -1.0723 -0.2882 -0.5168
   51TMC2    H2  799   3.494   3.316   1.699 -1.3907 -0.0944  0.7721
   51TMC2    C7  800   3.719   3.317   1.541 -0.2393 -0.0749  0.0841
   51TMC2    C8  801   3.384   3.105   1.851  0.1065 -0.0487  0.3316
   51TMC2    O1  802   3.832   3.297   1.502  0.5520 -0.4130  0.1109
   51TMC2    O2  803   3.323   3.001   1.873  0.2263 -0.2564 -0.2823
   51TMC2    O5  804   3.348   3.230   1.887 -0.5151 -0.2986 -0.1827
   51TMC2    H5  805   3.412   3.304   1.892  0.2265 -0.6662 -4.3188
   52MPD2     C  806   4.001   2.431   1.820  0.2577  0.0640 -0.3218
   52MPD2    C1  807   3.981   2.479   1.693 -0.1825  0.7825  0.1522
   52MPD2    C2  808   3.914   2.596   1.672 -0.2598 -0.1810  1.2106
   52MPD2    C3  809   3.869   2.664   1.782  0.2937  0.2986 -0.4761
   52MPD2    C4  810   3.896   2.622   1.913  0.0095 -0.1525 -0.6183
   52MPD2    C5  811   3.952   2.495   1.928 -0.5426 -0.7222  0.1851
   52MPD2     H  812   3.909   2.642   1.574  1.0387  0.9520  1.6734
   52MPD2    H1  813   3.875   2.691   1.994  0.8337  3.4905 -3.4969
   52MPD2    H2  814   4.064   2.344   1.837 -0.5833 -0.7173 -1.1696
   52MPD2    H3  815   3.971   2.463   2.029 -0.1286  0.9278  0.6315
   52MPD2     N  816   3.795   2.785   1.773 -0.6737 -0.0094 -0.1118
   52MPD2    H5  817   3.759   2.828   1.857 -0.0132 -0.0389  0.1864
   52MPD2    N1  818   4.030   2.423   1.572 -0.5380  0.5336 -0.8176
   52MPD2    H7  819   4.008   2.473   1.486  0.7796 -0.1491 -1.5636
   53TMC2    C1  820   0.689   1.759  12.373  0.8021  0.0352 -0.3223
   53TMC2    C2  821   0.817   1.779  12.420  0.4623 -0.3515 -0.6643
   53TMC2    C3  822   0.832   1.802  12.554  0.5347  0.1835  0.7026
   53TMC2    C4  823   0.590   1.763  12.462  0.1189  0.2790  0.1817
   53TMC2    C5  824   0.614   1.772  12.597 -0.1045 -0.4845 -0.5301
   53TMC2    C6  825   0.735   1.793  12.650 -0.2641  1.1068 -0.0476
   53TMC2     C  826   0.663   1.743  12.230 -0.3993 -0.4676  0.2799
   53TMC2     O  827   0.763   1.757  12.159 -0.8038  0.1194 -0.4009
   53TMC2     H  828   0.902   1.779  12.352 -0.4894  1.0523 -1.8573
   53TMC2    H1  829   0.487   1.751  12.428 -0.1814 -0.1742  1.2363
   53TMC2    H2  830   0.753   1.824  12.753  0.2604  0.2334  0.1253
   53TMC2    C7  831   0.497   1.783  12.680 -0.3805 -0.3018  0.1132
   53TMC2    C8  832   0.965   1.824  12.602  0.4903  1.0824 -0.3680
   53TMC2    O1  833   0.393   1.796  12.620 -0.0306  0.2582  0.9289
   53TMC2    O2  834   0.976   1.810  12.717  0.1445  0.5011 -0.0192
   53TMC2    O5  835   0.995   1.941  12.548  0.1265 -0.0476  0.8791
   53TMC2    H5  836   0.961   1.955  12.457  0.5208 -1.7036  0.4690
   54MPD2     C  837   0.542   1.787  11.964 -0.4026 -0.1610  0.0558
   54MPD2    C1  838   0.475   1.732  12.066 -0.1572  0.4081  0.7853
   54MPD2    C2  839   0.341   1.724  12.064  0.3934  0.5267 -0.2673
   54MPD2    C3  840   0.278   1.765  11.950 -0.5571 -0.0654 -0.0551
   54MPD2    C4  841   0.353   1.814  11.841  0.0987 -0.7353  0.1603
   54MPD2    C5  842   0.487   1.820  11.842  0.2197 -0.1848  0.2597
   54MPD2     H  843   0.288   1.675  12.146  0.2847 -3.3228 -2.6558
   54MPD2    H1  844   0.318   1.830  11.740 -0.6300 -0.8169  0.3989
   54MPD2    H2  845   0.650   1.801  11.961 -0.2212 -1.8512 -1.1366
   54MPD2    H3  846   0.530   1.875  11.759  1.3827  1.6407  2.0739
   54MPD2     N  847   0.142   1.742  11.933  0.2564  0.5708 -0.5139
   54MPD2    H5  848   0.115   1.750  11.836  1.1179 -0.7687 -0.8587
   54MPD2    N1  849   0.531   1.709  12.197  0.1514  0.5641  0.2775
   54MPD2    H7  850   0.479   1.668  12.274 -0.6710  1.3456  0.1416
   55TMC2    C1  851   0.791   0.403   0.400  0.6992 -0.5397  0.3278
   55TMC2    C2  852   0.878   0.438   0.298  0.1634  0.1207  0.6227
   55TMC2    C3  853   1.003   0.372   0.298  0.0212 -0.4193 -0.0115
   55TMC2    C4  854   0.811   0.291   0.481 -0.1696  0.0977 -0.4100
   55TMC2    C5  855   0.927   0.219   0.462 -0.1422 -0.0117 -0.2851
   55TMC2    C6  856   1.026   0.258   0.371  0.5581  0.4762 -1.0439
   55TMC2     C  857   0.647   0.416   0.368 -0.4333 -0.0716 -0.0522
   55TMC2     O  858   0.578   0.361   0.456 -0.1506  0.0817 -0.2338
   55TMC2     H  859   0.863   0.532   0.245 -1.2980 -0.0284  0.7661
   55TMC2    H1  860   0.742   0.267   0.562  1.2964  0.9728  1.1067
   55TMC2    H2  861   1.118   0.201   0.364  0.4099  0.0798  0.3612
   55TMC2    C7  862   0.938   0.093   0.532 -0.3612  0.5505 -0.5217
   55TMC2    C8  863   1.098   0.379   0.183 -0.0891  0.7038  0.1107
   55TMC2    O1  864   1.049   0.038   0.526 -0.1260  0.2261  0.2760
   55TMC2    O2  865   1.143   0.276   0.135  0.6466  0.0103 -0.0988
   55TMC2    O5  866   1.160   0.488   0.209 -0.0794  0.7119  0.0488
   55TMC2    H5  867   1.095   0.549   0.252 -2.3313 -1.5350 -0.1742
   56MPD2     C  868   0.450   0.557   0.082  0.2928  0.6118 -0.2144
   56MPD2    C1  869   0.478   0.492   0.207  0.0642  0.9230 -0.6361
   56MPD2    C2  870   0.362   0.462   0.284 -0.2540 -0.2072 -0.4103
   56MPD2    C3  871   0.239   0.502   0.244  0.4594 -0.2357 -0.1841
   56MPD2    C4  872   0.217   0.567   0.121 -0.1329 -0.5071 -0.0186
   56MPD2    C5  873   0.320   0.592   0.042  0.8215  0.4726  0.1926
   56MPD2     H  874   0.367   0.416   0.382  1.7541  0.9563  0.0340
   56MPD2    H1  875   0.122   0.605   0.086  0.1764  2.2130  2.1775
   56MPD2    H2  876   0.525   0.580   0.008  0.9115  2.0409  0.8542
   56MPD2    H3  877   0.311   0.637  17.689  3.9972  0.3685 -0.1532
   56MPD2     N  878   0.134   0.458   0.329  0.3318 -1.0529  0.0385
   56MPD2    H5  879   0.160   0.407   0.413 -2.7474 -0.3697  1.4217
   56MPD2    N1  880   0.614   0.479   0.248 -0.1317  0.5757 -0.0155
   56MPD2    H7  881   0.690   0.492   0.182 -1.6938 -1.8838 -2.2952
   57TMC2    C1  882   0.309   0.465  13.656  0.1972  0.3967 -0.5424
   57TMC2    C2  883   0.376   0.454  13.773  0.1079  0.2898  0.3238
   57TMC2    C3  884   0.448   0.334  13.791 -0.0748  0.0807  0.3864
   57TMC2    C4  885   0.333   0.381  13.549  0.8029 -0.7437 -0.2328
   57TMC2    C5  886   0.409   0.270  13.568  0.0017 -0.1299  0.5706
   57TMC2    C6  887   0.470   0.249  13.683  0.3510 -0.2493 -0.0201
   57TMC2     C  888   0.179   0.524  13.681 -0.2151  0.4365 -0.1587
   57TMC2     O  889   0.148   0.562  13.797  0.1707  0.3997 -0.2768
   57TMC2     H  890   0.367   0.528  13.851 -0.1066  0.2142  0.3705
   57TMC2    H1  891   0.278   0.396  13.457 -0.9547 -3.6136  0.3450
   57TMC2    H2  892   0.552   0.180  13.692 -0.0647 -0.7736 -0.2468
   57TMC2    C7  893   0.359   0.152  13.503 -0.5570  1.0120 -0.1163
   57TMC2    C8  894   0.565   0.357  13.870 -0.0043  0.4443 -0.1767
   57TMC2    O1  895   0.240   0.168  13.477  0.3339 -0.6934  0.2163
   57TMC2    O2  896   0.681   0.325  13.843  0.0910  0.0688  0.0251
   57TMC2    O5  897   0.520   0.394  13.994  0.1394 -0.1948  0.1848
   57TMC2    H5  898   0.424   0.404  14.008  0.3460  1.0848  0.7259
   58MPD2     C  899   4.441   0.362  13.602 -0.8633  0.2975  0.3216
   58MPD2    C1  900   4.497   0.422  13.712 -0.5285  0.1623 -0.1315
   58MPD2    C2  901   4.622   0.468  13.704  0.3507  0.2915  0.3972
   58MPD2    C3  902   4.695   0.460  13.589 -0.1077  0.0646  0.2031
   58MPD2    C4  903   4.631   0.405  13.476  0.2590  1.0293  0.1628
   58MPD2    C5  904   4.503   0.360  13.479 -0.8244  0.2429  0.1120
   58MPD2     H  905   4.664   0.513  13.793 -0.9608 -1.6514  2.0013
   58MPD2    H1  906   4.685   0.414  13.383 -1.1268  1.8362 -0.5610
   58MPD2    H2  907   4.337   0.332  13.600 -0.6835 -0.3053 -0.0181
   58MPD2    H3  908   4.450   0.315  13.396  1.3268 -1.8339 -0.1429
   58MPD2     N  909   0.095   0.500  13.577  0.8273 -0.1884  0.6940
   58MPD2    H5  910   0.135   0.483  13.485 -1.4260  2.0597 -0.7073
   58MPD2    N1  911   4.419   0.453  13.824 -0.1997  0.8183 -0.1540
   58MPD2    H7  912   4.469   0.517  13.886 -1.4458 -0.8048  2.5229
   59TMC2    C1  913   2.571   0.403  12.617  0.4438  0.0130  1.3442
   59TMC2    C2  914   2.446   0.386  12.573  0.8551  0.0419 -0.1802
   59TMC2    C3  915   2.394   0.472  12.482  0.3954  0.7003  0.9394
   59TMC2    C4  916   2.651   0.500  12.568 -0.0744  0.2065  0.3556
   59TMC2    C5  917   2.590   0.592  12.481 -0.0811  0.5124 -0.2757
   59TMC2    C6  918   2.458   0.586  12.443  0.1725 -0.2578  0.1997
   59TMC2     C  919   2.627   0.302  12.697 -0.2224  0.2028  0.0320
   59TMC2     O  920   2.567   0.194  12.698 -0.0071  0.0050 -0.3010
   59TMC2     H  921   2.382   0.307  12.611  0.3809  1.0288  1.1018
   59TMC2    H1  922   2.759   0.497  12.572 -0.0755  0.1756  0.3621
   59TMC2    H2  923   2.415   0.646  12.363  0.0526 -0.0659  0.4097
   59TMC2    C7  924   2.673   0.701  12.444  0.0576  0.2377  0.0107
   59TMC2    C8  925   2.262   0.441  12.429 -0.0038 -0.0993 -0.1684
   59TMC2    O1  926   2.794   0.696  12.467  0.0145 -0.1985 -0.0635
   59TMC2    O2  927   2.223   0.326  12.439  0.2009 -0.4448  0.2390
   59TMC2    O5  928   2.189   0.547  12.466 -0.0913 -0.5523 -0.1812
   59TMC2    H5  929   2.235   0.632  12.449  0.4613 -1.3326 -2.5527
   60MPD2     C  930   2.830   0.125  12.835 -0.3455  0.2083 -0.3670
   60MPD2    C1  931   2.833   0.262  12.838 -0.1195  0.2310  0.1031
   60MPD2    C2  932   2.927   0.326  12.922 -0.3077 -0.1766  0.3014
   60MPD2    C3  933   3.008   0.254  13.009  0.7811 -0.2568  0.2024
   60MPD2    C4  934   3.014   0.121  12.992  0.6384  0.1328  0.0222
   60MPD2    C5  935   2.932   0.056  12.902  0.5305 -0.4431  0.4754
   60MPD2     H  936   2.932   0.435  12.925 -0.6580 -0.1652  0.4624
   60MPD2    H1  937   3.096   0.065  13.035 -0.4213  1.3204  3.6284
   60MPD2    H2  938   2.756   0.070  12.779 -0.6970 -1.4951  1.7769
   60MPD2    H3  939   2.942   4.685  12.899  1.0671 -0.4441  2.0459
   60MPD2     N  940   3.084   0.318  13.103 -0.3276  0.2953  0.0136
   60MPD2    H5  941   3.152   0.268  13.159  0.1741  0.2040 -0.6704
   60MPD2    N1  942   2.739   0.347  12.772 -0.1800 -0.3663  0.5656
   60MPD2    H7  943   2.752   0.445  12.795  2.8635 -0.4318 -0.9734
   61TMC2    C1  944   1.767   2.061  15.173 -0.3843 -0.0102  0.9738
   61TMC2    C2  945   1.665   1.987  15.230 -0.1884 -0.3407  0.7161
   61TMC2    C3  946   1.580   2.059  15.311  0.1502 -0.1159 -0.0048
   61TMC2    C4  947   1.787   2.189  15.203 -0.2024 -0.2219  0.7840
   61TMC2    C5  948   1.702   2.258  15.285 -0.4568  0.4079  0.1904
   61TMC2    C6  949   1.592   2.196  15.342  0.0991  0.4109 -0.5389
   61TMC2     C  950   1.824   2.008  15.046 -0.4372 -0.1912 -0.3101
   61TMC2     O  951   1.770   1.910  14.997  0.3979 -0.0690 -0.3618
   61TMC2     H  952   1.651   1.883  15.206  0.8716 -0.5257  0.9019
   61TMC2    H1  953   1.881   2.239  15.181 -1.0867  0.3302 -1.7635
   61TMC2    H2  954   1.512   2.252  15.389  1.3401  0.7571  1.1791
   61TMC2    C7  955   1.741   2.392  15.322  0.1761  0.2078  1.1639
   61TMC2    C8  956   1.453   1.994  15.334  0.1906 -0.6955 -0.6088
   61TMC2    O1  957   1.844   2.443  15.285 -0.1193 -0.4758 -0.7096
   61TMC2    O2  958   1.406   1.909  15.260 -0.1851  0.1821 -0.3329
   61TMC2    O5  959   1.419   2.013  15.459  0.0513 -0.4167  0.9095
   61TMC2    H5  960   1.477   2.076  15.506  0.0191 -0.1293  0.5642
   62MPD2     C  961   1.923   1.985  14.765  0.1245 -0.3269  0.9540
   62MPD2    C1  962   1.976   2.073  14.859 -0.4134 -0.5326  0.0485
   62MPD2    C2  963   2.069   2.170  14.829  0.4627  0.1461 -0.0073
   62MPD2    C3  964   2.112   2.185  14.701 -0.3936 -0.5278 -0.2637
   62MPD2    C4  965   2.066   2.098  14.602 -0.0935 -0.1492  0.0983
   62MPD2    C5  966   1.984   1.991  14.639 -0.3034  0.1948 -0.2200
   62MPD2     H  967   2.123   2.219  14.910  0.3733  0.5692 -0.2038
   62MPD2    H1  968   2.108   2.098  14.502  2.1137  1.2136  1.0128
   62MPD2    H2  969   1.854   1.903  14.783 -0.7619 -0.5455 -3.3009
   62MPD2    H3  970   1.960   1.920  14.560 -0.5230  1.9387 -1.7165
   62MPD2     N  971   2.201   2.286  14.655 -0.0501 -0.0838 -0.0725
   62MPD2    H5  972   2.248   2.266  14.567 -1.3181 -3.6722  0.0632
   62MPD2    N1  973   1.917   2.095  14.990 -0.2337 -0.0627 -0.2381
   62MPD2    H7  974   1.951   2.176  15.041 -0.5764  1.8533 -2.9989
   63TMC2    C1  975   1.364   2.419  10.433  0.8433  0.0956  0.9619
   63TMC2    C2  976   1.400   2.429  10.564 -0.1458 -0.4487  0.2041
   63TMC2    C3  977   1.446   2.551  10.606  0.1163  0.6554  0.1637
   63TMC2    C4  978   1.358   2.525  10.353 -0.9084 -0.8147 -0.4615
   63TMC2    C5  979   1.391   2.649  10.400 -0.2867 -0.3135  0.0215
   63TMC2    C6  980   1.437   2.660  10.528  0.0914  0.3179  0.4317
   63TMC2     C  981   1.286   2.305  10.400 -0.5329  1.2645  0.3962
   63TMC2     O  982   1.223   2.302  10.297 -0.5691 -0.0238  0.7251
   63TMC2     H  983   1.383   2.350  10.636 -4.6080 -0.5977 -1.0520
   63TMC2    H1  984   1.322   2.513  10.252  0.7545  2.3631 -1.4185
   63TMC2    H2  985   1.491   2.745  10.570  3.1991 -0.9900 -0.9228
   63TMC2    C7  986   1.385   2.765  10.313  0.3169 -0.4013  0.0302
   63TMC2    C8  987   1.478   2.552  10.748  0.1714  0.0323 -0.2276
   63TMC2    O1  988   1.361   2.749  10.192  0.1582 -0.1126 -0.2742
   63TMC2    O2  989   1.498   2.452  10.814 -0.7976  0.3801  0.1896
   63TMC2    O5  990   1.454   2.675  10.794 -0.0886 -0.2247 -0.0934
   63TMC2    H5  991   1.484   2.674  10.887  0.0866  2.5139 -0.0943
   64MPD2     C  992   1.005   1.936  10.604 -0.5000 -0.0098 -0.3924
   64MPD2    C1  993   1.140   1.907  10.623 -0.2781 -0.2283  0.7744
   64MPD2    C2  994   1.242   1.999  10.593 -0.8227 -0.2641 -0.0015
   64MPD2    C3  995   1.206   2.108  10.518  0.4431  0.4879  0.3072
   64MPD2    C4  996   1.072   2.128  10.494  0.9231 -0.2233  0.0403
   64MPD2    C5  997   0.971   2.045  10.539 -0.3572  0.2382  0.1163
   64MPD2     H  998   1.348   1.990  10.613 -0.6910 -0.5048 -0.8157
   64MPD2    H1  999   1.039   2.214  10.437 -0.8351 -0.8627  0.0836
   64MPD2    H2 1000   0.922   1.876  10.639  0.7523 -1.0080  0.8458
   64MPD2    H3 1001   0.868   2.077  10.530 -0.1603  0.8880  0.1759
   64MPD2     N 1002   1.304   2.208  10.486 -0.6120 -0.2933 -0.6112
   64MPD2    H5 1003   1.400   2.200  10.517 -0.7430  1.3571  0.2648
   64MPD2    N1 1004   1.185   1.794  10.691 -0.6436 -1.0046 -0.1276
   64MPD2    H7 1005   1.284   1.776  10.702 -0.4667  0.0570 -0.0290
   65TMC2    C1 1006   2.430   1.734  15.497  0.1026 -0.5790  0.0555
   65TMC2    C2 1007   2.502   1.704  15.382 -0.2769  0.2335  0.2272
   65TMC2    C3 1008   2.529   1.816  15.307 -0.4601  0.3488 -0.5398
   65TMC2    C4 1009   2.395   1.857  15.537  0.3011  0.1003 -0.1560
   65TMC2    C5 1010   2.423   1.967  15.456  0.3951  0.2897 -0.1439
   65TMC2    C6 1011   2.493   1.948  15.339 -0.0423  0.4357 -0.1427
   65TMC2     C 1012   2.412   1.625  15.597 -0.4900  0.4158 -0.8059
   65TMC2     O 1013   2.388   1.657  15.714  1.0536  0.0966  0.1299
   65TMC2     H 1014   2.548   1.610  15.357 -1.1263 -0.0493 -0.2849
   65TMC2    H1 1015   2.319   1.864  15.613 -0.0978 -0.2700 -0.5238
   65TMC2    H2 1016   2.545   2.028  15.288 -0.6928  1.7382  1.2680
   65TMC2    C7 1017   2.417   2.103  15.507  0.1955  0.2708 -0.4990
   65TMC2    C8 1018   2.619   1.800  15.189 -0.9228  0.3130 -0.3233
   65TMC2    O1 1019   2.439   2.187  15.420 -0.4203  0.0221  0.4977
   65TMC2    O2 1020   2.675   1.891  15.133  0.4075  0.1959  0.6298
   65TMC2    O5 1021   2.610   1.670  15.143 -0.4608  0.0546 -1.0094
   65TMC2    H5 1022   2.544   1.607  15.178  0.0362 -0.1152 -0.3893
   66MPD2     C 1023   2.310   1.377  15.739 -0.6178 -0.1081  0.6799
   66MPD2    C1 1024   2.355   1.383  15.601 -0.4652 -0.2304 -0.3213
   66MPD2    C2 1025   2.357   1.269  15.522  0.1395 -0.0281  0.2979
   66MPD2    C3 1026   2.307   1.153  15.572 -0.8107 -0.1095  0.8279
   66MPD2    C4 1027   2.277   1.140  15.705 -0.1578  0.2187 -0.5760
   66MPD2    C5 1028   2.279   1.253  15.791 -0.2189 -0.0176 -0.1643
   66MPD2     H 1029   2.406   1.271  15.425  0.0700  2.3247  0.3087
   66MPD2    H1 1030   2.265   1.049  15.762  0.2205  2.3930  2.9609
   66MPD2    H2 1031   2.307   1.460  15.810  1.4078 -0.2539  0.9407
   66MPD2    H3 1032   2.249   1.240  15.894  0.7215  3.5033  0.5512
   66MPD2     N 1033   2.304   1.038  15.494 -0.1591  0.1240 -0.1007
   66MPD2    H5 1034   2.286   0.949  15.541 -0.4395  0.1720 -0.1166
   66MPD2    N1 1035   2.405   1.500  15.537 -1.5505  0.2475  0.1370
   66MPD2    H7 1036   2.425   1.494  15.438  1.4721  0.7073  0.7034
   67TMC2    C1 1037   2.722   0.853  14.359  0.1633  0.2075 -0.0264
   67TMC2    C2 1038   2.603   0.920  14.389 -0.3862  0.2754 -0.2639
   67TMC2    C3 1039   2.587   0.971  14.518  0.2469  0.3063  0.1516
   67TMC2    C4 1040   2.822   0.840  14.450  0.1579  0.5176  0.0769
   67TMC2    C5 1041   2.799   0.889  14.573 -0.9162 -0.3841 -0.2892
   67TMC2    C6 1042   2.684   0.948  14.609 -0.1504  0.0778  0.6428
   67TMC2     C 1043   2.730   0.799  14.225 -0.5342 -0.1049 -0.6173
   67TMC2     O 1044   2.794   0.696  14.197  0.1721  0.1664  0.0042
   67TMC2     H 1045   2.516   0.931  14.325  0.6597  1.6910 -1.4321
   67TMC2    H1 1046   2.910   0.785  14.418 -1.0230 -2.1940  1.5275
   67TMC2    H2 1047   2.660   0.982  14.709 -0.2818 -2.7066  1.5586
   67TMC2    C7 1048   2.908   0.863  14.668  0.3854  0.5923  0.8140
   67TMC2    C8 1049   2.446   0.988  14.557  0.5041 -0.4068  0.4570
   67TMC2    O1 1050   3.003   0.801  14.625  0.1365  0.3876 -0.1259
   67TMC2    O2 1051   2.431   1.070  14.646 -0.0794 -0.1390  0.5081
   67TMC2    O5 1052   2.411   0.857  14.573  0.7227  0.1513  0.0349
   67TMC2    H5 1053   2.416   0.802  14.492 -0.3315 -0.9973  0.7642
   68MPD2     C 1054   2.674   0.731  13.942  0.2229  0.3375  0.0196
   68MPD2    C1 1055   2.634   0.848  14.001  0.1840  0.4807  0.9373
   68MPD2    C2 1056   2.557   0.942  13.938  0.0716  0.4420 -0.3780
   68MPD2    C3 1057   2.517   0.921  13.808 -0.6587 -0.3637  0.1104
   68MPD2    C4 1058   2.552   0.804  13.747  0.2591  0.7243  0.1649
   68MPD2    C5 1059   2.630   0.713  13.818 -0.1956  0.6159 -0.1200
   68MPD2     H 1060   2.518   1.027  13.993  1.2777  1.6061 -1.3096
   68MPD2    H1 1061   2.523   0.773  13.647  0.8785 -0.1346  0.2507
   68MPD2    H2 1062   2.745   0.665  13.991  1.6322  1.4613 -0.4803
   68MPD2    H3 1063   2.670   0.623  13.773 -0.1449  1.6030 -2.0708
   68MPD2     N 1064   2.442   1.012  13.733  0.3800  0.2002 -0.6901
   68MPD2    H5 1065   2.427   0.989  13.636  1.3632  0.2864 -0.8601
   68MPD2    N1 1066   2.669   0.881  14.134 -0.0753 -0.0788  0.0137
   68MPD2    H7 1067   2.657   0.974  14.172  0.2850  0.1541 -0.4560
   69TMC2    C1 1068   0.279   2.090  12.564 -0.2024  0.3563  0.8581
   69TMC2    C2 1069   0.167   2.046  12.509  0.2520  0.0453 -0.5080
   69TMC2    C3 1070   0.157   2.015  12.373 -0.1466  0.2336 -0.5467
   69TMC2    C4 1071   0.393   2.098  12.485  0.2106  0.3165  0.4127
   69TMC2    C5 1072   0.386   2.058  12.348  0.6229 -0.1184  0.0734
   69TMC2    C6 1073   0.269   2.008  12.295  0.9078  0.0403  0.5319
   69TMC2     C 1074   0.290   2.108  12.711  0.2683 -0.4693  0.3147
   69TMC2     O 1075   0.188   2.075  12.772  0.2562  0.5437  0.4563
   69TMC2     H 1076   0.072   2.037  12.561  0.4974  1.6611  0.2205
   69TMC2    H1 1077   0.492   2.127  12.515 -0.2648 -1.0694  3.3459
   69TMC2    H2 1078   0.255   1.956  12.201  0.0374  3.8667 -1.4465
   69TMC2    C7 1079   0.496   2.079  12.260  0.3881 -0.2269  0.2768
   69TMC2    C8 1080   0.027   1.985  12.325 -0.0483 -0.5004 -0.4414
   69TMC2    O1 1081   0.614   2.063  12.299  0.5549  0.0308 -0.3354
   69TMC2    O2 1082   4.681   1.917  12.392 -0.2536 -0.3570  0.7940
   69TMC2    O5 1083   4.735   2.030  12.204  0.5093  0.3304  0.0740
   69TMC2    H5 1084   0.073   2.082  12.169 -1.4936  0.9376 -3.2468
   70MPD2     C 1085   0.600   2.178  12.891 -1.2719 -0.3894 -0.6002
   70MPD2    C1 1086   0.464   2.147  12.884 -0.1421 -0.2701 -0.2066
   70MPD2    C2 1087   0.391   2.121  13.001 -0.2309  0.1992  0.5907
   70MPD2    C3 1088   0.458   2.099  13.128  0.6715 -0.2558  0.3169
   70MPD2    C4 1089   0.592   2.120  13.121  0.1696 -0.3899 -0.1378
   70MPD2    C5 1090   0.656   2.158  13.013  0.8822  0.2178 -0.3912
   70MPD2     H 1091   0.283   2.114  12.994 -0.1257  0.4417 -1.3528
   70MPD2    H1 1092   0.650   2.118  13.212  0.9295  1.8670 -0.5796
   70MPD2    H2 1093   0.664   2.183  12.804 -0.7614 -1.2591 -0.2784
   70MPD2    H3 1094   0.762   2.178  13.012  0.9868 -0.4570 -4.0210
   70MPD2     N 1095   0.396   2.055  13.250 -0.1950  0.1756  0.1754
   70MPD2    H5 1096   0.459   2.039  13.327  0.1430 -1.1843 -0.3931
   70MPD2    N1 1097   0.420   2.144  12.752 -0.0782  0.8596 -0.1770
   70MPD2    H7 1098   0.475   2.167  12.669 -1.5228 -1.0648 -1.6842
   71TMC2    C1 1099   2.951   2.513   1.161  0.3377 -0.5628  0.4526
   71TMC2    C2 1100   3.063   2.588   1.175 -0.3513  0.4279  0.3086
   71TMC2    C3 1101   3.159   2.539   1.263 -0.0320 -0.2813 -0.0743
   71TMC2    C4 1102   2.935   2.398   1.231  0.1442  0.0805  0.4476
   71TMC2    C5 1103   3.028   2.359   1.317 -0.0707  0.1575 -0.6676
   71TMC2    C6 1104   3.141   2.426   1.336  0.3868  0.5639  0.4891
   71TMC2     C 1105   2.832   2.578   1.102 -0.3421 -0.2610 -0.4251
   71TMC2     O 1106   2.740   2.499   1.085 -0.2705  0.1811 -0.5761
   71TMC2     H 1107   3.073   2.690   1.141 -0.8227 -0.4969 -2.5993
   71TMC2    H1 1108   2.843   2.342   1.213 -0.6423  1.7920 -0.8145
   71TMC2    H2 1109   3.200   2.404   1.425  0.3312 -1.9658 -0.1033
   71TMC2    C7 1110   2.983   2.258   1.418  0.2798 -0.0969  0.6867
   71TMC2    C8 1111   3.265   2.623   1.299  0.3623 -0.1581 -0.3212
   71TMC2    O1 1112   3.071   2.199   1.473 -0.5617  0.3345  0.2744
   71TMC2    O2 1113   3.253   2.744   1.298  0.1029  0.7447 -0.0820
   71TMC2    O5 1114   3.370   2.544   1.321  0.3676  0.1390 -0.1085
   71TMC2    H5 1115   3.376   2.447   1.313  0.8004  0.0937  0.7121
   72MPD2     C 1116   2.521   2.931   0.969 -0.5412  0.0090  0.0822
   72MPD2    C1 1117   2.498   2.822   1.052  1.0755  0.2869 -0.1088
   72MPD2    C2 1118   2.603   2.747   1.092 -0.4310  0.5774  0.1836
   72MPD2    C3 1119   2.734   2.789   1.047 -0.2682  0.2772 -0.3028
   72MPD2    C4 1120   2.757   2.912   0.981 -0.0752  0.9261  1.0425
   72MPD2    C5 1121   2.645   2.977   0.943 -0.5235 -0.0453 -0.9261
   72MPD2     H 1122   2.586   2.660   1.153  0.2786 -1.2981 -2.3039
   72MPD2    H1 1123   2.849   2.954   0.942 -0.1355 -0.8974 -1.1010
   72MPD2    H2 1124   2.440   2.989   0.926  2.1074  2.5392 -1.4698
   72MPD2    H3 1125   2.653   3.073   0.893  1.7057  0.3266  0.1084
   72MPD2     N 1126   2.841   2.712   1.078 -0.0418 -0.2005  0.1835
   72MPD2    H5 1127   2.926   2.766   1.088  0.6506 -1.3833  0.6936
   72MPD2    N1 1128   2.370   2.780   1.098 -0.2865 -0.2715 -0.8856
   72MPD2    H7 1129   2.359   2.696   1.154  0.0166  1.1986  1.4128
   73TMC2    C1 1130   1.761   3.437  13.785  0.9431 -0.1216  0.4537
   73TMC2    C2 1131   1.644   3.483  13.839  0.1367  0.0651  0.3190
   73TMC2    C3 1132   1.647   3.569  13.947 -0.0669 -0.0074  0.2029
   73TMC2    C4 1133   1.883   3.468  13.853 -0.5398 -0.1621  0.4892
   73TMC2    C5 1134   1.879   3.568  13.950 -0.2267 -0.1556  1.1266
   73TMC2    C6 1135   1.760   3.611  14.004  0.4649 -0.0572 -1.1077
   73TMC2     C 1136   1.779   3.459  13.649  0.3608 -0.5792  0.1103
   73TMC2     O 1137   1.877   3.530  13.617 -0.0304  0.3847  0.7953
   73TMC2     H 1138   1.551   3.467  13.786 -0.9648 -0.6761  2.4548
   73TMC2    H1 1139   1.974   3.430  13.808 -1.4524 -0.4415 -1.1183
   73TMC2    H2 1140   1.751   3.697  14.070 -0.1755 -0.7121 -0.3488
   73TMC2    C7 1141   1.981   3.676  13.950 -0.3140 -0.2865  0.7777
   73TMC2    C8 1142   1.515   3.625  13.988 -0.0487 -0.3078  0.6445
   73TMC2    O1 1143   1.991   3.753  14.045 -0.3867 -0.9159  0.1362
   73TMC2    O2 1144   1.418   3.603  13.918  0.5959 -0.1751  0.0058
   73TMC2    O5 1145   1.518   3.626  14.120 -0.2381  0.2825 -0.1040
   73TMC2    H5 1146   1.608   3.643  14.156  0.1655  0.2791 -1.0955
   74MPD2     C 1147   1.623   3.490  13.168  0.4653 -0.3988  0.1737
   74MPD2    C1 1148   1.729   3.547  13.228  0.0664  0.1941  0.2124
   74MPD2    C2 1149   1.749   3.520  13.364 -0.7500  0.1149 -0.1473
   74MPD2    C3 1150   1.659   3.435  13.437  0.8607 -0.1151 -0.8732
   74MPD2    C4 1151   1.558   3.375  13.369  0.0943  0.0574  0.3752
   74MPD2    C5 1152   1.532   3.407  13.238  0.2154 -0.3401  0.1641
   74MPD2     H 1153   1.838   3.559  13.412 -0.3605 -2.2374  1.0066
   74MPD2    H1 1154   1.496   3.304  13.423  1.9294 -2.1803 -0.4275
   74MPD2    H2 1155   1.605   3.487  13.061  1.8777  3.3073 -0.1797
   74MPD2    H3 1156   1.446   3.369  13.184 -0.4177  1.4757 -0.0823
   74MPD2     N 1157   1.671   3.408  13.575 -0.1700 -0.0789 -0.5537
   74MPD2    H5 1158   1.591   3.360  13.615 -1.2514 -0.2882 -2.9603
   74MPD2    N1 1159   1.806   3.636  13.155  0.5642  0.3625 -0.0411
   74MPD2    H7 1160   1.773   3.638  13.059  0.7237 -2.3248 -0.1555
   75TMC2    C1 1161   2.311   1.202  13.690  0.2783 -1.0530 -0.4662
   75TMC2    C2 1162   2.191   1.250  13.738 -0.4090 -0.7216 -0.3835
   75TMC2    C3 1163   2.125   1.330  13.649  0.4466 -0.6246  0.1435
   75TMC2    C4 1164   2.359   1.220  13.565 -0.3867 -0.2143  0.2384
   75TMC2    C5 1165   2.279   1.292  13.481 -0.1246 -1.2005 -0.1391
   75TMC2    C6 1166   2.165   1.352  13.523  0.3143 -0.1448  0.3879
   75TMC2     C 1167   2.391   1.127  13.786 -1.0962 -0.4163 -0.3032
   75TMC2     O 1168   2.356   1.149  13.902  0.0726 -0.0598 -0.4378
   75TMC2     H 1169   2.146   1.217  13.831 -1.3666 -1.4333 -1.1013
   75TMC2    H1 1170   2.445   1.168  13.525  0.4026  1.3542 -0.0950
   75TMC2    H2 1171   2.108   1.414  13.454 -1.0362  0.2073  1.8467
   75TMC2    C7 1172   2.323   1.310  13.344 -0.2341 -0.6791 -1.0120
   75TMC2    C8 1173   2.000   1.397  13.684 -0.4543  0.6553 -1.0932
   75TMC2    O1 1174   2.442   1.301  13.310 -0.3008  0.2498  0.3717
   75TMC2    O2 1175   1.921   1.437  13.602 -0.3462 -0.1464  0.2707
   75TMC2    O5 1176   1.981   1.406  13.820 -0.6751 -0.4614 -0.0687
   75TMC2    H5 1177   2.061   1.378  13.870 -0.4689  1.2107  0.5308
   76TMC2    C1 1178   1.029   1.103  12.338 -0.1261  0.7090  0.7499
   76TMC2    C2 1179   0.915   1.034  12.310 -0.0329  0.7680  1.1899
   76TMC2    C3 1180   0.876   0.939  12.401  0.2967  0.2876 -0.1727
   76TMC2    C4 1181   1.097   1.086  12.458  0.0173  0.4179 -0.2199
   76TMC2    C5 1182   1.050   0.988  12.546 -0.1059  0.2425  0.0664
   76TMC2    C6 1183   0.943   0.911  12.511  0.6765  0.0600  0.1570
   76TMC2     C 1184   1.076   1.196  12.237 -0.3091  0.3222  0.4562
   76TMC2     O 1185   0.995   1.222  12.150  0.2988  0.4474 -0.0244
   76TMC2     H 1186   0.860   1.035  12.216  1.1058 -0.6365  0.5041
   76TMC2    H1 1187   1.171   1.161  12.486 -1.8318  1.5240  1.6950
   76TMC2    H2 1188   0.908   0.830  12.574  1.1293  0.6280  1.1467
   76TMC2    C7 1189   1.130   0.961  12.665 -0.1430 -0.2019  0.3578
   76TMC2    C8 1190   0.745   0.890  12.379 -0.0215  0.7265  0.2545
   76TMC2    O1 1191   1.077   0.878  12.739  0.2192  0.4331  0.1752
   76TMC2    O2 1192   0.656   0.951  12.319  0.0701 -0.2350 -0.2794
   76TMC2    O5 1193   0.732   0.764  12.426  0.3117 -0.0974 -0.4703
   76TMC2    H5 1194   0.815   0.720  12.457  1.0935  1.2644 -0.6484
   77MPD2     C 1195   1.424   1.510  12.022  0.4990  0.9976 -0.3839
   77MPD2    C1 1196   1.288   1.510  12.008 -0.4293  1.1231  0.1809
   77MPD2    C2 1197   1.212   1.411  12.076 -0.1011 -0.5020 -0.8054
   77MPD2    C3 1198   1.278   1.319  12.166 -0.2890  0.1848  0.6762
   77MPD2    C4 1199   1.419   1.325  12.180  0.0462  0.3490 -0.3515
   77MPD2    C5 1200   1.485   1.421  12.109 -0.2525 -0.0719 -1.2611
   77MPD2     H 1201   1.104   1.416  12.065  0.2008  1.3389 -2.8239
   77MPD2    H1 1202   1.469   1.259  12.249 -0.4582 -2.2368 -2.4714
   77MPD2    H2 1203   1.486   1.580  11.967 -1.9395  3.1005 -0.4840
   77MPD2    H3 1204   1.592   1.437  12.119 -0.2477 -0.5013 -0.6575
   77MPD2     N 1205   1.207   1.230  12.251  0.2056 -0.1725 -0.1414
   77MPD2    H5 1206   1.251   1.188  12.332  2.4753  1.5123 -0.4976
   77MPD2    N1 1207   1.220   1.601  11.929 -0.5224 -0.6771 -0.2971
   77MPD2    H7 1208   1.119   1.609  11.931 -0.1741  3.0845  2.0828
   78TMC2    C1 1209   1.456   1.313   1.218  0.3634  0.5464  0.1817
   78TMC2    C2 1210   1.395   1.363   1.112 -0.5773  0.3110 -0.6270
   78TMC2    C3 1211   1.421   1.490   1.074  0.0656  0.2944  0.0527
   78TMC2    C4 1212   1.540   1.383   1.296 -0.0831 -0.4760 -0.6987
   78TMC2    C5 1213   1.565   1.515   1.261  0.1351  0.0152 -0.1999
   78TMC2    C6 1214   1.507   1.562   1.150 -0.0985 -0.6002 -0.3086
   78TMC2     C 1215   1.452   1.170   1.245 -0.1380 -0.7494 -0.2700
   78TMC2     O 1216   1.458   1.138   1.363 -0.2465 -0.2130 -0.0840
   78TMC2     H 1217   1.349   1.287   1.050 -0.6270 -0.4929  0.3887
   78TMC2    H1 1218   1.585   1.341   1.386 -1.1982  0.0423  0.1028
   78TMC2    H2 1219   1.520   1.667   1.128  2.2776 -0.5124  1.5760
   78TMC2    C7 1220   1.699   1.569   1.285  0.1183  0.1833  0.9296
   78TMC2    C8 1221   1.341   1.553   0.971 -0.6258  0.9184  0.2142
   78TMC2    O1 1222   1.729   1.650   1.200 -0.3516 -0.3927 -0.2897
   78TMC2    O2 1223   1.373   1.663   0.930 -0.3521  0.3036  0.2110
   78TMC2    O5 1224   1.233   1.484   0.948 -0.3595 -0.1829  0.0236
   78TMC2    H5 1225   1.217   1.405   1.003 -2.9730  1.3076  1.3913
   79MPD1     C 1226   1.446   0.686   1.099  0.5244  0.9959 -0.3139
   79MPD1    C1 1227   1.455   0.735   1.227 -0.2771  0.2237 -0.0357
   79MPD1    C2 1228   1.458   0.874   1.246  0.0764  0.3400  0.3770
   79MPD1    C3 1229   1.454   0.954   1.130 -0.4802  0.2329  0.6567
   79MPD1    C4 1230   1.448   0.901   1.001  0.3064  0.9610 -0.8441
   79MPD1    C5 1231   1.450   0.764   0.994  0.0616  0.0633  0.8221
   79MPD1     H 1232   1.453   0.905   1.350  2.0050 -1.3540  0.9915
   79MPD1    H1 1233   1.457   0.967   0.915 -2.2743 -0.2991 -2.0770
   79MPD1    H2 1234   1.451   0.579   1.083 -0.0025  1.3367 -2.7406
   79MPD1    H3 1235   1.452   0.712   0.899  1.8504  0.4319  0.6522
   79MPD1     N 1236   1.460   1.093   1.130 -0.2085 -0.3413  0.1847
   79MPD1    H5 1237   1.484   1.143   1.044  0.5163  0.5733  0.9093
   79MPD1    N1 1238   1.447   0.651   1.341 -0.1304 -0.2885  0.3487
   79MPD1    H6 1239   1.465   0.553   1.321  0.9256 -0.1235  0.5292
   79MPD1    H7 1240   1.519   0.685   1.404 -0.1780  0.5447 -0.0441
   80TMC2    C1 1241   0.509   1.288  12.360  0.2893  0.1545 -0.4496
   80TMC2    C2 1242   0.581   1.313  12.250 -1.2592 -0.0638 -0.2451
   80TMC2    C3 1243   0.533   1.268  12.129 -0.2298 -0.6517 -0.4518
   80TMC2    C4 1244   0.410   1.196  12.359 -0.1312 -0.6927 -0.5840
   80TMC2    C5 1245   0.362   1.154  12.240  0.3045 -0.1231 -0.4824
   80TMC2    C6 1246   0.421   1.195  12.122  0.3910 -0.2814  0.3212
   80TMC2     C 1247   0.558   1.323  12.491 -0.3838 -0.2559 -0.0403
   80TMC2     O 1248   0.677   1.323  12.527 -0.0921  0.6279  0.5831
   80TMC2     H 1249   0.672   1.371  12.256  0.5430 -3.0534  0.9510
   80TMC2    H1 1250   0.353   1.170  12.448  0.1691  1.2076  0.1833
   80TMC2    H2 1251   0.389   1.159  12.025  2.8601 -0.3293 -0.4752
   80TMC2    C7 1252   0.237   1.081  12.232  0.1485 -0.3310 -0.7638
   80TMC2    C8 1253   0.589   1.340  12.017 -0.0452 -0.2136  0.0501
   80TMC2    O1 1254   0.157   1.107  12.142 -0.0101  0.3213  0.0098
   80TMC2    O2 1255   0.708   1.363  12.012 -0.2733 -0.1617 -0.3842
   80TMC2    O5 1256   0.487   1.419  11.979 -0.6256 -0.1233  0.0236
   80TMC2    H5 1257   0.399   1.385  12.005 -0.4817 -1.8875 -1.7378
   81MPD2     C 1258   0.552   1.353  12.781  0.5383  0.7550 -0.4443
   81MPD2    C1 1259   0.447   1.398  12.701 -0.4790 -0.8732 -0.0982
   81MPD2    C2 1260   0.332   1.438  12.764 -0.1738 -0.0959  0.1179
   81MPD2    C3 1261   0.309   1.415  12.896 -0.3286  0.4613  0.5989
   81MPD2    C4 1262   0.414   1.371  12.971  0.0177 -0.1391 -0.3978
   81MPD2    C5 1263   0.535   1.342  12.917 -0.3159 -0.2245 -0.0019
   81MPD2     H 1264   0.256   1.480  12.698  0.1397 -0.1251 -0.2647
   81MPD2    H1 1265   0.417   1.375  13.079  0.3817 -1.0407 -0.3717
   81MPD2    H2 1266   0.642   1.309  12.740  0.4253  2.0107 -2.0642
   81MPD2    H3 1267   0.615   1.309  12.983 -1.1558  0.3868  1.3277
   81MPD2     N 1268   0.178   1.435  12.959 -0.7871  0.2917 -0.0173
   81MPD2    H5 1269   0.182   1.419  13.059  1.1673 -2.6090 -0.5732
   81MPD2    N1 1270   0.447   1.360  12.567  0.6198 -0.6595 -0.4499
   81MPD2    H7 1271   0.362   1.372  12.513  1.7334 -0.6201 -2.2168
   82TMC2    C1 1272   3.023   0.432  11.381  0.8979  0.6268 -0.0920
   82TMC2    C2 1273   3.123   0.446  11.469 -0.4087  0.5488  0.4989
   82TMC2    C3 1274   3.209   0.339  11.481 -0.2998 -0.1111 -0.0027
   82TMC2    C4 1275   3.020   0.321  11.301  0.8257  0.2658 -0.2139
   82TMC2    C5 1276   3.112   0.219  11.309  0.1713  0.3000 -0.1551
   82TMC2    C6 1277   3.209   0.227  11.402 -0.3944  0.0621 -0.8102
   82TMC2     C 1278   2.903   0.511  11.388  0.1707 -0.4268 -0.2656
   82TMC2     O 1279   2.795   0.456  11.375  0.1799 -0.1462 -0.0585
   82TMC2     H 1280   3.115   0.528  11.540 -2.1700  1.7325 -1.0838
   82TMC2    H1 1281   2.944   0.322  11.224  0.9563  0.0449 -0.3439
   82TMC2    H2 1282   3.289   0.155  11.413 -1.0408 -0.6718 -0.8841
   82TMC2    C7 1283   3.034   0.104  11.310 -0.5745 -0.1846 -0.2514
   82TMC2    C8 1284   3.342   0.379  11.494  0.0818  0.5838  0.0781
   82TMC2    O1 1285   3.018   0.068  11.425  0.2095  0.1317  0.3572
   82TMC2    O2 1286   3.411   0.351  11.395  0.9696  0.1482  0.2015
   82TMC2    O5 1287   3.355   0.495  11.558 -0.2430  0.2918  0.0956
   82TMC2    H5 1288   3.289   0.517  11.627  0.8570  0.3870  1.1152
   83MPD2     C 1289   2.646   0.944  11.520 -0.0184  0.0252 -0.1045
   83MPD2    C1 1290   2.602   0.833  11.457  0.5505 -0.6528 -0.1469
   83MPD2    C2 1291   2.693   0.729  11.431 -0.8947  0.0494 -0.2736
   83MPD2    C3 1292   2.826   0.735  11.460 -0.8463  1.2156 -0.1402
   83MPD2    C4 1293   2.871   0.852  11.524  0.6592  0.0603 -0.1020
   83MPD2    C5 1294   2.780   0.954  11.554 -0.0818  0.7436  0.7506
   83MPD2     H 1295   2.663   0.639  11.379  3.2804  0.5521 -3.5192
   83MPD2    H1 1296   2.973   0.868  11.556  0.3344  0.2317  0.8379
   83MPD2    H2 1297   2.580   1.027  11.542 -0.5964 -1.0058  2.0672
   83MPD2    H3 1298   2.814   1.037  11.614 -1.3138  1.0370  1.0540
   83MPD2     N 1299   2.923   0.637  11.442 -0.0336 -0.2175  0.1714
   83MPD2    H5 1300   3.016   0.678  11.444 -0.9480  1.8658  0.4183
   83MPD2    N1 1301   2.466   0.827  11.408  0.3507 -0.3164 -0.7117
   83MPD2    H7 1302   2.404   0.905  11.424  0.0028 -0.3602 -1.8201
   84TMC2    C1 1303   3.985   4.519  10.940  0.9996  0.4363 -0.4484
   84TMC2    C2 1304   3.933   4.428  11.028  0.9107  0.0740 -0.2518
   84TMC2    C3 1305   3.921   4.309  10.976 -0.1731  0.4683 -0.4687
   84TMC2    C4 1306   4.053   4.484  10.824  0.4153 -0.1683  0.4657
   84TMC2    C5 1307   4.049   4.354  10.791 -0.1195 -0.0158 -0.1283
   84TMC2    C6 1308   3.977   4.266  10.862  0.2609 -0.7924 -0.2287
   84TMC2     C 1309   3.978   4.660  10.983  0.5939 -0.7736  0.1318
   84TMC2     O 1310   3.908   4.676  11.081  0.0325 -0.1061  0.2398
   84TMC2     H 1311   3.871   4.453  11.113  2.3404 -3.1093  1.7351
   84TMC2    H1 1312   4.122   4.550  10.773  0.5795 -0.9398 -0.3333
   84TMC2    H2 1313   3.979   4.163  10.828  0.0089 -0.1614 -2.1497
   84TMC2    C7 1314   4.038   4.320  10.651  0.4761 -0.4278  0.0542
   84TMC2    C8 1315   3.884   4.208  11.072 -0.2116  0.0128  0.1196
   84TMC2    O1 1316   3.940   4.257  10.615 -0.1109  0.1714  0.2503
   84TMC2    O2 1317   3.873   4.244  11.187 -0.3951 -0.3204  0.1574
   84TMC2    O5 1318   3.852   4.083  11.028 -0.4112 -0.1217  0.5534
   84TMC2    H5 1319   3.853   4.091  10.931 -0.8769 -1.3593  0.4452
   85TMC2    C1 1320   0.091   2.805  16.048  0.4634  0.0747 -0.2329
   85TMC2    C2 1321   0.087   2.741  15.927 -0.6995  0.5622 -0.0207
   85TMC2    C3 1322   0.103   2.828  15.827  0.2767  0.2591 -0.3769
   85TMC2    C4 1323   0.128   2.937  16.058  0.4905 -0.2600 -0.5740
   85TMC2    C5 1324   0.145   3.019  15.948  0.2631 -0.3095 -0.3637
   85TMC2    C6 1325   0.133   2.962  15.823  0.4935  0.3416 -0.1569
   85TMC2     C 1326   0.045   2.733  16.169  0.2990 -0.0198  0.0827
   85TMC2     O 1327   0.050   2.803  16.268  0.3292 -0.5758  0.3930
   85TMC2     H 1328   0.035   2.647  15.912  2.6468 -1.5745  1.7816
   85TMC2    H1 1329   0.141   2.974  16.159 -1.5331 -1.0985  0.0085
   85TMC2    H2 1330   0.134   3.006  15.724 -1.0265 -2.0233 -1.2323
   85TMC2    C7 1331   0.247   3.118  15.968  0.1907  0.0955 -0.5233
   85TMC2    C8 1332   0.084   2.754  15.706 -0.2669  0.1602  0.5407
   85TMC2    O1 1333   0.320   3.116  16.064  0.2842 -0.8417 -0.1950
   85TMC2    O2 1334   0.002   2.671  15.682 -0.8275  0.1298  0.3899
   85TMC2    O5 1335   0.186   2.772  15.624  0.2858 -0.2074  0.3796
   85TMC2    H5 1336   0.256   2.831  15.661 -1.3866  0.1605  2.9597
   86MPD2     C 1337   4.494   2.410  16.430  0.7898  1.0896  0.5459
   86MPD2    C1 1338   4.485   2.380  16.301  0.1498 -0.1095  0.0059
   86MPD2    C2 1339   4.569   2.444  16.210  1.1921 -0.1190  0.2201
   86MPD2    C3 1340   4.650   2.540  16.251  0.0082 -0.6185 -0.0196
   86MPD2    C4 1341   4.654   2.573  16.381  0.3477  0.2177  0.1096
   86MPD2    C5 1342   4.583   2.504  16.473 -0.0685  0.8147  0.4283
   86MPD2     H 1343   4.566   2.422  16.104 -3.1843 -0.0221  0.3472
   86MPD2    H1 1344   4.708   2.659  16.419  1.3561  0.2345 -1.3642
   86MPD2    H2 1345   4.426   2.356  16.495 -0.7167  1.0314 -1.0776
   86MPD2    H3 1346   4.589   2.521  16.580 -1.6869  0.6586  0.5446
   86MPD2     N 1347   4.734   2.605  16.158 -0.0465  0.3313 -0.3185
   86MPD2    H5 1348   0.005   2.561  16.066  0.4096  0.8638 -0.5368
   86MPD2    N1 1349   4.408   2.263  16.257  0.5043 -0.0780 -0.5109
   86MPD2    H7 1350   4.419   2.229  16.162 -1.4927  0.1396 -0.8308
   87TMC2    C1 1351   1.936   0.565   0.951 -0.1243 -0.2835  0.0261
   87TMC2    C2 1352   1.975   0.529   1.076 -0.0409  0.2091  0.3968
   87TMC2    C3 1353   1.914   0.598   1.179 -0.4926 -0.0635 -0.2774
   87TMC2    C4 1354   1.863   0.679   0.930  0.2152  0.1882 -0.5685
   87TMC2    C5 1355   1.824   0.761   1.042 -0.1921 -0.0991 -0.2995
   87TMC2    C6 1356   1.829   0.707   1.163 -0.7007  0.0957 -0.5710
   87TMC2     C 1357   2.024   0.535   0.844  0.7779  0.7672  0.0299
   87TMC2     O 1358   2.027   0.611   0.751 -0.8425  0.5396 -0.0092
   87TMC2     H 1359   2.022   0.432   1.086  0.1870  0.4755  1.8785
   87TMC2    H1 1360   1.864   0.726   0.833  0.4139 -0.2064 -0.7548
   87TMC2    H2 1361   1.782   0.754   1.249  0.8323  1.3488 -0.4153
   87TMC2    C7 1362   1.796   0.900   1.027 -0.0280 -0.0240 -0.3117
   87TMC2    C8 1363   1.883   0.528   1.296  0.0443 -0.1833  0.0984
   87TMC2    O1 1364   1.746   0.925   0.919 -0.5929  0.0514  0.0428
   87TMC2    O2 1365   1.785   0.558   1.358  0.4376  0.6886 -0.5751
   87TMC2    O5 1366   1.978   0.443   1.338  0.1149 -0.3226  0.2880
   87TMC2    H5 1367   2.057   0.447   1.279 -0.0273  0.4748  0.1474
   88MPD2     C 1368   1.946   1.194   1.188 -0.0953  0.1824  0.2588
   88MPD2    C1 1369   1.858   1.122   1.113 -0.1674 -0.0485  0.2791
   88MPD2    C2 1370   1.788   1.184   1.015  0.2091  0.0887 -0.2825
   88MPD2    C3 1371   1.799   1.325   1.002 -0.2778  0.1789  0.1621
   88MPD2    C4 1372   1.876   1.397   1.088  0.1314 -0.4601  0.1056
   88MPD2    C5 1373   1.954   1.327   1.179 -0.1672 -0.0632 -0.5501
   88MPD2     H 1374   1.724   1.134   0.944 -0.8364 -0.8611  1.3138
   88MPD2    H1 1375   1.892   1.504   1.078  0.3891 -0.3392  1.6977
   88MPD2    H2 1376   2.005   1.147   1.266  1.4742  2.1459  0.2571
   88MPD2    H3 1377   2.011   1.371   1.260 -1.5887  1.5687 -0.4257
   88MPD2     N 1378   1.711   1.397   0.913  0.3336 -1.0535  0.0953
   88MPD2    H5 1379   1.728   1.497   0.906 -0.9187 -0.6775  2.2956
   88MPD2    N1 1380   1.859   0.984   1.118  0.2694  0.6767  0.0929
   88MPD2    H7 1381   1.915   0.942   1.191 -1.8420 -0.6789  0.8930
   89TMC2    C1 1382   2.982   4.395   2.082 -0.6214 -0.3421  0.2951
   89TMC2    C2 1383   3.115   4.413   2.116 -0.4964 -0.9236  0.7801
   89TMC2    C3 1384   3.198   4.462   2.015 -0.1431 -0.0393  0.1477
   89TMC2    C4 1385   2.933   4.437   1.964 -0.0353 -1.0694 -0.2945
   89TMC2    C5 1386   3.018   4.473   1.868 -0.4104 -0.3942  0.5662
   89TMC2    C6 1387   3.154   4.482   1.886 -1.1940  0.3697  0.1792
   89TMC2     C 1388   2.913   4.287   2.156 -0.0318 -0.1734  0.2376
   89TMC2     O 1389   2.984   4.210   2.225  0.3987  0.2671  0.2256
   89TMC2     H 1390   3.152   4.377   2.212  1.0510 -2.9525 -0.5753
   89TMC2    H1 1391   2.836   4.412   1.922 -0.6452  1.5291 -0.4983
   89TMC2    H2 1392   3.221   4.510   1.806 -0.2361 -0.9235  0.5326
   89TMC2    C7 1393   2.967   4.510   1.744  0.1359 -0.3702  0.6807
   89TMC2    C8 1394   3.342   4.458   2.023 -0.4668 -0.0421  0.0331
   89TMC2    O1 1395   2.855   4.555   1.745 -0.3367 -0.1587  0.7638
   89TMC2    O2 1396   3.416   4.424   1.928  0.5268  0.0713  0.7729
   89TMC2    O5 1397   3.374   4.457   2.154 -0.3371 -0.0696 -0.3312
   89TMC2    H5 1398   3.303   4.502   2.204  0.3939  1.2792 -0.5134
   90MPD2     C 1399   2.545   3.950   2.063  0.2746 -0.8148 -0.4704
   90MPD2    C1 1400   2.509   4.078   2.028  0.3994 -0.0482  0.6765
   90MPD2    C2 1401   2.591   4.186   2.046  0.3918  0.1543 -0.4169
   90MPD2    C3 1402   2.714   4.164   2.107 -0.1519  0.1214  0.3392
   90MPD2    C4 1403   2.748   4.040   2.156  0.0922  0.3279 -0.0314
   90MPD2    C5 1404   2.666   3.935   2.127 -0.2415 -0.1310  0.1942
   90MPD2     H 1405   2.580   4.276   1.985 -1.5628 -1.7870 -2.9302
   90MPD2    H1 1406   2.840   4.018   2.209 -1.7651  1.1465  3.5511
   90MPD2    H2 1407   2.487   3.861   2.044  2.1767 -2.3816  1.0107
   90MPD2    H3 1408   2.694   3.833   2.149 -0.6636 -0.0727  1.0343
   90MPD2     N 1409   2.783   4.281   2.127 -0.1129  0.0984  0.2508
   90MPD2    H5 1410   2.746   4.370   2.095 -2.2742  0.2421  3.1619
   90MPD2    N1 1411   2.388   4.107   1.954  0.5435 -0.2139  0.6684
   90MPD2    H7 1412   2.368   4.204   1.929 -0.2110 -0.7690 -0.8754
   91TMC2    C1 1413   0.234   3.968  16.842  0.0261 -0.0554  0.3217
   91TMC2    C2 1414   0.328   3.967  16.943  0.3329 -0.1022  0.1619
   91TMC2    C3 1415   0.280   3.935  17.067 -0.0616  0.1949  0.0707
   91TMC2    C4 1416   0.103   3.931  16.861 -0.3461 -0.1767  0.5360
   91TMC2    C5 1417   0.069   3.876  16.985 -0.4504 -0.3083 -0.1252
   91TMC2    C6 1418   0.151   3.891  17.096  0.4903 -0.4708 -0.4898
   91TMC2     C 1419   0.275   3.952  16.703  0.4424 -0.2535 -0.3037
   91TMC2     O 1420   0.189   3.923  16.624  0.3711  0.0584  0.3290
   91TMC2     H 1421   0.422   4.020  16.932  0.0742  0.0501 -1.3449
   91TMC2    H1 1422   0.031   3.930  16.779  0.1648 -1.3396  0.1123
   91TMC2    H2 1423   0.122   3.850  17.192 -0.0788 -0.8959 -0.8484
   91TMC2    C7 1424   4.684   3.799  17.001 -0.1137 -0.0094 -0.4702
   91TMC2    C8 1425   0.380   3.924  17.169  0.3286 -0.1361 -0.5090
   91TMC2    O1 1426   4.651   3.749  17.108 -0.5948  0.0364 -0.0481
   91TMC2    O2 1427   0.498   3.905  17.142  0.0954 -0.6331  0.3797
   91TMC2    O5 1428   0.324   3.893  17.288  0.3635 -0.4526 -0.2906
   91TMC2    H5 1429   0.232   3.925  17.290  0.4816 -0.1637  0.5256
   92MPD2     C 1430   0.400   3.848  16.455 -0.4268 -0.3898 -0.0542
   92MPD2    C1 1431   0.474   3.889  16.564 -0.1852  0.7773  0.3886
   92MPD2    C2 1432   0.610   3.864  16.570  0.5624 -0.1298  0.0767
   92MPD2    C3 1433   0.675   3.821  16.460 -0.4100 -0.1223  0.1195
   92MPD2    C4 1434   0.609   3.798  16.345  0.0322  0.3371  0.6665
   92MPD2    C5 1435   0.465   3.805  16.346  0.0057  0.1713 -0.0519
   92MPD2     H 1436   0.662   3.884  16.663  0.7911 -0.3124 -0.0129
   92MPD2    H1 1437   0.663   3.765  16.257 -0.2318 -0.3390  0.7635
   92MPD2    H2 1438   0.294   3.860  16.439 -0.6290  0.5947  1.9576
   92MPD2    H3 1439   0.419   3.771  16.254  1.2756 -0.8986 -0.3056
   92MPD2     N 1440   0.815   3.805  16.469 -0.4694  0.0792  0.2059
   92MPD2    H5 1441   0.843   3.789  16.566 -1.2138 -0.5717  0.3106
   92MPD2    N1 1442   0.408   3.937  16.684 -0.7264  0.4537 -0.4100
   92MPD2    H7 1443   0.465   3.961  16.764  1.3282 -1.2212 -1.3715
   93TMC2    C1 1444   2.139   3.531  14.286 -0.0396  0.2069 -0.0125
   93TMC2    C2 1445   2.056   3.613  14.354  0.5496  0.1706 -0.0415
   93TMC2    C3 1446   2.090   3.748  14.360  0.2037  0.8435 -0.2366
   93TMC2    C4 1447   2.262   3.573  14.234 -0.3997  0.2334 -1.0922
   93TMC2    C5 1448   2.294   3.707  14.247  0.2363 -0.3843 -0.4747
   93TMC2    C6 1449   2.204   3.796  14.303 -0.1832 -0.1846 -0.3205
   93TMC2     C 1450   2.086   3.397  14.241  0.6190 -1.1576 -0.3748
   93TMC2     O 1451   2.158   3.321  14.182 -0.1332 -0.9621 -0.3902
   93TMC2     H 1452   1.960   3.575  14.386  1.4908 -2.7864 -0.6925
   93TMC2    H1 1453   2.334   3.498  14.204  0.7183 -0.0743  2.4235
   93TMC2    H2 1454   2.212   3.904  14.306 -1.0789 -0.1711  1.4460
   93TMC2    C7 1455   2.413   3.750  14.178  0.7564  0.6218 -0.0917
   93TMC2    C8 1456   2.004   3.844  14.424  0.5327 -0.2782 -0.2040
   93TMC2    O1 1457   2.488   3.663  14.130 -0.3928  0.0188 -0.3408
   93TMC2    O2 1458   1.879   3.831  14.421 -0.1136 -0.2508  0.5153
   93TMC2    O5 1459   2.066   3.925  14.514 -0.0786 -0.1406 -0.3010
   93TMC2    H5 1460   2.162   3.906  14.520  0.2342  1.6935  0.5419
   94MPD2     C 1461   1.933   3.184  14.112 -0.2417  0.1468  0.2022
   94MPD2    C1 1462   1.874   3.283  14.192  0.1952 -0.0104 -0.3532
   94MPD2    C2 1463   1.739   3.305  14.193 -0.4382 -0.2625 -0.5302
   94MPD2    C3 1464   1.660   3.233  14.101 -0.2977  0.2934  1.0832
   94MPD2    C4 1465   1.720   3.148  14.011  0.1988 -0.2514 -0.1215
   94MPD2    C5 1466   1.850   3.127  14.013 -0.2173 -0.5569  0.5097
   94MPD2     H 1467   1.689   3.379  14.255 -2.9378 -1.6527 -0.8898
   94MPD2    H1 1468   1.663   3.092  13.938  0.8335 -2.0124  0.7561
   94MPD2    H2 1469   2.037   3.159  14.098  0.2727  2.9675 -0.7800
   94MPD2    H3 1470   1.899   3.067  13.938  1.4895  2.7049 -0.9770
   94MPD2     N 1471   1.525   3.255  14.094  0.4696  0.4544 -0.8631
   94MPD2    H5 1472   1.479   3.213  14.013 -1.6853 -0.2670  0.7376
   94MPD2    N1 1473   1.952   3.374  14.269  0.0728 -0.0956 -0.2161
   94MPD2    H7 1474   1.897   3.443  14.319 -0.3136 -0.6347  0.1015
   95TMC2    C1 1475   1.539   0.332  15.837  0.7410  0.0101 -0.8370
   95TMC2    C2 1476   1.600   0.250  15.932 -0.0969  0.0097  0.1090
   95TMC2    C3 1477   1.522   0.192  16.022 -0.0654  0.3194  0.0339
   95TMC2    C4 1478   1.403   0.339  15.824 -0.0303  0.2586 -1.0010
   95TMC2    C5 1479   1.330   0.267  15.906  0.2322  0.6160 -0.1489
   95TMC2    C6 1480   1.383   0.202  16.014 -0.3321  0.3250  0.4266
   95TMC2     C 1481   1.623   0.436  15.772  0.1943 -0.0500 -0.4133
   95TMC2     O 1482   1.746   0.419  15.764 -0.0799 -0.0413  0.1971
   95TMC2     H 1483   1.703   0.218  15.937  0.2120  0.8457 -0.9535
   95TMC2    H1 1484   1.355   0.396  15.746  1.3532 -2.5192 -3.8822
   95TMC2    H2 1485   1.325   0.139  16.081  0.1347 -1.3632 -0.7697
   95TMC2    C7 1486   1.191   0.287  15.895 -0.2580  0.4427 -0.6673
   95TMC2    C8 1487   1.576   0.088  16.105 -0.2780  0.1993 -0.0357
   95TMC2    O1 1488   1.148   0.397  15.867 -0.7426  0.0645  0.0097
   95TMC2    O2 1489   1.666   0.015  16.064  0.0358 -0.1417 -0.2988
   95TMC2    O5 1490   1.507   0.075  16.220 -0.4861 -0.0873  0.0760
   95TMC2    H5 1491   1.453   0.151  16.249 -0.5856  0.0401 -0.4449
   96MPD2     C 1492   1.651   0.883  15.524 -0.4471 -0.4735  0.1167
   96MPD2    C1 1493   1.744   0.781  15.529 -0.5028  0.4995  0.6493
   96MPD2    C2 1494   1.710   0.665  15.599  0.6541 -0.2914 -0.0227
   96MPD2    C3 1495   1.584   0.658  15.665 -0.6438 -0.5989  0.5107
   96MPD2    C4 1496   1.496   0.766  15.670  0.3506 -0.0681  0.0795
   96MPD2    C5 1497   1.532   0.868  15.591  0.1605  0.0979 -0.0378
   96MPD2     H 1498   1.781   0.584  15.611  1.5989  0.3814 -1.1265
   96MPD2    H1 1499   1.400   0.768  15.719  0.6907  2.0653  0.6643
   96MPD2    H2 1500   1.664   0.976  15.471 -2.3824 -0.9164 -1.1544
   96MPD2    H3 1501   1.458   0.946  15.577  0.8178  0.9689  1.3018
   96MPD2     N 1502   1.545   0.539  15.735  0.0321  0.5925  0.4072
   96MPD2    H5 1503   1.457   0.544  15.786 -1.7760 -0.8570 -2.5434
   96MPD2    N1 1504   1.866   0.791  15.459  0.5045  0.4650  0.1211
   96MPD2    H7 1505   1.903   0.883  15.439  0.9432  0.4080  0.6902
   97TMC2    C1 1506   3.936   3.008   0.192 -0.3573  0.5937 -0.2158
   97TMC2    C2 1507   3.939   2.939   0.076 -0.6575 -0.1105 -0.3450
   97TMC2    C3 1508   4.003   2.996  17.713 -0.2842 -0.1584  0.0978
   97TMC2    C4 1509   3.970   3.135   0.195 -0.5820  0.0715 -0.1732
   97TMC2    C5 1510   4.028   3.187   0.079  0.8401  0.0222 -0.0503
   97TMC2    C6 1511   4.040   3.127  17.704 -1.0084  0.4410 -0.2890
   97TMC2     C 1512   3.924   2.933   0.317 -0.1679  0.2491  0.8499
   97TMC2     O 1513   3.923   3.004   0.416 -0.6442 -0.0463  0.2955
   97TMC2     H 1514   3.905   2.837   0.061 -1.5195 -0.0024  0.9030
   97TMC2    H1 1515   3.954   3.202   0.279 -2.4072 -1.0627  0.3735
   97TMC2    H2 1516   4.082   3.167  17.612  0.1382  0.5501  0.2804
   97TMC2    C7 1517   4.050   3.333   0.092  0.2898 -0.3904 -0.0990
   97TMC2    C8 1518   3.961   2.924  17.589  0.2337 -0.2766  0.1692
   97TMC2    O1 1519   4.071   3.385   0.200 -0.0191 -0.2498 -0.3135
   97TMC2    O2 1520   3.872   2.840  17.567 -0.4014  0.1406  0.0445
   97TMC2    O5 1521   4.068   2.937  17.506  0.3446 -0.0276 -0.0585
   97TMC2    H5 1522   4.143   2.989  17.540  1.2295 -2.0996  1.2143
   98MPD2     C 1523   3.890   2.554   0.636  0.4247  0.6697 -0.6462
   98MPD2    C1 1524   3.837   2.676   0.632  0.1417  0.0085 -0.3577
   98MPD2    C2 1525   3.866   2.760   0.529  0.5891 -0.4033 -0.1803
   98MPD2    C3 1526   3.937   2.715   0.419 -0.6785  0.0868  0.5589
   98MPD2    C4 1527   3.976   2.584   0.416 -0.4428 -0.7792  0.3139
   98MPD2    C5 1528   3.966   2.509   0.531 -0.2211 -0.5126  0.6243
   98MPD2     H 1529   3.834   2.863   0.541  1.1401 -0.2871  0.2892
   98MPD2    H1 1530   4.013   2.543   0.323  0.7907  1.4739 -0.1824
   98MPD2    H2 1531   3.864   2.491   0.720  1.4008  1.6950  0.4320
   98MPD2    H3 1532   4.006   2.408   0.539  1.5432 -0.0710 -2.4764
   98MPD2     N 1533   3.953   2.799   0.305  0.2342  0.3240  0.6831
   98MPD2    H5 1534   3.985   2.761   0.217  0.9561  0.7702  0.7554
   98MPD2    N1 1535   3.733   2.696   0.728  0.7316 -0.1519 -0.6648
   98MPD2    H7 1536   3.721   2.623   0.797 -1.2342 -1.2201 -2.1320
   99TMC2    C1 1537   2.278   0.259   1.585 -0.3161  0.1203  0.2181
   99TMC2    C2 1538   2.296   0.214   1.460  0.7094 -0.1986 -0.2136
   99TMC2    C3 1539   2.238   0.095   1.434 -0.5248 -0.1782  0.1385
   99TMC2    C4 1540   2.190   0.195   1.671 -0.1998  1.1663  0.3823
   99TMC2    C5 1541   2.126   0.079   1.644  0.1394 -0.1964 -0.0784
   99TMC2    C6 1542   2.152   0.027   1.518  0.0704  0.4463 -0.0129
   99TMC2     C 1543   2.349   0.379   1.636  0.5930 -0.2434 -0.0546
   99TMC2     O 1544   2.290   0.441   1.724 -0.1867 -0.3338  0.3788
   99TMC2     H 1545   2.362   0.264   1.391  1.2163 -1.0494 -0.3435
   99TMC2    H1 1546   2.147   0.260   1.747  1.8825  2.9704  0.0013
   99TMC2    H2 1547   2.111   4.668   1.489 -0.1994  0.4571  0.3231
   99TMC2    C7 1548   2.013   0.050   1.719  0.4006 -0.2515 -0.4572
   99TMC2    C8 1549   2.269   0.038   1.304 -0.2573 -0.1399  0.9251
   99TMC2    O1 1550   1.998   0.111   1.828  0.5502  0.4470  0.1300
   99TMC2    O2 1551   2.246   4.657   1.277  0.2296  0.6871  0.2326
   99TMC2    O5 1552   2.277   0.137   1.212  0.1796  0.3457 -0.0460
   99TMC2    H5 1553   2.273   0.228   1.248 -0.1315  0.1082  0.5133
  100MPD2     C 1554   2.541   0.605   1.686  0.2775  0.3239 -0.0244
  100MPD2    C1 1555   2.566   0.501   1.600 -0.7215  0.5327  0.6330
  100MPD2    C2 1556   2.694   0.491   1.549  0.1975  0.3659  0.8416
  100MPD2    C3 1557   2.793   0.589   1.559  0.7781 -0.5712 -0.7180
  100MPD2    C4 1558   2.765   0.690   1.648  0.1131 -0.5855 -0.1720
  100MPD2    C5 1559   2.642   0.692   1.716  0.9558 -0.6091 -0.1186
  100MPD2     H 1560   2.710   0.418   1.471  2.4856  0.3873  1.2819
  100MPD2    H1 1561   2.843   0.754   1.688 -0.9836  0.2422  0.6564
  100MPD2    H2 1562   2.448   0.615   1.741 -1.0022 -2.9118 -1.6017
  100MPD2    H3 1563   2.626   0.761   1.798  1.9718 -2.7160  1.8456
  100MPD2     N 1564   2.910   0.587   1.482 -0.1492 -0.4370  0.7122
  100MPD2    H5 1565   2.919   0.512   1.414  0.3613  2.0651 -1.9396
  100MPD2    N1 1566   2.472   0.401   1.572  0.5014 -0.7734 -0.2765
  100MPD2    H7 1567   2.496   0.331   1.503  0.0487 -2.3464  1.1807
  101TMC2    C1 1568   3.791   1.315  13.410 -0.7087 -0.2575  0.0440
  101TMC2    C2 1569   3.776   1.384  13.526 -0.4802 -1.1110 -0.3835
  101TMC2    C3 1570   3.765   1.522  13.518  0.2020  0.4781 -0.1297
  101TMC2    C4 1571   3.798   1.388  13.292  0.0096  0.0209  0.1392
  101TMC2    C5 1572   3.789   1.519  13.291 -0.1366 -0.8665 -0.3465
  101TMC2    C6 1573   3.774   1.597  13.407 -0.3517  0.0436  0.7285
  101TMC2     C 1574   3.791   1.168  13.405 -0.4321 -0.1464  0.8845
  101TMC2     O 1575   3.751   1.115  13.506  0.1416 -0.4737 -0.3379
  101TMC2     H 1576   3.765   1.329  13.618  1.4015  1.6518  1.4858
  101TMC2    H1 1577   3.818   1.342  13.196 -2.6728 -1.1247  0.1405
  101TMC2    H2 1578   3.770   1.705  13.410  1.6163  0.0790  1.5705
  101TMC2    C7 1579   3.847   1.600  13.187  0.1852 -0.2304 -0.7271
  101TMC2    C8 1580   3.759   1.586  13.643  0.1011 -0.2176  0.0215
  101TMC2    O1 1581   3.901   1.698  13.234 -0.1589  0.1532  1.1358
  101TMC2    O2 1582   3.673   1.669  13.664  0.0836  0.1808 -0.5938
  101TMC2    O5 1583   3.827   1.521  13.733 -0.2106  0.0548 -0.3180
  101TMC2    H5 1584   3.905   1.476  13.694  0.3010  0.5999  0.0663
  102MPD2     C 1585   3.835   0.970  13.098 -0.6427  0.9839 -0.1902
  102MPD2    C1 1586   3.790   0.999  13.219 -0.0597  0.3430 -0.1983
  102MPD2    C2 1587   3.698   0.912  13.273 -0.0899 -0.1285  0.5274
  102MPD2    C3 1588   3.649   0.802  13.202 -0.4884 -0.6703  0.2653
  102MPD2    C4 1589   3.680   0.790  13.070  0.2847 -0.1828  0.1480
  102MPD2    C5 1590   3.782   0.869  13.019  0.2928  0.0035 -0.2596
  102MPD2     H 1591   3.664   0.934  13.373 -2.3142  0.7110 -0.3978
  102MPD2    H1 1592   3.643   0.710  13.007  2.1841 -0.1190 -1.0212
  102MPD2    H2 1593   3.901   1.041  13.051  1.3208  0.1994  1.3539
  102MPD2    H3 1594   3.813   0.859  12.916  0.4668 -0.6153 -0.1462
  102MPD2     N 1595   3.547   0.729  13.268 -0.0762  0.5983  0.1865
  102MPD2    H5 1596   3.510   0.784  13.346  1.0324  1.0410  0.3945
  102MPD2    N1 1597   3.826   1.119  13.279  0.1043  0.0382  0.1953
  102MPD2    H7 1598   3.890   1.179  13.227 -0.4488 -0.5411 -1.1520
  103TMC2    C1 1599   1.716   1.467  12.879 -0.0068  0.2461 -0.1290
  103TMC2    C2 1600   1.771   1.531  12.766  0.1774  0.3221 -0.3631
  103TMC2    C3 1601   1.873   1.613  12.783  0.8377 -0.1923  0.4076
  103TMC2    C4 1602   1.756   1.492  13.013  0.3536 -0.3502 -0.4058
  103TMC2    C5 1603   1.863   1.578  13.019  0.3791  0.1796 -0.0032
  103TMC2    C6 1604   1.934   1.628  12.909  1.2767  0.2256 -0.1236
  103TMC2     C 1605   1.629   1.353  12.841  0.4917 -0.7439 -0.2183
  103TMC2     O 1606   1.623   1.321  12.720  0.0113 -0.0028  0.1550
  103TMC2     H 1607   1.742   1.510  12.664 -0.9284 -2.6943  0.5538
  103TMC2    H1 1608   1.691   1.464  13.095 -0.1836 -3.7071 -1.9653
  103TMC2    H2 1609   2.023   1.690  12.910  1.3878  0.0891 -1.2220
  103TMC2    C7 1610   1.921   1.586  13.152  0.8114  0.6101 -0.1391
  103TMC2    C8 1611   1.954   1.613  12.671 -0.1861 -0.4649 -0.5568
  103TMC2    O1 1612   1.844   1.556  13.241 -0.6201  0.4844 -0.8033
  103TMC2    O2 1613   1.978   1.517  12.598  0.3336  0.7104  0.0788
  103TMC2    O5 1614   1.994   1.733  12.627 -0.4432 -0.1644  0.2962
  103TMC2    H5 1615   1.958   1.807  12.680  0.9288  0.0937  0.8741
  104MPD2     C 1616   1.454   1.090  13.043  0.1925 -0.2151 -0.8257
  104MPD2    C1 1617   1.490   1.171  12.929 -0.1468  0.1404 -0.6295
  104MPD2    C2 1618   1.417   1.141  12.809  0.2850  0.5871 -0.1519
  104MPD2    C3 1619   1.305   1.056  12.811  0.6665 -0.0749  0.2847
  104MPD2    C4 1620   1.266   0.992  12.925 -0.4591  0.5874  0.4400
  104MPD2    C5 1621   1.340   1.005  13.037  0.0852 -0.4045  0.1648
  104MPD2     H 1622   1.435   1.198  12.718  3.4213  1.2025  0.8887
  104MPD2    H1 1623   1.173   0.938  12.938 -0.8280  0.8532 -0.9903
  104MPD2    H2 1624   1.506   1.101  13.137  1.3371  1.2519 -1.6365
  104MPD2    H3 1625   1.313   0.949  13.126 -1.4434  0.2230  0.0973
  104MPD2     N 1626   1.242   1.039  12.689 -0.3458  0.4530 -0.0636
  104MPD2    H5 1627   1.298   1.081  12.616 -2.6344  0.8135 -1.6036
  104MPD2    N1 1628   1.585   1.270  12.943 -0.0124  0.1890 -0.9719
  104MPD2    H7 1629   1.624   1.280  13.036 -0.4963 -1.1273 -0.6256
  105TMC2    C1 1630   2.776   0.705   0.371 -0.1400  0.5318  0.5449
  105TMC2    C2 1631   2.745   0.816   0.303  0.2944  0.0772  0.4814
  105TMC2    C3 1632   2.623   0.876   0.315 -0.1609  1.0514 -0.4628
  105TMC2    C4 1633   2.688   0.656   0.459 -0.3675  0.3224  0.2249
  105TMC2    C5 1634   2.569   0.715   0.465 -0.1409 -0.4795  0.0866
  105TMC2    C6 1635   2.532   0.827   0.394 -0.2852 -0.5074  0.0198
  105TMC2     C 1636   2.898   0.629   0.347 -0.1952  0.1711  0.8211
  105TMC2     O 1637   2.945   0.550   0.424 -0.6350  0.0113  0.3443
  105TMC2     H 1638   2.819   0.877   0.253  0.1580 -0.3436 -0.2311
  105TMC2    H1 1639   2.717   0.572   0.520 -3.8960 -1.7187 -0.8668
  105TMC2    H2 1640   2.439   0.879   0.414  0.6233  1.3646 -0.6349
  105TMC2    C7 1641   2.462   0.655   0.546 -0.4787  0.0757  0.5942
  105TMC2    C8 1642   2.587   0.999   0.244 -0.0060 -0.2532  0.3509
  105TMC2    O1 1643   2.372   0.729   0.577  0.0594  0.4976  0.3864
  105TMC2    O2 1644   2.479   1.026   0.192 -0.2769 -0.3388 -0.0787
  105TMC2    O5 1645   2.690   1.081   0.237  0.0484  0.1565 -0.0017
  105TMC2    H5 1646   2.758   1.057   0.303  0.8894  1.1366 -0.5174
  106MPD2     C 1647   3.269   0.517   0.012  0.8594  0.5698 -0.1005
  106MPD2    C1 1648   3.194   0.625  17.712  1.1136 -0.4311  0.5802
  106MPD2    C2 1649   3.086   0.666   0.038  0.6731  0.2208 -0.4068
  106MPD2    C3 1650   3.051   0.603   0.158 -0.3232 -0.4280 -0.6348
  106MPD2    C4 1651   3.124   0.497   0.207 -0.6537 -0.6442 -0.4564
  106MPD2    C5 1652   3.233   0.460   0.134 -0.5707 -0.0002 -0.2393
  106MPD2     H 1653   3.031   0.746  17.733 -1.3106 -1.8706 -1.5652
  106MPD2    H1 1654   3.102   0.439   0.297  1.2606  1.0651  1.1044
  106MPD2    H2 1655   3.364   0.480  17.721  0.0319  0.0740 -1.7508
  106MPD2    H3 1656   3.290   0.373   0.165 -1.2961 -0.6941 -0.8918
  106MPD2     N 1657   2.926   0.644   0.216  0.3509 -0.0876 -0.0164
  106MPD2    H5 1658   2.863   0.701   0.161  2.0038  1.5218 -0.2544
  106MPD2    N1 1659   3.224   0.682  17.581  0.3429 -0.5674 -0.5582
  106MPD2    H7 1660   3.165   0.764  17.570 -0.9286 -1.2177  1.3251
  107TMC2    C1 1661   3.863   0.535  11.554 -0.8499 -0.5355 -0.5346
  107TMC2    C2 1662   3.902   0.658  11.598 -0.1265  0.1213  0.0981
  107TMC2    C3 1663   4.001   0.721  11.538 -0.3882 -0.0364  0.0767
  107TMC2    C4 1664   3.901   0.496  11.429  0.2236  0.1100 -0.3614
  107TMC2    C5 1665   4.000   0.569  11.369 -0.7121 -0.4461 -0.1982
  107TMC2    C6 1666   4.063   0.674  11.428 -0.3726 -0.4302 -0.0737
  107TMC2     C 1667   3.777   0.452  11.635 -0.6474  0.0821  0.4722
  107TMC2     O 1668   3.725   0.496  11.735 -0.0403 -0.5109 -0.5711
  107TMC2     H 1669   3.886   0.690  11.700  0.4198 -2.4527  0.9993
  107TMC2    H1 1670   3.851   0.417  11.374  1.2922 -1.1884  0.5271
  107TMC2    H2 1671   4.151   0.718  11.382 -0.8581  1.3308  0.6990
  107TMC2    C7 1672   4.040   0.527  11.229 -0.4237  0.0016  0.2018
  107TMC2    C8 1673   4.091   0.784  11.630  0.3763  0.1105  0.6044
  107TMC2    O1 1674   4.117   0.602  11.170  0.3254  0.3751 -0.4590
  107TMC2    O2 1675   4.100   0.742  11.745 -0.2179  0.7368 -0.0847
  107TMC2    O5 1676   4.145   0.898  11.576 -0.4097  0.2158 -0.0679
  107TMC2    H5 1677   4.108   0.917  11.487 -0.3761  0.4638 -0.0282
  108MPD2     C 1678   3.678   0.103  11.565 -0.5633  0.2869 -0.6534
  108MPD2    C1 1679   3.686   0.221  11.634  0.6974 -0.3486  0.4492
  108MPD2    C2 1680   3.593   0.242  11.734  0.5593  0.7422  0.0094
  108MPD2    C3 1681   3.513   0.140  11.783  0.2472 -0.3525  0.2336
  108MPD2    C4 1682   3.518   0.015  11.720 -0.4933 -0.0034  0.1649
  108MPD2    C5 1683   3.603   0.001  11.611 -0.7452 -0.6932  0.5389
  108MPD2     H 1684   3.571   0.334  11.787 -1.1072  0.4378 -0.1598
  108MPD2    H1 1685   3.476   4.664  11.767  2.4360 -1.0440  0.8581
  108MPD2    H2 1686   3.739   0.072  11.481 -2.0389  1.3679 -2.1224
  108MPD2    H3 1687   3.606   4.640  11.565  1.9163 -1.0088  1.3832
  108MPD2     N 1688   3.421   0.151  11.888  0.4116 -0.2360 -0.2432
  108MPD2    H5 1689   3.383   0.064  11.923 -1.3423  0.8911  0.6716
  108MPD2    N1 1690   3.778   0.321  11.586 -0.2257 -0.5805  0.0465
  108MPD2    H7 1691   3.841   0.298  11.510 -0.0634  5.4600 -1.5940
  109TMC2    C1 1692   2.408   2.830   0.626 -0.2580  1.0139 -0.1804
  109TMC2    C2 1693   2.409   2.940   0.540 -0.3373  0.4412  0.1052
  109TMC2    C3 1694   2.527   2.978   0.489 -0.3323 -0.4516  0.9673
  109TMC2    C4 1695   2.528   2.774   0.669  0.7968  0.1249 -0.2527
  109TMC2    C5 1696   2.644   2.821   0.612  0.3005 -0.1114  0.7712
  109TMC2    C6 1697   2.645   2.923   0.523  0.5649 -0.2107  1.1796
  109TMC2     C 1698   2.278   2.773   0.665  0.1611  0.8024  0.6648
  109TMC2     O 1699   2.172   2.832   0.650 -0.1353  0.1161  0.0058
  109TMC2     H 1700   2.316   2.993   0.524  0.2519  1.3894 -0.2111
  109TMC2    H1 1701   2.534   2.699   0.747 -1.9617  1.6763  1.4637
  109TMC2    H2 1702   2.739   2.953   0.478 -0.0149 -1.1825 -0.7067
  109TMC2    C7 1703   2.771   2.777   0.663 -0.3011  0.6868  0.1794
  109TMC2    C8 1704   2.519   3.034   0.357 -0.0421 -0.6292 -0.2123
  109TMC2    O1 1705   2.868   2.850   0.661  0.4179  0.0829 -0.0833
  109TMC2    O2 1706   2.421   3.027   0.282  0.3233 -0.6959 -0.0295
  109TMC2    O5 1707   2.615   3.126   0.356  0.4899  0.4144 -0.2915
  109TMC2    H5 1708   2.661   3.143   0.440 -1.3761 -1.5606  1.1412
  110MPD2     C 1709   2.022   2.431   0.941  0.0895  0.7209 -0.0483
  110MPD2    C1 1710   2.150   2.392   0.931 -0.0070  0.5736 -0.6247
  110MPD2    C2 1711   2.241   2.476   0.863  0.6507 -0.3499 -0.5611
  110MPD2    C3 1712   2.194   2.588   0.799  0.2078 -0.6653  0.4141
  110MPD2    C4 1713   2.063   2.629   0.819  0.6980 -0.0837  0.2085
  110MPD2    C5 1714   1.983   2.551   0.899 -0.0660  0.2805 -0.0780
  110MPD2     H 1715   2.341   2.441   0.839  0.6139 -1.4893  0.9661
  110MPD2    H1 1716   2.010   2.709   0.768 -0.8925 -0.6263  1.0306
  110MPD2    H2 1717   1.954   2.368   0.997 -1.8846  1.3567 -1.7658
  110MPD2    H3 1718   1.879   2.581   0.912 -0.0237 -0.3521  1.7657
  110MPD2     N 1719   2.297   2.655   0.732 -0.3603 -0.2921  0.2986
  110MPD2    H5 1720   2.388   2.610   0.728 -0.6127 -0.6453 -1.5049
  110MPD2    N1 1721   2.185   2.267   0.993 -0.5520  0.6679  0.0141
  110MPD2    H7 1722   2.112   2.215   1.041  2.1162 -1.6610  1.5197
  111TMC2    C1 1723   4.322   2.437  11.916  0.1442 -0.4073 -0.3383
  111TMC2    C2 1724   4.415   2.458  11.819 -0.8807 -0.5052 -0.4557
  111TMC2    C3 1725   4.544   2.446  11.846  0.1654 -0.4585 -0.4240
  111TMC2    C4 1726   4.358   2.398  12.042 -0.2911 -0.1797 -0.2355
  111TMC2    C5 1727   4.490   2.368  12.053  0.5442  0.3406  0.7962
  111TMC2    C6 1728   4.585   2.415  11.966  0.2494 -0.2058 -0.3246
  111TMC2     C 1729   4.184   2.453  11.884  0.2408  0.1237 -0.4340
  111TMC2     O 1730   4.161   2.469  11.760  0.4173  0.3686  0.5757
  111TMC2     H 1731   4.381   2.494  11.722  1.1293 -1.8574 -1.6614
  111TMC2    H1 1732   4.284   2.358  12.111 -0.8867  1.2021 -0.0835
  111TMC2    H2 1733   4.690   2.390  11.976  0.1415 -0.1830  0.7704
  111TMC2    C7 1734   4.515   2.339  12.193  0.1959 -0.5959 -0.1564
  111TMC2    C8 1735   4.635   2.458  11.730 -0.1286  0.8014  0.1836
  111TMC2    O1 1736   4.433   2.269  12.250 -0.1074 -0.1404  0.1068
  111TMC2    O2 1737   4.596   2.424  11.617  0.1942  0.2523 -0.1485
  111TMC2    O5 1738   4.704   2.570  11.746  0.2041 -0.4306 -0.3102
  111TMC2    H5 1739   0.001   2.593  11.835  1.3171  0.0885 -0.8654
  112MPD2     C 1740   3.697   2.345  11.989 -0.0274  0.0735 -0.2947
  112MPD2    C1 1741   3.763   2.377  11.873  0.7335 -0.0523  0.3983
  112MPD2    C2 1742   3.892   2.428  11.877 -0.0591  0.0407  0.0900
  112MPD2    C3 1743   3.963   2.422  11.996  1.0564 -0.3345 -0.2182
  112MPD2    C4 1744   3.896   2.387  12.113  0.2793  0.8135  0.2990
  112MPD2    C5 1745   3.761   2.360  12.107  0.0734 -0.2175 -0.5783
  112MPD2     H 1746   3.942   2.468  11.789  0.6138  1.9214  1.3422
  112MPD2    H1 1747   3.950   2.387  12.207 -1.3044  1.6882  1.2023
  112MPD2    H2 1748   3.602   2.293  11.988  0.6919 -1.2518  2.2080
  112MPD2    H3 1749   3.722   2.314  12.197 -0.1660 -1.5881 -1.3769
  112MPD2     N 1750   4.099   2.438  11.994 -0.0821 -0.0758 -0.1692
  112MPD2    H5 1751   4.149   2.427  12.081  0.4836  0.5312 -0.4156
  112MPD2    N1 1752   3.709   2.352  11.745  0.5244 -0.2584  0.4302
  112MPD2    H7 1753   3.776   2.356  11.669 -1.9860 -1.2139 -1.8598
  113TMC2    C1 1754   1.336   4.278   1.061  0.0858 -0.4960 -0.0728
  113TMC2    C2 1755   1.400   4.164   1.015 -0.8937  0.2807 -0.1402
  113TMC2    C3 1756   1.327   4.050   0.998 -0.3546  0.3375 -0.1483
  113TMC2    C4 1757   1.197   4.282   1.065 -0.6890 -0.0397 -0.3589
  113TMC2    C5 1758   1.129   4.164   1.052  0.4054 -0.4790 -0.5118
  113TMC2    C6 1759   1.195   4.041   1.036 -0.0597 -0.3339  0.6062
  113TMC2     C 1760   1.411   4.386   1.127  0.4098  0.1761 -0.1766
  113TMC2     O 1761   1.344   4.468   1.191  0.1682 -0.4361  0.0249
  113TMC2     H 1762   1.508   4.151   1.011 -0.6996  2.6235 -2.2773
  113TMC2    H1 1763   1.145   4.375   1.080  1.0101  1.2279 -2.2699
  113TMC2    H2 1764   1.145   3.946   1.023  0.9748 -0.9779  1.3463
  113TMC2    C7 1765   0.982   4.159   1.063 -0.5454 -0.5024  0.3761
  113TMC2    C8 1766   1.402   3.926   0.988 -0.2735 -0.2064 -0.0144
  113TMC2    O1 1767   0.923   4.267   1.052  0.1876  0.0631  0.1813
  113TMC2    O2 1768   1.382   3.823   1.051  0.4738 -0.5835 -0.5191
  113TMC2    O5 1769   1.470   3.925   0.873 -0.2107  0.2695  0.2043
  113TMC2    H5 1770   1.466   4.012   0.828  0.1188  0.6270  0.8575
  114MPD2     C 1771   1.856   4.628   1.265 -0.6826 -0.4397  0.4888
  114MPD2    C1 1772   1.723   4.664   1.289  0.0149 -0.2531 -0.5101
  114MPD2    C2 1773   1.622   4.582   1.240  0.0947  0.2853 -0.2697
  114MPD2    C3 1774   1.647   4.462   1.175  0.6967 -0.1726  0.6157
  114MPD2    C4 1775   1.776   4.439   1.140 -0.2857 -0.5188 -0.1369
  114MPD2    C5 1776   1.882   4.512   1.191 -0.2408  0.0431  0.2574
  114MPD2     H 1777   1.521   4.606   1.272 -0.3683 -0.5396 -1.1132
  114MPD2    H1 1778   1.794   4.350   1.081 -0.2115 -1.1088  0.7654
  114MPD2    H2 1779   1.935   4.691   1.304 -0.9805  0.2274  0.0040
  114MPD2    H3 1780   1.982   4.478   1.169  0.6933  3.1333 -0.1857
  114MPD2     N 1781   1.549   4.369   1.125 -0.1780  0.5894  0.3538
  114MPD2    H5 1782   1.600   4.298   1.073 -0.4119  0.8426 -0.2176
  114MPD2    N1 1783   1.684   0.050   1.356  0.2024 -0.1448 -0.1569
  114MPD2    H7 1784   1.583   0.056   1.361  0.2414  0.1162  0.2747
  115TMC2    C1 1785   2.899   2.765  17.567 -0.1313 -0.1506  0.7939
  115TMC2    C2 1786   3.027   2.758  17.593 -0.2406 -0.3360 -0.5647
  115TMC2    C3 1787   3.087   2.874  17.629 -0.2549  0.3200  0.0386
  115TMC2    C4 1788   2.825   2.879  17.567 -0.5893  0.3981  0.0167
  115TMC2    C5 1789   2.885   2.991  17.615  0.4126 -0.3457  0.0456
  115TMC2    C6 1790   3.022   2.993  17.645  0.3548  0.1054  0.2430
  115TMC2     C 1791   2.815   2.652  17.570  0.3070 -0.3840  0.2323
  115TMC2     O 1792   2.714   2.662  17.499 -0.0774 -0.1725 -0.4008
  115TMC2     H 1793   3.074   2.661  17.579 -0.6660 -0.7016  0.5896
  115TMC2    H1 1794   2.718   2.878  17.551 -0.4773  0.9444 -0.7344
  115TMC2    H2 1795   3.077   3.082  17.670 -1.1114  0.9726  0.3803
  115TMC2    C7 1796   2.806   3.108  17.610  0.0682  0.7070  0.1741
  115TMC2    C8 1797   3.237   2.876  17.646 -0.1843  0.4585  0.2354
  115TMC2    O1 1798   2.687   3.097  17.584 -0.1324  0.0373  0.2122
  115TMC2    O2 1799   3.302   2.777  17.613  0.0858 -0.0803 -0.1759
  115TMC2    O5 1800   3.247   2.943   0.016 -0.8501  0.1445 -0.3783
  115TMC2    H5 1801   3.191   3.024   0.021 -1.7051 -0.4989  0.2961
  116MPD2     C 1802   2.685   2.187  17.736 -0.2041 -0.3442 -0.4702
  116MPD2    C1 1803   2.613   2.279  17.656 -0.1482 -0.1971  0.0740
  116MPD2    C2 1804   2.677   2.398  17.635  0.3666 -0.7402  0.5706
  116MPD2    C3 1805   2.807   2.426  17.679  0.3023  0.7405 -0.2087
  116MPD2    C4 1806   2.874   2.334   0.016 -0.7207  0.0384 -0.3168
  116MPD2    C5 1807   2.810   2.220   0.046 -0.1449 -0.2421  0.4395
  116MPD2     H 1808   2.625   2.480  17.586  0.4437  0.0177  1.7758
  116MPD2    H1 1809   2.973   2.353   0.057 -0.6434  1.2763 -1.0581
  116MPD2    H2 1810   2.642   2.091   0.018 -1.3165  0.5337  0.8414
  116MPD2    H3 1811   2.847   2.144   0.113 -0.7306  0.3336  1.4229
  116MPD2     N 1812   2.873   2.547  17.641  0.3256  0.1343 -0.5549
  116MPD2    H5 1813   2.961   2.568  17.686 -0.5032  0.3233  0.9732
  116MPD2    N1 1814   2.484   2.238  17.614  0.1099 -0.1560  0.2356
  116MPD2    H7 1815   2.462   2.145  17.648 -2.1898  0.5740  0.7364
  117TMC2    C1 1816   0.883   4.344  14.192  0.7089 -1.0498 -0.4473
  117TMC2    C2 1817   0.787   4.371  14.284 -0.1990  0.2475 -0.3023
  117TMC2    C3 1818   0.829   4.344  14.414  0.6141  0.0655  0.7100
  117TMC2    C4 1819   1.007   4.284  14.228 -0.5500 -0.9110 -0.4351
  117TMC2    C5 1820   1.036   4.250  14.358  0.4447 -0.2126  0.1704
  117TMC2    C6 1821   0.945   4.285  14.445  0.2726  0.1925  0.4457
  117TMC2     C 1822   0.839   4.331  14.057  0.2858  0.3228  0.2295
  117TMC2     O 1823   0.892   4.252  13.984 -0.3218  0.2677  0.1967
  117TMC2     H 1824   0.689   4.411  14.261 -0.7168 -1.1995 -0.6065
  117TMC2    H1 1825   1.069   4.247  14.147  0.5533 -1.1683  0.5390
  117TMC2    H2 1826   0.964   4.267  14.550  0.2010  0.4995  0.5095
  117TMC2    C7 1827   1.169   4.199  14.397  0.3408 -1.0802 -0.5991
  117TMC2    C8 1828   0.743   4.393  14.519  0.2235 -0.5944  0.0691
  117TMC2    O1 1829   1.176   4.160  14.514 -1.0254  0.5321  0.0472
  117TMC2    O2 1830   0.617   4.387  14.515 -0.3463  0.2200  0.0704
  117TMC2    O5 1831   0.819   4.476  14.593 -0.6102  0.3878  0.2596
  117TMC2    H5 1832   0.917   4.471  14.588 -0.6105  0.4595  0.1894
  118MPD2     C 1833   1.426   4.048  14.376 -0.3767  0.4281  0.0219
  118MPD2    C1 1834   1.382   4.134  14.279 -0.5920 -0.2955  0.2293
  118MPD2    C2 1835   1.467   4.162  14.172  0.1078 -0.2066  0.1352
  118MPD2    C3 1836   1.593   4.112  14.168  0.0068 -0.2240  0.0696
  118MPD2    C4 1837   1.634   4.030  14.272  0.3933  0.6524 -0.3220
  118MPD2    C5 1838   1.549   3.991  14.371 -0.0198 -0.2528 -0.7298
  118MPD2     H 1839   1.438   4.240  14.102  1.3006  1.1337  1.1513
  118MPD2    H1 1840   1.733   3.986  14.279 -0.5973 -1.4911  0.0539
  118MPD2    H2 1841   1.364   4.021  14.460 -1.5047 -1.8834 -1.5478
  118MPD2    H3 1842   1.583   3.935  14.457  1.6002  2.0054  0.1053
  118MPD2     N 1843   1.689   4.150  14.078  0.0410 -0.1132 -0.2894
  118MPD2    H5 1844   1.784   4.120  14.097  0.0903 -0.1451 -0.5843
  118MPD2    N1 1845   1.261   4.207  14.288  0.1831 -0.0128 -0.9352
  118MPD2    H7 1846   1.228   4.253  14.204  1.9858 -0.2609 -1.7848
  119TMC2    C1 1847   4.128   0.550  13.498 -0.3107  0.2380 -0.6885
  119TMC2    C2 1848   4.200   0.525  13.384  0.3833  0.1652 -0.3825
  119TMC2    C3 1849   4.149   0.446  13.287 -0.0786  0.0529  0.9449
  119TMC2    C4 1850   4.003   0.508  13.507 -0.2826 -0.0029 -0.0619
  119TMC2    C5 1851   3.946   0.449  13.401 -0.6162 -0.6831  0.7231
  119TMC2    C6 1852   4.017   0.422  13.287  0.1138  0.7217 -0.1367
  119TMC2     C 1853   4.171   0.634  13.606 -0.9991 -1.0023  0.2673
  119TMC2     O 1854   4.099   0.631  13.704  0.1678 -0.2646 -0.7205
  119TMC2     H 1855   4.304   0.554  13.373  0.4980  0.5373  1.6318
  119TMC2    H1 1856   3.946   0.527  13.597 -0.6686 -1.7622  0.0639
  119TMC2    H2 1857   3.969   0.388  13.196 -0.3535 -1.5936  0.9454
  119TMC2    C7 1858   3.814   0.393  13.410 -0.0050 -0.4654  0.1144
  119TMC2    C8 1859   4.211   0.460  13.159  0.2313 -0.0216  0.5272
  119TMC2    O1 1860   3.773   0.345  13.305 -0.4833 -0.0496  0.0351
  119TMC2    O2 1861   4.251   0.370  13.080  0.5663 -0.2339 -0.3542
  119TMC2    O5 1862   4.196   0.587  13.129 -0.2539  0.2284 -0.0155
  119TMC2    H5 1863   4.147   0.643  13.192 -0.1161  0.5700 -0.2112
  120MPD2     C 1864   4.544   0.852  13.865  0.1268  0.0812 -0.1254
  120MPD2    C1 1865   4.413   0.832  13.899  0.1649 -0.4420 -0.3400
  120MPD2    C2 1866   4.329   0.799  13.802 -0.1770  0.0522  0.1558
  120MPD2    C3 1867   4.370   0.771  13.670 -0.0066  0.0915 -0.2307
  120MPD2    C4 1868   4.505   0.803  13.636  0.2701 -0.6982  0.5927
  120MPD2    C5 1869   4.586   0.852  13.736  0.0142  0.0524  0.3258
  120MPD2     H 1870   4.226   0.776  13.828 -0.1037 -2.4999 -1.8058
  120MPD2    H1 1871   4.538   0.785  13.534 -2.8021 -1.6781 -0.2255
  120MPD2    H2 1872   4.613   0.890  13.940  1.5343 -3.0076  0.1307
  120MPD2    H3 1873   4.689   0.880  13.721 -0.0640 -0.1704 -0.6201
  120MPD2     N 1874   4.293   0.702  13.576 -0.1545 -0.6977  0.3507
  120MPD2    H5 1875   4.338   0.696  13.485 -3.0849  0.9838 -1.1767
  120MPD2    N1 1876   4.381   0.845  14.037 -0.0699  0.7922 -0.0721
  120MPD2    H7 1877   4.456   0.873  14.100  0.9098 -1.9938 -0.0052
  121TMC2    C1 1878   0.880   2.388  13.896  0.1030  0.3206 -0.0198
  121TMC2    C2 1879   0.989   2.334  13.841  0.1246 -0.3545 -1.0177
  121TMC2    C3 1880   1.011   2.198  13.863 -0.2906  0.4524 -0.4140
  121TMC2    C4 1881   0.788   2.315  13.974  0.2476 -0.4078 -0.0359
  121TMC2    C5 1882   0.813   2.179  13.996 -0.0350  0.7385  0.1391
  121TMC2    C6 1883   0.922   2.121  13.938  0.3401  0.5126  0.0702
  121TMC2     C 1884   0.848   2.528  13.888  0.3294 -0.0457 -0.0031
  121TMC2     O 1885   0.777   2.585  13.969 -0.1833  0.0433  0.2165
  121TMC2     H 1886   1.065   2.392  13.791 -0.4855  0.3369 -1.1284
  121TMC2    H1 1887   0.717   2.358  14.042  0.0972  0.9283 -1.0322
  121TMC2    H2 1888   0.933   2.014  13.957  1.3895  0.4089 -1.0833
  121TMC2    C7 1889   0.718   2.110  14.084 -0.8051  0.8766 -0.1610
  121TMC2    C8 1890   1.107   2.129  13.784  0.7607  0.3523  0.0486
  121TMC2    O1 1891   0.751   2.020  14.157 -0.1691  0.7032  0.1620
  121TMC2    O2 1892   1.153   2.018  13.814  0.1685 -0.2626 -0.7956
  121TMC2    O5 1893   1.084   2.186  13.661  0.1327 -0.0545  0.0444
  121TMC2    H5 1894   1.015   2.255  13.670  0.4197  0.0658  1.3257
  122MPD2     C 1895   0.886   2.812  13.838 -0.3897 -0.1833 -0.3925
  122MPD2    C1 1896   0.900   2.715  13.736 -0.4774 -0.4577 -0.2490
  122MPD2    C2 1897   0.924   2.759  13.610 -0.8332 -0.1454 -0.1390
  122MPD2    C3 1898   0.931   2.897  13.586 -0.3640  0.3329  1.0074
  122MPD2    C4 1899   0.926   2.988  13.687  0.7225  0.0409 -0.0878
  122MPD2    C5 1900   0.897   2.942  13.812 -0.5396 -0.4997  0.1538
  122MPD2     H 1901   0.948   2.690  13.530  0.5349  1.0500 -0.7636
  122MPD2    H1 1902   0.929   3.095  13.673 -0.2451  0.3299  1.8195
  122MPD2    H2 1903   0.884   2.790  13.945 -2.0317  2.1643  0.0639
  122MPD2    H3 1904   0.904   3.015  13.892  2.3899 -0.3535 -0.2093
  122MPD2     N 1905   0.957   2.947  13.454 -0.6579 -0.1202  0.3054
  122MPD2    H5 1906   0.945   3.048  13.446  0.5417  0.1108  1.3343
  122MPD2    N1 1907   0.886   2.577  13.767  0.0310 -0.9125  0.3777
  122MPD2    H7 1908   0.894   2.509  13.692 -2.3201 -1.1735  0.3935
  123TMC2    C1 1909   4.115   1.016  10.853 -0.2466  0.1362 -0.8678
  123TMC2    C2 1910   4.141   1.155  10.851 -0.5832 -0.2759 -0.1009
  123TMC2    C3 1911   4.200   1.211  10.740 -0.2206 -0.8682  0.5628
  123TMC2    C4 1912   4.155   0.940  10.750  0.4901  0.0559 -0.0922
  123TMC2    C5 1913   4.226   0.990  10.643  0.3115 -0.4630  0.0019
  123TMC2    C6 1914   4.248   1.127  10.638  0.4354 -0.6974  0.0823
  123TMC2     C 1915   4.037   0.957  10.961  0.4143 -0.1674 -0.2802
  123TMC2     O 1916   4.044   1.000  11.074 -0.6286  0.4147 -0.0182
  123TMC2     H 1917   4.109   1.209  10.939  0.3234 -0.3917  0.2980
  123TMC2    H1 1918   4.152   0.831  10.751  0.5597  0.0426 -0.9483
  123TMC2    H2 1919   4.279   1.179  10.548 -1.4885 -2.1986 -1.4386
  123TMC2    C7 1920   4.231   0.921  10.520  0.9620 -0.1931 -0.1554
  123TMC2    C8 1921   4.265   1.339  10.761 -0.2913 -0.5774 -0.1525
  123TMC2    O1 1922   4.163   0.819  10.516 -0.7387  0.3224  0.5836
  123TMC2    O2 1923   4.228   1.434  10.830  0.2355 -0.3136 -0.3159
  123TMC2    O5 1924   4.388   1.330  10.701 -0.2799  0.0253 -0.1500
  123TMC2    H5 1925   4.405   1.253  10.642 -2.9244 -2.5065  2.3900
  124MPD2     C 1926   3.716   0.575  11.140 -0.3111  0.1075 -0.0689
  124MPD2    C1 1927   3.748   0.552  11.002 -0.0031 -0.0633 -0.7356
  124MPD2    C2 1928   3.823   0.644  10.933  0.1199  0.0572 -0.0690
  124MPD2    C3 1929   3.887   0.751  10.991  0.1601 -0.6807  0.0780
  124MPD2    C4 1930   3.855   0.771  11.122 -0.1533  0.1859  0.1631
  124MPD2    C5 1931   3.772   0.681  11.191  0.0556 -0.2255 -0.2465
  124MPD2     H 1932   3.845   0.625  10.829 -3.6321  1.1012 -1.0671
  124MPD2    H1 1933   3.902   0.852  11.176  3.2014 -2.0637  0.6209
  124MPD2    H2 1934   3.659   0.503  11.198  1.5179 -0.0909  1.4711
  124MPD2    H3 1935   3.752   0.698  11.296  0.5016  0.0499 -0.2037
  124MPD2     N 1936   3.970   0.840  10.915  0.3457 -0.0094  0.6625
  124MPD2    H5 1937   3.984   0.809  10.819 -0.2271 -1.0345  0.9049
  124MPD2    N1 1938   3.692   0.438  10.944 -0.3768  0.1115 -0.0311
  124MPD2    H7 1939   3.646   0.376  11.010  0.6247  1.6089  2.0956
  125TMC2    C1 1940   0.891   4.054   9.043  0.7639  0.0110  0.2974
  125TMC2    C2 1941   0.785   3.992   9.098 -0.0023  0.2553  0.7173
  125TMC2    C3 1942   0.769   3.856   9.091 -0.9537  0.1508 -0.1397
  125TMC2    C4 1943   0.984   3.980   8.966  0.1070  0.0489 -0.9743
  125TMC2    C5 1944   0.963   3.843   8.959 -0.0267  0.7605 -0.3168
  125TMC2    C6 1945   0.861   3.782   9.023 -0.7336 -0.5621 -0.9472
  125TMC2     C 1946   0.915   4.195   9.071  0.0964  0.2287 -0.0793
  125TMC2     O 1947   0.848   4.248   9.157 -0.3882 -0.5403  0.3660
  125TMC2     H 1948   0.717   4.055   9.154  0.2301  0.5542  0.6615
  125TMC2    H1 1949   1.075   4.022   8.924  1.5309 -2.0594 -0.0634
  125TMC2    H2 1950   0.850   3.674   9.013 -1.8189 -0.5572  0.2169
  125TMC2    C7 1951   1.035   3.772   8.857  0.3575 -0.6265 -0.0335
  125TMC2    C8 1952   0.653   3.803   9.155  0.9221 -0.2571  0.3227
  125TMC2    O1 1953   1.076   3.836   8.761  0.1705  0.4632  0.2117
  125TMC2    O2 1954   0.594   3.847   9.257 -0.6854 -0.5872 -0.1980
  125TMC2    O5 1955   0.645   3.675   9.107 -0.3496 -0.0499  0.2253
  125TMC2    H5 1956   0.672   3.669   9.013 -2.8924  0.0789 -0.5293
  126MPD1     C 1957   1.185   4.621   9.033  0.8861 -0.1560  0.5401
  126MPD1    C1 1958   1.229   4.540   8.934 -0.1627 -0.7279 -0.3183
  126MPD1    C2 1959   1.166   4.421   8.913  0.0300 -1.0576 -0.2132
  126MPD1    C3 1960   1.070   4.377   9.013 -0.1532  0.2806 -0.0394
  126MPD1    C4 1961   1.032   4.455   9.120  0.6508  0.0058  0.1362
  126MPD1    C5 1962   1.097   4.574   9.125  0.1835 -0.6621 -0.5347
  126MPD1     H 1963   1.197   4.360   8.830 -1.2271 -0.7362 -0.9096
  126MPD1    H1 1964   0.947   4.439   9.185  0.0697 -1.0680 -0.8944
  126MPD1    H2 1965   1.222   4.723   9.033 -0.1107  0.1988  0.4796
  126MPD1    H3 1966   1.059   4.646   9.197  0.0335 -1.2092 -0.0579
  126MPD1     N 1967   1.008   4.252   8.986  0.5587 -0.5456  0.5585
  126MPD1    H5 1968   1.034   4.208   8.899  0.6301 -0.3763  0.4936
  126MPD1    N1 1969   1.320   4.587   8.838 -0.0795 -0.1873 -0.7045
  126MPD1    H6 1970   1.375   4.512   8.796 -0.3359 -2.0161  2.2575
  126MPD1    H7 1971   1.383   4.652   8.885  1.9098 -2.4137 -0.3060
  127TMC2    C1 1972   1.221   1.242  10.015 -0.4761  0.0993  0.3027
  127TMC2    C2 1973   1.291   1.178  10.114 -0.5312 -0.4729  0.8689
  127TMC2    C3 1974   1.250   1.058  10.166  0.2171  0.0748 -0.0719
  127TMC2    C4 1975   1.121   1.169   9.953  0.2057 -0.8299  0.1497
  127TMC2    C5 1976   1.108   1.035   9.989  0.3161 -0.0465 -0.2602
  127TMC2    C6 1977   1.171   0.972  10.096  0.6883  0.0387  0.1998
  127TMC2     C 1978   1.256   1.383   9.981 -0.0557 -0.3044  0.0169
  127TMC2     O 1979   1.339   1.440  10.049 -0.0455 -0.1128  0.4728
  127TMC2     H 1980   1.372   1.239  10.151 -0.7279  1.4363 -1.8387
  127TMC2    H1 1981   1.078   1.210   9.862  1.2005 -0.0627  0.0238
  127TMC2    H2 1982   1.149   0.874  10.136  0.5764  0.7453  1.8951
  127TMC2    C7 1983   0.991   0.975   9.934  0.0234 -0.2391  0.5223
  127TMC2    C8 1984   1.323   1.000  10.279 -1.0328  0.0179 -0.2837
  127TMC2    O1 1985   0.924   1.048   9.860 -0.0019  0.2510 -0.0167
  127TMC2    O2 1986   1.446   1.014  10.296  0.1710  0.0964  0.4736
  127TMC2    O5 1987   1.236   0.936  10.367 -0.6460 -0.3408 -0.3583
  127TMC2    H5 1988   1.143   0.941  10.339 -0.1025  1.1311 -1.8793
  128MPD2     C 1989   1.095   1.585   9.715 -0.3003 -0.8937 -0.7528
  128MPD2    C1 1990   1.185   1.568   9.815 -0.1799 -0.8832 -0.4125
  128MPD2    C2 1991   1.277   1.663   9.855 -0.4681 -0.3513 -0.4430
  128MPD2    C3 1992   1.301   1.766   9.761  1.0089 -0.3382 -0.4570
  128MPD2    C4 1993   1.223   1.772   9.647 -0.5248 -0.2849 -0.6051
  128MPD2    C5 1994   1.107   1.700   9.642  0.3451  0.0705 -0.1702
  128MPD2     H 1995   1.339   1.653   9.943 -1.8296 -0.4930  0.5079
  128MPD2    H1 1996   1.236   1.857   9.582 -0.1104  0.2791  0.2143
  128MPD2    H2 1997   1.011   1.517   9.709 -0.3176 -0.5947 -3.8811
  128MPD2    H3 1998   1.032   1.732   9.570 -0.1956 -2.0229 -0.5665
  128MPD2     N 1999   1.413   1.851   9.794 -0.5179  0.4633 -0.1132
  128MPD2    H5 2000   1.456   1.839   9.886  2.5747  1.3185 -1.4404
  128MPD2    N1 2001   1.179   1.441   9.883  0.1942 -0.0020 -0.7220
  128MPD2    H7 2002   1.105   1.381   9.849  0.6374 -1.3176  0.6049
  129TMC2    C1 2003   4.032   1.460   0.689  0.0141  0.4652 -0.3614
  129TMC2    C2 2004   4.050   1.393   0.572 -0.0850 -0.1356  0.0485
  129TMC2    C3 2005   3.944   1.385   0.482  0.8727  0.4677  0.2639
  129TMC2    C4 2006   3.907   1.517   0.717  0.2152  0.0403  0.1727
  129TMC2    C5 2007   3.805   1.513   0.624 -0.0274 -0.2404  0.0994
  129TMC2    C6 2008   3.825   1.447   0.503 -0.1711 -0.0163  0.5479
  129TMC2     C 2009   4.149   1.479   0.773  0.0354 -0.0628  0.6072
  129TMC2     O 2010   4.247   1.410   0.745  0.7146  0.5805 -0.5207
  129TMC2     H 2011   4.141   1.338   0.551 -0.5799 -1.3937  1.1284
  129TMC2    H1 2012   3.885   1.562   0.813  0.1716 -2.0352  1.1401
  129TMC2    H2 2013   3.743   1.425   0.435 -0.5597 -0.4273  1.1443
  129TMC2    C7 2014   3.680   1.565   0.669 -0.0101  0.2881 -0.4711
  129TMC2    C8 2015   3.962   1.276   0.387  0.0545  0.3515  0.5758
  129TMC2    O1 2016   3.658   1.572   0.788  0.1732 -0.1772  0.1647
  129TMC2    O2 2017   4.039   1.178   0.388  0.7168 -1.2028  0.3806
  129TMC2    O5 2018   3.893   1.313   0.277 -0.3597  0.8547 -0.2547
  129TMC2    H5 2019   3.877   1.410   0.272 -1.6332  0.6284 -0.8008
  130MPD2     C 2020   4.346   1.599   0.967 -0.1868 -0.1866 -0.9512
  130MPD2    C1 2021   4.228   1.655   0.937 -0.4485 -0.8305  0.4114
  130MPD2    C2 2022   4.205   1.780   0.988 -0.3103 -0.1439  0.3883
  130MPD2    C3 2023   4.287   1.846   1.081 -0.3022  0.1019  0.4176
  130MPD2    C4 2024   4.405   1.780   1.119 -0.3064  0.2180 -0.4350
  130MPD2    C5 2025   4.436   1.658   1.061  0.4661  0.1291  0.4402
  130MPD2     H 2026   4.118   1.833   0.952 -0.4497  1.8988  3.7057
  130MPD2    H1 2027   4.482   1.828   1.179  0.7291 -0.5011 -1.1885
  130MPD2    H2 2028   4.370   1.506   0.916  2.7377  0.3414 -0.5567
  130MPD2    H3 2029   4.528   1.606   1.087  1.8908  2.4413  0.1160
  130MPD2     N 2030   4.266   1.979   1.127  0.0538 -0.1846 -0.0234
  130MPD2    H5 2031   4.198   2.039   1.082 -1.8694 -0.6606  2.1825
  130MPD2    N1 2032   4.132   1.590   0.849 -0.3598 -0.2450  0.3178
  130MPD2    H7 2033   4.055   1.656   0.845  0.0543  0.2037 -0.3402
  131TMC2    C1 2034   3.962   0.555   9.960 -0.2946  0.0663  0.0700
  131TMC2    C2 2035   4.002   0.515   9.834 -0.3383  0.2903  0.0179
  131TMC2    C3 2036   4.082   0.593   9.751 -0.5233 -0.3197  0.4192
  131TMC2    C4 2037   4.004   0.674  10.007 -0.0081 -0.0997  0.1809
  131TMC2    C5 2038   4.076   0.754   9.917  0.2538  0.2699 -0.1081
  131TMC2    C6 2039   4.115   0.717   9.792 -0.1680  0.0968 -0.6001
  131TMC2     C 2040   3.880   0.471  10.046  0.7179 -0.3304 -0.2080
  131TMC2     O 2041   3.859   0.508  10.162  0.0942 -0.2514 -0.2422
  131TMC2     H 2042   3.989   0.412   9.804  3.7377 -0.2105 -0.0399
  131TMC2    H1 2043   3.962   0.714  10.099  2.1910 -0.9796  1.5720
  131TMC2    H2 2044   4.165   0.785   9.724 -1.4085  2.4145  0.7782
  131TMC2    C7 2045   4.068   0.895   9.947  1.0020 -0.1010 -0.2350
  131TMC2    C8 2046   4.136   0.535   9.624 -0.0357 -0.7045  0.0644
  131TMC2    O1 2047   4.012   0.931  10.053 -0.0068 -0.1924 -0.2043
  131TMC2    O2 2048   4.082   0.439   9.573 -0.2376  0.2847  0.0468
  131TMC2    O5 2049   4.269   0.560   9.618 -0.4694  0.2325  0.3042
  131TMC2    H5 2050   4.305   0.636   9.668  1.2753  0.6540 -1.6226
  132MPD2     C 2051   3.717   0.152   9.992  0.5142 -0.5030 -0.4339
  132MPD2    C1 2052   3.774   0.252  10.064  0.1696 -0.5502  0.1399
  132MPD2    C2 2053   3.764   0.256  10.205  1.0872  0.3946  0.9824
  132MPD2    C3 2054   3.684   0.160  10.266 -0.4479 -0.6481  0.3080
  132MPD2    C4 2055   3.616   0.065  10.190  0.8031 -0.3572 -0.3388
  132MPD2    C5 2056   3.647   0.055  10.054  0.7163  0.5959  1.1693
  132MPD2     H 2057   3.818   0.327  10.267  3.2660  0.6496 -1.2376
  132MPD2    H1 2058   3.562   4.716  10.229 -0.1814 -0.1086 -1.1464
  132MPD2    H2 2059   3.732   0.160   9.885 -0.1699  0.1268 -0.4793
  132MPD2    H3 2060   3.604   4.711   9.997  1.4643  1.9979 -1.3513
  132MPD2     N 2061   3.671   0.164  10.409 -0.2870 -0.2712  0.0547
  132MPD2    H5 2062   3.727   0.233  10.458 -1.1020  0.5083 -0.1046
  132MPD2    N1 2063   3.855   0.346   9.997  0.1974 -0.0913 -0.5098
  132MPD2    H7 2064   3.868   0.325   9.899  2.9949 -1.0673  0.0840
  133TMC2    C1 2065   3.669   2.527   9.750 -0.0559  0.7728 -0.1539
  133TMC2    C2 2066   3.777   2.443   9.725  0.7169 -0.4819  0.2617
  133TMC2    C3 2067   3.881   2.450   9.814  0.8207  0.4022 -0.3674
  133TMC2    C4 2068   3.668   2.609   9.862  0.1986 -0.7301  0.2090
  133TMC2    C5 2069   3.776   2.614   9.940 -0.3167 -0.2642  1.0961
  133TMC2    C6 2070   3.886   2.533   9.918 -0.4267  0.4158  0.0562
  133TMC2     C 2071   3.549   2.495   9.672  0.6284  0.3363  0.1977
  133TMC2     O 2072   3.553   2.391   9.599  0.4663  0.0903  0.3859
  133TMC2     H 2073   3.762   2.360   9.657  0.2912  1.1681 -1.6639
  133TMC2    H1 2074   3.583   2.670   9.888  0.7500  0.5732 -1.0078
  133TMC2    H2 2075   3.964   2.531   9.993 -0.2852  0.2086 -0.0973
  133TMC2    C7 2076   3.775   2.708  10.051  0.2920 -0.2106 -0.4580
  133TMC2    C8 2077   4.011   2.378   9.793 -1.4815 -0.4845 -0.4831
  133TMC2    O1 2078   3.663   2.748  10.083 -0.1054  0.0819  0.2390
  133TMC2    O2 2079   4.033   2.273   9.729 -0.2602  0.0486  0.1548
  133TMC2    O5 2080   4.114   2.464   9.809 -0.3899  0.0324  0.1728
  133TMC2    H5 2081   4.091   2.548   9.854  0.9023  0.8684 -0.6962
  134MPD2     C 2082   3.237   2.685   9.637 -0.2297 -0.2002 -0.1769
  134MPD2    C1 2083   3.324   2.577   9.628  0.2111 -0.7297 -0.1963
  134MPD2    C2 2084   3.271   2.455   9.586 -0.2791  0.2736  0.1738
  134MPD2    C3 2085   3.140   2.450   9.544  0.9032 -0.4517 -0.1359
  134MPD2    C4 2086   3.053   2.556   9.551  0.2312  0.3916  0.2626
  134MPD2    C5 2087   3.105   2.675   9.597  0.0547 -0.2200 -0.2440
  134MPD2     H 2088   3.332   2.366   9.580  0.9550  1.0729  0.7958
  134MPD2    H1 2089   2.952   2.558   9.514  0.3818  0.1725 -0.1629
  134MPD2    H2 2090   3.276   2.780   9.671  3.1215 -1.4942 -0.4089
  134MPD2    H3 2091   3.039   2.759   9.579  1.8130  1.7932  2.6478
  134MPD2     N 2092   3.076   2.334   9.499  0.1558 -0.0868 -0.4248
  134MPD2    H5 2093   2.974   2.326   9.504  0.3601 -1.3935  1.7356
  134MPD2    N1 2094   3.454   2.593   9.682  0.1281 -0.4335 -0.1513
  134MPD2    H7 2095   3.469   2.675   9.739  0.8064 -0.5875 -0.1139
  135TMC2    C1 2096   0.897   3.438   9.641 -0.1132  0.4706 -0.6629
  135TMC2    C2 2097   1.007   3.374   9.692 -0.4519 -0.1904 -0.0154
  135TMC2    C3 2098   0.986   3.261   9.766  0.0451  0.1295  0.5406
  135TMC2    C4 2099   0.773   3.394   9.662  0.3184  0.2023 -0.6536
  135TMC2    C5 2100   0.758   3.297   9.757 -0.4428  0.3970  0.5692
  135TMC2    C6 2101   0.864   3.236   9.808  0.1299 -0.9501 -0.0036
  135TMC2     C 2102   0.906   3.555   9.547  0.8429 -0.4402  0.7893
  135TMC2     O 2103   0.801   3.616   9.525  0.3954 -0.2521  0.0096
  135TMC2     H 2104   1.107   3.414   9.681 -0.0355 -0.9706  0.9037
  135TMC2    H1 2105   0.686   3.438   9.615  0.5259  2.3707  0.9965
  135TMC2    H2 2106   0.850   3.172   9.895  0.7023 -1.1359 -0.0462
  135TMC2    C7 2107   0.627   3.276   9.804 -0.7415 -0.1552  1.0454
  135TMC2    C8 2108   1.084   3.208   9.864  0.2618  0.0825  0.0717
  135TMC2    O1 2109   0.544   3.363   9.774 -0.2828 -0.1673 -0.4950
  135TMC2    O2 2110   1.177   3.278   9.892  0.5046  0.1150 -0.0425
  135TMC2    O5 2111   1.060   3.073   9.876  0.0223  0.4073  0.6209
  135TMC2    H5 2112   0.982   3.041   9.826 -0.4657  0.0419  1.6168
  136MPD2     C 2113   1.026   3.789   9.397  1.0362 -0.4609  0.3044
  136MPD2    C1 2114   1.069   3.656   9.387  0.3098 -0.2393  0.3673
  136MPD2    C2 2115   1.169   3.627   9.293 -0.1661 -0.4625 -0.5500
  136MPD2    C3 2116   1.226   3.728   9.210  0.3887 -0.3002 -0.3350
  136MPD2    C4 2117   1.192   3.859   9.238  0.4236  0.6451 -0.1257
  136MPD2    C5 2118   1.094   3.887   9.328  0.3986 -0.4628  0.4623
  136MPD2     H 2119   1.196   3.522   9.280  1.9738 -0.1105  1.2142
  136MPD2    H1 2120   1.225   3.951   9.192  1.4911  0.7767  0.8985
  136MPD2    H2 2121   0.959   3.830   9.471  2.3166 -0.0664  1.2447
  136MPD2    H3 2122   1.063   3.990   9.340  2.7947  0.0550  2.3005
  136MPD2     N 2123   1.317   3.700   9.105 -0.4688  0.1871  0.3000
  136MPD2    H5 2124   1.358   3.608   9.093  1.3448  0.8707  1.3763
  136MPD2    N1 2125   1.024   3.554   9.473  0.4503 -0.1784  0.2087
  136MPD2    H7 2126   1.076   3.467   9.459 -1.5182 -1.2330 -0.5123
  137TMC2    C1 2127   0.863   1.397   9.080  0.0982 -0.2806  0.1547
  137TMC2    C2 2128   0.890   1.305   8.973  0.3480  0.4641 -0.4636
  137TMC2    C3 2129   0.887   1.171   9.000  0.5367  0.6271 -0.4097
  137TMC2    C4 2130   0.819   1.352   9.199  0.3452 -1.2296 -0.4871
  137TMC2    C5 2131   0.817   1.221   9.222 -0.4843 -0.4278  0.0218
  137TMC2    C6 2132   0.852   1.131   9.127  0.3394  0.5714  0.1622
  137TMC2     C 2133   0.858   1.538   9.057 -0.8086  0.7190  0.1257
  137TMC2     O 2134   0.812   1.605   9.150 -0.4680  0.2945  0.3189
  137TMC2     H 2135   0.900   1.329   8.868  1.3222  0.1919 -0.4275
  137TMC2    H1 2136   0.823   1.416   9.286  3.7933 -2.6444  0.3793
  137TMC2    H2 2137   0.863   1.027   9.158 -1.6468  0.4051  0.2911
  137TMC2    C7 2138   0.779   1.168   9.351  0.0520 -0.1087  0.2969
  137TMC2    C8 2139   0.947   1.079   8.906 -0.1669 -0.5993 -0.4815
  137TMC2    O1 2140   0.830   1.059   9.371 -0.4473  0.2553 -0.5818
  137TMC2    O2 2141   0.997   1.127   8.805  0.3036 -0.6202 -0.4832
  137TMC2    O5 2142   0.921   0.949   8.932  1.3222  0.3187 -0.1636
  137TMC2    H5 2143   0.890   0.939   9.024  1.7445 -2.7436 -0.3331
  138MPD2     C 2144   1.003   1.724   8.777  0.0049 -0.0921 -0.0340
  138MPD2    C1 2145   0.953   1.712   8.904  0.6924  0.0442 -0.2368
  138MPD2    C2 2146   0.905   1.820   8.972 -0.0115  0.0417  0.6480
  138MPD2    C3 2147   0.917   1.945   8.913 -0.2039 -0.3829 -0.8959
  138MPD2    C4 2148   0.964   1.954   8.782  0.5442 -0.3022 -0.3004
  138MPD2    C5 2149   1.003   1.842   8.715 -0.1365 -0.4165 -0.2612
  138MPD2     H 2150   0.868   1.812   9.073  1.6129  2.6411  1.4600
  138MPD2    H1 2151   0.975   2.047   8.728  1.6062  1.3920  2.8111
  138MPD2    H2 2152   1.029   1.634   8.723 -0.1400 -0.2169  0.1040
  138MPD2    H3 2153   1.041   1.846   8.613  0.2177  0.2474 -0.1022
  138MPD2     N 2154   0.900   2.056   8.998 -0.0857  0.1482 -0.0323
  138MPD2    H5 2155   0.880   2.037   9.096 -0.2019  1.0035  0.1039
  138MPD2    N1 2156   0.928   1.577   8.946 -0.0439 -0.6686 -0.3772
  138MPD2    H7 2157   0.959   1.499   8.887  0.7735 -0.4797 -0.2043
  139TMC2    C1 2158   1.340   0.197  13.268 -0.8594 -0.7302  0.1442
  139TMC2    C2 2159   1.378   0.251  13.145 -0.1501 -0.0528  0.8834
  139TMC2    C3 2160   1.339   0.376  13.118 -0.1574 -0.0063 -0.0614
  139TMC2    C4 2161   1.273   0.267  13.367  0.7730  0.2399  0.2658
  139TMC2    C5 2162   1.236   0.398  13.332  0.4421  0.8046  0.3475
  139TMC2    C6 2163   1.263   0.453  13.203  0.3338 -1.2773  0.1374
  139TMC2     C 2164   1.351   0.056  13.285  0.0839 -0.0870  0.8487
  139TMC2     O 2165   1.444   4.735  13.230  0.0046 -0.5071 -0.1202
  139TMC2     H 2166   1.433   0.189  13.076  2.8986  2.4540  1.0649
  139TMC2    H1 2167   1.264   0.232  13.469  1.0701 -0.8746 -0.0865
  139TMC2    H2 2168   1.229   0.550  13.170  0.3257 -1.1029  0.6569
  139TMC2    C7 2169   1.169   0.498  13.416 -0.5240  0.1717 -0.3407
  139TMC2    C8 2170   1.374   0.439  12.991 -1.0285 -0.4270 -0.3900
  139TMC2    O1 2171   1.109   0.581  13.354  0.0832 -0.1012  0.0304
  139TMC2    O2 2172   1.295   0.519  12.943  0.2056 -0.1213 -0.2492
  139TMC2    O5 2173   1.503   0.467  13.024  0.4907 -0.5842  0.5303
  139TMC2    H5 2174   1.535   0.409  13.096  1.4504 -2.4514 -1.3955
  140MPD2     C 2175   1.144   4.596  13.503  0.0704 -0.2557  0.3022
  140MPD2    C1 2176   1.248   4.624  13.422 -0.1297  0.1910 -0.2836
  140MPD2    C2 2177   1.348   4.532  13.413 -0.0906 -0.0756 -0.3721
  140MPD2    C3 2178   1.334   4.401  13.469  0.4078 -0.0162  0.1260
  140MPD2    C4 2179   1.232   4.379  13.555  0.0168 -0.5655 -0.2825
  140MPD2    C5 2180   1.136   4.475  13.565  0.5974 -0.2615  0.1373
  140MPD2     H 2181   1.443   4.554  13.367  0.7970  0.7404  1.8199
  140MPD2    H1 2182   1.221   4.282  13.603  0.5609 -0.1750  0.6413
  140MPD2    H2 2183   1.060   4.663  13.512  0.5685  0.8170 -3.0413
  140MPD2    H3 2184   1.042   4.464  13.616  0.4457 -0.9768 -0.2989
  140MPD2     N 2185   1.432   4.300  13.438  0.1117  0.0657 -0.0357
  140MPD2    H5 2186   1.492   4.322  13.358 -0.3923 -0.3811 -0.5387
  140MPD2    N1 2187   1.254   0.019  13.370  0.5446  0.3323  0.3558
  140MPD2    H7 2188   1.184   0.085  13.402 -0.5624  0.2158 -1.7814
  141TMC2    C1 2189   1.547   1.732  14.760  0.0312 -0.5633  0.1101
  141TMC2    C2 2190   1.531   1.629  14.847 -0.0246  0.1256 -0.3099
  141TMC2    C3 2191   1.460   1.661  14.958  0.8762 -0.6532  0.4038
  141TMC2    C4 2192   1.476   1.850  14.772 -0.2999  0.3730 -0.0946
  141TMC2    C5 2193   1.388   1.871  14.875 -0.8732 -0.3037 -0.5492
  141TMC2    C6 2194   1.384   1.774  14.977  0.1273  0.4126  0.7978
  141TMC2     C 2195   1.641   1.728  14.651 -0.0233 -0.5117 -0.4302
  141TMC2     O 2196   1.607   1.781  14.546 -0.5883 -0.1578 -0.1063
  141TMC2     H 2197   1.573   1.530  14.834 -1.6745 -0.4455 -1.2457
  141TMC2    H1 2198   1.472   1.919  14.689  2.2793 -0.7969 -1.1993
  141TMC2    H2 2199   1.332   1.806  15.066 -0.3119 -0.6697  0.9351
  141TMC2    C7 2200   1.388   2.006  14.922 -1.0266 -0.4847 -0.0196
  141TMC2    C8 2201   1.458   1.553  15.052 -0.2199  0.4986 -0.2296
  141TMC2    O1 2202   1.306   2.026  15.013 -0.4726  0.0583 -0.2166
  141TMC2    O2 2203   1.535   1.462  15.041 -0.1465  0.0943 -0.7447
  141TMC2    O5 2204   1.333   1.554  15.098 -0.2099  0.3719 -0.1299
  141TMC2    H5 2205   1.300   1.646  15.089 -1.3282  0.1951  2.0582
  142TMC2    C1 2206   4.132   0.170  10.104 -0.0775  0.5207  0.7586
  142TMC2    C2 2207   4.184   0.141   9.976 -0.5098  0.4245  0.7847
  142TMC2    C3 2208   4.257   0.245   9.921  0.5355 -0.3819  0.0030
  142TMC2    C4 2209   4.141   0.285  10.169 -0.1330 -0.5830  0.2467
  142TMC2    C5 2210   4.217   0.382  10.107  0.7813  0.0847  0.9538
  142TMC2    C6 2211   4.272   0.368   9.981  0.3631 -0.1810 -0.3230
  142TMC2     C 2212   4.064   0.056  10.166  0.3367  0.0155  0.0993
  142TMC2     O 2213   4.059   4.697  10.092  0.7704  0.2323 -0.0423
  142TMC2     H 2214   4.165   0.047   9.925  1.3595  1.5638 -2.0053
  142TMC2    H1 2215   4.106   0.311  10.268 -2.6520  0.8379 -1.0220
  142TMC2    H2 2216   4.324   0.446   9.928 -1.1060  0.9907 -0.0422
  142TMC2    C7 2217   4.244   0.508  10.183 -0.0467 -0.8914 -0.7611
  142TMC2    C8 2218   4.314   0.215   9.788  0.2396  0.2594 -0.7357
  142TMC2    O1 2219   4.197   0.524  10.297  0.1368  0.0147  0.3321
  142TMC2    O2 2220   4.256   0.173   9.686  0.2751  0.0267  0.4584
  142TMC2    O5 2221   4.428   0.284   9.784 -0.3778 -0.4488 -0.2801
  142TMC2    H5 2222   4.473   0.292   9.871  1.6604  2.9786 -1.6037
  143MPD2     C 2223   3.809   4.568  10.544  0.0852  0.5066 -0.8788
  143MPD2    C1 2224   3.803   4.535  10.406 -0.5758  0.2492  0.0824
  143MPD2    C2 2225   3.886   4.614  10.326  0.5876 -0.1155  0.4758
  143MPD2    C3 2226   3.965   4.723  10.369  0.5674  0.3691  0.3424
  143MPD2    C4 2227   3.954   0.015  10.503  0.1004  0.4469 -0.8368
  143MPD2    C5 2228   3.883   4.675  10.586  1.1782 -0.3642 -0.0440
  143MPD2     H 2229   3.898   4.592  10.220  1.2781 -0.1312  0.5532
  143MPD2    H1 2230   3.999   0.102  10.549 -0.6261  0.2491  0.2523
  143MPD2    H2 2231   3.741   4.515  10.610  4.0475 -2.6539  0.6931
  143MPD2    H3 2232   3.869   4.710  10.688  1.2675  0.4849 -0.3213
  143MPD2     N 2233   4.049   0.068  10.297 -0.2230 -0.0848 -0.0188
  143MPD2    H5 2234   4.086   0.152  10.340  1.0695 -1.9253  2.4347
  143MPD2    N1 2235   3.718   4.430  10.372  1.1201  0.5065  0.2753
  143MPD2    H7 2236   3.681   4.374  10.448 -2.7901  3.2049  0.4128
  144TMC2    C1 2237   0.915   3.467   0.915 -0.1329 -0.4241  0.6703
  144TMC2    C2 2238   0.783   3.432   0.925  0.2826  0.1841  0.1294
  144TMC2    C3 2239   0.738   3.371   1.040 -0.0636  0.0740  0.0280
  144TMC2    C4 2240   1.005   3.435   1.012  0.4735 -0.1354 -0.2393
  144TMC2    C5 2241   0.956   3.389   1.131 -0.3540  0.4792 -0.5024
  144TMC2    C6 2242   0.824   3.364   1.147 -0.3458 -0.4205  1.0835
  144TMC2     C 2243   0.970   3.498   0.786 -0.1947 -0.2482  0.6501
  144TMC2     O 2244   1.059   3.430   0.739  0.3986  0.2765 -0.2059
  144TMC2     H 2245   0.724   3.436   0.834 -0.2535  1.0627  0.5247
  144TMC2    H1 2246   1.108   3.458   0.988  0.8938  2.0015  3.4554
  144TMC2    H2 2247   0.782   3.344   1.245 -1.5439  0.7611  0.8066
  144TMC2    C7 2248   1.032   3.412   1.252  0.8028  1.1471  0.4887
  144TMC2    C8 2249   0.596   3.354   1.059 -0.3850 -1.0548  0.2765
  144TMC2    O1 2250   1.005   3.336   1.348 -0.0501 -0.6053  0.7148
  144TMC2    O2 2251   0.509   3.413   0.994 -0.2107  0.4297 -0.1295
  144TMC2    O5 2252   0.571   3.251   1.140 -0.3585 -0.0323  0.9087
  144TMC2    H5 2253   0.649   3.205   1.177 -1.3890 -0.8808  2.0639
  145MPD2     C 2254   0.788   3.680   0.340  0.3938 -0.0994  0.1142
  145MPD2    C1 2255   0.870   3.571   0.373  0.5164  0.3260  0.2515
  145MPD2    C2 2256   0.900   3.545   0.500  0.0955 -0.4322 -0.1976
  145MPD2    C3 2257   0.873   3.640   0.602  0.2313 -0.4215 -0.4529
  145MPD2    C4 2258   0.805   3.760   0.573  0.1963  0.1212  0.0829
  145MPD2    C5 2259   0.759   3.767   0.440 -0.2624 -1.1311  0.2764
  145MPD2     H 2260   0.942   3.449   0.527  2.9013  1.2789  1.5202
  145MPD2    H1 2261   0.779   3.836   0.645  1.8845 -1.7941  2.7581
  145MPD2    H2 2262   0.737   3.693   0.245  0.9649 -0.8543 -0.2974
  145MPD2    H3 2263   0.682   3.837   0.411  1.0709  1.9584  4.2626
  145MPD2     N 2264   0.888   3.597   0.738 -0.1570  0.2408 -0.6727
  145MPD2    H5 2265   0.838   3.646   0.811  0.7256 -1.7424  1.2788
  145MPD2    N1 2266   0.920   3.477   0.275 -0.2239 -0.1646 -1.0628
  145MPD2    H7 2267   0.979   3.401   0.308 -0.5578  0.1289  0.2082
  146TMC2    C1 2268   3.270   2.613  12.757  0.3452 -0.3486 -0.1214
  146TMC2    C2 2269   3.156   2.607  12.681 -0.2868 -1.5346  0.8295
  146TMC2    C3 2270   3.173   2.560  12.553 -0.0411  0.3943 -0.4460
  146TMC2    C4 2271   3.390   2.553  12.722  0.4423  0.6958 -0.4172
  146TMC2    C5 2272   3.395   2.494  12.595 -0.3940  0.4375  0.4915
  146TMC2    C6 2273   3.290   2.496  12.507 -0.4190 -0.3707  0.2141
  146TMC2     C 2274   3.267   2.668  12.894  0.3149  0.2241 -0.5477
  146TMC2     O 2275   3.197   2.770  12.904  0.6929  0.0228  0.4601
  146TMC2     H 2276   3.067   2.662  12.712  0.6610 -0.2617  1.2875
  146TMC2    H1 2277   3.483   2.562  12.777  0.3757  3.0410 -0.7056
  146TMC2    H2 2278   3.293   2.448  12.410  0.4409 -1.1524  0.6252
  146TMC2    C7 2279   3.516   2.428  12.553  0.2752  0.1365 -0.1369
  146TMC2    C8 2280   3.071   2.552  12.453 -0.9355  0.1457 -0.5841
  146TMC2    O1 2281   3.540   2.416  12.437 -0.3102 -0.0431  0.3556
  146TMC2    O2 2282   3.051   2.442  12.402  0.0734  0.3155 -0.0889
  146TMC2    O5 2283   2.985   2.645  12.488 -0.1529  0.0450 -0.2780
  146TMC2    H5 2284   3.014   2.725  12.537 -0.3231 -1.8286  2.8864
  147MPD2     C 2285   3.945   2.169  12.662  0.1184 -0.5175  0.1575
  147MPD2    C1 2286   3.878   2.191  12.778 -0.0555 -0.1047 -0.0571
  147MPD2    C2 2287   3.750   2.248  12.776  0.3100 -0.0876  0.0966
  147MPD2    C3 2288   3.702   2.309  12.659  0.1385 -0.5197 -0.0553
  147MPD2    C4 2289   3.783   2.292  12.542  0.4690  0.4941  0.0085
  147MPD2    C5 2290   3.901   2.217  12.546  0.5573 -0.7203 -0.1507
  147MPD2     H 2291   3.699   2.263  12.871  1.0412 -1.1386  0.6561
  147MPD2    H1 2292   3.753   2.335  12.447  0.7634  1.2901  0.2673
  147MPD2    H2 2293   4.044   2.126  12.659  1.1014  1.6684  1.8513
  147MPD2    H3 2294   3.959   2.205  12.455 -1.1381 -3.4663 -0.8550
  147MPD2     N 2295   3.582   2.377  12.666  0.7280 -0.7122  0.1313
  147MPD2    H5 2296   3.532   2.375  12.754  2.4357  2.4669  1.1764
  147MPD2    N1 2297   3.952   2.147  12.892  0.1980 -0.2473  0.9248
  147MPD2    H7 2298   4.047   2.112  12.882 -0.3177 -0.7853 -2.2476
  148TMC2    C1 2299   3.882   1.783  10.786 -0.5670  0.9239  0.6565
  148TMC2    C2 2300   3.967   1.880  10.747  0.0307 -0.2370 -0.3941
  148TMC2    C3 2301   4.087   1.834  10.695  0.2944  0.2845 -0.1011
  148TMC2    C4 2302   3.904   1.645  10.765  0.1297 -0.5500 -0.9621
  148TMC2    C5 2303   4.011   1.608  10.687 -0.8950  0.1387 -0.5247
  148TMC2    C6 2304   4.104   1.702  10.660 -0.5550 -0.0917 -0.1293
  148TMC2     C 2305   3.742   1.822  10.768 -0.6330  0.0912 -0.0790
  148TMC2     O 2306   3.713   1.935  10.810  0.3106  0.2285 -0.1707
  148TMC2     H 2307   3.952   1.983  10.777  0.0243  0.2906 -2.1791
  148TMC2    H1 2308   3.839   1.561  10.786  1.5570 -1.3921  0.0884
  148TMC2    H2 2309   4.200   1.671  10.622 -1.0369 -1.8174  0.0620
  148TMC2    C7 2310   4.009   1.467  10.627  0.1554 -0.0960 -0.0784
  148TMC2    C8 2311   4.159   1.946  10.630  0.4086 -0.3224  0.5054
  148TMC2    O1 2312   3.927   1.386  10.669 -0.0231  0.8482  0.1817
  148TMC2    O2 2313   4.094   2.035  10.576 -0.1409  0.0275 -0.3866
  148TMC2    O5 2314   4.287   1.921  10.613 -0.2682 -0.1531 -0.6378
  148TMC2    H5 2315   4.321   1.861  10.683  0.5609 -1.0929 -1.8417
  149MPD2     C 2316   3.456   1.839  10.686  0.4266  0.9413 -0.6031
  149MPD2    C1 2317   3.534   1.724  10.688  0.1531 -0.5349 -1.1248
  149MPD2    C2 2318   3.476   1.604  10.661  0.7357 -0.7410  0.1975
  149MPD2    C3 2319   3.342   1.587  10.646  0.3131 -0.5125 -0.2932
  149MPD2    C4 2320   3.263   1.704  10.655  0.1628  0.6359  0.3908
  149MPD2    C5 2321   3.323   1.829  10.665  0.6689 -0.4259 -0.4701
  149MPD2     H 2322   3.541   1.518  10.657  0.3476 -0.9777 -0.9247
  149MPD2    H1 2323   3.155   1.703  10.648  0.1478 -0.2012  0.7848
  149MPD2    H2 2324   3.499   1.938  10.700  1.4849  0.4982 -0.7156
  149MPD2    H3 2325   3.272   1.925  10.663 -1.1927 -1.4471 -0.7042
  149MPD2     N 2326   3.280   1.462  10.629 -0.3420 -0.4273  0.8048
  149MPD2    H5 2327   3.179   1.461  10.618 -0.4248 -1.8140  1.6382
  149MPD2    N1 2328   3.671   1.717  10.720 -0.0209 -0.0653 -0.3309
  149MPD2    H7 2329   3.718   1.627  10.711 -0.1658 -0.0690 -1.0099
  150TMC2    C1 2330   0.250   0.529  12.467 -0.2477  0.0113 -0.1200
  150TMC2    C2 2331   0.156   0.588  12.384  0.2792  0.6637  0.7165
  150TMC2    C3 2332   0.206   0.595  12.258 -0.5610  0.7676  0.5717
  150TMC2    C4 2333   0.378   0.492  12.443 -0.0355 -0.3857 -0.5402
  150TMC2    C5 2334   0.412   0.505  12.313  0.1842 -0.6824 -0.1381
  150TMC2    C6 2335   0.333   0.565  12.220 -0.2861  0.2205 -0.1719
  150TMC2     C 2336   0.209   0.510  12.605  0.5353 -0.7909  0.3279
  150TMC2     O 2337   0.293   0.514  12.691  0.5646 -0.0110  0.1054
  150TMC2     H 2338   0.079   0.655  12.420  0.3768  0.8384  0.5980
  150TMC2    H1 2339   0.448   0.454  12.517  0.7047  1.7832 -0.1431
  150TMC2    H2 2340   0.370   0.569  12.118 -1.3508  0.7154 -0.5391
  150TMC2    C7 2341   0.545   0.485  12.253  0.2422 -0.3396  0.5466
  150TMC2    C8 2342   0.116   0.658  12.166 -0.6865  0.4942 -0.4462
  150TMC2    O1 2343   0.578   0.552  12.155 -0.2001 -0.0512  0.5121
  150TMC2    O2 2344   4.729   0.676  12.182 -0.6072 -0.3828 -0.6517
  150TMC2    O5 2345   0.183   0.755  12.100 -0.3917  0.0473 -0.3011
  150TMC2    H5 2346   0.271   0.774  12.139 -1.3461 -0.4415  2.0894
  151MPD2     C 2347   4.585   0.406  12.969 -0.5554 -0.0495 -0.7276
  151MPD2    C1 2348   4.523   0.420  12.849 -0.1404 -0.3642  0.2636
  151MPD2    C2 2349   4.604   0.449  12.739 -0.4075 -0.6511  0.9756
  151MPD2    C3 2350   0.006   0.461  12.741  0.3817 -0.0786 -0.2385
  151MPD2    C4 2351   0.068   0.433  12.863  0.2963  0.8495 -0.1951
  151MPD2    C5 2352   4.724   0.419  12.974 -0.2821  0.1185 -0.8584
  151MPD2     H 2353   4.559   0.470  12.643 -0.9023  1.1850  1.5932
  151MPD2    H1 2354   0.175   0.440  12.876  0.3765 -1.2322  0.3445
  151MPD2    H2 2355   4.526   0.398  13.060  1.3203 -0.6307  0.4285
  151MPD2    H3 2356   0.038   0.394  13.066 -2.8337  0.1020  0.5595
  151MPD2     N 2357   0.076   0.491  12.620  0.1391 -0.1584 -0.5893
  151MPD2    H5 2358   0.020   0.482  12.536  2.1814 -0.3410 -1.9306
  151MPD2    N1 2359   4.389   0.390  12.834  0.2875 -0.1287 -0.1832
  151MPD2    H7 2360   4.329   0.384  12.916  0.2384  0.3516 -0.1790
  152TMC2    C1 2361   0.810   0.352  12.755  0.1457 -0.1949  0.5696
  152TMC2    C2 2362   0.893   0.257  12.808  0.3304  0.1747  0.2297
  152TMC2    C3 2363   1.027   0.263  12.774  0.2545 -0.2460 -0.5434
  152TMC2    C4 2364   0.852   0.454  12.675 -0.2061  0.4803 -0.0713
  152TMC2    C5 2365   0.987   0.454  12.644  0.4023  0.0743  0.5190
  152TMC2    C6 2366   1.073   0.361  12.688  0.3495  0.3717 -0.0078
  152TMC2     C 2367   0.691   0.386  12.832  0.2246 -0.7693 -0.0273
  152TMC2     O 2368   0.667   0.507  12.824  0.4046  0.5482  0.1666
  152TMC2     H 2369   0.868   0.195  12.893 -0.0761  0.2576  0.1708
  152TMC2    H1 2370   0.777   0.509  12.619 -0.1906  2.4801  1.9054
  152TMC2    H2 2371   1.173   0.362  12.645  0.1006 -1.0755 -0.6338
  152TMC2    C7 2372   1.039   0.548  12.541 -0.6664  0.4178 -0.0440
  152TMC2    C8 2373   1.120   0.153  12.796  0.1763  0.1228 -0.5872
  152TMC2    O1 2374   0.948   0.612  12.487 -0.9454  0.2076 -0.3955
  152TMC2    O2 2375   1.212   0.127  12.719  0.0531  0.3116  0.0158
  152TMC2    O5 2376   1.070   0.072  12.892 -0.2640 -0.2226 -0.3121
  152TMC2    H5 2377   1.003   0.118  12.946  0.6503  0.4926  0.2001
  153MPD2     C 2378   0.475   0.180  13.054 -0.1326 -0.0714 -0.1872
  153MPD2    C1 2379   0.520   0.292  12.990  0.0028  0.1742 -0.2871
  153MPD2    C2 2380   0.468   0.413  13.021  0.3788 -0.8415 -0.3844
  153MPD2    C3 2381   0.362   0.425  13.107 -0.0183  0.8650 -0.2600
  153MPD2    C4 2382   0.312   0.311  13.162 -0.3882 -0.6528 -0.9227
  153MPD2    C5 2383   0.361   0.186  13.130 -0.0367  0.1324 -1.1767
  153MPD2     H 2384   0.512   0.504  12.983  0.0883 -0.7592 -0.5191
  153MPD2    H1 2385   0.224   0.314  13.225  0.3107  0.7802 -0.0147
  153MPD2    H2 2386   0.515   0.081  13.032  0.3722  0.2461 -0.7154
  153MPD2    H3 2387   0.319   0.094  13.169 -1.0130  1.5352  1.0503
  153MPD2     N 2388   0.308   0.557  13.133  0.1723 -1.0890  0.1608
  153MPD2    H5 2389   0.351   0.627  13.073 -2.5416 -0.6800 -1.3116
  153MPD2    N1 2390   0.635   0.288  12.909 -0.3391 -0.5734  0.3095
  153MPD2    H7 2391   0.666   0.193  12.890  2.2176  0.7845 -2.3561
  154TMC2    C1 2392   1.943   0.744   0.191 -0.2256  0.1965  0.3428
  154TMC2    C2 2393   2.047   0.657   0.200 -0.6859  0.4000 -0.4719
  154TMC2    C3 2394   2.175   0.717   0.201 -0.7555 -0.2970  0.2434
  154TMC2    C4 2395   1.957   0.878   0.202 -0.4342  0.0328 -0.1934
  154TMC2    C5 2396   2.083   0.930   0.199  0.2869 -0.1064 -0.6415
  154TMC2    C6 2397   2.193   0.853   0.197  0.4424 -0.0433 -0.3837
  154TMC2     C 2398   1.828   0.692   0.260 -0.4115  0.0121  0.8076
  154TMC2     O 2399   1.770   0.764   0.338  0.1139  0.0243 -0.5709
  154TMC2     H 2400   2.032   0.550   0.191 -0.5474  0.1637  2.2700
  154TMC2    H1 2401   1.873   0.945   0.209 -1.0174 -0.8780  1.3876
  154TMC2    H2 2402   2.293   0.894   0.206 -0.5344  2.2391  0.1916
  154TMC2    C7 2403   2.098   1.046   0.288 -0.6236 -0.9579 -0.2943
  154TMC2    C8 2404   2.293   0.631   0.208 -0.9245  0.2834 -0.7711
  154TMC2    O1 2405   2.002   1.070   0.360  0.2811 -0.0334 -0.1887
  154TMC2    O2 2406   2.399   0.660   0.150  0.1957 -0.1689  0.0755
  154TMC2    O5 2407   2.267   0.523   0.278 -0.5313 -0.4253  0.0072
  154TMC2    H5 2408   2.187   0.542   0.331 -2.3162 -0.9965 -2.4929
  155MPD2     C 2409   1.651   0.388   0.147  0.3630 -0.2831  0.2182
  155MPD2    C1 2410   1.674   0.505   0.219 -0.4129  0.1309 -0.0430
  155MPD2    C2 2411   1.587   0.529   0.320  0.0210 -0.2573  0.0635
  155MPD2    C3 2412   1.475   0.455   0.355 -0.1087 -0.5028  0.5866
  155MPD2    C4 2413   1.449   0.344   0.281  0.3046 -0.3356  0.3756
  155MPD2    C5 2414   1.531   0.315   0.176 -0.1087 -0.0764 -0.1778
  155MPD2     H 2415   1.621   0.612   0.382 -2.8228  0.5163  0.5727
  155MPD2    H1 2416   1.362   0.288   0.311 -0.3766  0.0716 -0.8215
  155MPD2    H2 2417   1.712   0.371   0.059  2.1991  0.9929  1.2518
  155MPD2    H3 2418   1.507   0.232   0.111 -1.8605 -0.0111  0.3982
  155MPD2     N 2419   1.407   0.491   0.475 -0.3965 -0.2899  0.2124
  155MPD2    H5 2420   1.437   0.578   0.516  0.3525 -0.1777 -0.5682
  155MPD2    N1 2421   1.791   0.578   0.193 -0.4107 -0.3389 -0.0353
  155MPD2    H7 2422   1.850   0.552   0.115 -0.3857 -1.1140  0.2423
  156TMC2    C1 2423   0.549   2.994  11.204  0.2549 -0.1265 -0.3556
  156TMC2    C2 2424   0.498   2.902  11.111  0.3978  0.2653 -0.1328
  156TMC2    C3 2425   0.410   2.947  11.017  0.1850  1.0710 -0.1333
  156TMC2    C4 2426   0.516   3.127  11.194 -0.1676  0.4102 -0.1095
  156TMC2    C5 2427   0.415   3.165  11.105 -0.0443 -0.2284 -0.0913
  156TMC2    C6 2428   0.369   3.081  11.010  0.2454  0.1832 -0.0749
  156TMC2     C 2429   0.623   2.950  11.322 -0.6708 -0.8224 -0.1542
  156TMC2     O 2430   0.611   3.019  11.421  0.1969 -0.0612  0.8688
  156TMC2     H 2431   0.520   2.796  11.111 -1.1646 -0.0943  3.0361
  156TMC2    H1 2432   0.551   3.204  11.261 -0.3151  2.4762 -2.4028
  156TMC2    H2 2433   0.309   3.119  10.928 -1.5115  2.6806  2.3632
  156TMC2    C7 2434   0.374   3.301  11.103  0.1155  0.6636  0.1282
  156TMC2    C8 2435   0.345   2.849  10.934  0.0881  0.3013 -0.4050
  156TMC2    O1 2436   0.449   3.382  11.154 -0.3524  0.4660  0.5236
  156TMC2    O2 2437   0.389   2.733  10.931 -0.4206 -0.0991 -0.0936
  156TMC2    O5 2438   0.229   2.899  10.880 -0.5729  0.1844 -0.3419
  156TMC2    H5 2439   0.205   2.991  10.902  1.6083  0.5550  0.5404
  157MPD2     C 2440   0.890   2.712  11.335 -0.1184 -0.0479 -0.9425
  157MPD2    C1 2441   0.799   2.798  11.382 -0.9276 -0.3679  0.0038
  157MPD2    C2 2442   0.800   2.829  11.519  0.2240 -0.2006  0.4032
  157MPD2    C3 2443   0.911   2.795  11.597 -0.1875  0.0473 -0.1551
  157MPD2    C4 2444   1.009   2.725  11.537  0.3020  0.1090  0.6948
  157MPD2    C5 2445   0.996   2.677  11.409  0.8786 -0.0192  0.0384
  157MPD2     H 2446   0.708   2.871  11.559 -0.4574  1.8613 -3.2911
  157MPD2    H1 2447   1.097   2.692  11.590  0.1335 -0.5924  0.5391
  157MPD2    H2 2448   0.900   2.691  11.229 -0.0383 -2.7632 -0.3895
  157MPD2    H3 2449   1.075   2.616  11.367  0.0333 -2.0262  1.3668
  157MPD2     N 2450   0.910   2.816  11.742 -0.2033 -0.1642  0.1046
  157MPD2    H5 2451   1.000   2.806  11.788  0.0676  0.2732 -0.3324
  157MPD2    N1 2452   0.700   2.843  11.297  0.3064  0.1540  0.5123
  157MPD2    H7 2453   0.709   2.811  11.201 -2.1962  1.2260 -0.0880
  158TMC2    C1 2454   1.662   1.605  13.787  0.8428  0.5319 -0.2063
  158TMC2    C2 2455   1.752   1.676  13.709 -0.2524  0.2546  0.0718
  158TMC2    C3 2456   1.706   1.742  13.595  0.1353  0.1091  0.1520
  158TMC2    C4 2457   1.531   1.599  13.759 -0.4659 -0.0965  0.4156
  158TMC2    C5 2458   1.496   1.663  13.644 -0.2224  0.0311  0.0364
  158TMC2    C6 2459   1.577   1.730  13.559  0.4539 -0.2267  0.0670
  158TMC2     C 2460   1.708   1.553  13.916  0.5489 -0.1325 -0.0203
  158TMC2     O 2461   1.813   1.601  13.959  0.2395 -0.1557  0.3080
  158TMC2     H 2462   1.853   1.690  13.746  0.8105 -1.7978 -2.0345
  158TMC2    H1 2463   1.465   1.538  13.820 -0.4131  0.7859  1.3476
  158TMC2    H2 2464   1.545   1.779  13.468 -1.2132 -0.7383  0.3756
  158TMC2    C7 2465   1.351   1.681  13.628  0.1325 -0.9790  0.5238
  158TMC2    C8 2466   1.788   1.837  13.529 -0.2182  0.9341  0.0064
  158TMC2    O1 2467   1.314   1.787  13.580  0.1039  0.0522 -0.0941
  158TMC2    O2 2468   1.909   1.846  13.557 -0.2717  0.3287  0.7014
  158TMC2    O5 2469   1.709   1.944  13.506 -0.0162 -0.3883  0.6274
  158TMC2    H5 2470   1.611   1.947  13.512 -0.0372 -0.4370  0.2799
  159MPD2     C 2471   1.719   1.208  14.292 -0.3503  0.0258  0.8786
  159MPD2    C1 2472   1.616   1.180  14.213  0.3352 -0.3431  0.3041
  159MPD2    C2 2473   1.594   1.257  14.099 -0.2621  0.1395 -0.8316
  159MPD2    C3 2474   1.673   1.366  14.075  0.5270 -0.2109  0.4275
  159MPD2    C4 2475   1.782   1.391  14.156 -0.1784 -0.3471 -0.7441
  159MPD2    C5 2476   1.805   1.312  14.262  0.7689  0.3379 -0.4745
  159MPD2     H 2477   1.505   1.238  14.039  0.4009 -0.4315 -1.6408
  159MPD2    H1 2478   1.847   1.477  14.142 -1.2874  0.5691 -0.3028
  159MPD2    H2 2479   1.733   1.148  14.380  1.3279 -1.3771 -0.3542
  159MPD2    H3 2480   1.887   1.336  14.328  1.1439 -1.9105 -0.1301
  159MPD2     N 2481   1.643   1.441  13.957 -0.2023 -0.0321 -0.4228
  159MPD2    H5 2482   1.567   1.412  13.896 -0.5167 -0.0682 -0.0118
  159MPD2    N1 2483   1.530   1.079  14.262  0.4149  0.5194 -0.0776
  159MPD2    H7 2484   1.558   1.036  14.350  0.2249 -0.2687 -0.3973
  160TMC2    C1 2485   4.652   0.408   1.953  0.1070  0.7995 -0.5763
  160TMC2    C2 2486   4.583   0.393   2.076 -0.5328  0.6082 -0.3380
  160TMC2    C3 2487   4.557   0.273   2.125  0.0303  0.6883  0.7708
  160TMC2    C4 2488   4.687   0.296   1.878  0.2640  0.4852  0.2401
  160TMC2    C5 2489   4.656   0.174   1.930  0.1379  0.2115  0.2851
  160TMC2    C6 2490   4.595   0.157   2.056  0.6711 -0.0287 -0.3059
  160TMC2     C 2491   4.704   0.537   1.908 -0.0328 -0.0192  0.0731
  160TMC2     O 2492   4.721   0.632   1.988 -0.4139 -0.0839 -0.3558
  160TMC2     H 2493   4.558   0.486   2.126  1.0623 -0.0094  1.6029
  160TMC2    H1 2494   0.031   0.306   1.806 -0.3790  0.6263 -0.4562
  160TMC2    H2 2495   4.572   0.057   2.090  1.4539  0.3019  1.1743
  160TMC2    C7 2496   4.716   0.059   1.873 -0.6316 -0.1216  0.2056
  160TMC2    C8 2497   4.444   0.258   2.224 -0.9110  0.0996 -0.0322
  160TMC2    O1 2498   4.720   4.691   1.939 -0.6782  0.2454 -0.2875
  160TMC2    O2 2499   4.353   0.180   2.209 -0.8245  0.0832  0.3889
  160TMC2    O5 2500   4.430   0.368   2.297 -0.0919 -0.2579  0.2265
  160TMC2    H5 2501   4.509   0.417   2.330 -0.8972  0.7521  0.6505
  161MPD2     C 2502   0.117   0.720   1.733 -0.3219  0.6383 -0.4272
  161MPD2    C1 2503   0.020   0.638   1.691 -0.8332  0.3674  0.4865
  161MPD2    C2 2504   4.717   0.634   1.558  0.0117 -0.0177 -0.5629
  161MPD2    C3 2505   0.031   0.734   1.474 -1.3565 -0.2940 -0.5155
  161MPD2    C4 2506   0.134   0.823   1.517 -0.1329 -0.1174  0.4782
  161MPD2    C5 2507   0.175   0.808   1.649  0.5212  0.1209  0.1790
  161MPD2     H 2508   4.638   0.568   1.524  0.1287 -0.0986 -0.6814
  161MPD2    H1 2509   0.175   0.906   1.460 -2.6759  1.6590  1.2798
  161MPD2    H2 2510   0.156   0.717   1.834  1.1361  0.4440 -0.9940
  161MPD2    H3 2511   0.257   0.871   1.682 -0.6747  1.2295  1.0176
  161MPD2     N 2512   4.724   0.749   1.338 -0.4983  0.2966  0.1174
  161MPD2    H5 2513   0.039   0.811   1.276 -1.0291 -0.3137 -0.9412
  161MPD2    N1 2514   4.704   0.536   1.771  0.4653 -0.3557 -0.7237
  161MPD2    H7 2515   4.644   0.466   1.729 -0.3298  0.2632 -0.6227
  162TMC2    C1 2516   2.191   1.671   0.313  0.3715 -0.0570 -0.3746
  162TMC2    C2 2517   2.088   1.636   0.232 -0.6974 -0.3267  0.0582
  162TMC2    C3 2518   1.986   1.571   0.299  0.1197 -0.1050  0.4396
  162TMC2    C4 2519   2.193   1.665   0.445 -0.0469  0.5424 -0.6717
  162TMC2    C5 2520   2.078   1.617   0.507  0.1378  0.1042 -0.1602
  162TMC2    C6 2521   1.972   1.568   0.432  0.2000 -0.3279 -0.1691
  162TMC2     C 2522   2.315   1.721   0.251 -0.2102 -0.5560 -0.3617
  162TMC2     O 2523   2.341   1.673   0.143 -0.2824 -0.0949  0.1387
  162TMC2     H 2524   2.094   1.643   0.124  2.1336 -0.0080  0.2273
  162TMC2    H1 2525   2.281   1.693   0.502 -1.0632  3.0379 -0.3206
  162TMC2    H2 2526   1.891   1.513   0.479  1.1745  0.8134  2.8151
  162TMC2    C7 2527   2.073   1.580   0.644  0.1932  0.2144 -0.0745
  162TMC2    C8 2528   1.887   1.507   0.218  0.1785  0.8421  0.2118
  162TMC2    O1 2529   1.989   1.493   0.676  0.0659  0.2101 -0.4166
  162TMC2    O2 2530   1.784   1.464   0.272  0.1840 -0.4320 -0.0760
  162TMC2    O5 2531   1.960   1.439   0.125 -0.1370 -0.2201 -0.4187
  162TMC2    H5 2532   2.055   1.455   0.108 -0.2879  1.2753  0.1149
  163MPD2     C 2533   2.761   1.942   0.337 -0.0827  0.0715  0.0860
  163MPD2    C1 2534   2.732   1.837   0.251 -0.0870 -0.7564 -0.3258
  163MPD2    C2 2535   2.601   1.809   0.232  0.3724  0.1391 -0.5045
  163MPD2    C3 2536   2.509   1.863   0.324 -0.4052 -0.2953 -0.0363
  163MPD2    C4 2537   2.535   1.956   0.417 -0.6753 -0.4188 -0.4308
  163MPD2    C5 2538   2.666   1.999   0.421 -0.2168  0.2292  0.0643
  163MPD2     H 2539   2.567   1.724   0.173 -0.3403 -0.5149  0.8402
  163MPD2    H1 2540   2.471   1.991   0.498  0.8950 -0.1553  0.7003
  163MPD2    H2 2541   2.860   1.978   0.361  1.4563 -3.4375 -1.0495
  163MPD2    H3 2542   2.700   2.066   0.500 -1.3801  4.1493 -2.7336
  163MPD2     N 2543   2.378   1.815   0.331  0.2657 -0.1621  0.1423
  163MPD2    H5 2544   2.328   1.853   0.410  2.6205  2.7164  0.2364
  163MPD2    N1 2545   2.830   1.759   0.182  0.5531 -0.2638 -0.4024
  163MPD2    H7 2546   2.808   1.699   0.104 -1.0078 -2.6955  1.8977
  164TMC2    C1 2547   4.400   1.476  11.118  0.4519 -0.3821 -0.3326
  164TMC2    C2 2548   4.452   1.532  11.002 -0.1213  0.3930 -0.6761
  164TMC2    C3 2549   4.380   1.638  10.952  0.3914  0.1257 -0.0781
  164TMC2    C4 2550   4.292   1.536  11.182  0.0542 -0.8898  0.4997
  164TMC2    C5 2551   4.223   1.629  11.116  0.0011  0.0235 -0.1025
  164TMC2    C6 2552   4.260   1.680  11.000  0.5833 -0.4853  0.8089
  164TMC2     C 2553   4.382   1.334  11.117  0.2983  0.1562 -0.2415
  164TMC2     O 2554   4.277   1.307  11.176 -0.0212  0.2462 -0.4088
  164TMC2     H 2555   4.537   1.493  10.948  1.1623  1.6199  0.4505
  164TMC2    H1 2556   4.261   1.505  11.281 -1.0175  0.2518  0.5241
  164TMC2    H2 2557   4.205   1.749  10.937  0.6263  1.0895  2.5180
  164TMC2    C7 2558   4.081   1.603  11.108 -0.5090  0.3509 -0.4038
  164TMC2    C8 2559   4.428   1.714  10.843  0.6558 -0.0177 -0.4609
  164TMC2    O1 2560   4.008   1.696  11.075 -0.0500 -0.0782  0.0876
  164TMC2    O2 2561   4.381   1.824  10.827 -0.7192  0.6015  0.0683
  164TMC2    O5 2562   4.431   1.615  10.745 -0.1029 -0.3595  0.7344
  164TMC2    H5 2563   4.416   1.526  10.781 -1.1220 -0.8270 -0.8348
  165TMC2    C1 2564   4.151   3.704   1.188 -0.0129 -0.8216 -0.3936
  165TMC2    C2 2565   4.141   3.842   1.166  0.6286 -0.5700  0.4357
  165TMC2    C3 2566   4.261   3.911   1.141  0.1068  0.1385 -0.4170
  165TMC2    C4 2567   4.276   3.643   1.186 -0.4418 -0.3258 -0.0574
  165TMC2    C5 2568   4.384   3.719   1.147 -0.3852  0.1978 -0.4224
  165TMC2    C6 2569   4.382   3.853   1.134  0.6201  0.8834  0.1499
  165TMC2     C 2570   4.051   3.635   1.268  0.4180 -0.1990  0.7789
  165TMC2     O 2571   4.072   3.523   1.308  0.4934  0.1872 -0.5156
  165TMC2     H 2572   4.041   3.882   1.149  1.9907  2.9993  0.7410
  165TMC2    H1 2573   4.285   3.537   1.203  0.5487 -0.2953 -0.3853
  165TMC2    H2 2574   4.469   3.903   1.095  1.1015 -0.7779 -0.9237
  165TMC2    C7 2575   4.517   3.658   1.159  0.0765  0.1057 -0.2987
  165TMC2    C8 2576   4.243   4.024   1.048  0.5512 -0.0340  0.0003
  165TMC2    O1 2577   4.598   3.713   1.237  0.1045  0.0694  0.7557
  165TMC2    O2 2578   4.137   4.043   0.993  0.5130 -0.4038 -0.2612
  165TMC2    O5 2579   4.318   4.115   1.101  0.4703 -0.2417  0.0399
  165TMC2    H5 2580   4.378   4.071   1.165  1.3497  2.3747  1.0393
  166MPD2     C 2581   3.653   3.673   1.579  0.1051 -0.6062  0.2696
  166MPD2    C1 2582   3.710   3.560   1.523  0.8444 -0.0378 -0.1862
  166MPD2    C2 2583   3.820   3.584   1.447  0.1377  0.3149  0.0348
  166MPD2    C3 2584   3.867   3.704   1.417 -0.3276 -0.3546 -0.3666
  166MPD2    C4 2585   3.799   3.811   1.473  0.0534 -0.0861  0.1668
  166MPD2    C5 2586   3.693   3.795   1.554 -0.3038 -0.3863 -0.2253
  166MPD2     H 2587   3.858   3.494   1.399 -0.3440 -0.5767  1.2886
  166MPD2    H1 2588   3.826   3.913   1.448 -1.7611  0.3625  0.0060
  166MPD2    H2 2589   3.570   3.659   1.647 -2.2598  3.2603 -1.7992
  166MPD2    H3 2590   3.653   3.882   1.603  0.4019  0.2328 -0.7545
  166MPD2     N 2591   3.961   3.731   1.314  1.0053 -0.1509  0.0941
  166MPD2    H5 2592   3.978   3.828   1.290 -0.2242  0.4900  1.8275
  166MPD2    N1 2593   3.663   3.437   1.565 -0.2863  0.6884 -0.9623
  166MPD2    H7 2594   3.579   3.428   1.622  0.0613 -1.6893 -0.8264
  167TMC2    C1 2595   3.476   1.160  13.012  0.5084 -0.0552  0.3577
  167TMC2    C2 2596   3.448   1.189  13.143  0.2777  0.7643 -0.8903
  167TMC2    C3 2597   3.351   1.116  13.202  0.3416 -0.9078 -0.1066
  167TMC2    C4 2598   3.419   1.057  12.943  0.1565  0.6201  0.0069
  167TMC2    C5 2599   3.326   0.987  13.020  0.6502  0.4295  0.3064
  167TMC2    C6 2600   3.287   1.016  13.145  0.1792  0.1849  0.4693
  167TMC2     C 2601   3.593   1.229  12.963  0.3251 -0.5052 -0.5520
  167TMC2     O 2602   3.650   1.294  13.051  0.0176 -0.2176 -1.2766
  167TMC2     H 2603   3.499   1.268  13.197  2.3480 -1.5565  0.5728
  167TMC2    H1 2604   3.451   1.035  12.841 -0.8268  3.7848 -0.9797
  167TMC2    H2 2605   3.202   0.971  13.195  0.2376 -1.1110 -0.5978
  167TMC2    C7 2606   3.273   0.858  12.983  0.4449 -0.2690 -0.0630
  167TMC2    C8 2607   3.351   1.084  13.342 -0.1423  0.8756 -0.7369
  167TMC2    O1 2608   3.208   0.805  13.074  0.1995  0.7889  0.0571
  167TMC2    O2 2609   3.369   0.967  13.369  0.5595 -0.2970  0.0144
  167TMC2    O5 2610   3.408   1.179  13.405  0.6151  0.0403 -0.9356
  167TMC2    H5 2611   3.375   1.266  13.373  1.1663  0.8324  0.7064
  168MPD2     C 2612   3.822   1.225  12.810 -0.8454  0.1966 -0.7042
  168MPD2    C1 2613   3.703   1.241  12.751 -0.1692 -0.1747  0.4394
  168MPD2    C2 2614   3.701   1.240  12.615  0.7771 -0.0661  0.3894
  168MPD2    C3 2615   3.816   1.231  12.536  0.3549  0.1537  0.7671
  168MPD2    C4 2616   3.932   1.222  12.597  1.1289 -0.3291 -0.1254
  168MPD2    C5 2617   3.936   1.224  12.734  0.5260  0.0699 -0.2586
  168MPD2     H 2618   3.611   1.258  12.557  0.2007 -0.7027  1.0902
  168MPD2    H1 2619   4.022   1.220  12.536  1.5476 -1.4464  0.5302
  168MPD2    H2 2620   3.840   1.216  12.917  0.3919  2.2211 -0.7326
  168MPD2    H3 2621   4.026   1.222  12.794 -0.3534 -0.6587  1.0672
  168MPD2     N 2622   3.804   1.214  12.394  0.4805 -0.1933  0.4556
  168MPD2    H5 2623   3.884   1.176  12.344 -1.5472  0.5210 -3.3295
  168MPD2    N1 2624   3.588   1.230  12.824 -0.7959 -0.3243  0.4159
  168MPD2    H7 2625   3.499   1.234  12.776 -0.2092 -0.0170 -0.6470
  169MPD1     C 2626   1.290   1.983   9.148 -1.0708  0.5929  0.5071
  169MPD1    C1 2627   1.323   1.958   9.275 -0.3175  0.2492 -0.0756
  169MPD1    C2 2628   1.315   1.820   9.312  0.4037 -0.3539  0.6016
  169MPD1    C3 2629   1.261   1.723   9.236  0.1897  0.2034 -0.7439
  169MPD1    C4 2630   1.206   1.758   9.118 -0.8910  0.1961  0.1294
  169MPD1    C5 2631   1.222   1.888   9.077 -0.5105  0.0609 -0.1582
  169MPD1     H 2632   1.363   1.792   9.405  1.5106 -0.5527 -0.0199
  169MPD1    H1 2633   1.150   1.687   9.059 -2.7131  0.7949  1.1266
  169MPD1    H2 2634   1.309   2.080   9.104  1.5715  0.6511  1.7641
  169MPD1    H3 2635   1.211   1.918   8.973 -2.2771 -1.7603 -0.4860
  169MPD1     N 2636   1.256   1.594   9.294  0.3936  0.6688  0.2308
  169MPD1    H5 2637   1.292   1.598   9.389 -0.5861  0.0247  0.6360
  169MPD1    N1 2638   1.391   2.058   9.348 -0.8334 -0.6685 -0.1065
  169MPD1    H6 2639   1.365   2.041   9.444  2.5573  2.2303  1.3551
  169MPD1    H7 2640   1.361   2.153   9.324 -2.7950 -0.8573  1.6106
  170MPD1     C 2641   3.975   3.041  12.669  0.0728 -0.1135  0.0618
  170MPD1    C1 2642   4.040   2.963  12.764  0.0931  0.3824 -0.3181
  170MPD1    C2 2643   4.068   3.019  12.890 -0.3364 -0.2299 -0.4187
  170MPD1    C3 2644   4.009   3.138  12.936 -0.4512  0.0760 -0.0847
  170MPD1    C4 2645   3.941   3.208  12.835  0.7629  0.9369  0.9749
  170MPD1    C5 2646   3.929   3.167  12.711  0.8341 -0.4143  0.1077
  170MPD1     H 2647   4.123   2.955  12.958 -0.8321  0.6977  0.8705
  170MPD1    H1 2648   3.882   3.293  12.865  1.5852  1.8601 -0.0123
  170MPD1    H2 2649   3.974   3.018  12.563  0.8832  0.7428 -0.1385
  170MPD1    H3 2650   3.879   3.235  12.643 -0.9074 -1.7623  0.0338
  170MPD1     N 2651   4.043   3.193  13.065 -0.4771  0.1688  0.3068
  170MPD1    H5 2652   4.087   3.124  13.125  1.4119  2.2207  1.2845
  170MPD1    N1 2653   4.107   2.844  12.720 -0.8056 -0.6268  0.2127
  170MPD1    H6 2654   4.065   2.800  12.639  0.6442 -0.6377 -0.5329
  170MPD1    H7 2655   4.122   2.777  12.796  2.6311  0.6390  0.6224
  171MPD1     C 2656   3.016   0.220  15.540  0.6484  0.3792  0.5734
  171MPD1    C1 2657   3.114   0.122  15.525 -0.8186 -0.2739  0.0302
  171MPD1    C2 2658   3.073   4.728  15.542 -0.6691 -0.0391  0.4076
  171MPD1    C3 2659   2.940   4.699  15.564 -0.4379 -0.1972  0.5071
  171MPD1    C4 2660   2.847   0.058  15.580 -0.3265  0.4601 -0.3097
  171MPD1    C5 2661   2.889   0.189  15.575 -0.0235  0.0202  0.4907
  171MPD1     H 2662   3.143   4.646  15.533  0.1059  0.9063 -2.0880
  171MPD1    H1 2663   2.746   0.040  15.615  0.6732 -0.2554  2.2232
  171MPD1    H2 2664   3.034   0.327  15.549  1.1750  0.5236 -2.2988
  171MPD1    H3 2665   2.813   0.266  15.583 -0.4567 -0.1869 -1.6533
  171MPD1     N 2666   2.886   4.572  15.584 -0.3769 -0.1814 -0.1358
  171MPD1    H5 2667   2.786   4.557  15.600 -0.2874 -0.5856  0.0494
  171MPD1    N1 2668   3.240   0.155  15.484  0.2068 -0.3246  0.2083
  171MPD1    H6 2669   3.307   0.078  15.478  1.5820  0.6694  2.4694
  171MPD1    H7 2670   3.251   0.214  15.402  0.7492 -0.6554  0.0397
  172MPD1     C 2671   1.281   2.990   1.071  0.6309 -0.0563 -0.2680
  172MPD1    C1 2672   1.326   2.977   0.937 -0.4041  0.3219 -0.2169
  172MPD1    C2 2673   1.350   3.098   0.870 -0.2443  0.1914 -0.0496
  172MPD1    C3 2674   1.346   3.221   0.934 -0.1507 -0.1097 -0.5558
  172MPD1    C4 2675   1.298   3.229   1.061  0.2247  1.2581 -0.1958
  172MPD1    C5 2676   1.260   3.111   1.132 -0.1588  0.2531 -0.0744
  172MPD1     H 2677   1.381   3.078   0.768 -1.5536 -0.8733 -0.2469
  172MPD1    H1 2678   1.289   3.322   1.116  2.0809  0.7432  0.9957
  172MPD1    H2 2679   1.267   2.902   1.131 -1.8252 -0.2384 -1.0722
  172MPD1    H3 2680   1.221   3.121   1.233  0.5831  4.8376 -0.2194
  172MPD1     N 2681   1.373   3.346   0.869 -0.0620 -0.0350  0.4744
  172MPD1    H5 2682   1.357   3.432   0.918  1.1935  1.4555 -1.7137
  172MPD1    N1 2683   1.381   2.858   0.886  0.2068  0.0853  0.9579
  172MPD1    H6 2684   1.330   2.776   0.919  0.3016 -0.7334 -0.9436
  172MPD1    H7 2685   1.366   2.859   0.786 -1.5327  1.3631  1.2231
  173MPD1     C 2686   3.800   3.955  13.861 -0.6546 -0.3963  0.1800
  173MPD1    C1 2687   3.861   3.850  13.931 -0.0847  0.1870  0.6636
  173MPD1    C2 2688   3.804   3.822  14.055  0.2881  0.3324 -0.3590
  173MPD1    C3 2689   3.707   3.899  14.115  0.3086 -0.5409 -0.0783
  173MPD1    C4 2690   3.650   4.007  14.047  0.1871  0.0361  0.3222
  173MPD1    C5 2691   3.702   4.031  13.919 -0.3546 -0.1504  0.5698
  173MPD1     H 2692   3.844   3.741  14.115  2.6481 -0.2013 -2.6201
  173MPD1    H1 2693   3.566   4.068  14.077 -1.1913 -2.0722  0.7418
  173MPD1    H2 2694   3.823   3.976  13.757 -0.3066  0.1349  0.3584
  173MPD1    H3 2695   3.662   4.117  13.866 -0.3639  0.9553  2.3566
  173MPD1     N 2696   3.652   3.854  14.236  0.2120  0.1805 -0.7173
  173MPD1    H5 2697   3.697   3.772  14.276  0.5085  0.7527  0.1089
  173MPD1    N1 2698   3.965   3.780  13.873  0.0682  0.1311  0.0212
  173MPD1    H6 2699   3.990   3.698  13.927 -1.8001 -1.5343 -1.6438
  173MPD1    H7 2700   3.933   3.747  13.782  0.5308 -0.0268 -0.0839
  174MPD1     C 2701   3.331   3.047  14.338  0.6573 -0.2213 -0.0855
  174MPD1    C1 2702   3.382   3.071  14.465  0.3604  0.1349  0.2340
  174MPD1    C2 2703   3.436   3.199  14.490 -0.7356  0.4192  0.8511
  174MPD1    C3 2704   3.418   3.303  14.396 -0.6225 -0.1058  0.5631
  174MPD1    C4 2705   3.371   3.273  14.268  0.1976  0.4246 -0.1029
  174MPD1    C5 2706   3.333   3.143  14.243  0.2507 -0.2033 -0.3305
  174MPD1     H 2707   3.467   3.216  14.593  1.4913 -1.4322  0.4943
  174MPD1    H1 2708   3.370   3.354  14.196 -1.3388  0.0627 -0.4886
  174MPD1    H2 2709   3.293   2.952  14.303  0.2783  0.3821 -1.3217
  174MPD1    H3 2710   3.301   3.114  14.144 -1.9915  2.5010 -0.4074
  174MPD1     N 2711   3.460   3.439  14.412  0.6969  0.2349 -0.3208
  174MPD1    H5 2712   3.443   3.510  14.341 -1.4348 -1.4263 -1.4659
  174MPD1    N1 2713   3.362   2.980  14.566  0.0861 -0.2487 -0.1616
  174MPD1    H6 2714   3.434   2.991  14.638  1.2256 -0.8308 -1.2016
  174MPD1    H7 2715   3.361   2.884  14.533 -1.5456 -0.4384  0.4732
  175MPD1     C 2716   1.527   0.166  15.523 -0.5409  0.1491  0.3961
  175MPD1    C1 2717   1.392   0.128  15.542  0.5528 -0.7547 -0.0085
  175MPD1    C2 2718   1.362   0.042  15.647 -0.3080 -0.3001  0.2375
  175MPD1    C3 2719   1.464   4.726  15.728 -0.5935 -0.0702  0.8548
  175MPD1    C4 2720   1.595   0.012  15.689 -1.0285 -0.5483  0.3521
  175MPD1    C5 2721   1.625   0.104  15.591  0.0952 -0.6261  0.2862
  175MPD1     H 2722   1.260   0.025  15.680 -0.6185  1.7856  0.3404
  175MPD1    H1 2723   1.680   4.717  15.748  0.3908  0.9233 -0.8971
  175MPD1    H2 2724   1.551   0.234  15.442 -0.2469  0.7393  0.9828
  175MPD1    H3 2725   1.728   0.132  15.571  0.6463 -2.1444  0.9715
  175MPD1     N 2726   1.447   4.638  15.841 -0.1661  0.0604  0.0840
  175MPD1    H5 2727   1.536   4.597  15.865 -0.1020 -0.0578 -0.3532
  175MPD1    N1 2728   1.288   0.192  15.477 -0.4018 -0.3990 -0.7436
  175MPD1    H6 2729   1.209   0.128  15.466 -0.4282 -0.8595  2.0786
  175MPD1    H7 2730   1.309   0.213  15.380 -0.7981  2.3188 -0.2434
  176MPD1     C 2731   2.677   2.171  17.157  0.3883 -0.3486 -0.0226
  176MPD1    C1 2732   2.765   2.125  17.070 -0.0361  0.3465  0.5492
  176MPD1    C2 2733   2.895   2.124  17.101 -0.5859 -0.1843  0.2116
  176MPD1    C3 2734   2.936   2.156  17.230  0.8089 -0.1152  0.1281
  176MPD1    C4 2735   2.844   2.197  17.320  1.0153 -0.1520  0.8609
  176MPD1    C5 2736   2.719   2.213  17.280  0.1259  0.1157 -0.5339
  176MPD1     H 2737   2.966   2.092  17.025  0.4140 -1.2435  1.5742
  176MPD1    H1 2738   2.870   2.241  17.415 -1.5819  2.6500  0.2627
  176MPD1    H2 2739   2.574   2.174  17.125  0.1412 -1.0555  0.6766
  176MPD1    H3 2740   2.645   2.253  17.349  0.8857  0.5918  0.0158
  176MPD1     N 2741   3.075   2.158  17.252  0.1023 -0.2556 -0.7571
  176MPD1    H5 2742   3.133   2.117  17.179  0.0814  1.2098 -1.5911
  176MPD1    N1 2743   2.721   2.109  16.939  0.4931  0.6302  0.3775
  176MPD1    H6 2744   2.778   2.034  16.899 -1.1409  0.1011 -0.9808
  176MPD1    H7 2745   2.629   2.065  16.937  1.6467 -1.7095 -1.1665
  177MPD1     C 2746   2.251   1.937  10.310 -0.0588  0.1648 -0.6573
  177MPD1    C1 2747   2.290   2.019  10.208 -0.1400 -0.3307  0.6956
  177MPD1    C2 2748   2.202   2.059  10.110  0.2471  0.3115 -0.1804
  177MPD1    C3 2749   2.075   1.993  10.103  0.3490 -0.3095 -0.3834
  177MPD1    C4 2750   2.041   1.904  10.200  0.4396  0.7549  0.2445
  177MPD1    C5 2751   2.127   1.875  10.301 -0.1764 -0.0625 -0.1843
  177MPD1     H 2752   2.232   2.119  10.025  1.0303 -1.4684 -1.1753
  177MPD1    H1 2753   1.944   1.856  10.202  0.9602 -0.2561  1.4309
  177MPD1    H2 2754   2.321   1.911  10.389  0.4806 -0.9996 -1.5371
  177MPD1    H3 2755   2.102   1.811  10.386 -1.3388  1.9072  0.9493
  177MPD1     N 2756   1.995   2.021   9.991 -0.0427 -0.2965 -0.4517
  177MPD1    H5 2757   2.029   2.086   9.920 -2.2123  0.0169 -1.1797
  177MPD1    N1 2758   2.418   2.070  10.211 -0.1169  0.2657 -0.0152
  177MPD1    H6 2759   2.442   2.120  10.125 -3.0991 -1.2516 -1.7297
  177MPD1    H7 2760   2.499   2.023  10.252 -0.5436  1.0049  1.6567
  178MPD1     C 2761   3.931   1.903   0.020  0.1623  0.6376 -0.1967
  178MPD1    C1 2762   3.938   2.026   0.087  0.0533 -0.5500  0.6299
  178MPD1    C2 2763   3.984   2.137   0.013  0.2747 -0.2788  0.1010
  178MPD1    C3 2764   4.001   2.128  17.621 -0.0766 -0.1343 -0.2721
  178MPD1    C4 2765   3.999   2.009  17.560  0.3577  0.0188 -0.1482
  178MPD1    C5 2766   3.969   1.893  17.635 -0.5202  0.6097 -0.5706
  178MPD1     H 2767   4.004   2.228   0.068 -1.5088  0.4906 -0.5356
  178MPD1    H1 2768   4.035   2.003  17.458  4.1547  0.6517  1.1648
  178MPD1    H2 2769   3.898   1.809   0.063 -0.5400  0.1186 -1.9013
  178MPD1    H3 2770   3.974   1.796  17.588  2.4046 -0.3791  1.7638
  178MPD1     N 2771   4.041   2.237  17.540  0.0953  0.1804 -0.0455
  178MPD1    H5 2772   4.044   2.209  17.442 -0.0336 -0.6421  0.1898
  178MPD1    N1 2773   3.919   2.026   0.223  0.4505 -0.7108 -0.3895
  178MPD1    H6 2774   3.875   1.945   0.268 -1.4264  0.3162 -0.3887
  178MPD1    H7 2775   3.875   2.109   0.260  2.9909  1.0661 -1.3512
  179MPD1     C 2776   4.161   0.979  15.642  0.7710  0.1838 -0.3986
  179MPD1    C1 2777   4.159   0.840  15.644  0.3278  0.4094  0.6516
  179MPD1    C2 2778   4.055   0.780  15.719  0.3210  0.0183  0.1464
  179MPD1    C3 2779   3.955   0.858  15.780 -0.3440  0.1261 -0.0765
  179MPD1    C4 2780   3.962   0.997  15.770 -0.1475  0.2184  0.2709
  179MPD1    C5 2781   4.065   1.059  15.701 -0.3339  0.4860  0.7001
  179MPD1     H 2782   4.050   0.672  15.720 -4.1343  0.2239 -1.5785
  179MPD1    H1 2783   3.885   1.056  15.818  1.2045  0.8903  1.6241
  179MPD1    H2 2784   4.235   1.037  15.587  1.8477 -1.5708 -0.8093
  179MPD1    H3 2785   4.056   1.167  15.704 -0.3710  0.5796 -2.2829
  179MPD1     N 2786   3.840   0.807  15.834  0.5424  0.1485 -0.5127
  179MPD1    H5 2787   3.773   0.880  15.858  1.4301  0.9988 -0.6538
  179MPD1    N1 2788   4.260   0.766  15.586  0.2278  0.0257  0.1972
  179MPD1    H6 2789   4.239   0.669  15.561  0.1286  0.3571 -1.0048
  179MPD1    H7 2790   4.307   0.806  15.505  1.9922  0.2773  1.3349
  180MPD1     C 2791   4.404   2.595  15.311 -0.2100 -0.7424 -0.1335
  180MPD1    C1 2792   4.443   2.499  15.222 -0.9149  0.7720 -0.7832
  180MPD1    C2 2793   4.357   2.436  15.141  0.8218 -0.1267  0.5541
  180MPD1    C3 2794   4.229   2.493  15.126 -0.2018  0.1045  0.4423
  180MPD1    C4 2795   4.192   2.599  15.206 -0.0499 -0.3569 -0.3073
  180MPD1    C5 2796   4.277   2.643  15.300  0.2037 -0.2391 -0.6808
  180MPD1     H 2797   4.397   2.361  15.074  0.1574  1.3899 -1.5517
  180MPD1    H1 2798   4.095   2.647  15.209  0.5277  0.7725  0.4601
  180MPD1    H2 2799   4.466   2.633  15.392 -2.8638  0.5632  1.2606
  180MPD1    H3 2800   4.247   2.724  15.366  1.2085  0.9923 -1.7382
  180MPD1     N 2801   4.142   2.441  15.028  0.0991 -0.4203 -0.3855
  180MPD1    H5 2802   4.181   2.370  14.967  1.7140  0.0407  0.0976
  180MPD1    N1 2803   4.577   2.456  15.230 -1.0368 -0.1679 -1.2398
  180MPD1    H6 2804   4.617   2.387  15.167 -0.6159 -2.0434  1.0834
  180MPD1    H7 2805   4.634   2.540  15.244 -1.3864 -0.4884  2.2617
  181MPD1     C 2806   0.881   0.384   9.703 -0.7005 -0.0168 -0.2185
  181MPD1    C1 2807   0.849   0.252   9.680 -0.2734 -0.2105  0.7064
  181MPD1    C2 2808   0.884   0.161   9.782 -0.5760 -0.4652 -0.1594
  181MPD1    C3 2809   0.955   0.199   9.894 -0.4942  0.2241  0.8096
  181MPD1    C4 2810   0.994   0.329   9.905  0.7184 -0.6673 -0.9839
  181MPD1    C5 2811   0.947   0.420   9.818  0.0493 -0.7897  0.6558
  181MPD1     H 2812   0.843   0.061   9.771 -0.6792 -0.6412  1.7700
  181MPD1    H1 2813   1.040   0.364   9.997 -0.1659  0.3059 -0.9020
  181MPD1    H2 2814   0.854   0.466   9.637 -1.1055 -1.6018 -1.9921
  181MPD1    H3 2815   0.955   0.526   9.839 -0.4358 -0.6252  0.0032
  181MPD1     N 2816   0.993   0.113  10.005 -0.5300 -0.5209 -0.3374
  181MPD1    H5 2817   1.028   0.163  10.086  1.9704 -1.7418 -0.6698
  181MPD1    N1 2818   0.785   0.206   9.564 -0.2303 -0.2049 -0.0304
  181MPD1    H6 2819   0.775   0.106   9.546 -1.8215  0.0568 -0.5444
  181MPD1    H7 2820   0.801   0.252   9.475 -0.2951  3.4199  1.8269
  182MPD1     C 2821   1.185   2.846   1.807  0.9396 -0.2747  0.1357
  182MPD1    C1 2822   1.313   2.791   1.809 -0.1530 -0.1854 -0.2599
  182MPD1    C2 2823   1.352   2.730   1.691 -0.2670 -0.2179 -0.1395
  182MPD1    C3 2824   1.269   2.724   1.578 -0.3370 -0.2825 -0.1772
  182MPD1    C4 2825   1.154   2.800   1.580  0.0644  0.0692  0.0576
  182MPD1    C5 2826   1.111   2.854   1.694  0.7527  0.5503 -0.5393
  182MPD1     H 2827   1.449   2.682   1.681 -0.1584 -0.3582  1.5957
  182MPD1    H1 2828   1.087   2.808   1.495 -1.2302 -0.4663  1.0144
  182MPD1    H2 2829   1.128   2.883   1.892  1.0021  1.2251 -0.4851
  182MPD1    H3 2830   1.022   2.916   1.699  0.3024  0.1135 -2.8699
  182MPD1     N 2831   1.290   2.644   1.458  0.3489  0.1797  0.1914
  182MPD1    H5 2832   1.222   2.659   1.384  1.0318 -0.2892 -0.5259
  182MPD1    N1 2833   1.389   2.775   1.930 -0.2875  0.0502  0.2573
  182MPD1    H6 2834   1.363   2.843   2.002 -0.1753 -0.4428  0.7578
  182MPD1    H7 2835   1.488   2.770   1.910 -0.1197 -0.6719  1.2834
  183MPD1     C 2836   1.822   3.625   8.929 -0.8486 -0.7208  0.9323
  183MPD1    C1 2837   1.791   3.605   9.055  0.0723  0.0698  0.0586
  183MPD1    C2 2838   1.776   3.711   9.138 -0.6808 -0.1356  0.0840
  183MPD1    C3 2839   1.811   3.841   9.098 -0.1375 -0.1270 -1.3173
  183MPD1    C4 2840   1.870   3.856   8.976  0.2851  1.0287 -0.0844
  183MPD1    C5 2841   1.864   3.749   8.887  0.1055  0.1446  0.2615
  183MPD1     H 2842   1.743   3.691   9.239 -0.5596  1.0518  0.3540
  183MPD1    H1 2843   1.919   3.950   8.952  2.4430  0.1487  0.9331
  183MPD1    H2 2844   1.807   3.547   8.856  1.2611  0.6821 -0.9951
  183MPD1    H3 2845   1.915   3.762   8.793  2.1278 -0.1684  1.3031
  183MPD1     N 2846   1.804   3.949   9.196 -0.0091  0.3298  0.3304
  183MPD1    H5 2847   1.782   3.916   9.290  0.4196 -0.0418  0.3017
  183MPD1    N1 2848   1.746   3.476   9.090 -0.1472 -0.1553  0.2992
  183MPD1    H6 2849   1.752   3.462   9.191  0.5275  0.7577  0.3953
  183MPD1    H7 2850   1.802   3.402   9.048  1.4974  1.6511 -0.7136
  184MPD1     C 2851   0.558   2.463  10.482 -0.4232  0.5001 -0.3957
  184MPD1    C1 2852   0.520   2.335  10.438 -0.0532 -0.1161 -0.2645
  184MPD1    C2 2853   0.617   2.261  10.371  0.0305  0.2316  0.1563
  184MPD1    C3 2854   0.740   2.311  10.340 -0.3764  0.2147  0.2114
  184MPD1    C4 2855   0.776   2.435  10.388 -0.2299 -0.2830 -0.6292
  184MPD1    C5 2856   0.680   2.515  10.456 -0.4216 -0.1067  0.8219
  184MPD1     H 2857   0.588   2.166  10.329 -1.0306  1.8069 -2.6988
  184MPD1    H1 2858   0.870   2.482  10.362  1.0153 -1.6496  1.4742
  184MPD1    H2 2859   0.485   2.520  10.538 -0.4749  1.8381 -1.8235
  184MPD1    H3 2860   0.695   2.619  10.481 -3.5443  0.1748  1.5439
  184MPD1     N 2861   0.841   2.246  10.262  0.1453 -0.1648 -0.1559
  184MPD1    H5 2862   0.921   2.306  10.243  0.0613 -0.4552 -1.3831
  184MPD1    N1 2863   0.406   2.272  10.491 -0.6630  0.3096  0.0819
  184MPD1    H6 2864   0.334   2.333  10.528 -0.9980  0.2486 -0.4694
  184MPD1    H7 2865   0.383   2.200  10.423 -0.3641  0.1897  0.1050
  185MPD1     C 2866   1.232   1.342  10.436  0.3251  0.1358  0.5346
  185MPD1    C1 2867   1.319   1.452  10.431 -0.5060  0.0936  0.2193
  185MPD1    C2 2868   1.286   1.567  10.362  0.2437  0.2396 -0.0868
  185MPD1    C3 2869   1.166   1.574  10.301  0.2863  0.0348 -0.3547
  185MPD1    C4 2870   1.073   1.471  10.299 -0.0177 -0.1578  0.6743
  185MPD1    C5 2871   1.110   1.352  10.369 -0.6897 -0.2037  0.2770
  185MPD1     H 2872   1.357   1.648  10.372  1.0983 -0.9680  3.4614
  185MPD1    H1 2873   0.975   1.482  10.253 -0.1013  1.5059  1.2487
  185MPD1    H2 2874   1.266   1.250  10.482 -1.5708  0.8754  3.4056
  185MPD1    H3 2875   1.034   1.277  10.353 -1.3585  0.0312  2.3408
  185MPD1     N 2876   1.121   1.697  10.241  0.2300 -0.5625 -0.3620
  185MPD1    H5 2877   1.027   1.696  10.202  0.2443  2.1274 -0.4501
  185MPD1    N1 2878   1.435   1.458  10.510  0.3096 -0.1082  0.2490
  185MPD1    H6 2879   1.511   1.515  10.472 -1.3394  0.6579 -1.8952
  185MPD1    H7 2880   1.466   1.368  10.545  0.9389  0.0593  0.1311
  186MPD1     C 2881   4.153   0.504  15.994  0.1728  0.1878 -0.3171
  186MPD1    C1 2882   4.232   0.606  15.940  0.0557 -0.1184 -0.5783
  186MPD1    C2 2883   4.249   0.717  16.017 -0.5874  0.0262  0.4530
  186MPD1    C3 2884   4.170   0.729  16.130 -0.2359 -0.1076 -0.5445
  186MPD1    C4 2885   4.086   0.629  16.178 -0.3202 -0.7038 -0.1565
  186MPD1    C5 2886   4.082   0.516  16.113  0.1550  0.0287  0.4385
  186MPD1     H 2887   4.320   0.793  15.988  0.4302 -0.8198  0.7114
  186MPD1    H1 2888   4.018   0.638  16.261 -2.3065  0.7002 -1.9347
  186MPD1    H2 2889   4.130   0.410  15.944 -0.7320 -0.2399  0.8858
  186MPD1    H3 2890   4.013   0.435  16.134  0.1661  0.4134  1.9592
  186MPD1     N 2891   4.171   0.851  16.207 -0.4754  0.0273  0.1197
  186MPD1    H5 2892   4.118   0.859  16.293 -0.6094  1.4223 -0.1023
  186MPD1    N1 2893   4.307   0.591  15.821 -0.3723 -0.0117  0.2666
  186MPD1    H6 2894   4.251   0.534  15.757 -1.8290 -1.3022  2.6665
  186MPD1    H7 2895   4.310   0.681  15.774  0.8178  0.2625  0.8928
  187MPD1     C 2896   3.558   2.857   0.359 -0.4501  0.6155 -0.1451
  187MPD1    C1 2897   3.518   2.981   0.301 -0.4550  0.5814  0.5599
  187MPD1    C2 2898   3.532   2.996   0.164 -0.0646 -0.3496  0.4120
  187MPD1    C3 2899   3.570   2.895   0.081  0.6051 -0.2098  1.0065
  187MPD1    C4 2900   3.607   2.773   0.140 -0.0740 -0.2997  0.6636
  187MPD1    C5 2901   3.607   2.761   0.275  0.1176 -0.4535  0.0085
  187MPD1     H 2902   3.507   3.092   0.121  1.7814 -0.0898 -0.1155
  187MPD1    H1 2903   3.665   2.694   0.095  0.4442  1.0273 -1.0034
  187MPD1    H2 2904   3.559   2.841   0.466 -0.4116 -1.0576 -0.3962
  187MPD1    H3 2905   3.653   2.674   0.318  0.1745 -1.7234 -2.6173
  187MPD1     N 2906   3.586   2.904  17.688  0.0088  1.2121 -0.2958
  187MPD1    H5 2907   3.611   2.818  17.640 -0.3056  0.1768  1.3934
  187MPD1    N1 2908   3.489   3.097   0.380  1.0615  0.2772  0.0126
  187MPD1    H6 2909   3.462   3.065   0.472  0.5753  0.4915 -0.0578
  187MPD1    H7 2910   3.413   3.153   0.342 -0.7767 -0.7477  2.1836
  188MPD1     C 2911   3.821   3.051  10.713 -0.2688 -0.5650  0.6310
  188MPD1    C1 2912   3.888   2.951  10.652  0.5508  0.3379  0.9241
  188MPD1    C2 2913   3.813   2.849  10.602  0.3822 -0.0872  0.3133
  188MPD1    C3 2914   3.673   2.856  10.597 -0.1769  0.6065 -0.8004
  188MPD1    C4 2915   3.609   2.964  10.649 -0.9393  1.1837  0.8475
  188MPD1    C5 2916   3.687   3.057  10.709  0.6626  1.0118 -0.2215
  188MPD1     H 2917   3.864   2.767  10.553  2.5544 -0.0091  2.4656
  188MPD1    H1 2918   3.501   2.959  10.660 -1.0680 -1.4436 -1.5355
  188MPD1    H2 2919   3.868   3.138  10.758  1.3085 -2.0418  1.8159
  188MPD1    H3 2920   3.636   3.143  10.751  0.6657  1.0638 -0.3240
  188MPD1     N 2921   3.598   2.744  10.550  0.5898 -0.3776 -0.4964
  188MPD1    H5 2922   3.498   2.760  10.549  0.8809  1.2803 -1.5740
  188MPD1    N1 2923   4.023   2.937  10.683 -0.5671 -0.0570  0.7392
  188MPD1    H6 2924   4.064   2.882  10.608  0.5801 -1.2267  2.2211
  188MPD1    H7 2925   4.073   3.026  10.685 -1.8745  0.6537  2.1111
  189MPD1     C 2926   0.204   4.289   0.571  0.4591 -0.0166  0.2470
  189MPD1    C1 2927   0.098   4.371   0.603  0.2354  0.0747 -0.0467
  189MPD1    C2 2928   4.705   4.316   0.607  0.1281 -0.4673 -1.0760
  189MPD1    C3 2929   4.687   4.184   0.564  0.1495 -0.5816 -0.0719
  189MPD1    C4 2930   0.062   4.110   0.538  0.7729  0.3227 -0.0822
  189MPD1    C5 2931   0.185   4.159   0.549 -0.3100 -0.1007  0.7000
  189MPD1     H 2932   4.618   4.376   0.634  1.5073  0.3204  1.5886
  189MPD1    H1 2933   0.069   4.003   0.521  1.0934  0.3167  0.0770
  189MPD1    H2 2934   0.308   4.319   0.567  0.6938 -0.4936  3.1012
  189MPD1    H3 2935   0.267   4.090   0.536 -0.7064 -0.4242 -0.0281
  189MPD1     N 2936   4.549   4.151   0.545 -0.3353  0.2527 -0.1754
  189MPD1    H5 2937   4.482   4.225   0.562 -0.2641 -0.2308  2.2350
  189MPD1    N1 2938   0.127   4.501   0.646 -0.3381  0.2696 -0.1136
  189MPD1    H6 2939   0.220   4.531   0.621  0.1561 -0.2830  1.0550
  189MPD1    H7 2940   0.066   4.568   0.599  0.3525  2.0495  1.5293
  190MPD1     C 2941   3.526   1.674  15.540  0.2327 -0.4595 -0.3510
  190MPD1    C1 2942   3.648   1.642  15.493  0.0318 -0.1333  0.6025
  190MPD1    C2 2943   3.752   1.724  15.530 -0.5185 -0.1366 -0.0639
  190MPD1    C3 2944   3.737   1.842  15.599  0.2561 -0.0971  0.0120
  190MPD1    C4 2945   3.609   1.869  15.649  0.0647  0.0936 -0.5213
  190MPD1    C5 2946   3.510   1.781  15.627 -0.1251 -1.0829 -0.1573
  190MPD1     H 2947   3.852   1.689  15.506 -1.1923 -1.3806 -1.0395
  190MPD1    H1 2948   3.579   1.962  15.695  0.0171  0.8791 -2.1399
  190MPD1    H2 2949   3.438   1.619  15.506 -1.0740 -1.4660  4.6465
  190MPD1    H3 2950   3.417   1.817  15.671  0.4353 -1.2586  1.1783
  190MPD1     N 2951   3.857   1.921  15.621 -0.3546 -0.2458  0.4365
  190MPD1    H5 2952   3.946   1.895  15.581  0.2128 -0.3635  1.7909
  190MPD1    N1 2953   3.667   1.511  15.446  0.3578  0.3505  0.3309
  190MPD1    H6 2954   3.752   1.496  15.391  0.8264  2.0053  0.6086
  190MPD1    H7 2955   3.590   1.474  15.391  0.7746 -1.0434  0.6676
  191MPD1     C 2956   3.239   3.159  13.027  0.1946 -0.0475  0.1814
  191MPD1    C1 2957   3.263   3.295  13.025 -0.0460 -0.1624  0.2195
  191MPD1    C2 2958   3.218   3.382  12.931  0.4925  0.6081 -0.8344
  191MPD1    C3 2959   3.131   3.335  12.831 -0.2659  0.2062  0.3750
  191MPD1    C4 2960   3.109   3.204  12.832  0.4076  0.3763  0.1409
  191MPD1    C5 2961   3.158   3.114  12.924 -0.3185  0.6434 -0.0146
  191MPD1     H 2962   3.246   3.487  12.938  0.7722  0.6096 -1.9646
  191MPD1    H1 2963   3.040   3.162  12.760 -1.3055  1.8224  0.9488
  191MPD1    H2 2964   3.289   3.084  13.087 -2.4431 -2.6721 -0.8557
  191MPD1    H3 2965   3.142   3.007  12.915 -1.0419  0.7316  0.2910
  191MPD1     N 2966   3.065   3.416  12.739 -0.0333 -0.2282  0.1470
  191MPD1    H5 2967   2.994   3.373  12.680 -0.1399 -0.7519  0.6525
  191MPD1    N1 2968   3.359   3.346  13.112 -0.6484  0.2813  0.2024
  191MPD1    H6 2969   3.367   3.446  13.128  0.9198  0.1616  0.2023
  191MPD1    H7 2970   3.379   3.288  13.193  0.3521 -0.4239 -0.5307
  192MPD1     C 2971   2.222   3.544  12.686 -0.0277  0.3071 -0.8546
  192MPD1    C1 2972   2.259   3.612  12.570 -0.0924  0.7731 -0.0733
  192MPD1    C2 2973   2.394   3.626  12.533 -0.0729  0.1255 -0.6737
  192MPD1    C3 2974   2.486   3.573  12.617 -0.2565  0.7148  0.4528
  192MPD1    C4 2975   2.449   3.523  12.742  0.0150  0.2391  0.4485
  192MPD1    C5 2976   2.317   3.516  12.775 -0.2926 -0.5591 -0.4879
  192MPD1     H 2977   2.423   3.684  12.446 -2.2076 -0.0457 -1.4867
  192MPD1    H1 2978   2.528   3.497  12.811 -2.3558 -2.7062  2.0425
  192MPD1    H2 2979   2.118   3.526  12.711 -0.0514  1.7802  0.1152
  192MPD1    H3 2980   2.287   3.485  12.875  1.0893  1.2432  0.4809
  192MPD1     N 2981   2.626   3.583  12.591  0.1591 -0.3272  0.1208
  192MPD1    H5 2982   2.683   3.561  12.672 -2.1195 -0.3087  1.7294
  192MPD1    N1 2983   2.160   3.625  12.470 -0.1307  0.5174  0.6221
  192MPD1    H6 2984   2.182   3.700  12.404 -0.0979  0.6872  0.8270
  192MPD1    H7 2985   2.071   3.649  12.512 -0.7852  0.0046 -0.4635
  193MPD1     C 2986   2.837   4.078  17.730  0.0449 -0.4736  0.0167
  193MPD1    C1 2987   2.873   4.024  17.610 -0.2873  0.0849  0.1884
  193MPD1    C2 2988   2.962   4.101  17.528  0.3198 -0.1309 -0.4795
  193MPD1    C3 2989   2.991   4.237  17.556  0.5938 -0.1861 -0.2892
  193MPD1    C4 2990   2.933   4.289  17.669  0.4108 -0.1280  0.2696
  193MPD1    C5 2991   2.854   4.210   0.009 -0.0178  0.3477  0.3880
  193MPD1     H 2992   2.984   4.046  17.437 -0.3122 -1.2284  0.0200
  193MPD1    H1 2993   2.939   4.395  17.692  2.2874 -0.5331  1.6292
  193MPD1    H2 2994   2.784   4.018   0.056  0.8633 -2.3774 -0.9686
  193MPD1    H3 2995   2.818   4.243   0.106 -0.2498  1.4470 -0.0599
  193MPD1     N 2996   3.048   4.339  17.467 -0.0428 -0.2333 -0.3707
  193MPD1    H5 2997   3.055   4.432  17.507 -2.0921 -0.9493  1.6052
  193MPD1    N1 2998   2.848   3.890  17.581  0.0892  0.2641  0.5953
  193MPD1    H6 2999   2.866   3.877  17.482 -2.2903  0.2054  0.1764
  193MPD1    H7 3000   2.752   3.861  17.600  0.4846 -1.2638  0.1759
  194MPD1     C 3001   0.625   1.755  16.667  0.7177  0.1985  0.4922
  194MPD1    C1 3002   0.569   1.712  16.787  0.1017  0.1508  0.0992
  194MPD1    C2 3003   0.643   1.625  16.870 -0.4116  0.1770  0.5747
  194MPD1    C3 3004   0.769   1.574  16.831  0.4807 -0.1363  0.0813
  194MPD1    C4 3005   0.819   1.623  16.714  0.3955  0.1132 -0.8532
  194MPD1    C5 3006   0.748   1.713  16.639 -0.1958 -0.1454  0.0273
  194MPD1     H 3007   0.609   1.593  16.968  0.6738  0.0695  0.9135
  194MPD1    H1 3008   0.922   1.599  16.690  0.7666  1.4547 -0.5942
  194MPD1    H2 3009   0.582   1.827  16.598 -0.5735 -0.6324  0.4279
  194MPD1    H3 3010   0.793   1.761  16.553 -1.8615  0.8404 -0.2975
  194MPD1     N 3011   0.858   1.505  16.919 -0.4781 -0.2484 -0.1078
  194MPD1    H5 3012   0.943   1.463  16.882 -1.2572 -0.7893 -1.2798
  194MPD1    N1 3013   0.470   1.790  16.841  0.6033  0.1829  0.2774
  194MPD1    H6 3014   0.412   1.820  16.762 -1.7019  2.3415  2.7816
  194MPD1    H7 3015   0.412   1.736  16.904  0.1635  1.2902  0.8214
  195MPD1     C 3016   3.042   3.327   0.880  0.4543 -0.5011 -0.7470
  195MPD1    C1 3017   3.172   3.300   0.844  0.3911  0.1320  0.3077
  195MPD1    C2 3018   3.203   3.174   0.795 -0.5269  0.3181 -0.6228
  195MPD1    C3 3019   3.099   3.091   0.750 -0.2532 -0.0397  0.4137
  195MPD1    C4 3020   2.966   3.125   0.777 -0.3029  0.7939 -0.0133
  195MPD1    C5 3021   2.939   3.242   0.845 -0.3917  0.0465  0.3539
  195MPD1     H 3022   3.305   3.141   0.783 -0.4620  0.5169 -0.6255
  195MPD1    H1 3023   2.881   3.066   0.746  0.2192 -0.4270  0.8933
  195MPD1    H2 3024   3.011   3.419   0.929 -0.3817 -0.5950 -1.0956
  195MPD1    H3 3025   2.839   3.275   0.871 -1.4062 -1.3433 -1.8117
  195MPD1     N 3026   3.124   2.969   0.678 -0.5575  0.5037  0.1478
  195MPD1    H5 3027   3.038   2.917   0.664  0.0976 -0.5626  0.0030
  195MPD1    N1 3028   3.271   3.395   0.891 -0.3274  0.3166 -0.2329
  195MPD1    H6 3029   3.357   3.388   0.839 -0.7957 -0.6549 -0.8782
  195MPD1    H7 3030   3.236   3.490   0.880 -2.7276 -0.5300  0.0073
  196MPD1     C 3031   1.888   2.267   1.757  0.6233  0.3209 -0.4131
  196MPD1    C1 3032   2.016   2.282   1.712  0.7241 -0.6029  0.7141
  196MPD1    C2 3033   2.032   2.351   1.595  0.6156 -0.4209  0.1912
  196MPD1    C3 3034   1.921   2.393   1.518  0.3420 -0.0065  0.7789
  196MPD1    C4 3035   1.788   2.365   1.560  0.6015  0.2499  0.1046
  196MPD1    C5 3036   1.773   2.311   1.686  0.4048  0.1234 -0.2518
  196MPD1     H 3037   2.134   2.363   1.560  0.9180 -0.0141  1.1865
  196MPD1    H1 3038   1.698   2.390   1.505 -0.4118 -2.0288  0.7028
  196MPD1    H2 3039   1.875   2.220   1.854  0.6162 -0.4887 -0.8093
  196MPD1    H3 3040   1.676   2.281   1.725  0.3660 -2.1895 -2.0923
  196MPD1     N 3041   1.931   2.470   1.396  0.5750  0.2021 -0.6728
  196MPD1    H5 3042   1.844   2.496   1.350  1.6813  2.9049 -1.2269
  196MPD1    N1 3043   2.132   2.251   1.788 -0.5534 -0.2426  0.2490
  196MPD1    H6 3044   2.217   2.262   1.734  1.1108  0.8831  3.1190
  196MPD1    H7 3045   2.131   2.175   1.856  0.5901 -0.5453 -0.0799
  197MPD1     C 3046   1.204   0.538  17.587 -0.9439  0.3473  0.3323
  197MPD1    C1 3047   1.278   0.431  17.550 -0.2715  0.1160 -0.1090
  197MPD1    C2 3048   1.305   0.409  17.413 -0.1570  0.4617  0.1624
  197MPD1    C3 3049   1.247   0.487  17.314  0.5609  0.1392 -0.3363
  197MPD1    C4 3050   1.178   0.596  17.359 -0.4911 -0.2278 -0.3998
  197MPD1    C5 3051   1.155   0.621  17.490 -0.1478  0.0095 -0.1175
  197MPD1     H 3052   1.369   0.328  17.382 -1.1330 -0.3334  0.2320
  197MPD1    H1 3053   1.114   0.653  17.293 -0.9892  0.1235  0.3800
  197MPD1    H2 3054   1.180   0.558  17.690 -0.7708  1.0797  0.2254
  197MPD1    H3 3055   1.086   0.701  17.513 -0.4001 -0.0812 -0.5426
  197MPD1     N 3056   1.279   0.467  17.176 -0.4675 -0.0574 -0.4231
  197MPD1    H5 3057   1.255   0.548  17.120 -1.5625  0.9198  1.4566
  197MPD1    N1 3058   1.341   0.366  17.664  0.3315  0.5298 -0.4056
  197MPD1    H6 3059   1.389   0.278  17.651  1.0753  0.6476  1.6873
  197MPD1    H7 3060   1.275   0.355  17.741 -0.9331  1.0708 -1.3901
  198MPD1     C 3061   3.745   3.082  15.769  0.5531 -0.4513  0.1022
  198MPD1    C1 3062   3.824   3.181  15.720 -0.5413  0.7937 -0.1928
  198MPD1    C2 3063   3.927   3.234  15.795 -0.6704 -0.1290  0.1370
  198MPD1    C3 3064   3.950   3.191  15.924  0.3136  0.3638 -0.6623
  198MPD1    C4 3065   3.878   3.087  15.970  0.1539 -0.2113  0.5584
  198MPD1    C5 3066   3.782   3.027  15.889 -0.7813  0.7174 -0.1262
  198MPD1     H 3067   3.980   3.321  15.757  1.8028 -2.1281 -1.0567
  198MPD1    H1 3068   3.896   3.047  16.069 -1.2745  1.3223  1.4273
  198MPD1    H2 3069   3.663   3.042  15.711  2.0035 -1.2394 -1.4001
  198MPD1    H3 3070   3.750   2.927  15.915 -0.3904  0.3721 -0.9790
  198MPD1     N 3071   4.040   3.260  16.004 -0.0958 -0.3164  0.2904
  198MPD1    H5 3072   4.085   3.343  15.966 -1.3360 -0.5459 -1.6467
  198MPD1    N1 3073   3.792   3.233  15.589 -0.7669 -0.2212 -0.2865
  198MPD1    H6 3074   3.748   3.159  15.536  2.9373 -0.9026 -2.3769
  198MPD1    H7 3075   3.876   3.257  15.538  0.1613 -3.7651 -0.3807
  199MPD1     C 3076   1.528   0.016  10.394  0.3081 -0.2145  0.8288
  199MPD1    C1 3077   1.443   0.120  10.364 -0.4519 -0.4557 -0.1619
  199MPD1    C2 3078   1.392   0.133  10.233 -0.2754 -0.0939  0.1527
  199MPD1    C3 3079   1.418   0.043  10.129 -0.0540  0.7134  0.2725
  199MPD1    C4 3080   1.481   4.666  10.174  0.6370  0.0995  0.2121
  199MPD1    C5 3081   1.546   4.653  10.302  0.1721 -0.1914  0.1604
  199MPD1     H 3082   1.331   0.220  10.212  1.6449  1.2472  0.1259
  199MPD1    H1 3083   1.504   4.593  10.098  1.8396  1.1163 -0.4021
  199MPD1    H2 3084   1.576   0.014  10.491  1.8642 -0.9279  0.0481
  199MPD1    H3 3085   1.611   4.567  10.318  3.3585  2.3489  0.8259
  199MPD1     N 3086   1.375   0.055   9.994  0.7841  0.6535  0.1346
  199MPD1    H5 3087   1.385   4.705   9.942  0.3228  1.2867 -1.0046
  199MPD1    N1 3088   1.449   0.233  10.445 -0.5028 -0.2103 -0.1720
  199MPD1    H6 3089   1.475   0.204  10.539 -0.6686  1.0895  0.2734
  199MPD1    H7 3090   1.361   0.284  10.447  0.7505  1.9765 -0.5262
  200MPD1     C 3091   4.394   0.248  15.812 -0.2327 -0.3473  0.1293
  200MPD1    C1 3092   4.514   0.184  15.826  0.5481  0.7976 -0.1720
  200MPD1    C2 3093   4.547   0.090  15.723  0.3605 -0.2715  0.0223
  200MPD1    C3 3094   4.458   0.042  15.631 -0.1084  0.1346 -0.2211
  200MPD1    C4 3095   4.333   0.108  15.627 -0.1336  0.1388  0.8757
  200MPD1    C5 3096   4.310   0.214  15.708  0.3039  0.0336  0.0511
  200MPD1     H 3097   4.647   0.048  15.725 -0.2105 -1.6376 -0.3339
  200MPD1    H1 3098   4.250   0.090  15.560  0.3375  0.8594  0.0920
  200MPD1    H2 3099   4.365   0.330  15.878  0.0010 -1.2505  1.3523
  200MPD1    H3 3100   4.217   0.270  15.708  1.0560  1.2846  0.5183
  200MPD1     N 3101   4.492   4.683  15.533 -0.0761 -0.4016  0.2314
  200MPD1    H5 3102   4.587   4.646  15.537 -0.8300 -2.1882  1.5425
  200MPD1    N1 3103   4.607   0.243  15.910 -0.3222  0.5389  0.3200
  200MPD1    H6 3104   4.559   0.299  15.979 -0.1311  2.3327 -0.9908
  200MPD1    H7 3105   4.683   0.184  15.945  1.7106  1.4828 -2.4896
  201MPD1     C 3106   2.181   3.480  13.508 -0.3785  0.3151  0.3853
  201MPD1    C1 3107   2.308   3.511  13.557 -0.0516  0.2524 -0.2078
  201MPD1    C2 3108   2.400   3.424  13.516  1.3252 -0.2060  1.0087
  201MPD1    C3 3109   2.371   3.309  13.444 -0.3574 -0.3540  1.1120
  201MPD1    C4 3110   2.241   3.272  13.408  0.2408 -0.0545 -0.4235
  201MPD1    C5 3111   2.151   3.368  13.428 -0.2223 -0.1536 -1.2608
  201MPD1     H 3112   2.503   3.442  13.547  1.4536  1.2093 -0.2648
  201MPD1    H1 3113   2.213   3.185  13.350  1.2159 -2.8497  3.2690
  201MPD1    H2 3114   2.098   3.545  13.537 -2.1481 -1.6945 -0.2066
  201MPD1    H3 3115   2.046   3.352  13.407 -0.5444  0.1098  0.1349
  201MPD1     N 3116   2.479   3.223  13.420  0.1087  0.3468 -0.0615
  201MPD1    H5 3117   2.564   3.237  13.473 -0.2028 -0.5121  0.6698
  201MPD1    N1 3118   2.329   3.631  13.627 -0.2866  0.9528  0.3185
  201MPD1    H6 3119   2.408   3.621  13.691  0.8038 -3.6909 -1.7476
  201MPD1    H7 3120   2.244   3.652  13.678 -2.7612  1.0314 -3.8711
  202MPD1     C 3121   2.279   2.682   9.511 -0.4576  0.1504 -0.3719
  202MPD1    C1 3122   2.248   2.803   9.448 -0.1840  1.0529 -0.0928
  202MPD1    C2 3123   2.270   2.914   9.536  0.2663 -0.3209  0.7610
  202MPD1    C3 3124   2.272   2.903   9.670 -0.5636 -0.4168  0.4641
  202MPD1    C4 3125   2.278   2.776   9.730  0.1182  0.4996 -0.0599
  202MPD1    C5 3126   2.292   2.665   9.651 -0.2395  0.7000 -0.3675
  202MPD1     H 3127   2.269   3.012   9.491 -3.2339 -0.2519  0.9696
  202MPD1    H1 3128   2.285   2.764   9.837  2.9963 -0.4657 -0.3472
  202MPD1    H2 3129   2.294   2.595   9.449  1.0646  1.5457 -1.9506
  202MPD1    H3 3130   2.318   2.571   9.697  1.0736 -0.0321 -2.6385
  202MPD1     N 3131   2.285   3.011   9.753 -0.3764 -0.1407  0.0355
  202MPD1    H5 3132   2.272   2.980   9.849  1.0049  0.6881  0.4939
  202MPD1    N1 3133   2.280   2.803   9.313  0.7469  0.7154  0.3398
  202MPD1    H6 3134   2.239   2.885   9.270 -0.6030  0.7812  1.7404
  202MPD1    H7 3135   2.243   2.727   9.256  0.2855  2.6664 -1.9786
  203MPD1     C 3136   0.792   3.729  12.084 -0.3554  0.3550 -0.2806
  203MPD1    C1 3137   0.860   3.658  11.986  0.4445  0.0779  0.3434
  203MPD1    C2 3138   0.934   3.549  12.028 -0.1570  0.3420  0.3385
  203MPD1    C3 3139   0.945   3.516  12.159  0.3570 -0.6305  0.4175
  203MPD1    C4 3140   0.868   3.581  12.255  0.0664 -0.2218  0.4023
  203MPD1    C5 3141   0.802   3.688  12.215 -0.6488 -0.7570  0.3095
  203MPD1     H 3142   1.000   3.502  11.955 -0.6952 -1.1012  0.7900
  203MPD1    H1 3143   0.860   3.558  12.361  1.6214 -2.6053  0.0256
  203MPD1    H2 3144   0.719   3.807  12.063  0.8141  1.3822 -0.5149
  203MPD1    H3 3145   0.755   3.749  12.291  0.8111 -1.7273  2.0106
  203MPD1     N 3146   1.040   3.411  12.195 -0.4423  0.0622 -0.1453
  203MPD1    H5 3147   1.082   3.365  12.114  1.8012  0.0308  1.0426
  203MPD1    N1 3148   0.845   3.693  11.850 -0.6316 -0.2498 -0.0006
  203MPD1    H6 3149   0.854   3.608  11.794 -0.3003  0.6533 -1.3132
  203MPD1    H7 3150   0.761   3.746  11.827  0.0098  0.0081 -1.7409
  204MPD1     C 3151   4.472   0.033   0.127 -0.7739  0.6599 -0.0327
  204MPD1    C1 3152   4.507   4.642   0.111  0.0178  0.4215  0.4957
  204MPD1    C2 3153   4.638   4.616   0.102 -0.2013 -0.2402  0.1790
  204MPD1    C3 3154   4.733   4.712   0.115  0.6213  0.2223 -0.4305
  204MPD1    C4 3155   4.694   0.106   0.143 -0.4838  0.1497 -0.6892
  204MPD1    C5 3156   4.560   0.133   0.159 -0.0939 -0.0599  0.6240
  204MPD1     H 3157   4.674   4.516   0.079  0.7211 -0.1866  1.3907
  204MPD1    H1 3158   0.031   0.184   0.149  1.1861 -1.3752 -1.3750
  204MPD1    H2 3159   4.365   0.047   0.121 -0.6903  0.4117 -2.0161
  204MPD1    H3 3160   4.530   0.236   0.172  1.7027  0.5376  0.0923
  204MPD1     N 3161   0.130   4.672   0.092 -0.3144  0.0391  0.7401
  204MPD1    H5 3162   0.152   4.573   0.086  0.9254  0.2919  1.1778
  204MPD1    N1 3163   4.410   4.547   0.069  0.1654  0.0655  0.0039
  204MPD1    H6 3164   4.324   4.567   0.119  0.4791 -1.1876  1.0492
  204MPD1    H7 3165   4.434   4.451   0.092 -0.7679 -0.4075 -0.9944
  205MPD1     C 3166   4.573   3.396  17.347  0.6349 -0.0337 -0.4513
  205MPD1    C1 3167   4.615   3.297  17.438 -0.3459 -0.6918  0.5565
  205MPD1    C2 3168   4.700   3.329  17.544  0.4340 -0.6285 -0.0759
  205MPD1    C3 3169   0.010   3.455  17.559  0.2051  0.0807 -0.6396
  205MPD1    C4 3170   4.709   3.557  17.473  0.9351 -0.9191 -0.1154
  205MPD1    C5 3171   4.624   3.526  17.365  0.0536 -0.6522  0.1754
  205MPD1     H 3172   4.734   3.252  17.613  1.0299  0.3268  0.7034
  205MPD1    H1 3173   0.017   3.654  17.492 -1.4692 -0.6474  4.0725
  205MPD1    H2 3174   4.504   3.384  17.265 -0.2453  0.4235  0.2309
  205MPD1    H3 3175   4.594   3.606  17.299  0.6807  1.4134  2.3617
  205MPD1     N 3176   0.080   3.501  17.668 -0.0610 -0.1531  1.0885
  205MPD1    H5 3177   0.096   3.601  17.672 -2.4048  0.2865 -0.8909
  205MPD1    N1 3178   4.543   3.174  17.442 -0.3185  0.2303  0.4342
  205MPD1    H6 3179   4.603   3.106  17.487 -1.3027 -0.2603  1.0194
  205MPD1    H7 3180   4.502   3.143  17.354  0.5315  0.5478 -0.0666
  206MPD1     C 3181   0.900   0.573  16.324 -0.4233 -0.3587 -0.2836
  206MPD1    C1 3182   0.969   0.599  16.206  0.7934  0.2796 -0.1354
  206MPD1    C2 3183   0.972   0.731  16.166 -0.1586  0.8811  0.2630
  206MPD1    C3 3184   0.896   0.831  16.223 -0.3410 -0.0024 -0.1512
  206MPD1    C4 3185   0.827   0.801  16.339  0.1857  0.4237  0.1469
  206MPD1    C5 3186   0.822   0.668  16.385  0.1048 -0.3607  0.2540
  206MPD1     H 3187   1.035   0.749  16.079  0.6193 -0.8926  0.4702
  206MPD1    H1 3188   0.775   0.874  16.400  2.4129  1.0533  1.3255
  206MPD1    H2 3189   0.896   0.477  16.373 -1.9667 -0.5835 -0.8366
  206MPD1    H3 3190   0.766   0.650  16.476 -0.2029  0.3745  0.2115
  206MPD1     N 3191   0.910   0.971  16.177  0.0739  0.2538 -0.4736
  206MPD1    H5 3192   0.883   1.042  16.244 -2.7819 -1.9319  0.6866
  206MPD1    N1 3193   1.063   0.500  16.158  0.0166 -0.6031  0.0341
  206MPD1    H6 3194   1.044   0.408  16.194 -2.0808  0.2130  0.9672
  206MPD1    H7 3195   1.075   0.508  16.057  0.7678 -0.3852  0.1405
  207MPD1     C 3196   2.942   3.993   9.825 -0.2039  0.1015  0.8071
  207MPD1    C1 3197   3.049   4.063   9.765 -0.3818 -0.1820  0.1004
  207MPD1    C2 3198   3.163   4.081   9.839 -0.3813  0.1905 -0.4385
  207MPD1    C3 3199   3.183   4.023   9.965  0.0690  0.2280  0.0368
  207MPD1    C4 3200   3.073   3.956  10.027 -0.0185  0.4243 -0.4173
  207MPD1    C5 3201   2.955   3.951   9.957  0.2437  0.2959  0.1105
  207MPD1     H 3202   3.248   4.128   9.790  0.1441  0.8601  1.0994
  207MPD1    H1 3203   3.071   3.928  10.132  2.5178  0.6212 -0.3091
  207MPD1    H2 3204   2.853   3.981   9.765  0.3665 -0.4293  0.0538
  207MPD1    H3 3205   2.866   3.913  10.004  1.4406 -1.7642  0.7025
  207MPD1     N 3206   3.303   4.025  10.037  0.5138  0.1388  1.1048
  207MPD1    H5 3207   3.310   3.973  10.123  0.7159 -2.3842 -0.4570
  207MPD1    N1 3208   3.053   4.093   9.626  0.2026  0.0653  0.2341
  207MPD1    H6 3209   2.970   4.093   9.568  1.4171  1.4578 -1.4896
  207MPD1    H7 3210   3.110   4.170   9.592  1.0145 -0.5129  0.2902
  208MPD1     C 3211   1.921   3.181   0.186 -0.1939 -0.4161  0.0896
  208MPD1    C1 3212   1.898   3.102   0.297 -0.6403  0.0646  0.0078
  208MPD1    C2 3213   1.772   3.056   0.319  0.6440 -0.1743 -0.5580
  208MPD1    C3 3214   1.668   3.088   0.243  0.1402 -0.5945  0.2787
  208MPD1    C4 3215   1.692   3.164   0.128  0.6738 -0.1007 -0.3886
  208MPD1    C5 3216   1.820   3.208   0.103 -0.1606  0.0362  0.6860
  208MPD1     H 3217   1.747   3.001   0.409 -1.6464 -0.0511 -1.1425
  208MPD1    H1 3218   1.623   3.180   0.047  0.0811  3.1835  0.7589
  208MPD1    H2 3219   2.022   3.219   0.171 -0.9862  0.8498 -1.9420
  208MPD1    H3 3220   1.838   3.273   0.018 -0.5220 -0.9805 -0.1683
  208MPD1     N 3221   1.542   3.043   0.292  0.8371  0.0866  0.4111
  208MPD1    H5 3222   1.546   2.995   0.381 -0.5815 -0.0376  0.4124
  208MPD1    N1 3223   1.992   3.102   0.400  0.4054  0.0039 -0.7414
  208MPD1    H6 3224   2.087   3.117   0.367 -0.2187 -1.2029 -3.1404
  208MPD1    H7 3225   1.993   3.015   0.451 -1.7359 -0.3615 -1.2987
  209MPD1     C 3226   3.858   3.941  11.651 -0.1879  0.4012  0.2796
  209MPD1    C1 3227   3.976   3.877  11.623 -0.2372 -0.4519  0.4650
  209MPD1    C2 3228   4.021   3.865  11.490  0.3491 -0.7416  0.1594
  209MPD1    C3 3229   3.955   3.925  11.381 -0.4561 -0.0797  1.2066
  209MPD1    C4 3230   3.837   3.981  11.409 -0.0320 -0.0906  0.9510
  209MPD1    C5 3231   3.799   3.999  11.542 -0.3712 -1.2644 -0.3337
  209MPD1     H 3232   4.106   3.800  11.472 -1.3773 -2.9806 -0.0147
  209MPD1    H1 3233   3.777   4.025  11.330  1.2414  0.0531  0.0690
  209MPD1    H2 3234   3.810   3.957  11.746  1.4835  0.3611  1.1457
  209MPD1    H3 3235   3.707   4.053  11.562 -0.1183 -0.6537 -0.8498
  209MPD1     N 3236   3.988   3.910  11.244 -0.2856 -0.1904 -0.1368
  209MPD1    H5 3237   3.911   3.932  11.181  1.2520  3.8046 -0.6235
  209MPD1    N1 3238   4.044   3.808  11.727  0.1104 -0.0207  0.2793
  209MPD1    H6 3239   4.030   3.863  11.812 -1.2644  0.5487 -0.3325
  209MPD1    H7 3240   4.144   3.811  11.706 -0.2365 -0.5063 -1.4151
  210MPD1     C 3241   0.068   4.200  10.887  0.9780 -1.0709 -0.4268
  210MPD1    C1 3242   0.001   4.164  10.777 -0.3535  0.6748  0.3109
  210MPD1    C2 3243   4.652   4.057  10.787 -0.3098  0.3120 -0.3622
  210MPD1    C3 3244   4.616   4.001  10.911 -0.1401 -0.5740 -0.2384
  210MPD1    C4 3245   4.661   4.061  11.020  0.1545 -0.7479 -0.6311
  210MPD1    C5 3246   0.021   4.154  11.003 -0.0939 -0.2815 -1.0033
  210MPD1     H 3247   4.606   4.013  10.699  0.4810 -1.9643  0.3459
  210MPD1    H1 3248   4.633   4.023  11.118 -1.1445  1.0308 -0.3202
  210MPD1    H2 3249   0.147   4.274  10.877  0.4270 -0.6638 -1.8379
  210MPD1    H3 3250   0.073   4.180  11.094 -1.8750 -0.1748 -0.0203
  210MPD1     N 3251   4.516   3.902  10.935  0.0975 -0.0673 -0.2084
  210MPD1    H5 3252   4.492   3.893  11.033 -1.3412 -3.8383 -0.9041
  210MPD1    N1 3253   0.047   4.220  10.652 -0.2731 -0.1241 -0.6161
  210MPD1    H6 3254   4.702   4.225  10.592  0.2494  3.0892 -1.0649
  210MPD1    H7 3255   0.082   4.316  10.660 -0.4576  0.1096 -2.4357
  211MPD1     C 3256   1.796   3.423  16.256 -0.1098 -0.1299  0.0438
  211MPD1    C1 3257   1.760   3.394  16.386 -0.2280 -0.2156  0.0259
  211MPD1    C2 3258   1.656   3.466  16.438 -0.9653  0.3079 -0.5343
  211MPD1    C3 3259   1.573   3.539  16.355  0.1071 -0.2708 -0.5486
  211MPD1    C4 3260   1.608   3.564  16.225  0.0817 -0.8633 -0.2229
  211MPD1    C5 3261   1.725   3.513  16.183  0.3844  0.0296 -0.4446
  211MPD1     H 3262   1.620   3.442  16.537  1.8158 -1.8303 -0.0403
  211MPD1    H1 3263   1.550   3.637  16.170  1.5087  0.5621  0.1716
  211MPD1    H2 3264   1.891   3.381  16.223 -0.7282 -2.5870  1.3828
  211MPD1    H3 3265   1.761   3.536  16.083  0.1170 -0.8426 -0.7474
  211MPD1     N 3266   1.460   3.595  16.422  0.8225  0.0361 -0.3177
  211MPD1    H5 3267   1.460   3.583  16.523  2.0371  1.3321 -0.1589
  211MPD1    N1 3268   1.843   3.318  16.467 -0.1106  0.7801  0.2362
  211MPD1    H6 3269   1.788   3.272  16.538 -0.9657  0.7534 -0.4521
  211MPD1    H7 3270   1.895   3.248  16.414 -0.8428  1.6567 -1.6292
  212MPD1     C 3271   0.375   1.931  16.469  0.2988  0.5132  0.3061
  212MPD1    C1 3272   0.291   1.997  16.559  0.0540 -0.1131  0.3174
  212MPD1    C2 3273   0.203   1.916  16.640  0.3334  0.4139 -0.1421
  212MPD1    C3 3274   0.204   1.775  16.623  1.1693 -0.6566  1.3704
  212MPD1    C4 3275   0.284   1.715  16.527 -0.0662  0.3111 -0.1704
  212MPD1    C5 3276   0.361   1.795  16.445 -0.4762 -0.2066  0.4102
  212MPD1     H 3277   0.141   1.970  16.711  2.0706  0.3369  1.4342
  212MPD1    H1 3278   0.276   1.610  16.501 -0.3510  0.2431  0.1780
  212MPD1    H2 3279   0.434   1.989  16.400 -0.6710 -0.1703 -1.0980
  212MPD1    H3 3280   0.407   1.763  16.352  0.7156  2.4585  0.0840
  212MPD1     N 3281   0.124   1.681  16.700 -0.0587 -0.3414  0.2591
  212MPD1    H5 3282   0.130   1.584  16.672  1.6430 -0.4817  1.1664
  212MPD1    N1 3283   0.315   2.135  16.589 -0.1322  0.2201  0.0972
  212MPD1    H6 3284   0.347   2.179  16.503 -1.1780  0.7049 -0.0437
  212MPD1    H7 3285   0.229   2.179  16.620 -0.9930  0.5635 -2.8536
  213MPD1     C 3286   3.741   2.242  15.466 -0.0262  0.1300  0.0925
  213MPD1    C1 3287   3.781   2.326  15.366 -0.4975  0.9788 -0.2612
  213MPD1    C2 3288   3.679   2.403  15.312  0.0225 -0.7390  0.4356
  213MPD1    C3 3289   3.562   2.426  15.385  0.4818  0.6672  0.2101
  213MPD1    C4 3290   3.526   2.351  15.495 -0.6167 -0.1893 -0.5190
  213MPD1    C5 3291   3.620   2.252  15.528  0.1476  0.6495  0.1737
  213MPD1     H 3292   3.688   2.448  15.214  1.6920  3.4384  2.5207
  213MPD1    H1 3293   3.429   2.354  15.542 -1.2572 -1.5846 -1.7675
  213MPD1    H2 3294   3.796   2.149  15.478  1.8350  0.8129 -3.0535
  213MPD1    H3 3295   3.593   2.173  15.597  0.7729 -0.2430 -0.6100
  213MPD1     N 3296   3.477   2.533  15.330 -0.2634  0.2335 -0.0199
  213MPD1    H5 3297   3.509   2.578  15.245  1.0512 -1.8945 -0.6456
  213MPD1    N1 3298   3.885   2.289  15.277  0.0120  0.2311  0.4697
  213MPD1    H6 3299   3.972   2.261  15.321  0.2315 -1.5691 -1.1050
  213MPD1    H7 3300   3.915   2.362  15.212 -0.5989 -0.9263 -1.0995
  214MPD1     C 3301   2.474   2.694  15.401 -0.9118  0.4586 -0.6222
  214MPD1    C1 3302   2.531   2.815  15.436  0.1165  0.3927  0.5253
  214MPD1    C2 3303   2.668   2.835  15.424 -0.1531 -0.1256  0.4350
  214MPD1    C3 3304   2.750   2.729  15.381  0.3151  0.0522  0.7070
  214MPD1    C4 3305   2.687   2.610  15.352 -0.0648 -0.2384  0.1525
  214MPD1    C5 3306   2.553   2.592  15.367 -0.7292  0.3060  0.4211
  214MPD1     H 3307   2.700   2.931  15.462  0.8113  0.2910 -1.4219
  214MPD1    H1 3308   2.735   2.537  15.288 -0.3264 -1.7147  1.6620
  214MPD1    H2 3309   2.367   2.679  15.410 -0.7562 -1.0316 -1.3099
  214MPD1    H3 3310   2.511   2.498  15.334 -0.4951  0.1106  0.6771
  214MPD1     N 3311   2.888   2.743  15.352 -0.1134  0.1292 -0.4544
  214MPD1    H5 3312   2.944   2.663  15.324 -0.4586 -0.2675 -0.0083
  214MPD1    N1 3313   2.448   2.910  15.495  0.0372  0.0252 -0.3065
  214MPD1    H6 3314   2.357   2.907  15.447 -0.2598 -1.7232  0.3787
  214MPD1    H7 3315   2.487   3.004  15.487 -1.7886  0.9899  2.0009
  215MPD1     C 3316   3.594   3.336  10.345 -0.4590  0.1308  0.3633
  215MPD1    C1 3317   3.526   3.455  10.327  0.6932 -0.3573 -0.4407
  215MPD1    C2 3318   3.500   3.538  10.433  0.5306  0.8638  0.1585
  215MPD1    C3 3319   3.556   3.516  10.559  0.1170 -0.1679 -0.1468
  215MPD1    C4 3320   3.632   3.405  10.574 -0.4514 -0.8623  0.5958
  215MPD1    C5 3321   3.655   3.314  10.469 -0.2521 -0.1929  0.2012
  215MPD1     H 3322   3.416   3.607  10.431  0.0380  0.2708  0.5373
  215MPD1    H1 3323   3.676   3.386  10.671 -1.0568  1.8835  1.4063
  215MPD1    H2 3324   3.596   3.262  10.266 -2.2467  2.1166 -1.5262
  215MPD1    H3 3325   3.713   3.227  10.496 -3.5132 -2.2474  0.5237
  215MPD1     N 3326   3.518   3.611  10.656  0.2308 -0.0733 -0.8848
  215MPD1    H5 3327   3.464   3.690  10.622 -0.2600 -0.3664 -0.7936
  215MPD1    N1 3328   3.445   3.466  10.209  0.0740  0.0302 -0.6945
  215MPD1    H6 3329   3.486   3.421  10.127  1.2544 -1.4489  0.7074
  215MPD1    H7 3330   3.447   3.561  10.174 -1.2127  0.7515  1.1977
  216MPD1     C 3331   0.500   1.367  16.405  0.2333 -0.6545 -0.2204
  216MPD1    C1 3332   0.481   1.230  16.387 -0.1668  0.2885  0.2794
  216MPD1    C2 3333   0.447   1.155  16.499 -0.4558  0.3157  0.3583
  216MPD1    C3 3334   0.422   1.217  16.623  0.1212  0.2124  0.4422
  216MPD1    C4 3335   0.436   1.349  16.629  0.3747 -0.3139  0.2622
  216MPD1    C5 3336   0.475   1.425  16.527  0.0407  0.5264  0.1499
  216MPD1     H 3337   0.458   1.047  16.506 -0.8492  0.3777  1.9214
  216MPD1    H1 3338   0.426   1.404  16.722 -1.1850 -0.2354  0.0475
  216MPD1    H2 3339   0.543   1.428  16.326 -1.7019 -0.4726 -1.1315
  216MPD1    H3 3340   0.497   1.530  16.543  0.0764  0.7695 -1.4950
  216MPD1     N 3341   0.399   1.133  16.737  0.3052 -0.3539  0.7811
  216MPD1    H5 3342   0.397   1.033  16.719 -0.8084 -0.5440  1.9141
  216MPD1    N1 3343   0.517   1.177  16.262 -0.2396 -0.6677 -0.2098
  216MPD1    H6 3344   0.454   1.102  16.235 -0.9442 -0.0985 -0.1428
  216MPD1    H7 3345   0.523   1.245  16.186  2.4425  2.3033  2.6251
  217MPD1     C 3346   1.906   4.245   8.521 -0.6932 -0.1700 -0.3566
  217MPD1    C1 3347   1.818   4.177   8.442  0.2768  0.4463 -0.5381
  217MPD1    C2 3348   1.732   4.084   8.496  0.2660  0.0433 -0.0942
  217MPD1    C3 3349   1.746   4.045   8.631  0.2774 -0.3086  0.0576
  217MPD1    C4 3350   1.828   4.123   8.714 -0.1163  0.2228  1.1091
  217MPD1    C5 3351   1.915   4.218   8.658  0.1616 -0.5588  0.3005
  217MPD1     H 3352   1.667   4.021   8.438 -0.4430 -0.9855  1.8037
  217MPD1    H1 3353   1.829   4.100   8.820 -0.3094  2.2191  1.5498
  217MPD1    H2 3354   1.975   4.321   8.486  0.0773 -0.9332 -0.4904
  217MPD1    H3 3355   1.986   4.266   8.725  0.0404  1.4583 -1.0270
  217MPD1     N 3356   1.679   3.934   8.683 -0.0172 -0.2558  0.2980
  217MPD1    H5 3357   1.671   3.919   8.783  0.1446 -0.7479  0.2380
  217MPD1    N1 3358   1.810   4.213   8.305 -0.1207  0.0608  0.5207
  217MPD1    H6 3359   1.883   4.266   8.259  0.0183 -0.6219 -0.0521
  217MPD1    H7 3360   1.771   4.139   8.248 -0.8765  0.0011  1.1174
  218MPD1     C 3361   2.162   2.965  12.186  0.1341 -0.3080  0.1106
  218MPD1    C1 3362   2.150   3.101  12.218 -0.5218  0.1478  0.2268
  218MPD1    C2 3363   2.268   3.171  12.196  0.1035  0.3258 -0.2976
  218MPD1    C3 3364   2.391   3.111  12.189  0.5093 -0.1636 -0.1964
  218MPD1    C4 3365   2.402   2.978  12.170 -0.2079  0.3065 -0.7462
  218MPD1    C5 3366   2.284   2.903  12.168 -0.5450  0.1052 -0.2807
  218MPD1     H 3367   2.270   3.278  12.215  0.6006  0.4699 -1.1822
  218MPD1    H1 3368   2.494   2.929  12.140 -0.2878 -0.1020 -0.3293
  218MPD1    H2 3369   2.071   2.907  12.185 -1.9388  2.9422 -0.9421
  218MPD1    H3 3370   2.282   2.795  12.164  0.3025  0.0631  0.3519
  218MPD1     N 3371   2.510   3.185  12.198 -0.1160  0.5800  0.0754
  218MPD1    H5 3372   2.508   3.286  12.193 -2.6466  0.6395  2.1476
  218MPD1    N1 3373   2.027   3.161  12.240  0.3378  0.0398  0.4288
  218MPD1    H6 3374   1.965   3.096  12.289 -0.4189 -1.5797 -2.6574
  218MPD1    H7 3375   2.034   3.245  12.296 -1.1167 -0.9183  2.0315
  219MPD1     C 3376   2.661   3.967  11.875  0.4172 -0.1066  0.7018
  219MPD1    C1 3377   2.781   3.953  11.945 -0.1137 -0.3415 -0.0827
  219MPD1    C2 3378   2.796   3.829  12.014  0.1511  0.2221  0.6126
  219MPD1    C3 3379   2.711   3.727  11.996  0.2446  0.5844 -0.2845
  219MPD1    C4 3380   2.605   3.736  11.910 -0.2066  0.2158  0.3506
  219MPD1    C5 3381   2.588   3.855  11.844 -0.0769 -0.3913 -0.0594
  219MPD1     H 3382   2.874   3.825  12.089  1.9473 -0.7517 -1.3048
  219MPD1    H1 3383   2.545   3.649  11.889 -1.3219  1.0890 -0.0697
  219MPD1    H2 3384   2.624   4.056  11.825  1.1537 -0.3894 -0.3549
  219MPD1    H3 3385   2.498   3.867  11.785  0.1234 -0.4520 -0.3753
  219MPD1     N 3386   2.740   3.599  12.057 -0.0085  0.0894 -0.4241
  219MPD1    H5 3387   2.676   3.525  12.033 -0.8158  0.1212  1.6421
  219MPD1    N1 3388   2.857   4.064  11.985 -0.7337 -0.0171  0.5905
  219MPD1    H6 3389   2.874   4.133  11.912  1.3786 -0.6324  0.5138
  219MPD1    H7 3390   2.946   4.033  12.022 -0.8403 -0.0082  0.8563
  220MPD1     C 3391   3.077   4.595   9.362 -0.8493 -0.4629 -0.5664
  220MPD1    C1 3392   3.181   4.625   9.446  0.3293  0.0271  0.4954
  220MPD1    C2 3393   3.165   4.580   9.577  0.2961  0.5118 -0.5197
  220MPD1    C3 3394   3.057   4.498   9.611 -0.0410  0.4185 -0.1284
  220MPD1    C4 3395   2.960   4.479   9.517  0.0461 -0.6471 -0.2315
  220MPD1    C5 3396   2.974   4.517   9.391 -0.5706 -0.2907 -0.1743
  220MPD1     H 3397   3.226   4.621   9.656  0.1498 -0.4409  0.0939
  220MPD1    H1 3398   2.868   4.426   9.538  0.6876 -1.1085  1.3695
  220MPD1    H2 3399   3.068   4.640   9.264 -0.1054  0.4269 -0.2254
  220MPD1    H3 3400   2.905   4.493   9.311  0.6542  0.8799 -1.5731
  220MPD1     N 3401   3.049   4.451   9.744  0.6414 -0.4646  0.4487
  220MPD1    H5 3402   3.114   4.483   9.816  1.4099  1.1217 -0.9610
  220MPD1    N1 3403   3.278   4.717   9.412 -0.0182  0.1400 -0.1785
  220MPD1    H6 3404   3.292   4.734   9.312 -0.8731 -1.2430 -0.5415
  220MPD1    H7 3405   3.366   4.689   9.455 -0.8851  0.6232  1.9104
  221MPD1     C 3406   0.468   3.556  17.221 -0.2240 -1.4672 -0.6918
  221MPD1    C1 3407   0.503   3.512  17.097  0.5935  0.9521 -0.5535
  221MPD1    C2 3408   0.621   3.446  17.073 -0.0316 -0.0408  0.0138
  221MPD1    C3 3409   0.698   3.394  17.175 -0.4359  0.0695  0.5073
  221MPD1    C4 3410   0.664   3.433  17.303 -0.1262  0.2057  0.1837
  221MPD1    C5 3411   0.555   3.520  17.321 -0.4157 -0.0632  0.8102
  221MPD1     H 3412   0.660   3.446  16.972 -1.2491 -2.8718 -0.4357
  221MPD1    H1 3413   0.720   3.409  17.392 -1.8912 -0.6046  1.0712
  221MPD1    H2 3414   0.391   3.626  17.251  0.6207 -2.2786  3.4646
  221MPD1    H3 3415   0.541   3.549  17.425 -2.1368  1.0926  0.2559
  221MPD1     N 3416   0.808   3.304  17.152 -0.2674  0.1604 -0.1394
  221MPD1    H5 3417   0.846   3.270  17.239 -0.8784 -0.7407 -0.2256
  221MPD1    N1 3418   0.444   3.589  16.994  0.2436 -0.8729 -0.4263
  221MPD1    H6 3419   0.344   3.596  17.009 -0.4993 -0.6136 -5.6063
  221MPD1    H7 3420   0.451   3.525  16.916  0.9647 -1.5344  0.1781
  222MPD1     C 3421   4.460   2.177  16.714 -0.4160  0.5147  0.4164
  222MPD1    C1 3422   4.349   2.220  16.779  0.4951  0.2140 -0.1778
  222MPD1    C2 3423   4.354   2.208  16.916 -0.4239  0.4742 -0.0654
  222MPD1    C3 3424   4.442   2.124  16.989 -0.0263  0.3338  0.5632
  222MPD1    C4 3425   4.545   2.067  16.917 -0.2357 -0.2727  0.1445
  222MPD1    C5 3426   4.549   2.094  16.780 -0.1093 -0.3880  0.3848
  222MPD1     H 3427   4.270   2.249  16.971 -1.1490 -0.5719 -0.3917
  222MPD1    H1 3428   4.621   2.006  16.964 -1.6539 -1.1844  1.2177
  222MPD1    H2 3429   4.481   2.183  16.608  1.8612 -0.6350  0.7955
  222MPD1    H3 3430   4.628   2.045  16.724 -0.3262 -2.0146  1.5031
  222MPD1     N 3431   4.444   2.103  17.127  0.1946  0.7782  0.2136
  222MPD1    H5 3432   4.519   2.043  17.161 -1.4635 -1.6387 -0.3606
  222MPD1    N1 3433   4.247   2.291  16.706 -0.0332  0.3245  0.0340
  222MPD1    H6 3434   4.240   2.258  16.610  0.8000 -0.5567  0.2725
  222MPD1    H7 3435   4.158   2.283  16.756 -0.5212 -0.1691 -0.9147
  223MPD1     C 3436   4.526   1.280  17.462  0.2356  0.2617 -0.3631
  223MPD1    C1 3437   4.581   1.355  17.366 -0.5857 -0.1576 -0.3845
  223MPD1    C2 3438   4.561   1.492  17.374  0.6482  0.3736  0.3267
  223MPD1    C3 3439   4.467   1.544  17.459 -0.2507 -0.0113  0.1009
  223MPD1    C4 3440   4.409   1.458  17.556  0.2531  0.0896 -0.1372
  223MPD1    C5 3441   4.445   1.333  17.556  0.2629 -0.3366  0.5841
  223MPD1     H 3442   4.617   1.555  17.306  2.4481 -2.0051 -0.3958
  223MPD1    H1 3443   4.340   1.495  17.631 -1.6551 -0.6937 -1.5030
  223MPD1    H2 3444   4.533   1.172  17.462  0.8844  0.2959  2.6778
  223MPD1    H3 3445   4.399   1.261  17.622 -1.3261  1.1578  1.0890
  223MPD1     N 3446   4.447   1.681  17.454  0.4166  0.1782  0.1921
  223MPD1    H5 3447   4.490   1.733  17.378  0.7477 -0.2070  0.1138
  223MPD1    N1 3448   4.676   1.298  17.281 -0.5878  0.5061  0.6772
  223MPD1    H6 3449   4.663   1.200  17.257  1.5682 -0.2184  2.5037
  223MPD1    H7 3450   4.693   1.356  17.199 -3.7170  0.2790 -0.1262
  224MPD1     C 3451   1.427   4.367   9.190 -0.7764 -0.6908  0.1947
  224MPD1    C1 3452   1.439   4.230   9.170 -0.5607 -0.0665  0.9690
  224MPD1    C2 3453   1.493   4.149   9.274 -0.3427  0.1904  0.4800
  224MPD1    C3 3454   1.513   4.201   9.406  0.1781 -0.3018  0.2123
  224MPD1    C4 3455   1.482   4.335   9.425 -0.2103 -0.2114 -0.0934
  224MPD1    C5 3456   1.434   4.411   9.324  0.4462 -0.6317  0.5120
  224MPD1     H 3457   1.503   4.045   9.244  0.8221  0.1470  1.0503
  224MPD1    H1 3458   1.480   4.385   9.521 -0.7919 -1.3190  0.4798
  224MPD1    H2 3459   1.391   4.427   9.108  2.1497  0.9852  0.1248
  224MPD1    H3 3460   1.395   4.511   9.343  2.1410  0.8145 -3.5043
  224MPD1     N 3461   1.551   4.122   9.513 -0.2752  0.0594 -0.3668
  224MPD1    H5 3462   1.539   4.170   9.601  0.6195  0.4955 -0.4840
  224MPD1    N1 3463   1.445   4.172   9.037 -0.4200 -0.0319  0.0956
  224MPD1    H6 3464   1.387   4.216   8.966  0.3290  1.0127  0.1316
  224MPD1    H7 3465   1.416   4.075   9.044 -2.5592  0.4930 -1.5570
  225MPD1     C 3466   2.725   4.584  11.912  0.2173  0.7282  0.2048
  225MPD1    C1 3467   2.743   4.615  12.046 -0.5991 -0.3594 -0.1731
  225MPD1    C2 3468   2.650   4.571  12.143 -0.0173 -0.6785 -0.3867
  225MPD1    C3 3469   2.532   4.510  12.095 -0.6940 -0.6211  0.2193
  225MPD1    C4 3470   2.520   4.478  11.960 -0.3521 -0.0074 -0.4379
  225MPD1    C5 3471   2.620   4.510  11.874  0.6429 -0.0378 -0.0418
  225MPD1     H 3472   2.662   4.604  12.246 -1.6938 -3.1319  0.6090
  225MPD1    H1 3473   2.437   4.417  11.928 -0.3026  0.8883 -2.2453
  225MPD1    H2 3474   2.788   4.622  11.832  0.4271 -0.1712 -0.0686
  225MPD1    H3 3475   2.616   4.475  11.772  2.4101 -1.6000  0.4264
  225MPD1     N 3476   2.432   4.457  12.182 -0.0703 -0.8403  0.0257
  225MPD1    H5 3477   2.351   4.412  12.141  0.1388 -1.0088 -0.1984
  225MPD1    N1 3478   2.868   4.673  12.083 -0.2489  0.4655 -0.4192
  225MPD1    H6 3479   2.891   4.724  11.998  1.1432  0.2132 -0.2047
  225MPD1    H7 3480   2.861   0.003  12.160  0.5020 -0.6343  0.5987
  226MPD1     C 3481   1.465   0.128   8.685 -0.0009  0.3388  0.4840
  226MPD1    C1 3482   1.552   0.083   8.783  0.3207 -0.4896  0.2654
  226MPD1    C2 3483   1.568   0.164   8.890  0.3541  0.0536 -0.6813
  226MPD1    C3 3484   1.509   0.288   8.904  0.1192 -1.0237 -0.3820
  226MPD1    C4 3485   1.418   0.329   8.808 -0.0962 -0.0639 -0.1512
  226MPD1    C5 3486   1.398   0.249   8.693  0.1608 -0.3129  0.0762
  226MPD1     H 3487   1.645   0.141   8.963 -1.0904  1.2614  1.2256
  226MPD1    H1 3488   1.371   0.426   8.811  0.8568  0.4460 -1.8391
  226MPD1    H2 3489   1.449   0.078   8.591  0.3159  0.0070  0.6084
  226MPD1    H3 3490   1.327   0.282   8.617 -0.4602  1.2327  1.3392
  226MPD1     N 3491   1.532   0.352   9.030 -0.2594 -0.8430  0.0137
  226MPD1    H5 3492   1.597   0.306   9.093 -2.0218 -0.1099  2.3611
  226MPD1    N1 3493   1.632   4.710   8.762  0.1165 -0.2332  0.9082
  226MPD1    H6 3494   1.577   4.641   8.711  1.7195  0.1330 -1.3379
  226MPD1    H7 3495   1.665   4.678   8.853 -1.3574 -3.4476  0.3068
  227MPD1     C 3496   1.590   1.324   9.226 -0.3585 -0.0282 -0.2326
  227MPD1    C1 3497   1.578   1.238   9.113  0.2327 -0.2018 -0.3189
  227MPD1    C2 3498   1.575   1.103   9.136 -0.0518  0.5925  0.0196
  227MPD1    C3 3499   1.561   1.053   9.262 -0.7955 -1.0002 -0.5810
  227MPD1    C4 3500   1.566   1.138   9.373  0.1740  0.3406 -0.1500
  227MPD1    C5 3501   1.581   1.270   9.354  0.8614 -0.1194 -1.0354
  227MPD1     H 3502   1.586   1.030   9.057  1.1223  1.1237 -0.3132
  227MPD1    H1 3503   1.557   1.100   9.474 -2.2251  0.8054 -0.1942
  227MPD1    H2 3504   1.612   1.429   9.213 -0.4661 -0.1848 -1.6820
  227MPD1    H3 3505   1.579   1.338   9.438 -0.2583 -3.6956  1.8233
  227MPD1     N 3506   1.554   0.911   9.269  0.3261  0.3528  0.1847
  227MPD1    H5 3507   1.551   0.856   9.185 -1.7600 -0.2751  0.6540
  227MPD1    N1 3508   1.604   1.277   8.978  0.5412  0.1257  0.0550
  227MPD1    H6 3509   1.576   1.372   8.954 -1.4449 -0.6517 -0.7275
  227MPD1    H7 3510   1.560   1.213   8.913  1.7244 -0.7560  0.1109
  228MPD1     C 3511   4.733   2.426  12.967  0.2794  1.0667 -0.1203
  228MPD1    C1 3512   4.610   2.466  12.912  0.1029  0.1930 -0.2829
  228MPD1    C2 3513   4.492   2.409  12.956  0.4727 -0.0028 -0.4740
  228MPD1    C3 3514   4.497   2.304  13.045  0.8581  0.0724 -0.1363
  228MPD1    C4 3515   4.619   2.253  13.091 -0.6208 -0.8685  0.2717
  228MPD1    C5 3516   4.735   2.323  13.057 -0.6135  0.3795  0.4107
  228MPD1     H 3517   4.398   2.455  12.927 -0.3520 -1.6796 -0.4765
  228MPD1    H1 3518   4.623   2.165  13.154  1.8122  0.0606  1.4263
  228MPD1    H2 3519   0.082   2.492  12.963  0.3652  0.9949  0.6142
  228MPD1    H3 3520   0.093   2.288  13.097 -0.6272 -0.5338 -0.3558
  228MPD1     N 3521   4.374   2.246  13.078 -0.3139  0.3152  0.7539
  228MPD1    H5 3522   4.290   2.301  13.064 -0.5973 -0.1159  0.7323
  228MPD1    N1 3523   4.597   2.581  12.831  0.0548 -0.2537  0.0559
  228MPD1    H6 3524   4.526   2.574  12.759  2.3644 -1.2588 -2.1245
  228MPD1    H7 3525   4.686   2.607  12.788  1.8473 -1.5381  2.9722
  229MPD1     C 3526   3.608   0.981  14.300 -0.6974  0.3432 -0.2784
  229MPD1    C1 3527   3.673   0.861  14.264 -0.7441  0.2717 -0.8420
  229MPD1    C2 3528   3.738   0.790  14.367  0.2619  0.1284  0.2527
  229MPD1    C3 3529   3.743   0.831  14.502 -0.3350  0.1570  0.2036
  229MPD1    C4 3530   3.674   0.948  14.529 -0.6456 -0.1650 -0.0063
  229MPD1    C5 3531   3.616   1.026  14.429  0.1781 -0.0989  0.2025
  229MPD1     H 3532   3.791   0.698  14.347  0.0522 -0.0050  0.3070
  229MPD1    H1 3533   3.679   0.985  14.631 -2.7426  0.3431 -0.0925
  229MPD1    H2 3534   3.556   1.041  14.226 -0.4705 -1.5965 -2.0064
  229MPD1    H3 3535   3.571   1.116  14.469 -1.7631 -1.5665  1.3412
  229MPD1     N 3536   3.805   0.765  14.606 -0.0076  0.3231 -0.5728
  229MPD1    H5 3537   3.802   0.818  14.692 -0.7926 -1.3474  0.4392
  229MPD1    N1 3538   3.698   0.842  14.129 -0.2498  0.0596  0.1432
  229MPD1    H6 3539   3.723   0.744  14.115 -1.3704 -0.5218  2.2688
  229MPD1    H7 3540   3.618   0.864  14.071 -1.3193  1.3079  2.1023
  230MPD1     C 3541   3.559   1.052  15.340 -0.4284 -0.5785  0.3422
  230MPD1    C1 3542   3.603   1.112  15.226  0.7627  0.4341  0.5172
  230MPD1    C2 3543   3.679   1.027  15.153 -0.1005  0.1995  0.4762
  230MPD1    C3 3544   3.681   0.891  15.167  0.3382  0.5580  0.1166
  230MPD1    C4 3545   3.616   0.838  15.274 -0.0880  0.1669  0.5940
  230MPD1    C5 3546   3.559   0.917  15.367 -0.8255 -0.7592 -0.2200
  230MPD1     H 3547   3.741   1.069  15.074  1.6650  0.2437  1.8897
  230MPD1    H1 3548   3.617   0.736  15.310  0.5151 -0.2522 -0.6251
  230MPD1    H2 3549   3.506   1.111  15.415  0.6593  1.4225 -0.4455
  230MPD1    H3 3550   3.534   0.878  15.465  0.2587  0.1008  0.3881
  230MPD1     N 3551   3.757   0.823  15.074  0.0216  0.7100 -0.4369
  230MPD1    H5 3552   3.779   0.876  14.990 -1.8184  0.2110 -1.2312
  230MPD1    N1 3553   3.611   1.252  15.208  0.2238  0.3763  0.2253
  230MPD1    H6 3554   3.611   1.272  15.108 -1.9813  3.4086  0.8395
  230MPD1    H7 3555   3.532   1.300  15.249 -0.6023  0.2239 -1.1934
  231MPD1     C 3556   2.437   3.153  15.938  0.3513  0.6322  0.3270
  231MPD1    C1 3557   2.359   3.136  15.831 -0.1037  1.0071 -0.0152
  231MPD1    C2 3558   2.409   3.186  15.714  0.6564  0.2109 -0.1860
  231MPD1    C3 3559   2.526   3.260  15.705  0.8430 -0.0110  0.0191
  231MPD1    C4 3560   2.599   3.275  15.820  0.5026  0.2352  0.6106
  231MPD1    C5 3561   2.558   3.217  15.933 -1.0954 -0.4290  0.3023
  231MPD1     H 3562   2.350   3.167  15.626  0.1890  1.2182 -0.0926
  231MPD1    H1 3563   2.695   3.325  15.821  0.0801  1.1178 -1.6469
  231MPD1    H2 3564   2.407   3.107  16.031 -0.3228 -0.3805 -0.3931
  231MPD1    H3 3565   2.617   3.231  16.023  0.8640  0.3503 -1.1067
  231MPD1     N 3566   2.566   3.308  15.576 -0.0458 -0.1613 -0.1673
  231MPD1    H5 3567   2.506   3.282  15.498  0.3722 -1.6952  0.0285
  231MPD1    N1 3568   2.250   3.048  15.834  0.8266  0.0760 -0.1022
  231MPD1    H6 3569   2.170   3.071  15.776  1.6499 -1.7581 -1.9593
  231MPD1    H7 3570   2.216   3.035  15.929 -1.2867  1.0958 -0.7291
  232MPD1     C 3571   4.485   0.232  17.584 -0.2946 -0.3851 -0.7836
  232MPD1    C1 3572   4.421   0.346  17.635  0.0855 -0.0436 -0.0477
  232MPD1    C2 3573   4.283   0.335  17.652  0.3444  0.6401 -0.0021
  232MPD1    C3 3574   4.217   0.219  17.614  0.1528  0.0276  0.2971
  232MPD1    C4 3575   4.283   0.110  17.571  0.3115  0.0892 -0.2813
  232MPD1    C5 3576   4.416   0.117  17.564 -0.8746 -0.5158 -0.4769
  232MPD1     H 3577   4.217   0.418  17.678  0.7992  1.5918 -1.8377
  232MPD1    H1 3578   4.241   0.011  17.558  0.8274  0.0563 -1.6436
  232MPD1    H2 3579   4.591   0.213  17.595 -0.4629  0.0317  1.6698
  232MPD1    H3 3580   4.470   0.028  17.538  1.3737  0.9962 -0.9822
  232MPD1     N 3581   4.078   0.221  17.620 -0.3203  0.9523 -0.3452
  232MPD1    H5 3582   4.038   0.291  17.682 -0.0259 -0.1392  1.0803
  232MPD1    N1 3583   4.499   0.461  17.647  0.4082 -0.5481 -0.0246
  232MPD1    H6 3584   4.578   0.427  17.701  1.8404 -0.9337 -2.3406
  232MPD1    H7 3585   4.444   0.529  17.700  1.4865 -1.1030  1.7767
  233MPD1     C 3586   0.845   1.158   2.272 -0.4919 -0.0337 -0.2915
  233MPD1    C1 3587   0.800   1.204   2.152  0.1923 -0.3528  0.3857
  233MPD1    C2 3588   0.893   1.257   2.064 -0.4226  0.8889 -0.8284
  233MPD1    C3 3589   1.030   1.249   2.086  0.1913  0.3828 -0.5629
  233MPD1    C4 3590   1.070   1.197   2.202 -0.6905  0.2206  0.5968
  233MPD1    C5 3591   0.979   1.148   2.294  0.7396  0.4093  0.0766
  233MPD1     H 3592   0.850   1.306   1.977  0.5933 -0.5825 -2.1794
  233MPD1    H1 3593   1.177   1.190   2.214 -0.6099 -0.8167 -0.6620
  233MPD1    H2 3594   0.781   1.137   2.357  1.4434  0.8853  1.4260
  233MPD1    H3 3595   1.014   1.125   2.394  0.5317 -0.1333  0.0210
  233MPD1     N 3596   1.130   1.297   1.997 -0.3101 -0.2323 -0.3888
  233MPD1    H5 3597   1.226   1.283   2.026 -0.0349 -0.6056 -1.4847
  233MPD1    N1 3598   0.658   1.214   2.140  0.2217 -0.0004 -0.7217
  233MPD1    H6 3599   0.618   1.198   2.048  0.2171 -0.7947 -0.5817
  233MPD1    H7 3600   0.615   1.144   2.200 -0.5028  0.9125 -0.1605
  234MPD1     C 3601   2.077   2.109   9.545  0.2767  0.0457 -0.6921
  234MPD1    C1 3602   2.107   2.185   9.653  0.8184  0.1909  0.0691
  234MPD1    C2 3603   2.064   2.315   9.653  0.4158  0.3600 -0.1714
  234MPD1    C3 3604   1.999   2.369   9.545 -0.2387 -0.0587 -0.2609
  234MPD1    C4 3605   1.962   2.287   9.437 -0.1441 -0.5066  0.1411
  234MPD1    C5 3606   1.998   2.155   9.441  0.6917  0.1449  0.5463
  234MPD1     H 3607   2.087   2.388   9.730  0.4525  0.2543 -0.0823
  234MPD1    H1 3608   1.894   2.314   9.357  1.9077  0.7284 -1.1823
  234MPD1    H2 3609   2.101   2.004   9.551 -0.2894  0.0597  1.7684
  234MPD1    H3 3610   1.960   2.085   9.368  0.8815 -0.2787  0.8513
  234MPD1     N 3611   1.973   2.516   9.543  0.4541 -0.5946  0.0964
  234MPD1    H5 3612   1.972   2.564   9.633 -0.8059  0.4797 -0.4843
  234MPD1    N1 3613   2.157   2.122   9.773  0.1790  0.3233  0.0432
  234MPD1    H6 3614   2.215   2.175   9.838  1.0814 -0.5270 -0.0694
  234MPD1    H7 3615   2.195   2.028   9.764 -1.7994 -0.6925  2.3016
  235MPD1     C 3616   3.458   4.496  11.391 -0.2544 -0.1153 -0.5684
  235MPD1    C1 3617   3.567   4.458  11.318 -0.9397 -0.1693  1.1732
  235MPD1    C2 3618   3.591   4.527  11.202  0.4879 -0.0228  0.1199
  235MPD1    C3 3619   3.518   4.645  11.181  0.1217  0.3494 -0.0077
  235MPD1    C4 3620   3.416   4.697  11.265  0.1064 -0.6242  0.0083
  235MPD1    C5 3621   3.385   4.616  11.367 -0.6954 -0.0673 -0.4575
  235MPD1     H 3622   3.663   4.498  11.127  2.2281  0.8751  1.4387
  235MPD1    H1 3623   3.352   0.039  11.228  0.8065  1.2021  2.6393
  235MPD1    H2 3624   3.421   4.427  11.467 -0.9726  0.0412 -0.7717
  235MPD1    H3 3625   3.284   4.628  11.406 -0.6079 -1.5591  0.2178
  235MPD1     N 3626   3.531   4.721  11.063 -0.0840  0.4595  0.7872
  235MPD1    H5 3627   3.465   0.061  11.062 -0.3027  0.2545 -1.3028
  235MPD1    N1 3628   3.627   4.333  11.338  0.4083 -0.2765  0.1683
  235MPD1    H6 3629   3.723   4.334  11.304  0.3836  0.2027  0.1191
  235MPD1    H7 3630   3.636   4.320  11.439 -0.0598 -1.6752  0.0429
  236MPD1     C 3631   2.446   1.188  10.283 -0.7589 -0.6529 -0.4401
  236MPD1    C1 3632   2.552   1.254  10.233 -0.5542  0.3643  0.0588
  236MPD1    C2 3633   2.680   1.240  10.288 -0.2683 -0.2803 -0.0451
  236MPD1    C3 3634   2.692   1.158  10.402 -0.1831 -0.0589  0.5408
  236MPD1    C4 3635   2.577   1.093  10.449  0.4406 -0.1323 -0.1536
  236MPD1    C5 3636   2.456   1.108  10.389  0.7064  0.5893  0.1950
  236MPD1     H 3637   2.763   1.285  10.234  0.1015 -1.0319 -0.0923
  236MPD1    H1 3638   2.578   1.016  10.526  1.1735  1.1779  1.1564
  236MPD1    H2 3639   2.353   1.188  10.226 -1.1002 -0.5706  0.1185
  236MPD1    H3 3640   2.376   1.048  10.432 -0.0225  1.3006 -0.1658
  236MPD1     N 3641   2.819   1.141  10.464  0.4390 -0.0991 -0.1035
  236MPD1    H5 3642   2.804   1.082  10.545  1.7809 -0.2857  0.0026
  236MPD1    N1 3643   2.528   1.319  10.111  0.4255 -0.4690  0.2969
  236MPD1    H6 3644   2.433   1.349  10.094  0.4365 -0.6323 -0.0598
  236MPD1    H7 3645   2.598   1.391  10.092  2.7441 -2.5760  0.7366
  237MPD1     C 3646   2.690   4.147  15.375 -0.4802  0.0690 -1.3354
  237MPD1    C1 3647   2.629   4.246  15.293  0.0152 -0.5068  0.2811
  237MPD1    C2 3648   2.492   4.236  15.292 -0.1549  0.2596 -0.0251
  237MPD1    C3 3649   2.424   4.151  15.375 -0.3951  0.1987  0.1289
  237MPD1    C4 3650   2.491   4.052  15.447 -0.2889  0.4387 -0.3201
  237MPD1    C5 3651   2.629   4.051  15.445 -0.5737  0.2702  0.2653
  237MPD1     H 3652   2.443   4.305  15.225 -2.4955 -1.4373 -0.0561
  237MPD1    H1 3653   2.444   3.971  15.502 -0.7339  0.4745 -0.6570
  237MPD1    H2 3654   2.796   4.128  15.362 -0.0130  0.1868  2.2476
  237MPD1    H3 3655   2.685   3.963  15.475 -2.2221 -1.2138 -0.9615
  237MPD1     N 3656   2.285   4.148  15.383 -0.1385 -0.1944  0.8116
  237MPD1    H5 3657   2.237   4.072  15.430 -2.8090  1.8406  1.3451
  237MPD1    N1 3658   2.694   4.329  15.199 -0.0288 -0.7295  0.0983
  237MPD1    H6 3659   2.629   4.403  15.172 -0.3135 -0.8990  0.3110
  237MPD1    H7 3660   2.774   4.369  15.249  2.2024 -1.2485 -3.0514
  238MPD1     C 3661   4.200   3.027  15.619 -1.0745  0.1803  0.0801
  238MPD1    C1 3662   4.252   3.061  15.503  0.6122 -0.0924 -0.1055
  238MPD1    C2 3663   4.196   3.005  15.396 -0.6369  0.6821  1.0983
  238MPD1    C3 3664   4.089   2.918  15.395 -0.3917  0.6093  0.1114
  238MPD1    C4 3665   4.036   2.892  15.520 -0.2846  0.2190 -0.2518
  238MPD1    C5 3666   4.095   2.942  15.632  0.3196 -0.1908  0.3956
  238MPD1     H 3667   4.251   3.012  15.302  1.2020 -0.8457  2.0683
  238MPD1    H1 3668   3.942   2.839  15.532  0.0188 -0.3218 -0.2662
  238MPD1    H2 3669   4.225   3.076  15.712  0.9233 -0.3270 -0.1893
  238MPD1    H3 3670   4.053   2.925  15.730 -0.2295  0.0077  0.1970
  238MPD1     N 3671   4.030   2.857  15.280  0.1048  0.2047  0.3320
  238MPD1    H5 3672   3.951   2.794  15.293 -0.0856  0.4976  0.6028
  238MPD1    N1 3673   4.370   3.127  15.499 -0.6978  0.0044  0.1135
  238MPD1    H6 3674   4.385   3.180  15.585 -0.9704  1.2098 -0.5788
  238MPD1    H7 3675   4.368   3.187  15.417 -1.3111 -1.7702 -1.1627
  239MPD1     C 3676   4.071   3.724  14.854 -0.3040  0.9634  0.5823
  239MPD1    C1 3677   4.053   3.623  14.755 -0.7952 -0.1855  0.5172
  239MPD1    C2 3678   4.135   3.634  14.638  0.0363 -0.3964  0.0347
  239MPD1    C3 3679   4.235   3.732  14.627  0.6953  0.0460 -0.5932
  239MPD1    C4 3680   4.255   3.819  14.738  0.0528  0.4171 -0.0983
  239MPD1    C5 3681   4.166   3.820  14.846  0.5634  0.0554  0.2672
  239MPD1     H 3682   4.123   3.557  14.563 -0.4096  0.0760 -0.3757
  239MPD1    H1 3683   4.338   3.889  14.735  0.4769 -0.0202  1.3002
  239MPD1    H2 3684   4.016   3.710  14.946 -0.4420 -2.2613  0.0014
  239MPD1    H3 3685   4.175   3.884  14.933  1.6501 -0.0194  0.2034
  239MPD1     N 3686   4.309   3.755  14.513 -0.2002 -0.1816  0.3944
  239MPD1    H5 3687   4.380   3.826  14.514 -0.1485 -0.1799 -1.8556
  239MPD1    N1 3688   3.942   3.539  14.765 -0.3320 -1.3965 -0.0880
  239MPD1    H6 3689   3.969   3.450  14.726  0.2906 -0.4480 -1.8359
  239MPD1    H7 3690   3.920   3.525  14.864 -0.7239 -0.1881  0.0036
  240MPD1     C 3691   3.573   3.642  13.608  0.4911  0.0390  0.0702
  240MPD1    C1 3692   3.559   3.507  13.575  0.3115 -0.4929 -0.0158
  240MPD1    C2 3693   3.572   3.408  13.674 -0.1406  0.1406  0.8380
  240MPD1    C3 3694   3.619   3.453  13.799  0.4075 -0.3191  0.0913
  240MPD1    C4 3695   3.630   3.586  13.824 -0.1086 -0.1145  0.3075
  240MPD1    C5 3696   3.598   3.680  13.738 -0.3279  0.1686 -0.0444
  240MPD1     H 3697   3.557   3.302  13.654 -2.0544  0.7119 -0.6772
  240MPD1    H1 3698   3.653   3.623  13.923  1.2646  0.8022 -0.3462
  240MPD1    H2 3699   3.550   3.719  13.535  2.6804  2.2305  1.6844
  240MPD1    H3 3700   3.591   3.783  13.770  0.9158  0.5878 -1.1098
  240MPD1     N 3701   3.654   3.354  13.892 -0.0290 -0.4643 -0.0256
  240MPD1    H5 3702   3.652   3.259  13.858 -1.4218 -0.0917 -0.9860
  240MPD1    N1 3703   3.498   3.462  13.453  0.0779 -0.2743 -0.5517
  240MPD1    H6 3704   3.490   3.362  13.434 -0.2060 -0.4659  0.5889
  240MPD1    H7 3705   3.534   3.505  13.368 -2.5916  2.2125 -0.4529
  241MPD1     C 3706   4.151   3.235  14.782  0.8632 -0.2115  0.5046
  241MPD1    C1 3707   4.023   3.193  14.802  0.7294 -0.1660 -0.1262
  241MPD1    C2 3708   3.942   3.172  14.691  0.1625 -0.3521  0.6168
  241MPD1    C3 3709   3.984   3.230  14.573 -0.7475  0.5004 -0.0946
  241MPD1    C4 3710   4.108   3.290  14.560 -0.1130  0.5636  0.7578
  241MPD1    C5 3711   4.195   3.283  14.663 -0.3150  0.3589 -0.1832
  241MPD1     H 3712   3.848   3.119  14.700  0.0016 -0.0643  0.6140
  241MPD1    H1 3713   4.138   3.324  14.461 -1.9963 -0.1368 -0.0458
  241MPD1    H2 3714   4.222   3.224  14.863  0.8555 -0.6686  0.4486
  241MPD1    H3 3715   4.293   3.325  14.646  0.1354 -1.1677 -1.3794
  241MPD1     N 3716   3.904   3.223  14.456 -0.0762  0.1339 -0.1418
  241MPD1    H5 3717   3.955   3.253  14.373 -0.8940 -0.2251 -0.7773
  241MPD1    N1 3718   3.992   3.148  14.926 -0.0991  0.0436  0.2962
  241MPD1    H6 3719   4.023   3.205  15.004  1.1555  1.6707 -1.3778
  241MPD1    H7 3720   3.896   3.114  14.934 -0.5421  1.3063  0.3867
  242MPD1     C 3721   3.134   2.095  15.679  0.0119 -0.2539 -0.2384
  242MPD1    C1 3722   3.097   1.959  15.667 -0.7177 -0.1516 -0.1093
  242MPD1    C2 3723   3.149   1.887  15.564  0.2657 -0.1678 -0.3646
  242MPD1    C3 3724   3.230   1.955  15.462 -0.1782  0.0653  0.2413
  242MPD1    C4 3725   3.267   2.082  15.480  0.1217  0.7803  0.7810
  242MPD1    C5 3726   3.214   2.149  15.589  0.3057 -0.3386  0.4552
  242MPD1     H 3727   3.137   1.779  15.571 -0.8754 -0.1508 -1.7881
  242MPD1    H1 3728   3.335   2.136  15.415 -0.5406 -1.2392 -1.6011
  242MPD1    H2 3729   3.106   2.145  15.771 -0.3938  0.0868 -0.5486
  242MPD1    H3 3730   3.232   2.255  15.600  2.1745 -0.7680  1.4237
  242MPD1     N 3731   3.302   1.886  15.360 -0.0122  0.1518 -0.4787
  242MPD1    H5 3732   3.376   1.937  15.312  0.6464 -0.5264 -0.1934
  242MPD1    N1 3733   3.028   1.900  15.775  0.0680  0.3984  0.5659
  242MPD1    H6 3734   2.978   1.821  15.733 -0.7969  0.9367  0.5870
  242MPD1    H7 3735   2.958   1.958  15.821  1.2541  0.7764  1.9037
  243MPD1     C 3736   0.740   1.151  16.828 -0.3657  0.4268 -0.5629
  243MPD1    C1 3737   0.682   1.105  16.948  1.2863  0.7831  0.1766
  243MPD1    C2 3738   0.645   0.971  16.951  0.1677 -0.3562 -0.1529
  243MPD1    C3 3739   0.650   0.899  16.835  0.1569 -0.1282 -0.1591
  243MPD1    C4 3740   0.705   0.945  16.717 -0.3114  0.6869 -0.1433
  243MPD1    C5 3741   0.762   1.068  16.721 -0.0747  0.1638 -0.1927
  243MPD1     H 3742   0.613   0.928  17.045 -0.8952  1.4423  0.3148
  243MPD1    H1 3743   0.714   0.884  16.628 -0.2944  0.9340 -0.3130
  243MPD1    H2 3744   0.771   1.255  16.819  2.5867 -0.4782 -0.7384
  243MPD1    H3 3745   0.816   1.103  16.633  0.5181 -0.2703 -0.0035
  243MPD1     N 3746   0.610   0.764  16.840  0.2377  0.5125 -0.1341
  243MPD1    H5 3747   0.575   0.730  16.929  2.0577 -1.7756 -0.2688
  243MPD1    N1 3748   0.660   1.190  17.059 -0.2223 -0.3048  0.8812
  243MPD1    H6 3749   0.659   1.289  17.035 -1.8733 -0.0504  1.9750
  243MPD1    H7 3750   0.579   1.170  17.118  1.1818  0.1301  2.9745
  244MPD1     C 3751   0.337   0.330  17.519  0.2632  0.5256  0.0778
  244MPD1    C1 3752   0.253   0.319  17.410  0.4631 -0.9248  0.7121
  244MPD1    C2 3753   0.306   0.313  17.285 -0.6145 -0.2384 -0.4500
  244MPD1    C3 3754   0.441   0.325  17.259 -0.4123 -0.2980  0.4252
  244MPD1    C4 3755   0.525   0.347  17.362  0.5870  0.4677  0.1354
  244MPD1    C5 3756   0.468   0.346  17.493  1.1382  0.3115  0.8040
  244MPD1     H 3757   0.245   0.300  17.197 -0.8255  0.9737 -0.4779
  244MPD1    H1 3758   0.632   0.353  17.349  0.2256  1.2113 -2.3491
  244MPD1    H2 3759   0.310   0.302  17.620  1.7384 -1.9424 -0.2382
  244MPD1    H3 3760   0.543   0.331  17.570  2.1211 -0.0234 -0.2327
  244MPD1     N 3761   0.483   0.342  17.128  0.1132  0.3280 -0.3201
  244MPD1    H5 3762   0.410   0.339  17.057  1.5143  0.0259 -1.7590
  244MPD1    N1 3763   0.117   0.289  17.425 -0.2897 -0.1085  0.4449
  244MPD1    H6 3764   0.080   0.336  17.507 -3.0031  0.0063 -0.8304
  244MPD1    H7 3765   0.067   0.325  17.344  0.3060  1.4545  0.7752
  245MPD1     C 3766   2.713   0.871  13.142  0.4806  0.4171 -0.0453
  245MPD1    C1 3767   2.847   0.889  13.157 -0.0344  0.0233  0.3965
  245MPD1    C2 3768   2.899   1.014  13.174  0.1225 -0.8094  0.0295
  245MPD1    C3 3769   2.819   1.119  13.168 -0.8669  0.1861  0.6017
  245MPD1    C4 3770   2.682   1.099  13.153  0.1262 -0.3050 -0.7065
  245MPD1    C5 3771   2.628   0.975  13.139 -0.2146  0.1992 -0.4934
  245MPD1     H 3772   3.003   1.033  13.199  1.0952 -1.6166 -3.3659
  245MPD1    H1 3773   2.615   1.184  13.164  0.5467 -0.0609 -0.0305
  245MPD1    H2 3774   2.681   0.768  13.128  2.7381 -0.4280  1.1471
  245MPD1    H3 3775   2.523   0.951  13.140 -0.0496 -0.4646  0.3581
  245MPD1     N 3776   2.882   1.238  13.204 -0.8519  0.6129 -0.0871
  245MPD1    H5 3777   2.964   1.221  13.262 -0.5288 -2.0435 -1.2948
  245MPD1    N1 3778   2.934   0.774  13.169 -0.7441  0.1938  0.1075
  245MPD1    H6 3779   2.916   0.692  13.111 -1.2379 -0.2997  0.9491
  245MPD1    H7 3780   3.027   0.799  13.136 -2.1538  1.5681 -2.8354
  246MPD1     C 3781   3.989   3.050  10.361 -0.8841  0.2615  0.3565
  246MPD1    C1 3782   4.097   2.967  10.321  0.2141  0.3270 -0.2029
  246MPD1    C2 3783   4.062   2.871  10.228 -0.1662 -0.3214  0.3772
  246MPD1    C3 3784   3.931   2.842  10.193 -0.5119  0.6388  0.7621
  246MPD1    C4 3785   3.826   2.909  10.255 -0.7008 -0.1829  0.5112
  246MPD1    C5 3786   3.857   3.030  10.315 -0.7069 -0.5383 -0.7117
  246MPD1     H 3787   4.139   2.806  10.187  1.4038  0.1015  2.6849
  246MPD1    H1 3788   3.723   2.890  10.226 -0.1374  0.5460 -1.9395
  246MPD1    H2 3789   4.000   3.139  10.422 -0.5051 -0.1288  0.8585
  246MPD1    H3 3790   3.780   3.100  10.344 -1.5496 -0.8930 -2.0648
  246MPD1     N 3791   3.906   2.739  10.097 -0.1380 -0.2113  0.4324
  246MPD1    H5 3792   3.985   2.700  10.046  0.5543 -0.5669  1.7860
  246MPD1    N1 3793   4.230   3.013  10.340 -0.7673 -0.2848 -0.3354
  246MPD1    H6 3794   4.243   3.071  10.422 -1.3853 -0.8334  0.1481
  246MPD1    H7 3795   4.301   2.940  10.329 -1.1595 -0.6948 -0.1332
  247MPD1     C 3796   0.705   0.162  16.015  0.4686  0.6972 -0.2712
  247MPD1    C1 3797   0.754   0.288  15.978 -0.9137 -0.1433 -0.2084
  247MPD1    C2 3798   0.894   0.289  15.942  0.5280 -0.1210  0.2377
  247MPD1    C3 3799   0.978   0.180  15.957  0.2854  0.5508 -0.0430
  247MPD1    C4 3800   0.917   0.062  15.984  0.2818  0.1346  0.2884
  247MPD1    C5 3801   0.784   0.050  16.007  0.5257 -0.0884  0.3325
  247MPD1     H 3802   0.925   0.387  15.909 -1.5213  0.1112 -0.9697
  247MPD1    H1 3803   0.972   4.705  15.981  1.9775  1.0743  2.2650
  247MPD1    H2 3804   0.600   0.152  16.041  0.2936  2.5029 -0.2801
  247MPD1    H3 3805   0.735   4.691  16.016  0.4480 -0.0829 -0.0375
  247MPD1     N 3806   1.117   0.176  15.933 -0.5707  0.2316 -0.2991
  247MPD1    H5 3807   1.161   0.085  15.940 -1.6930 -0.2858 -0.0349
  247MPD1    N1 3808   0.666   0.392  15.932  0.3767 -0.2383 -0.5248
  247MPD1    H6 3809   0.708   0.484  15.936  1.5738 -0.7043 -2.3962
  247MPD1    H7 3810   0.587   0.397  15.996  1.7387 -2.0429  1.2626
  248MPD1     C 3811   2.396   1.375   0.563  0.0913  0.5843 -0.5208
  248MPD1    C1 3812   2.439   1.371   0.432  0.2202 -0.2826  0.2780
  248MPD1    C2 3813   2.382   1.281   0.346  0.1197 -0.8963  0.1662
  248MPD1    C3 3814   2.273   1.205   0.378 -0.7193  0.4044  0.4209
  248MPD1    C4 3815   2.229   1.214   0.503 -0.1430 -0.6454  0.2919
  248MPD1    C5 3816   2.298   1.290   0.600 -0.5190 -0.1683  0.2967
  248MPD1     H 3817   2.438   1.257   0.256 -1.4082 -2.8922 -0.2411
  248MPD1    H1 3818   2.141   1.156   0.528  0.0256 -2.1090 -2.5077
  248MPD1    H2 3819   2.434   1.441   0.640  1.6308  0.4903 -1.1989
  248MPD1    H3 3820   2.262   1.294   0.702  0.0532 -2.6939  0.5907
  248MPD1     N 3821   2.224   1.110   0.284 -0.0828  0.0216 -0.3167
  248MPD1    H5 3822   2.285   1.103   0.202  0.3525  0.1617 -0.0064
  248MPD1    N1 3823   2.556   1.439   0.395 -0.5149  0.2036 -0.2769
  248MPD1    H6 3824   2.561   1.535   0.430  0.2084 -0.6841  2.0184
  248MPD1    H7 3825   2.569   1.448   0.294 -0.9679 -0.1194 -0.3665
  249MPD1     C 3826   0.515   4.238   9.708  0.6561  0.3882  0.7247
  249MPD1    C1 3827   0.406   4.165   9.733  0.7043 -0.5049  0.5552
  249MPD1    C2 3828   0.289   4.230   9.800 -1.3396 -0.3521 -0.4839
  249MPD1    C3 3829   0.288   4.370   9.813 -0.3701  0.3816 -0.1146
  249MPD1    C4 3830   0.400   4.437   9.770  0.3587 -0.0457  0.0801
  249MPD1    C5 3831   0.506   4.371   9.721 -0.1894  0.5621 -0.1944
  249MPD1     H 3832   0.210   4.169   9.840 -2.6592  0.9105 -1.1722
  249MPD1    H1 3833   0.414   4.543   9.785 -1.4304  0.5336 -2.5024
  249MPD1    H2 3834   0.606   4.198   9.664 -0.2253  0.5036 -1.2231
  249MPD1    H3 3835   0.592   4.434   9.701  1.1387 -1.1590  0.1471
  249MPD1     N 3836   0.174   4.439   9.873 -0.7250  0.4777  0.3263
  249MPD1    H5 3837   0.114   4.376   9.926  1.4548 -0.8167  1.2712
  249MPD1    N1 3838   0.416   4.024   9.745  0.2298 -0.5000 -0.0714
  249MPD1    H6 3839   0.486   3.986   9.681  1.9783 -1.1223  2.1861
  249MPD1    H7 3840   0.330   3.975   9.723 -0.3872 -1.3329  4.0723
  250MPD2     C 3841   0.848   3.608  12.990 -0.4659  0.0557 -0.3032
  250MPD2    C1 3842   0.747   3.700  13.010  0.6453 -0.2863 -0.4940
  250MPD2    C2 3843   0.616   3.668  12.969  0.0828 -0.2486  0.1203
  250MPD2    C3 3844   0.589   3.551  12.892 -0.2008  0.2654  0.0248
  250MPD2    C4 3845   0.689   3.459  12.878  0.3009  0.4723  0.3627
  250MPD2    C5 3846   0.814   3.488  12.932  0.6499  0.2827  0.1104
  250MPD2     H 3847   0.532   3.735  12.980 -0.9927 -1.5321 -0.2558
  250MPD2    H1 3848   0.678   3.360  12.836  3.1730 -0.2983  1.4142
  250MPD2    H2 3849   0.949   3.615  13.028 -0.7577 -0.1093  0.5187
  250MPD2    H3 3850   0.892   3.414  12.918  1.4055  1.1445 -0.2698
  250MPD2     N 3851   0.470   3.527  12.825 -0.1907 -0.4491  0.8183
  250MPD2    H5 3852   0.467   3.435  12.783  3.7187 -1.5502  2.9978
  250MPD2    N1 3853   0.784   3.827  13.062 -0.3925 -0.0315  0.1936
  250MPD2    H7 3854   0.883   3.853  13.064 -0.5487  0.5461  0.7106
  251TMC3    C1 3855   0.757   4.042  13.136 -0.5956 -0.9209  0.0836
  251TMC3    C2 3856   0.691   4.129  13.216  0.6333  0.1036 -0.2881
  251TMC3    C3 3857   0.756   4.235  13.272  0.0789 -0.5569 -0.0802
  251TMC3    C4 3858   0.881   4.078  13.087 -0.0943 -0.1550 -0.4022
  251TMC3    C5 3859   0.941   4.181  13.145 -0.1222  0.4996 -0.2344
  251TMC3    C6 3860   0.883   4.266  13.237  0.6145  0.9851 -0.8995
  251TMC3     C 3861   0.692   3.922  13.097 -0.3993  0.7520 -0.3290
  251TMC3     O 3862   0.573   3.911  13.117  0.5733 -0.1595 -0.3611
  251TMC3     H 3863   0.597   4.091  13.253  1.7730 -2.0164  0.4202
  251TMC3    H1 3864   0.930   4.029  13.004 -0.2655 -0.9616 -0.0332
  251TMC3    H2 3865   0.931   4.353  13.281 -0.0236  1.3718 -0.9619
  251TMC3    C7 3866   1.081   4.192  13.125 -0.0924  0.3879  0.1660
  251TMC3    C8 3867   0.680   4.335  13.337  0.1530  0.0867 -0.3800
  251TMC3    O1 3868   1.128   4.086  13.087  0.6667  0.3253  0.6721
  251TMC3    O2 3869   0.743   4.420  13.402 -0.0883 -0.0499  0.3173
  252TMC3    C1 3870   1.203   1.354   9.315  0.4364 -0.0692  0.0731
  252TMC3    C2 3871   1.245   1.360   9.446  0.3780  0.5497 -0.1442
  252TMC3    C3 3872   1.260   1.236   9.513 -0.6029 -0.1525  0.1268
  252TMC3    C4 3873   1.172   1.234   9.251 -0.0979 -0.1462 -0.6773
  252TMC3    C5 3874   1.193   1.121   9.323 -0.0708 -0.0354  0.2360
  252TMC3    C6 3875   1.228   1.117   9.452 -0.0274 -0.2459  0.6630
  252TMC3     C 3876   1.212   1.474   9.233 -0.3509 -0.8076 -0.3824
  252TMC3     O 3877   1.197   1.454   9.114 -0.0253  0.4514 -0.2404
  252TMC3     H 3878   1.284   1.448   9.494 -1.3305  0.8922  0.6222
  252TMC3    H1 3879   1.124   1.228   9.154 -1.1932 -0.6468 -0.1082
  252TMC3    H2 3880   1.269   1.025   9.491 -0.3766 -0.8171 -0.3041
  252TMC3    C7 3881   1.182   0.997   9.238  0.0260 -0.1070  0.5720
  252TMC3    C8 3882   1.337   1.244   9.631 -0.6659  0.5374  0.7425
  252TMC3    O1 3883   1.171   1.004   9.117  0.1218  0.5458 -0.1169
  252TMC3    O2 3884   1.389   1.351   9.657  0.0290  0.4439  0.0175
  253MPD2     C 3885   1.905   4.576  15.705  0.5638  0.6420 -0.3128
  253MPD2    C1 3886   1.809   4.476  15.698 -0.1746 -0.6262 -0.1915
  253MPD2    C2 3887   1.794   4.375  15.797  0.1091 -0.2986 -0.4465
  253MPD2    C3 3888   1.869   4.382  15.916  0.1290 -0.1229  0.0743
  253MPD2    C4 3889   1.962   4.481  15.925 -1.1431  0.0496 -0.1843
  253MPD2    C5 3890   1.972   4.578  15.825 -0.6508 -0.0770  0.4312
  253MPD2     H 3891   1.715   4.305  15.772 -1.3411  0.7905  1.0643
  253MPD2    H1 3892   2.031   4.497  16.008 -0.8115  1.5555 -0.7509
  253MPD2    H2 3893   1.920   4.643  15.621  1.9059  0.7303  0.0055
  253MPD2    H3 3894   2.051   4.651  15.837  0.7313 -1.5168  0.1310
  253MPD2     N 3895   1.838   4.286  16.016  0.3407 -0.7577  0.9181
  253MPD2    H5 3896   1.898   4.290  16.097  0.9053 -2.8975  0.6005
  253MPD2    N1 3897   1.736   4.462  15.575 -0.2256 -0.2229 -0.0088
  253MPD2    H7 3898   1.658   4.397  15.579  0.2524 -0.5190  3.8698
  254TMC3    C1 3899   1.743   4.109  16.132 -0.5038  0.1896  0.2686
  254TMC3    C2 3900   1.614   4.065  16.168  0.1418  0.7122  0.1785
  254TMC3    C3 3901   1.613   3.979  16.279  0.8213 -0.1709 -0.0811
  254TMC3    C4 3902   1.859   4.085  16.203  0.4462 -0.5415 -0.1287
  254TMC3    C5 3903   1.847   4.002  16.314  0.2775  0.9487 -0.0155
  254TMC3    C6 3904   1.727   3.950  16.344  0.1315 -0.4715 -0.2777
  254TMC3     C 3905   1.730   4.198  16.019  0.4358  0.2441 -0.0938
  254TMC3     O 3906   1.631   4.198  15.948  0.7981 -0.1968 -0.3131
  254TMC3     H 3907   1.524   4.098  16.117  0.5176  0.4046 -0.6791
  254TMC3    H1 3908   1.962   4.107  16.177  0.4234 -0.0759  0.1853
  254TMC3    H2 3909   1.722   3.881  16.428 -0.3892 -0.9538 -0.7071
  254TMC3    C7 3910   1.933   4.021  16.433  0.1124  0.4392 -0.0647
  254TMC3    C8 3911   1.491   3.982  16.358  0.5337  0.4474  0.3796
  254TMC3    O1 3912   1.892   3.976  16.541 -0.8736  0.3830 -0.4762
  254TMC3    O2 3913   1.502   4.000  16.479 -0.2748 -0.1011 -0.4071
  255MPD2     C 3914   0.771   2.013   9.857  0.2651  0.2347  0.6654
  255MPD2    C1 3915   0.746   2.148   9.854 -0.6534 -0.3479 -0.0868
  255MPD2    C2 3916   0.806   2.226   9.753 -0.8898  1.3165  0.5727
  255MPD2    C3 3917   0.883   2.166   9.652 -0.7019  0.2569 -0.5297
  255MPD2    C4 3918   0.907   2.031   9.660 -0.1329  0.5618  0.3174
  255MPD2    C5 3919   0.854   1.955   9.766  0.4312  0.0739  0.1710
  255MPD2     H 3920   0.775   2.329   9.741 -1.1539  1.1226 -0.5085
  255MPD2    H1 3921   0.967   1.981   9.586  0.8636  0.7032  1.0312
  255MPD2    H2 3922   0.727   1.947   9.931  4.8672 -0.7534  2.5136
  255MPD2    H3 3923   0.863   1.848   9.780  1.1850  0.0338 -0.6127
  255MPD2     N 3924   0.918   2.244   9.537 -0.6758  0.3378  0.2739
  255MPD2    H5 3925   0.867   2.332   9.535 -0.0788  0.6849  0.4598
  255MPD2    N1 3926   0.662   2.197   9.959 -0.4840  0.4499 -0.4566
  255MPD2    H7 3927   0.598   2.138  10.010  0.7752 -1.6744 -1.3167
  256TMC3    C1 3928   0.526   2.352  10.056  0.2386  0.4834 -0.4977
  256TMC3    C2 3929   0.501   2.493  10.060 -0.3933 -0.6833 -0.1402
  256TMC3    C3 3930   0.363   2.525  10.072 -0.1072  0.2532 -0.1318
  256TMC3    C4 3931   0.435   2.254  10.060 -0.4205  0.3264 -0.0896
  256TMC3    C5 3932   0.306   2.297  10.063 -0.1624 -0.4329  0.1112
  256TMC3    C6 3933   0.269   2.431  10.058 -0.1429 -0.0485 -0.3588
  256TMC3     C 3934   0.645   2.331   9.983  1.3182  0.7391 -0.1481
  256TMC3     O 3935   0.711   2.427   9.943  0.0940  0.1343  0.1719
  256TMC3     H 3936   0.581   2.566  10.068 -1.4636  0.5338 -0.6524
  256TMC3    H1 3937   0.451   2.147  10.052 -2.9822 -0.1738  1.5615
  256TMC3    H2 3938   0.167   2.467  10.052  0.3780  1.4733 -0.3000
  256TMC3    C7 3939   0.217   2.203   9.997  0.1098 -0.4922  0.7020
  256TMC3    C8 3940   0.323   2.664  10.062  0.3844 -0.2353  0.2466
  256TMC3    O1 3941   0.267   2.110   9.931 -0.4392 -0.5978 -0.3302
  256TMC3    O2 3942   0.212   2.691  10.101 -0.1593  0.7989 -0.0251
  257MPD2     C 3943   3.905   4.130  13.396 -0.4427  0.8326  0.3388
  257MPD2    C1 3944   3.910   4.071  13.269 -0.4973  1.3534  0.4041
  257MPD2    C2 3945   3.955   3.938  13.265  0.4504  0.8752  0.0268
  257MPD2    C3 3946   3.968   3.870  13.388 -0.6894  0.1472  0.1027
  257MPD2    C4 3947   3.948   3.934  13.505 -0.1415 -0.2773 -0.2340
  257MPD2    C5 3948   3.920   4.066  13.509 -0.3171 -0.0906 -0.2725
  257MPD2     H 3949   3.966   3.888  13.170  1.9480 -1.6173  1.5092
  257MPD2    H1 3950   3.968   3.885  13.599 -1.3329 -0.7965 -0.2451
  257MPD2    H2 3951   3.884   4.236  13.404 -0.5712  0.9420 -1.4585
  257MPD2    H3 3952   3.903   4.120  13.601 -2.2898 -1.0953 -0.0611
  257MPD2     N 3953   4.009   3.731  13.377  0.0786 -0.7119  0.1740
  257MPD2    H5 3954   4.035   3.707  13.281  2.0311  0.9778  0.2846
  257MPD2    N1 3955   3.860   4.140  13.158 -0.2471  0.5390 -0.6215
  257MPD2    H7 3956   3.819   4.230  13.177 -1.1556 -0.5217  2.4950
  258TMC3    C1 3957   4.090   3.515  13.408  0.3207 -0.3909 -0.6206
  258TMC3    C2 3958   4.064   3.490  13.270  0.0767 -0.3514  0.1401
  258TMC3    C3 3959   4.079   3.359  13.232 -0.5406 -0.2542 -0.3345
  258TMC3    C4 3960   4.143   3.426  13.500 -0.4560  0.7089  0.1397
  258TMC3    C5 3961   4.141   3.303  13.457  0.3116  0.0086  0.2092
  258TMC3    C6 3962   4.113   3.267  13.326 -0.2256  0.2004 -0.3708
  258TMC3     C 3963   4.046   3.637  13.475  0.0090 -0.1152  0.2034
  258TMC3     O 3964   4.015   3.638  13.594  0.4878  0.2215 -0.1478
  258TMC3     H 3965   4.037   3.559  13.191 -0.4182 -0.7290 -0.0235
  258TMC3    H1 3966   4.158   3.454  13.603 -1.4712  1.0857  0.1867
  258TMC3    H2 3967   4.090   3.163  13.305 -1.4539  0.9233 -2.5781
  258TMC3    C7 3968   4.186   3.195  13.543 -0.3652  0.4165 -0.7125
  258TMC3    C8 3969   4.034   3.327  13.097  0.2559  0.7963 -0.5273
  258TMC3    O1 3970   4.162   3.080  13.511 -0.0668  0.1330 -0.2274
  258TMC3    O2 3971   3.997   3.421  13.027 -0.4280 -0.1253 -0.1470
  259MPD2     C 3972   2.531   0.928   0.812  0.0320 -0.2045  0.6506
  259MPD2    C1 3973   2.637   0.868   0.873  0.1178  0.5902  0.2809
  259MPD2    C2 3974   2.758   0.875   0.813 -0.0252  0.6552  0.0848
  259MPD2    C3 3975   2.774   0.942   0.684 -0.0904  0.1914 -0.0471
  259MPD2    C4 3976   2.661   1.002   0.628  0.6013 -0.5180  0.5422
  259MPD2    C5 3977   2.542   0.992   0.691 -0.0855 -0.2199 -0.4756
  259MPD2     H 3978   2.848   0.842   0.864  0.6599  2.5964  0.1569
  259MPD2    H1 3979   2.672   1.052   0.532 -0.2742 -0.3235  0.5452
  259MPD2    H2 3980   2.432   0.923   0.856  0.2556  1.9185  1.4019
  259MPD2    H3 3981   2.455   1.040   0.646  0.8173  1.5171 -0.3373
  259MPD2     N 3982   2.901   0.955   0.640 -0.2298  0.0867 -0.9083
  259MPD2    H5 3983   2.966   0.915   0.707 -2.4117 -1.1467  0.4774
  259MPD2    N1 3984   2.617   0.815   1.004  0.2331 -0.0540  0.2062
  259MPD2    H7 3985   2.523   0.811   1.041  0.5594  1.0427  1.1568
  260TMC3    C1 3986   3.092   1.012   0.518  0.8983 -0.6142 -0.4308
  260TMC3    C2 3987   3.133   0.955   0.397  0.7564  0.0124 -0.0781
  260TMC3    C3 3988   3.234   0.862   0.406 -0.4036  0.0859 -0.4418
  260TMC3    C4 3989   3.152   0.982   0.640  0.1940 -0.4955 -0.4767
  260TMC3    C5 3990   3.247   0.887   0.645  0.3673 -0.7955 -0.3336
  260TMC3    C6 3991   3.289   0.829   0.527  0.1330  1.1841 -0.9330
  260TMC3     C 3992   2.947   1.012   0.528  0.1540 -0.7700  0.3326
  260TMC3     O 3993   2.886   1.037   0.426 -0.1477 -0.4471 -0.2997
  260TMC3     H 3994   3.081   0.980   0.305 -0.8776 -2.9102  0.0692
  260TMC3    H1 3995   3.114   1.007   0.738 -0.3272 -0.2358 -0.7474
  260TMC3    H2 3996   3.372   0.759   0.525  0.8919  2.0982 -1.9857
  260TMC3    C7 3997   3.204   0.784   0.734  0.4606 -0.9476  0.0182
  260TMC3    C8 3998   3.313   0.861   0.284  0.7341 -0.0118 -0.3562
  260TMC3    O1 3999   3.083   0.775   0.762 -0.0778 -0.2134 -0.6134
  260TMC3    O2 4000   3.300   0.965   0.219  0.1915 -0.1876  0.2418
  261MPD2     C 4001   0.188   3.827  12.158  0.3955  0.1170 -0.0066
  261MPD2    C1 4002   0.165   3.896  12.272 -0.6310 -1.0454 -0.4018
  261MPD2    C2 4003   0.174   4.033  12.267 -0.2086 -0.2260  0.4318
  261MPD2    C3 4004   0.188   4.097  12.148 -0.4630 -0.3151  0.5033
  261MPD2    C4 4005   0.206   4.022  12.033  0.3866  0.3491 -0.6420
  261MPD2    C5 4006   0.215   3.889  12.038  0.2369  0.1560  0.0714
  261MPD2     H 4007   0.168   4.077  12.366 -1.1419  1.6121 -0.4478
  261MPD2    H1 4008   0.226   4.068  11.937 -1.7753  0.4084 -1.0616
  261MPD2    H2 4009   0.196   3.719  12.146 -1.6005  0.1677 -1.7377
  261MPD2    H3 4010   0.230   3.826  11.951 -1.0370  1.2693 -0.9573
  261MPD2     N 4011   0.174   4.234  12.142  0.0449 -0.4368 -0.1575
  261MPD2    H5 4012   0.181   4.268  12.046 -0.6204  1.3474  0.4197
  261MPD2    N1 4013   0.156   3.817  12.392  0.2934  0.0844  0.0897
  261MPD2    H7 4014   0.162   3.861  12.483  1.4955 -0.7996  0.4434
  262TMC3    C1 4015   0.157   4.462  12.196  0.1987  0.0186 -1.4014
  262TMC3    C2 4016   0.059   4.541  12.246  0.0663 -0.1943  0.2324
  262TMC3    C3 4017   0.012   4.645  12.167 -0.5721  0.8284 -0.4263
  262TMC3    C4 4018   0.222   4.488  12.076  0.3096 -0.1547 -0.3957
  262TMC3    C5 4019   0.183   4.599  12.010  0.5749 -0.2863  0.4629
  262TMC3    C6 4020   0.079   4.676  12.052  1.3553 -0.0588 -0.2457
  262TMC3     C 4021   0.149   4.327  12.244 -0.5456 -0.2369 -0.5439
  262TMC3     O 4022   0.113   4.300  12.355 -0.2501 -0.5163  0.8055
  262TMC3     H 4023   0.011   4.506  12.337 -1.8148  1.1707 -0.2366
  262TMC3    H1 4024   0.304   4.429  12.037 -0.2821 -0.0471 -1.8121
  262TMC3    H2 4025   0.052   0.019  11.984  1.1620 -0.7343 -0.9555
  262TMC3    C7 4026   0.234   4.623  11.874  0.2748  0.5676  0.1307
  262TMC3    C8 4027   4.637   4.736  12.216  0.3394 -0.5414  0.5468
  262TMC3    O1 4028   0.350   4.580  11.854 -0.0799 -0.4400  0.2944
  262TMC3    O2 4029   4.593   4.707  12.327 -0.3500 -0.0979 -0.1014
  263MPD2     C 4030   0.910   3.156  11.324 -0.2106  0.1938  0.1919
  263MPD2    C1 4031   0.981   3.101  11.223 -0.2290  0.6241 -0.2368
  263MPD2    C2 4032   0.998   3.185  11.116 -0.9671 -0.9079  0.1716
  263MPD2    C3 4033   0.932   3.307  11.098 -0.5598 -0.1115 -0.6066
  263MPD2    C4 4034   0.846   3.340  11.193 -0.1320 -0.0594 -0.1341
  263MPD2    C5 4035   0.839   3.266  11.304  0.2659 -0.0823  0.0135
  263MPD2     H 4036   1.078   3.165  11.046 -1.6341 -1.4607 -0.4393
  263MPD2    H1 4037   0.798   3.437  11.208  0.6493  0.3841 -0.4924
  263MPD2    H2 4038   0.888   3.090  11.407  0.6177  2.3343  2.1329
  263MPD2    H3 4039   0.779   3.302  11.387 -0.8169 -3.0502  0.4967
  263MPD2     N 4040   0.975   3.393  10.995  0.1817 -0.5096 -0.1489
  263MPD2    H5 4041   1.059   3.371  10.943  0.6346 -0.7914  0.7040
  263MPD2    N1 4042   1.064   2.994  11.261  0.6433  0.6295  0.2000
  263MPD2    H7 4043   1.065   2.959  11.356  0.1792  0.1903  0.0461
  264TMC3    C1 4044   0.992   3.596  10.873  0.1024  0.1801 -0.0098
  264TMC3    C2 4045   0.931   3.713  10.837 -0.3431  0.3356 -0.0702
  264TMC3    C3 4046   0.991   3.800  10.750  0.1077  0.7719 -0.0215
  264TMC3    C4 4047   1.110   3.559  10.819 -0.2409 -0.3843  0.2292
  264TMC3    C5 4048   1.174   3.650  10.740 -0.1791  0.2700 -0.4557
  264TMC3    C6 4049   1.118   3.768  10.703  0.1882  0.1957 -0.1250
  264TMC3     C 4050   0.923   3.512  10.978  0.6428  0.1895  0.9635
  264TMC3     O 4051   0.813   3.554  11.015  0.1404  0.5011 -0.0845
  264TMC3     H 4052   0.829   3.733  10.870 -0.3226 -1.6978  1.2212
  264TMC3    H1 4053   1.165   3.483  10.874  2.8469  0.1793 -2.0631
  264TMC3    H2 4054   1.166   3.841  10.639 -1.4622  0.5206 -1.0105
  264TMC3    C7 4055   1.310   3.673  10.781  0.2843 -0.9434 -0.3557
  264TMC3    C8 4056   0.974   3.945  10.763 -0.1026  0.0059 -0.4275
  264TMC3    O1 4057   1.400   3.599  10.741  0.8545 -0.0620 -0.3958
  264TMC3    O2 4058   1.025   4.017  10.675 -0.1242  0.3361 -0.1514
  265MPD2     C 4059   3.020   3.723  15.496 -0.0132  0.1823  0.1144
  265MPD2    C1 4060   3.071   3.847  15.467 -0.5618  0.7507 -0.1400
  265MPD2    C2 4061   3.170   3.851  15.369  1.0925 -0.4060  0.2050
  265MPD2    C3 4062   3.208   3.741  15.301 -0.7625 -0.5934  0.6763
  265MPD2    C4 4063   3.163   3.614  15.332 -0.3743 -0.5245 -0.5883
  265MPD2    C5 4064   3.072   3.610  15.433 -0.7782 -0.5194 -0.4320
  265MPD2     H 4065   3.226   3.943  15.366  3.7563 -1.9777  1.5235
  265MPD2    H1 4066   3.197   3.520  15.291  0.1648  0.7231 -2.9927
  265MPD2    H2 4067   2.942   3.706  15.569  0.8541 -0.4776  0.8803
  265MPD2    H3 4068   3.038   3.511  15.461 -3.0573  0.6093  0.7434
  265MPD2     N 4069   3.317   3.746  15.213  0.8047  0.2487 -0.2714
  265MPD2    H5 4070   3.357   3.659  15.180  2.7541  2.0615 -2.6585
  265MPD2    N1 4071   3.028   3.963  15.536 -0.2116  0.3503 -0.2964
  265MPD2    H7 4072   3.082   4.046  15.516  0.0930 -0.0299 -1.0672
  266TMC3    C1 4073   2.877   4.100  15.663 -0.3071  0.5764 -0.9104
  266TMC3    C2 4074   2.748   4.110  15.713  0.0127 -0.2054 -0.3966
  266TMC3    C3 4075   2.698   4.236  15.736 -0.3561 -0.2921  0.3120
  266TMC3    C4 4076   2.946   4.210  15.614  0.6979 -0.2601  0.3058
  266TMC3    C5 4077   2.885   4.331  15.635 -0.2630 -0.0785  0.7344
  266TMC3    C6 4078   2.768   4.348  15.705 -0.5233 -0.4011  0.0718
  266TMC3     C 4079   2.919   3.968  15.625  0.1704  0.0578 -0.0330
  266TMC3     O 4080   2.838   3.880  15.655 -0.1177 -0.2844 -0.6371
  266TMC3     H 4081   2.697   4.022  15.748  0.6452  1.1747  4.0144
  266TMC3    H1 4082   3.034   4.199  15.553 -0.3613  1.1145 -1.4609
  266TMC3    H2 4083   2.714   4.441  15.715 -1.3451 -0.8338 -0.3021
  266TMC3    C7 4084   2.958   4.449  15.592 -0.4975 -0.4028  0.3195
  266TMC3    C8 4085   2.607   4.252  15.846  0.1539  0.0313 -0.1577
  266TMC3    O1 4086   3.072   4.429  15.556  0.0981 -0.4061 -0.5419
  266TMC3    O2 4087   2.490   4.218  15.846 -0.1838 -0.0520 -0.0862
  267MPD2     C 4088   4.723   0.838  17.695  0.3349  0.3469 -0.4764
  267MPD2    C1 4089   0.112   0.898  17.676 -0.4470  0.0985  0.2096
  267MPD2    C2 4090   0.145   0.937  17.547 -0.0177  0.4704 -0.0420
  267MPD2    C3 4091   0.050   0.923  17.446  0.8891  0.0338  0.5724
  267MPD2    C4 4092   4.670   0.850  17.466 -0.3867 -0.2443 -0.9517
  267MPD2    C5 4093   4.636   0.804  17.592  0.0602  0.7277 -1.2215
  267MPD2     H 4094   0.238   0.986  17.521  0.5162  1.1081  3.1364
  267MPD2    H1 4095   4.598   0.830  17.387  1.2788 -1.1466 -2.2143
  267MPD2    H2 4096   4.706   0.787   0.044 -2.0608  1.6336 -0.1955
  267MPD2    H3 4097   4.541   0.756  17.612  1.5366 -2.1835 -1.0920
  267MPD2     N 4098   0.070   0.958  17.313 -0.6746 -0.0903 -0.1765
  267MPD2    H5 4099   4.736   0.938  17.243 -0.4413 -0.0864 -0.4115
  267MPD2    N1 4100   0.203   0.915   0.044  0.1572  0.2097  0.2750
  267MPD2    H7 4101   0.162   0.908   0.137 -1.4182  0.0294 -0.4175
  268TMC3    C1 4102   0.413   0.946   0.160  0.2868  0.1181 -0.2781
  268TMC3    C2 4103   0.543   0.991   0.149  0.0478 -0.9712 -0.5402
  268TMC3    C3 4104   0.633   0.947   0.249  0.2090 -0.6036  0.0572
  268TMC3    C4 4105   0.365   0.861   0.261 -0.7416 -0.4028 -0.6124
  268TMC3    C5 4106   0.459   0.831   0.355 -0.0222  0.3518  0.5574
  268TMC3    C6 4107   0.589   0.869   0.356  0.3044  0.5493  0.1494
  268TMC3     C 4108   0.335   0.958   0.032  0.8730 -0.7805 -0.3567
  268TMC3     O 4109   0.403   0.981  17.674 -0.0638  0.0630  0.0337
  268TMC3     H 4110   0.569   1.049   0.061 -2.1650 -0.3396 -0.7822
  268TMC3    H1 4111   0.272   0.807   0.269 -0.8841 -0.0517  0.0420
  268TMC3    H2 4112   0.664   0.838   0.428 -0.6435 -0.6849  0.6033
  268TMC3    C7 4113   0.416   0.761   0.478  0.1870  1.0210 -0.1239
  268TMC3    C8 4114   0.781   0.965   0.246 -0.4259 -0.7069  0.3677
  268TMC3    O1 4115   0.503   0.723   0.560 -0.5762  0.0337  0.4149
  268TMC3    O2 4116   0.842   0.871   0.293  0.2663  0.7868 -0.2898
  269MPD2     C 4117   0.941   4.300  15.724 -0.4207  0.2037  1.0389
  269MPD2    C1 4118   0.809   4.342  15.701  0.5100 -0.0960 -0.4278
  269MPD2    C2 4119   0.768   4.467  15.678  0.4366  0.6658 -0.5140
  269MPD2    C3 4120   0.870   4.558  15.686 -0.3600  0.5012 -0.7475
  269MPD2    C4 4121   1.000   4.522  15.706 -0.5041  0.1412 -0.2877
  269MPD2    C5 4122   1.036   4.394  15.724 -0.5891 -0.1258 -0.2620
  269MPD2     H 4123   0.664   4.495  15.662  0.2306  0.6713  0.8725
  269MPD2    H1 4124   1.076   4.599  15.712 -0.2798 -0.3971  3.3638
  269MPD2    H2 4125   0.966   4.196  15.746 -0.8241 -0.0494  0.2647
  269MPD2    H3 4126   1.137   4.357  15.727  0.7085  3.4948  0.4719
  269MPD2     N 4127   0.839   4.700  15.658 -0.4428  0.2654 -0.4938
  269MPD2    H5 4128   0.744   4.732  15.676 -0.9634 -2.3168  1.2868
  269MPD2    N1 4129   0.715   4.235  15.706 -0.1682  0.3847  0.1321
  269MPD2    H7 4130   0.757   4.143  15.716  1.7888  1.0793 -1.8822
  270TMC3    C1 4131   0.538   4.102  15.688 -0.5611 -0.5637  0.3308
  270TMC3    C2 4132   0.431   4.080  15.611 -0.2895  0.6549 -0.1170
  270TMC3    C3 4133   0.399   3.950  15.591 -0.2978 -0.1871  0.7671
  270TMC3    C4 4134   0.624   4.006  15.731 -0.0215  0.0057 -0.8794
  270TMC3    C5 4135   0.592   3.872  15.706 -0.5831 -0.2265 -0.2041
  270TMC3    C6 4136   0.480   3.851  15.634 -0.5597 -0.0238 -0.3528
  270TMC3     C 4137   0.583   4.235  15.680  0.1401 -0.0927 -0.2881
  270TMC3     O 4138   0.515   4.313  15.613  0.6115  0.1278  0.3025
  270TMC3     H 4139   0.370   4.155  15.562  3.1326  2.5183 -1.5030
  270TMC3    H1 4140   0.707   4.024  15.799 -0.2783 -0.5814 -0.4041
  270TMC3    H2 4141   0.448   3.750  15.608 -0.5595 -0.3416  0.9092
  270TMC3    C7 4142   0.705   3.810  15.639 -0.9843  0.0598  0.1848
  270TMC3    C8 4143   0.302   3.910  15.488  0.5025  0.0459  0.4776
  270TMC3    O1 4144   0.816   3.826  15.690 -0.0468  0.2848  0.0199
  270TMC3    O2 4145   0.206   3.844  15.529  0.0661  0.6280 -0.3986
  271MPD2     C 4146   4.715   3.801  13.852  0.1887 -0.2514 -0.2292
  271MPD2    C1 4147   4.661   3.857  13.966 -0.0396  0.0752  0.2379
  271MPD2    C2 4148   4.572   3.960  13.939  0.3748 -0.0528  0.3003
  271MPD2    C3 4149   4.554   4.019  13.817 -0.0979 -0.3431 -0.0392
  271MPD2    C4 4150   4.608   3.956  13.710 -0.1726  0.2335  0.0960
  271MPD2    C5 4151   4.696   3.846  13.723  0.3405  0.7076  0.3680
  271MPD2     H 4152   4.524   4.005  14.025  0.0304 -1.3984  0.8152
  271MPD2    H1 4153   4.607   4.005  13.613 -2.3859  0.0593  0.0420
  271MPD2    H2 4154   0.049   3.720  13.863  0.5171 -0.2285 -2.3043
  271MPD2    H3 4155   0.006   3.783  13.649 -0.6152 -0.6362  0.9105
  271MPD2     N 4156   4.467   4.126  13.796  0.0044 -0.3099 -0.1106
  271MPD2    H5 4157   4.442   4.157  13.703 -0.8264 -4.2211 -1.2005
  271MPD2    N1 4158   4.677   3.811  14.102  0.2032 -0.2713  0.2617
  271MPD2    H7 4159   4.645   3.879  14.170 -0.7693  0.9780 -1.4518
  272TMC3    C1 4160   0.038   3.692  14.284  0.5726  0.1045 -0.4351
  272TMC3    C2 4161   0.172   3.677  14.313 -0.6738 -0.1272 -0.3952
  272TMC3    C3 4162   0.222   3.745  14.420  0.7604  0.1601 -0.6162
  272TMC3    C4 4163   4.691   3.766  14.364  0.4462  0.0153  0.5517
  272TMC3    C5 4164   0.005   3.826  14.472  0.0644  0.6423  0.3324
  272TMC3    C6 4165   0.141   3.819  14.506 -0.1814  0.9409  0.4058
  272TMC3     C 4166   0.009   3.700  14.144  0.0511 -0.5920  0.0099
  272TMC3     O 4167   0.049   3.607  14.074  0.1500  0.6004 -0.1375
  272TMC3     H 4168   0.236   3.622  14.245 -1.6779  0.7630 -2.0581
  272TMC3    H1 4169   4.586   3.784  14.343  0.7995 -0.7609 -1.9276
  272TMC3    H2 4170   0.189   3.868  14.589  2.0878 -0.7437  0.0772
  272TMC3    C7 4171   4.656   3.896  14.561  0.3828 -0.4443 -0.2752
  272TMC3    C8 4172   0.352   3.721  14.473 -0.4631 -0.0324  0.3871
  272TMC3    O1 4173   4.536   3.884  14.550  0.1409 -0.8450 -0.2657
  272TMC3    O2 4174   0.364   3.714  14.594 -0.1202 -0.1684  0.2513
  273MPD2     C 4175   1.571   2.512  11.936  0.4638  0.9255 -0.1380
  273MPD2    C1 4176   1.666   2.501  11.839  0.0712  0.2666  0.1677
  273MPD2    C2 4177   1.615   2.474  11.709 -0.0698 -0.4835  0.1436
  273MPD2    C3 4178   1.483   2.457  11.680 -0.0632  0.3481 -0.0084
  273MPD2    C4 4179   1.390   2.487  11.777 -0.1788  0.3925 -0.0794
  273MPD2    C5 4180   1.435   2.506  11.905 -0.5772 -0.3252  0.3829
  273MPD2     H 4181   1.684   2.469  11.625 -0.1410 -0.9484  0.1170
  273MPD2    H1 4182   1.286   2.488  11.746  0.3470 -1.9548 -1.8907
  273MPD2    H2 4183   1.594   2.520  12.041 -0.6682 -0.2293  0.2009
  273MPD2    H3 4184   1.361   2.534  11.979 -1.4560  1.9852 -1.3337
  273MPD2     N 4185   1.434   2.422  11.554  0.0338 -0.1386  0.3743
  273MPD2    H5 4186   1.334   2.430  11.539 -0.1863  0.4668  2.1468
  273MPD2    N1 4187   1.807   2.509  11.864  0.0850 -0.2128  0.2975
  273MPD2    H7 4188   1.832   2.515  11.962  0.9683  0.0920  0.0543
  274TMC3    C1 4189   1.448   2.327  11.336  0.2290  0.1595 -0.4089
  274TMC3    C2 4190   1.331   2.395  11.297  0.6356  0.2888 -0.2730
  274TMC3    C3 4191   1.298   2.368  11.170 -0.2671 -0.4523  0.1682
  274TMC3    C4 4192   1.511   2.236  11.261 -0.2377 -0.1376 -0.3009
  274TMC3    C5 4193   1.474   2.233  11.130  0.1451 -0.3176 -0.2610
  274TMC3    C6 4194   1.361   2.291  11.081 -0.7574 -0.2738 -0.9019
  274TMC3     C 4195   1.513   2.353  11.461  0.1210 -0.0481  0.0953
  274TMC3     O 4196   1.624   2.302  11.487  0.0424 -0.2170 -0.4734
  274TMC3     H 4197   1.276   2.472  11.350 -0.2896  1.0633 -2.3508
  274TMC3    H1 4198   1.596   2.182  11.301 -0.0490  0.1486 -0.3156
  274TMC3    H2 4199   1.369   2.319  10.976  0.0463  3.5202  0.1767
  274TMC3    C7 4200   1.568   2.178  11.022  0.6354  0.4861  0.4054
  274TMC3    C8 4201   1.192   2.452  11.115 -0.2939  0.3667  0.1781
  274TMC3    O1 4202   1.513   2.129  10.928  0.0690 -0.0665 -0.0594
  274TMC3    O2 4203   1.176   2.564  11.163 -0.2293  0.4391  0.5669
  275MPD2     C 4204   1.106   0.539  14.139 -0.3780 -0.1065  0.3449
  275MPD2    C1 4205   1.086   0.477  14.260 -0.8879  0.0069 -0.2792
  275MPD2    C2 4206   0.963   0.417  14.286 -0.3436 -0.2464  1.0997
  275MPD2    C3 4207   0.871   0.412  14.191  0.1386 -0.7175  0.8052
  275MPD2    C4 4208   0.901   0.465  14.063  0.7327 -0.2485  0.0638
  275MPD2    C5 4209   1.010   0.536  14.042  0.2892 -0.0387 -0.2873
  275MPD2     H 4210   0.951   0.377  14.385 -0.7113 -1.6087  0.5026
  275MPD2    H1 4211   0.836   0.460  13.977  0.0110 -0.4967  0.6229
  275MPD2    H2 4212   1.204   0.580  14.118 -1.5442  2.1269 -0.7381
  275MPD2    H3 4213   1.017   0.573  13.940  0.8132  0.1040 -0.1989
  275MPD2     N 4214   0.738   0.365  14.211 -0.6380 -0.3479  0.7512
  275MPD2    H5 4215   0.674   0.362  14.133  2.3364  2.3872 -1.7861
  275MPD2    N1 4216   1.170   0.482  14.374 -0.1897  0.3695  0.1179
  275MPD2    H7 4217   1.144   0.429  14.457  1.7055  1.8334  1.6448
  276TMC3    C1 4218   1.332   0.544  14.526  0.5879  0.1443  0.3735
  276TMC3    C2 4219   1.234   0.542  14.621 -0.1254  0.1277 -0.3548
  276TMC3    C3 4220   1.274   0.516  14.748 -0.0452  0.0977 -0.0806
  276TMC3    C4 4221   1.470   0.556  14.552  0.3778  0.1194 -0.3759
  276TMC3    C5 4222   1.510   0.535  14.687 -0.4716 -0.1162 -0.5217
  276TMC3    C6 4223   1.406   0.507  14.773  0.1043 -0.2034 -0.4903
  276TMC3     C 4224   1.289   0.549  14.392  0.5010 -0.2211 -0.2350
  276TMC3     O 4225   1.362   0.599  14.310 -0.2264  0.4668 -0.7222
  276TMC3     H 4226   1.130   0.571  14.608 -0.1347 -0.0693 -0.7398
  276TMC3    H1 4227   1.541   0.545  14.470  1.2557  0.6707  0.2974
  276TMC3    H2 4228   1.430   0.486  14.876 -1.8808 -0.5569 -0.1048
  276TMC3    C7 4229   1.642   0.525  14.727  0.2576  0.4120 -0.2452
  276TMC3    C8 4230   1.178   0.476  14.849  0.2486  0.8366  0.0645
  276TMC3    O1 4231   1.656   0.500  14.845  0.0316 -0.1428  0.0590
  276TMC3    O2 4232   1.062   0.515  14.829 -0.0344 -0.4151 -0.1927
  277MPD2     C 4233   3.512   4.163  13.178  0.0910 -0.6085  0.5283
  277MPD2    C1 4234   3.395   4.094  13.151  0.6489 -0.0404 -0.1778
  277MPD2    C2 4235   3.326   4.045  13.267  0.2099 -0.3300  0.6333
  277MPD2    C3 4236   3.378   4.057  13.393 -0.2749 -0.2317  0.1743
  277MPD2    C4 4237   3.505   4.107  13.412  0.1813 -0.0647  0.2717
  277MPD2    C5 4238   3.565   4.167  13.310 -0.2675  0.4818  0.0659
  277MPD2     H 4239   3.229   4.004  13.241 -0.3816  1.2418  0.3619
  277MPD2    H1 4240   3.562   4.097  13.503  1.3106  3.3645 -0.0553
  277MPD2    H2 4241   3.574   4.195  13.094 -0.7538  1.1462  0.5666
  277MPD2    H3 4242   3.669   4.198  13.318 -0.2163 -0.0625  1.4391
  277MPD2     N 4243   3.303   3.987  13.489 -0.5095 -0.0713  0.6456
  277MPD2    H5 4244   3.210   3.954  13.463  0.0228 -1.0309 -0.0455
  277MPD2    N1 4245   3.346   4.084  13.022  0.4250 -0.8655  0.2608
  277MPD2    H7 4246   3.396   4.131  12.948  1.1158  1.2321  2.0638
  278TMC3    C1 4247   3.228   3.896  13.697  0.3585  0.4423  0.0823
  278TMC3    C2 4248   3.268   3.803  13.788 -0.0540  0.6964  1.2720
  278TMC3    C3 4249   3.165   3.732  13.846  0.0383 -0.0416  0.6315
  278TMC3    C4 4250   3.098   3.936  13.675  0.2276 -0.5908  0.0740
  278TMC3    C5 4251   3.002   3.868  13.745 -0.4332 -0.2055 -0.9307
  278TMC3    C6 4252   3.034   3.765  13.828 -0.1045  0.1374 -1.3338
  278TMC3     C 4253   3.332   3.963  13.621  0.3653  0.0566 -0.2938
  278TMC3     O 4254   3.431   3.995  13.687 -0.4984 -0.3037 -0.6745
  278TMC3     H 4255   3.370   3.766  13.790  0.2921  1.4713 -2.3019
  278TMC3    H1 4256   3.081   4.023  13.613  0.8206 -0.6817 -0.2141
  278TMC3    H2 4257   2.960   3.709  13.883  2.2521 -2.0872 -0.4279
  278TMC3    C7 4258   2.877   3.936  13.754  0.0152  0.1509  0.1875
  278TMC3    C8 4259   3.188   3.590  13.871  0.1130 -0.6767  0.2668
  278TMC3    O1 4260   2.855   4.043  13.698  0.2562 -0.3504  0.1928
  278TMC3    O2 4261   3.289   3.558  13.923 -0.1373 -0.2345 -0.1318
  279MPD2     C 4262   1.845   3.525   0.241  0.5789  0.0968  0.1777
  279MPD2    C1 4263   1.794   3.630   0.320 -0.1032  0.1831 -0.1945
  279MPD2    C2 4264   1.869   3.749   0.327 -0.5239 -0.0199 -0.0156
  279MPD2    C3 4265   1.983   3.770   0.247 -0.2286 -0.9231 -0.0688
  279MPD2    C4 4266   2.021   3.668   0.167 -0.4184 -0.4113  0.0480
  279MPD2    C5 4267   1.960   3.549   0.172 -0.2307 -0.5460  0.1165
  279MPD2     H 4268   1.836   3.827   0.396  0.9113  1.0919 -0.5944
  279MPD2    H1 4269   2.102   3.681   0.097 -0.5896 -1.1273 -0.2862
  279MPD2    H2 4270   1.793   3.430   0.231 -1.8570  1.4677 -0.2973
  279MPD2    H3 4271   2.005   3.469   0.114  0.7732 -0.5702  0.9272
  279MPD2     N 4272   2.068   3.883   0.250  0.4422  0.2307 -0.6075
  279MPD2    H5 4273   2.154   3.872   0.196  0.0157  0.9913 -1.4384
  279MPD2    N1 4274   1.679   3.605   0.395 -0.1685 -0.0922  0.3233
  279MPD2    H7 4275   1.638   3.512   0.385  0.3944 -0.2974 -0.0559
  280TMC3    C1 4276   1.495   3.643   0.530  0.4854 -0.5451  0.1605
  280TMC3    C2 4277   1.512   3.529   0.608 -0.0855  0.3551 -0.6328
  280TMC3    C3 4278   1.428   3.501   0.709 -0.1278  0.0272  0.4747
  280TMC3    C4 4279   1.402   3.729   0.569  0.3829 -0.2702  0.1964
  280TMC3    C5 4280   1.320   3.700   0.675  0.0738 -0.0862 -0.6069
  280TMC3    C6 4281   1.322   3.584   0.743 -0.5096  0.1397 -0.4104
  280TMC3     C 4282   1.614   3.695   0.474  1.0436 -0.2621 -0.2564
  280TMC3     O 4283   1.636   3.812   0.503 -0.4737  0.1320  0.2716
  280TMC3     H 4284   1.603   3.472   0.593 -0.5424 -0.3268 -0.8169
  280TMC3    H1 4285   1.383   3.821   0.515 -2.4999 -1.2167 -0.4231
  280TMC3    H2 4286   1.252   3.568   0.824  1.4945 -2.6686  0.8078
  280TMC3    C7 4287   1.210   3.789   0.704 -0.2742  0.8913  0.1767
  280TMC3    C8 4288   1.437   3.368   0.750  0.4666 -0.1689  0.9538
  280TMC3    O1 4289   1.174   3.798   0.820 -0.1030  0.1852 -0.2462
  280TMC3    O2 4290   1.511   3.287   0.691 -0.0985  0.6308  0.1828
  281TMC3    C1 4291   1.487   4.073  13.398  1.0539 -0.7612  0.4473
  281TMC3    C2 4292   1.549   4.114  13.277 -0.4492 -0.1155 -0.3673
  281TMC3    C3 4293   1.546   4.031  13.170 -0.3118  0.5816 -0.0429
  281TMC3    C4 4294   1.448   3.938  13.405 -0.2192 -0.2194 -0.5397
  281TMC3    C5 4295   1.455   3.858  13.300 -0.3694 -0.3078  0.4063
  281TMC3    C6 4296   1.499   3.903  13.182  0.0473 -0.3720 -0.4605
  281TMC3     C 4297   1.435   4.172  13.491  0.1908  0.4891 -0.6970
  281TMC3     O 4298   1.375   4.121  13.590 -0.3135 -0.1034 -0.2349
  281TMC3     H 4299   1.597   4.210  13.262  1.6723 -1.6023 -3.0457
  281TMC3    H1 4300   1.396   3.903  13.493 -1.1924 -0.3724 -1.1704
  281TMC3    H2 4301   1.491   3.834  13.099  2.1328 -0.9544 -0.1745
  281TMC3    C7 4302   1.365   3.736  13.298  0.1741  0.0747  0.7834
  281TMC3    C8 4303   1.608   4.067  13.045 -0.1629 -0.2980 -0.1903
  281TMC3    O1 4304   1.309   3.708  13.194  0.0859  0.0735 -0.3329
  281TMC3    O2 4305   1.697   3.989  13.011  0.8729 -0.1528 -0.0557
  282MPD2     C 4306   3.112   0.888  15.132  0.5715 -0.1916  0.1817
  282MPD2    C1 4307   2.983   0.948  15.139  0.4029 -0.3423  0.1649
  282MPD2    C2 4308   2.896   0.935  15.027  0.0899  0.3344 -0.2426
  282MPD2    C3 4309   2.945   0.872  14.912  0.2910 -0.6912  0.6699
  282MPD2    C4 4310   3.066   0.805  14.915  0.7373 -0.3320 -0.1442
  282MPD2    C5 4311   3.147   0.820  15.018 -0.2681  0.3021  0.4573
  282MPD2     H 4312   2.802   0.986  15.011 -0.0328 -0.9698 -3.6321
  282MPD2    H1 4313   3.106   0.755  14.828  1.4392 -2.6283  1.4767
  282MPD2    H2 4314   3.186   0.885  15.211 -0.8553  1.2733  1.5880
  282MPD2    H3 4315   3.245   0.776  15.026  0.4354  1.4262 -2.0755
  282MPD2     N 4316   2.867   0.889  14.797  0.3450  0.2338  0.3325
  282MPD2    H5 4317   2.780   0.937  14.817  0.6056  1.2100 -0.8921
  282MPD2    N1 4318   2.929   1.002  15.255 -0.0318  0.7772  0.2130
  282MPD2    H7 4319   2.830   1.018  15.270 -0.8128 -1.0704 -3.1315
  283TMC3    C1 4320   2.899   1.087  15.466  0.7061 -0.0022 -0.0922
  283TMC3    C2 4321   2.894   1.214  15.508  0.3887 -0.3929  0.1031
  283TMC3    C3 4322   2.776   1.243  15.580 -0.1946  0.6539  0.1266
  283TMC3    C4 4323   2.808   0.989  15.495  0.1174 -1.1313 -0.2564
  283TMC3    C5 4324   2.698   1.019  15.580 -0.5388  0.2216  0.8342
  283TMC3    C6 4325   2.679   1.150  15.613  0.5141  0.0608 -0.8453
  283TMC3     C 4326   2.998   1.054  15.359 -0.2159 -0.0803  0.1627
  283TMC3     O 4327   3.115   1.079  15.375  0.2456 -0.7980 -0.3277
  283TMC3     H 4328   2.985   1.273  15.499 -0.6035  0.9942 -0.8270
  283TMC3    H1 4329   2.830   0.887  15.466 -0.8778 -0.7758 -2.2148
  283TMC3    H2 4330   2.601   1.173  15.684  0.2696 -1.4072 -0.6371
  283TMC3    C7 4331   2.599   0.924  15.613  0.0592  0.3543  0.4874
  283TMC3    C8 4332   2.748   1.377  15.618 -0.4085  0.2919  0.6142
  283TMC3    O1 4333   2.540   0.932  15.720  0.1808 -0.1720 -0.0468
  283TMC3    O2 4334   2.694   1.393  15.729 -0.5831  0.2630 -0.1854
  284MPD2     C 4335   1.088   4.664  12.145  0.3043  0.4288  0.6198
  284MPD2    C1 4336   1.113   4.649  12.006 -0.2259 -0.1407  0.1736
  284MPD2    C2 4337   1.064   4.534  11.941  0.5875 -0.0676 -0.1441
  284MPD2    C3 4338   1.006   4.432  12.013  0.4819 -0.2949 -0.8295
  284MPD2    C4 4339   0.998   4.445  12.150  0.5183 -0.4997 -0.5180
  284MPD2    C5 4340   1.029   4.561  12.212 -0.1309  0.4938 -0.1546
  284MPD2     H 4341   1.076   4.527  11.834  0.8757 -1.3938 -0.0241
  284MPD2    H1 4342   0.944   4.367  12.203 -0.0192  0.4262  0.2980
  284MPD2    H2 4343   1.118   0.013  12.204  1.6861  0.2149  0.2215
  284MPD2    H3 4344   1.025   4.568  12.320 -0.5102 -0.3288 -0.1162
  284MPD2     N 4345   0.968   4.307  11.957 -0.0151  0.3055 -0.0634
  284MPD2    H5 4346   0.932   4.240  12.024  0.1458 -0.0356 -0.3190
  284MPD2    N1 4347   1.194   4.728  11.922 -0.2835 -0.4380  0.6569
  284MPD2    H7 4348   1.204   4.708  11.823 -0.1882  0.3607  0.5028
  285TMC3    C1 4349   1.325   0.188  11.856 -0.0580 -0.1560 -0.2357
  285TMC3    C2 4350   1.357   0.124  11.736 -0.0729  0.2141 -0.2532
  285TMC3    C3 4351   1.436   0.199  11.651 -0.4813  0.1065 -0.1780
  285TMC3    C4 4352   1.375   0.315  11.885 -0.4391  0.2505  0.1113
  285TMC3    C5 4353   1.441   0.383  11.787  0.4044 -0.5825 -0.6864
  285TMC3    C6 4354   1.459   0.331  11.662  0.3142 -0.1977  0.0534
  285TMC3     C 4355   1.270   0.102  11.969  0.5545  0.2103  0.3837
  285TMC3     O 4356   1.304   0.146  12.079 -0.3583  0.0437 -0.2524
  285TMC3     H 4357   1.331   0.020  11.720 -1.2904  0.2800  1.2912
  285TMC3    H1 4358   1.362   0.360  11.983 -0.6974 -1.6391  0.9456
  285TMC3    H2 4359   1.514   0.388  11.588  0.8667 -0.4987  0.2249
  285TMC3    C7 4360   1.484   0.519  11.805 -1.2688 -0.8571  0.0758
  285TMC3    C8 4361   1.496   0.145  11.528  0.3177 -0.5737  0.0167
  285TMC3    O1 4362   1.501   0.592  11.708 -0.0807  0.0369  0.5088
  285TMC3    O2 4363   1.442   0.043  11.491  0.7774  0.1988  0.2878
  286MPD2     C 4364   0.870   3.260   1.841 -0.2031  0.3787  0.0403
  286MPD2    C1 4365   0.901   3.257   1.701  0.8587 -0.4162  0.2365
  286MPD2    C2 4366   1.034   3.249   1.668 -0.2997 -0.4193  0.0223
  286MPD2    C3 4367   1.135   3.240   1.766  0.0003  0.6916 -0.1199
  286MPD2    C4 4368   1.101   3.229   1.904  0.0618 -0.2784  0.1457
  286MPD2    C5 4369   0.970   3.248   1.934  0.7689 -0.4742 -0.4744
  286MPD2     H 4370   1.057   3.256   1.562  0.1073 -0.7296  0.0890
  286MPD2    H1 4371   1.174   3.218   1.983 -1.1253 -1.6129  1.0594
  286MPD2    H2 4372   0.771   3.271   1.885 -0.1317  1.7938 -0.1503
  286MPD2    H3 4373   0.951   3.246   2.041  0.5664  0.7244 -0.4946
  286MPD2     N 4374   1.268   3.236   1.733 -0.5251  0.1785  0.3046
  286MPD2    H5 4375   1.334   3.260   1.806 -2.5581  0.9283  1.8747
  286MPD2    N1 4376   0.798   3.272   1.606  0.2323 -0.4787  0.6321
  286MPD2    H7 4377   0.821   3.284   1.508 -0.7656 -2.1797  0.1834
  287TMC3    C1 4378   1.449   3.194   1.575  0.6918 -0.7598 -0.6073
  287TMC3    C2 4379   1.476   3.138   1.456  0.1873  0.5976 -0.7097
  287TMC3    C3 4380   1.559   3.199   1.368 -0.1214 -0.5242  0.5458
  287TMC3    C4 4381   1.514   3.309   1.621 -0.1426  0.4959  0.6914
  287TMC3    C5 4382   1.600   3.370   1.532  0.3239  0.5998 -0.4768
  287TMC3    C6 4383   1.632   3.316   1.406  0.1033  0.3463  0.3387
  287TMC3     C 4384   1.311   3.179   1.615 -0.0104  0.1961 -0.2379
  287TMC3     O 4385   1.247   3.121   1.530 -0.2273  0.1282  0.1906
  287TMC3     H 4386   1.423   3.048   1.429 -1.0599  1.0626  0.1706
  287TMC3    H1 4387   1.490   3.357   1.715  2.9182  2.1675  0.6014
  287TMC3    H2 4388   1.711   3.357   1.344 -1.9036  1.5197 -1.4369
  287TMC3    C7 4389   1.619   3.510   1.554 -0.4679  0.0180  0.3128
  287TMC3    C8 4390   1.605   3.121   1.259  0.8594  0.2554  1.8594
  287TMC3    O1 4391   1.630   3.540   1.672  0.5130  0.1788 -0.5820
  287TMC3    O2 4392   1.566   3.002   1.262  0.3742 -0.1213 -0.3843
  288TMC3    C1 4393   3.479   3.634  14.532 -0.1798 -0.2962 -0.2828
  288TMC3    C2 4394   3.416   3.707  14.638  0.5618  0.2481  0.5795
  288TMC3    C3 4395   3.397   3.841  14.617 -0.6954  0.5305  0.7975
  288TMC3    C4 4396   3.527   3.693  14.421 -0.1742  0.4594  0.0624
  288TMC3    C5 4397   3.510   3.828  14.414 -0.2803  0.0358  0.0663
  288TMC3    C6 4398   3.435   3.903  14.507 -0.6044 -1.0247  0.2621
  288TMC3     C 4399   3.478   3.491  14.538  0.3359  0.6360 -0.4021
  288TMC3     O 4400   3.476   3.434  14.649  0.4338  0.3996  0.0756
  288TMC3     H 4401   3.391   3.659  14.732  0.0525  2.5869  1.6332
  288TMC3    H1 4402   3.567   3.635  14.339 -2.2907 -0.4126 -0.3458
  288TMC3    H2 4403   3.419   4.009  14.497  2.0234 -0.6350  0.3717
  288TMC3    C7 4404   3.555   3.913  14.309  0.1310  0.2555  0.3802
  288TMC3    C8 4405   3.301   3.915  14.708  0.3879 -0.2378  0.7219
  288TMC3    O1 4406   3.495   4.022  14.292 -0.1594  0.0794  0.0010
  288TMC3    O2 4407   3.275   4.032  14.679  0.2559  0.3428 -0.5683
  289MPD2     C 4408   3.521   2.587  14.236  0.4796  0.0081  0.3538
  289MPD2    C1 4409   3.476   2.691  14.160 -1.0205 -0.1637  0.9454
  289MPD2    C2 4410   3.371   2.674  14.068 -0.0647  0.4595 -0.1728
  289MPD2    C3 4411   3.311   2.546  14.054 -0.3689 -0.3185  0.2118
  289MPD2    C4 4412   3.363   2.448  14.130 -0.4918  0.0929 -0.2585
  289MPD2    C5 4413   3.465   2.465  14.221 -0.3424  0.0664 -0.0377
  289MPD2     H 4414   3.331   2.756  14.010  0.3876  1.2852  0.6740
  289MPD2    H1 4415   3.324   2.347  14.123  0.2156 -0.0815 -1.5996
  289MPD2    H2 4416   3.605   2.594  14.305 -0.2595 -2.0693  1.4710
  289MPD2    H3 4417   3.496   2.378  14.277  0.3490  0.2716 -0.1042
  289MPD2     N 4418   3.198   2.520  13.975 -1.2732 -1.2924  1.1895
  289MPD2    H5 4419   3.159   2.427  13.962 -1.4306 -1.3623  2.1762
  289MPD2    N1 4420   3.534   2.816  14.190 -0.0926 -0.5392 -0.0265
  289MPD2    H7 4421   3.583   2.825  14.278  0.4369  1.5489 -0.5382
  290TMC3    C1 4422   3.034   2.553  13.815  0.7078  0.5709  0.1808
  290TMC3    C2 4423   2.973   2.646  13.735  0.2789  0.1072  0.0741
  290TMC3    C3 4424   2.841   2.626  13.701  0.5807 -0.3778 -0.1372
  290TMC3    C4 4425   2.962   2.447  13.860 -0.8044  0.0198  0.2995
  290TMC3    C5 4426   2.831   2.427  13.824  0.6364  0.4791 -0.5819
  290TMC3    C6 4427   2.770   2.514  13.737 -0.3852  0.5184  0.1682
  290TMC3     C 4428   3.131   2.613  13.896  0.7195  0.1449  0.0896
  290TMC3     O 4429   3.141   2.734  13.886  0.4461 -0.3408  0.2573
  290TMC3     H 4430   3.030   2.725  13.688 -0.6941  1.2576  0.8363
  290TMC3    H1 4431   2.990   2.400  13.953 -0.3650 -2.1059 -0.9134
  290TMC3    H2 4432   2.664   2.513  13.718 -0.5419 -0.5819  1.0818
  290TMC3    C7 4433   2.748   2.343  13.917  0.4647 -0.1349 -0.7552
  290TMC3    C8 4434   2.769   2.749  13.689  0.2155 -0.0418 -0.0867
  290TMC3    O1 4435   2.628   2.346  13.895 -0.5252 -0.5789 -0.3526
  290TMC3    O2 4436   2.654   2.754  13.650 -0.5070 -0.2980  0.2638
  291MPD2     C 4437   2.547   2.734   0.145  1.0950  0.6967  0.4137
  291MPD2    C1 4438   2.583   2.622   0.214  0.0107  0.7946  1.1155
  291MPD2    C2 4439   2.712   2.615   0.259 -1.0179  0.5396  0.9858
  291MPD2    C3 4440   2.796   2.728   0.236 -0.2907  0.9819 -0.6116
  291MPD2    C4 4441   2.749   2.844   0.176 -0.0340 -0.2956 -0.2560
  291MPD2    C5 4442   2.625   2.840   0.124 -0.4167  0.0430 -0.2742
  291MPD2     H 4443   2.750   2.525   0.305 -0.8611 -0.4628 -1.0902
  291MPD2    H1 4444   2.814   2.930   0.162 -1.5674  1.4197  3.1459
  291MPD2    H2 4445   2.443   2.741   0.115  1.2212 -0.5670 -0.3048
  291MPD2    H3 4446   2.586   2.931   0.078 -1.2324 -0.8816 -1.4113
  291MPD2     N 4447   2.926   2.732   0.299 -0.0023  0.8875  0.3852
  291MPD2    H5 4448   2.976   2.820   0.304  0.3139  0.7860 -1.0132
  291MPD2    N1 4449   2.507   2.513   0.245 -0.3229 -0.2393 -0.2360
  291MPD2    H7 4450   2.552   2.426   0.266 -0.8264 -0.6681 -0.9151
  292TMC3    C1 4451   2.304   2.400   0.286 -0.3043 -0.1957 -0.3792
  292TMC3    C2 4452   2.196   2.404   0.364 -0.0259  0.2217 -0.6276
  292TMC3    C3 4453   2.097   2.305   0.356 -0.3647 -0.3068 -0.3061
  292TMC3    C4 4454   2.329   2.292   0.200  0.0104  0.1720  0.4381
  292TMC3    C5 4455   2.239   2.193   0.207 -0.1300  0.4406 -0.9549
  292TMC3    C6 4456   2.127   2.191   0.291 -0.8757  0.7761 -0.3096
  292TMC3     C 4457   2.370   2.526   0.263 -0.4198  0.1636  0.1374
  292TMC3     O 4458   2.297   2.626   0.261  0.2636 -1.1328 -0.2229
  292TMC3     H 4459   2.171   2.485   0.431  3.3679 -1.0217  2.1648
  292TMC3    H1 4460   2.422   2.289   0.145  0.4121 -1.5801  1.2353
  292TMC3    H2 4461   2.061   2.105   0.293  0.1737  0.0397  2.4651
  292TMC3    C7 4462   2.244   2.095   0.099 -0.1842 -0.4093  0.0495
  292TMC3    C8 4463   2.042   2.281   0.490 -0.0668 -0.5057 -0.5059
  292TMC3    O1 4464   2.353   2.055   0.060 -0.5199 -0.4150  0.1279
  292TMC3    O2 4465   2.110   2.326   0.583 -0.3103  0.6537  0.3923
  293MPD2     C 4466   4.095   4.170  12.366  0.2585  0.1218  0.8980
  293MPD2    C1 4467   4.027   4.082  12.444 -0.2634 -0.3080  0.1282
  293MPD2    C2 4468   4.063   4.069  12.574 -0.6648 -0.2589 -0.0097
  293MPD2    C3 4469   4.161   4.148  12.628 -0.2067 -1.1746  0.2766
  293MPD2    C4 4470   4.235   4.233  12.540 -0.0805 -0.1315  0.8720
  293MPD2    C5 4471   4.195   4.246  12.412  0.2049 -0.1890 -0.3050
  293MPD2     H 4472   4.016   3.999  12.643  0.6049 -0.3383  0.7823
  293MPD2    H1 4473   4.312   4.304  12.568  0.2617 -0.1993  0.1067
  293MPD2    H2 4474   4.058   4.174  12.264 -2.3001 -3.3406  1.6845
  293MPD2    H3 4475   4.239   4.323  12.350  0.0903 -0.2943 -0.5176
  293MPD2     N 4476   4.205   4.138  12.762  0.6984  0.7319 -0.3442
  293MPD2    H5 4477   4.163   4.072  12.827  0.0702  1.7682  0.2977
  293MPD2    N1 4478   3.914   4.032  12.379  0.2201  0.8636  0.3502
  293MPD2    H7 4479   3.893   4.051  12.282  0.6088  0.8296  0.2591
  294TMC3    C1 4480   3.711   3.953  12.353 -0.1804  0.4820  0.4215
  294TMC3    C2 4481   3.627   3.841  12.352  0.1215 -0.1747  0.2591
  294TMC3    C3 4482   3.501   3.839  12.285 -0.3156  0.2702  0.2715
  294TMC3    C4 4483   3.683   4.059  12.269 -0.8532 -0.5646  0.3687
  294TMC3    C5 4484   3.568   4.048  12.203 -0.5721 -0.1050  0.7719
  294TMC3    C6 4485   3.482   3.950  12.209 -0.4182 -0.2035 -0.0438
  294TMC3     C 4486   3.820   3.950  12.440  0.2222  0.1443  0.7835
  294TMC3     O 4487   3.825   3.876  12.534 -0.6151  0.1776  0.4100
  294TMC3     H 4488   3.639   3.755  12.417 -0.5832 -0.6570 -0.2537
  294TMC3    H1 4489   3.749   4.144  12.253 -1.4072 -0.1328  0.3854
  294TMC3    H2 4490   3.400   3.947  12.138  0.6006  0.6230 -1.2462
  294TMC3    C7 4491   3.539   4.142  12.094  0.7584 -0.8617  0.0122
  294TMC3    C8 4492   3.445   3.715  12.252  0.2951  1.6823  0.7013
  294TMC3    O1 4493   3.426   4.154  12.050  0.0487 -0.2317  0.2490
  294TMC3    O2 4494   3.334   3.683  12.294 -0.5042  0.1831  0.0934
  295MPD2     C 4495   4.022   2.884   0.910 -0.1474  0.1153  0.8126
  295MPD2    C1 4496   4.117   2.800   0.856 -0.4357  0.5138 -0.0337
  295MPD2    C2 4497   4.168   2.702   0.943 -0.2777  0.0410  0.2586
  295MPD2    C3 4498   4.118   2.677   1.072  0.5113  0.0447 -0.1029
  295MPD2    C4 4499   4.023   2.759   1.118 -0.0992 -0.0840 -0.0361
  295MPD2    C5 4500   3.979   2.868   1.040  0.5275 -0.4419  0.3438
  295MPD2     H 4501   4.239   2.632   0.901 -0.2196  0.3970 -0.2407
  295MPD2    H1 4502   3.979   2.747   1.217  3.1753 -1.2343  1.2679
  295MPD2    H2 4503   3.980   2.966   0.852  1.7577  2.5937  2.9164
  295MPD2    H3 4504   3.910   2.946   1.067  2.5095  1.4259  0.0459
  295MPD2     N 4505   4.144   2.565   1.151 -0.8363 -0.1445  0.4472
  295MPD2    H5 4506   4.094   2.558   1.239 -1.0078 -1.5614  0.2240
  295MPD2    N1 4507   4.174   2.815   0.726  0.0011  0.5183 -0.4985
  295MPD2    H7 4508   4.235   2.742   0.692 -2.9229 -1.5615 -1.2874
  296TMC3    C1 4509   4.236   2.367   1.226 -0.4172  0.6311 -0.4337
  296TMC3    C2 4510   4.182   2.397   1.359 -0.4703 -0.0197 -0.5031
  296TMC3    C3 4511   4.159   2.286   1.441 -0.1921  0.2992 -1.2612
  296TMC3    C4 4512   4.259   2.240   1.185  0.1927  0.7171 -0.6460
  296TMC3    C5 4513   4.254   2.143   1.284  1.0095 -0.3739  0.3172
  296TMC3    C6 4514   4.198   2.162   1.409 -0.0533  0.4154  0.1496
  296TMC3     C 4515   4.242   2.473   1.127 -0.2328 -0.5754 -0.1739
  296TMC3     O 4516   4.317   2.462   1.030  0.3322 -0.0664 -0.0264
  296TMC3     H 4517   4.169   2.499   1.393 -1.1703 -1.0195  2.2147
  296TMC3    H1 4518   4.309   2.221   1.091  2.1909  1.6869  0.2113
  296TMC3    H2 4519   4.161   2.076   1.464  0.0619  1.1131  1.3094
  296TMC3    C7 4520   4.318   2.020   1.249 -0.0894 -0.0246 -0.0390
  296TMC3    C8 4521   4.097   2.306   1.571 -0.5110  0.1056  0.0527
  296TMC3    O1 4522   4.383   1.966   1.339 -0.4916 -0.1542 -0.4920
  296TMC3    O2 4523   4.109   2.223   1.663  0.3782  0.6784 -0.4755
  297MPD2     C 4524   1.862   4.424  16.371  0.2913 -0.1735  0.0721
  297MPD2    C1 4525   1.821   4.513  16.277 -0.8205 -0.1654  0.0894
  297MPD2    C2 4526   1.907   4.614  16.237 -0.0567 -0.3471 -0.5994
  297MPD2    C3 4527   2.033   4.628  16.293 -0.2673  0.5277 -0.3223
  297MPD2    C4 4528   2.072   4.534  16.389  0.2356  0.0964 -0.6422
  297MPD2    C5 4529   1.988   4.439  16.419  0.1805  0.3530 -0.5732
  297MPD2     H 4530   1.879   4.681  16.157  1.8440 -0.1000 -1.0583
  297MPD2    H1 4531   2.170   4.535  16.435  0.5282 -1.5986 -1.2326
  297MPD2    H2 4532   1.793   4.363  16.429  0.6311 -0.6642 -0.0345
  297MPD2    H3 4533   2.008   4.359  16.489  1.4633  1.1886  0.0201
  297MPD2     N 4534   2.113   0.006  16.258  0.1151  0.3055  0.2272
  297MPD2    H5 4535   2.072   0.061  16.184  1.5197  2.5008  1.0718
  297MPD2    N1 4536   1.691   4.506  16.223  0.2650 -0.2851 -0.1913
  297MPD2    H7 4537   1.670   4.591  16.171 -0.5182  1.2464  2.6710
  298TMC3    C1 4538   1.468   4.419  16.189 -0.5361 -0.0880  0.0200
  298TMC3    C2 4539   1.459   4.481  16.064 -1.1725  0.0180 -0.2065
  298TMC3    C3 4540   1.336   4.536  16.026 -0.2861 -0.1112  0.1407
  298TMC3    C4 4541   1.360   4.409  16.265  0.2001 -0.2964 -1.3000
  298TMC3    C5 4542   1.244   4.467  16.227 -0.2993 -0.3622  0.4943
  298TMC3    C6 4543   1.224   4.529  16.105 -0.2307 -0.5602 -0.2160
  298TMC3     C 4544   1.594   4.414  16.259 -0.6678  0.0336  0.1898
  298TMC3     O 4545   1.597   4.332  16.353 -0.3235  0.7066 -0.5731
  298TMC3     H 4546   1.545   4.483  15.999 -1.0006 -1.9121 -0.0519
  298TMC3    H1 4547   1.364   4.360  16.362  0.7028  1.8796 -0.2166
  298TMC3    H2 4548   1.126   4.561  16.070 -0.0078  0.5261  0.1547
  298TMC3    C7 4549   1.156   4.506  16.330  0.2102  0.1234 -0.0910
  298TMC3    C8 4550   1.324   4.613  15.907 -0.0556  0.3385  0.6746
  298TMC3    O1 4551   1.198   4.503  16.446  0.7177  0.1128  0.1766
  298TMC3    O2 4552   1.219   4.666  15.899  0.3583 -0.4280 -0.0866
  299MPD2     C 4553   3.042   0.000  10.062  0.4832  0.5460  0.2215
  299MPD2    C1 4554   2.970   4.666  10.157 -0.4073  0.5172  0.2551
  299MPD2    C2 4555   2.844   4.611  10.124  0.3491  0.3138 -0.0937
  299MPD2    C3 4556   2.784   4.653  10.008 -0.2661 -0.5970  0.0537
  299MPD2    C4 4557   2.857   4.718   9.913  1.1134 -0.4089 -0.2366
  299MPD2    C5 4558   2.985   0.023   9.938 -0.2647  0.7747  0.8295
  299MPD2     H 4559   2.785   4.562  10.201 -1.1925 -0.8150 -1.9917
  299MPD2    H1 4560   2.815   0.001   9.815 -0.6841  1.9566  1.0202
  299MPD2    H2 4561   3.141   0.038  10.080  0.9627 -1.1398  1.1579
  299MPD2    H3 4562   3.043   0.082   9.868 -0.8045 -1.4760 -1.5376
  299MPD2     N 4563   2.653   4.622   9.969  0.2567  0.0106  0.5378
  299MPD2    H5 4564   2.617   4.655   9.880  0.3374 -0.0381  0.4871
  299MPD2    N1 4565   3.027   4.653  10.287  0.4601 -0.3371 -0.9886
  299MPD2    H7 4566   3.114   4.705  10.298  1.6762 -2.1536 -2.0805
  300TMC3    C1 4567   2.426   4.548   9.991  0.0817 -0.1896 -0.2046
  300TMC3    C2 4568   2.375   4.677   9.977  0.7919  0.0088 -0.0260
  300TMC3    C3 4569   2.263   4.712  10.043  0.4318  0.4990 -0.1054
  300TMC3    C4 4570   2.346   4.461  10.058  0.2154  0.0104  0.1799
  300TMC3    C5 4571   2.233   4.496  10.118  0.9183 -0.5925  0.2441
  300TMC3    C6 4572   2.183   4.624  10.111 -0.9043  0.1856 -0.2083
  300TMC3     C 4573   2.566   4.543  10.042  0.0222 -0.1940  0.3121
  300TMC3     O 4574   2.574   4.486  10.150  0.3237 -0.6733  0.0807
  300TMC3     H 4575   2.433   0.023   9.937  0.0212  0.7208  0.3339
  300TMC3    H1 4576   2.378   4.368  10.104 -2.5371 -0.1665  1.7523
  300TMC3    H2 4577   2.088   4.656  10.153 -0.5896  0.9410 -0.0640
  300TMC3    C7 4578   2.145   4.386  10.161  0.7075 -0.0512 -0.0031
  300TMC3    C8 4579   2.238   0.114  10.074  0.1024 -0.4675 -0.5858
  300TMC3    O1 4580   2.150   4.280  10.094 -0.3247 -0.2663 -0.2597
  300TMC3    O2 4581   2.274   0.193   9.987  0.1019 -0.0055  0.6654
  301MPD2     C 4582   0.005   1.476   0.856  0.3539 -0.5899  0.1585
  301MPD2    C1 4583   4.643   1.409   0.794 -0.1070  0.2020 -0.4390
  301MPD2    C2 4584   4.614   1.279   0.828  0.4344  0.3238 -0.4718
  301MPD2    C3 4585   4.675   1.216   0.937  0.1558 -1.4347 -0.4759
  301MPD2    C4 4586   0.040   1.286   0.997  0.3785  0.1540 -0.0007
  301MPD2    C5 4587   0.075   1.413   0.955  0.4173 -0.2677 -0.5183
  301MPD2     H 4588   4.548   1.221   0.764  1.8828 -2.5368  0.6117
  301MPD2    H1 4589   0.096   1.250   1.083 -0.7678 -0.7594  0.3600
  301MPD2    H2 4590   0.029   1.577   0.823  0.3627 -0.5836  0.1843
  301MPD2    H3 4591   0.148   1.473   1.008 -2.4218  1.8298  1.0212
  301MPD2     N 4592   4.641   1.090   0.983  0.2750  0.0926  0.0837
  301MPD2    H5 4593   4.711   1.055   1.048  0.3086 -0.1800 -0.1019
  301MPD2    N1 4594   4.572   1.467   0.689  0.2745 -0.2863  0.2238
  301MPD2    H7 4595   4.500   1.408   0.649  0.6215  1.0537 -2.3253
  302TMC3    C1 4596   4.552   0.880   0.980 -0.7316  0.5951 -0.2693
  302TMC3    C2 4597   4.632   0.840   1.085  0.0469  0.3370  0.0207
  302TMC3    C3 4598   4.622   0.708   1.124 -0.2602 -0.1170  0.6260
  302TMC3    C4 4599   4.469   0.791   0.917 -0.4741  0.1498 -0.3408
  302TMC3    C5 4600   4.460   0.664   0.974 -0.2572  0.2840 -0.0315
  302TMC3    C6 4601   4.538   0.620   1.068 -0.6523  0.0050 -0.0591
  302TMC3     C 4602   4.537   1.018   0.943  0.1068 -0.0947 -0.0407
  302TMC3     O 4603   4.445   1.052   0.870  0.1639 -0.4329  0.1868
  302TMC3     H 4604   4.679   0.905   1.158 -0.6080 -0.1462  0.8744
  302TMC3    H1 4605   4.416   0.824   0.828  2.2292 -0.0487 -2.0063
  302TMC3    H2 4606   4.515   0.521   1.106 -0.2511 -0.7280 -1.7262
  302TMC3    C7 4607   4.388   0.565   0.899  0.0052 -0.8062 -0.1999
  302TMC3    C8 4608   4.628   0.681   1.269  0.0026 -0.5532 -0.3816
  302TMC3    O1 4609   4.432   0.452   0.903  0.2187  0.5243  0.4392
  302TMC3    O2 4610   4.557   0.595   1.315 -0.2351 -0.5475  0.7314
  303MPD2     C 4611   0.283   4.320  10.339  0.0278  0.1908 -0.3062
  303MPD2    C1 4612   0.325   4.192  10.367  0.5059 -0.4375 -0.0512
  303MPD2    C2 4613   0.419   4.136  10.285 -0.2977 -0.3676  0.2639
  303MPD2    C3 4614   0.465   4.203  10.168  0.1828 -0.1478 -0.6160
  303MPD2    C4 4615   0.420   4.325  10.138 -0.2789  0.1520 -0.0520
  303MPD2    C5 4616   0.328   4.382  10.224 -0.8452 -0.2399  0.0467
  303MPD2     H 4617   0.451   4.034  10.304 -1.3079 -0.6893  0.2628
  303MPD2    H1 4618   0.466   4.384  10.060 -0.2159  1.1671  0.7568
  303MPD2    H2 4619   0.208   4.362  10.405  0.4348 -1.7526  1.3974
  303MPD2    H3 4620   0.288   4.480  10.198  1.6470  0.3909 -1.4692
  303MPD2     N 4621   0.569   4.144  10.093 -0.1749  0.1168 -0.5868
  303MPD2    H5 4622   0.593   4.192  10.007 -1.0671 -1.2393 -1.5956
  303MPD2    N1 4623   0.260   4.110  10.467 -0.7515 -0.3021  0.2104
  303MPD2    H7 4624   0.189   4.164  10.516  1.0738  2.5798 -0.3577
  304TMC3    C1 4625   0.207   3.931  10.603 -0.9596 -0.1852  0.0099
  304TMC3    C2 4626   0.085   3.910  10.555 -0.3425  0.6861 -0.1417
  304TMC3    C3 4627   4.735   3.811  10.600 -0.3430  0.1323  0.4323
  304TMC3    C4 4628   0.250   3.836  10.697  0.1318 -0.3960 -0.1808
  304TMC3    C5 4629   0.166   3.741  10.750 -0.3062  0.1454  0.1791
  304TMC3    C6 4630   0.032   3.735  10.710  0.1327  0.1156  0.1813
  304TMC3     C 4631   0.298   3.987  10.516 -0.1764 -0.0946 -0.4846
  304TMC3     O 4632   0.403   3.928  10.516  0.0372  0.6145  0.6148
  304TMC3     H 4633   0.046   3.956  10.464 -0.0869  3.6347  1.2663
  304TMC3    H1 4634   0.355   3.832  10.727  0.0052  0.7861  0.3866
  304TMC3    H2 4635   4.711   3.653  10.751 -0.0249 -0.6825 -1.6182
  304TMC3    C7 4636   0.223   3.610  10.741 -0.6827  0.2776 -0.2348
  304TMC3    C8 4637   4.690   3.722  10.501 -0.1466  0.1179 -0.1780
  304TMC3    O1 4638   0.148   3.531  10.683 -0.4125  0.1373  0.7457
  304TMC3    O2 4639   0.035   3.700  10.412 -0.3516  0.4631 -0.0187
  305MPD2     C 4640   2.833   1.057  13.766  0.2684  0.7600  0.1463
  305MPD2    C1 4641   2.920   0.967  13.815  0.1769  0.0510 -0.1570
  305MPD2    C2 4642   2.971   0.875  13.727  0.3776  0.5967  0.3297
  305MPD2    C3 4643   2.951   0.882  13.590 -0.3344  0.2268 -0.3993
  305MPD2    C4 4644   2.866   0.979  13.546 -0.1384  0.5714 -0.8596
  305MPD2    C5 4645   2.797   1.061  13.637 -0.0368  0.1057 -0.1311
  305MPD2     H 4646   3.017   0.785  13.767  0.0664  0.0116 -0.6169
  305MPD2    H1 4647   2.832   0.985  13.443 -0.0853  0.4242 -0.8862
  305MPD2    H2 4648   2.766   1.113  13.831  0.2759  2.0489 -0.9510
  305MPD2    H3 4649   2.705   1.113  13.615 -1.2882 -0.9576  2.5524
  305MPD2     N 4650   3.007   0.797  13.495  0.3570  0.6497 -0.0155
  305MPD2    H5 4651   2.974   0.793  13.399  0.5245 -0.0630 -0.0445
  305MPD2    N1 4652   2.947   0.976  13.958  0.2446 -0.3183  0.2847
  305MPD2    H7 4653   2.884   1.038  14.006  1.4386  1.2295 -0.1414
  306TMC3    C1 4654   3.052   0.939  14.162 -0.4613  1.1982 -0.3484
  306TMC3    C2 4655   3.135   0.861  14.233  0.4456  0.0923 -0.1093
  306TMC3    C3 4656   3.172   0.893  14.367 -0.0128  0.0015  0.4737
  306TMC3    C4 4657   3.000   1.051  14.226 -0.2155  1.1618  0.5206
  306TMC3    C5 4658   3.041   1.081  14.350 -0.4360  0.1468 -0.7186
  306TMC3    C6 4659   3.129   1.011  14.427  0.1370  1.0784  0.1820
  306TMC3     C 4660   3.055   0.915  14.022  0.8038  0.0035  0.2636
  306TMC3     O 4661   3.131   0.836  13.975 -0.0582 -0.3447 -0.2524
  306TMC3     H 4662   3.172   0.769  14.190  0.9788 -0.3324  1.2419
  306TMC3    H1 4663   2.936   1.120  14.173 -2.2962  0.3032  1.9182
  306TMC3    H2 4664   3.127   1.026  14.535 -0.2057 -2.4628  0.6653
  306TMC3    C7 4665   2.973   1.200  14.406 -0.0068 -0.0406 -0.1583
  306TMC3    C8 4666   3.261   0.811  14.437  0.0104 -0.0761  0.5326
  306TMC3    O1 4667   2.854   1.216  14.375  0.3107  0.0591 -0.2385
  306TMC3    O2 4668   3.266   0.691  14.407  0.1733  0.5675  0.4121
  307MPD2     C 4669   0.923   4.609   0.722 -0.5076 -0.7080  0.3862
  307MPD2    C1 4670   0.811   4.667   0.658 -0.0446  0.2143 -0.6155
  307MPD2    C2 4671   0.687   4.617   0.678 -0.5385 -0.1814  0.7059
  307MPD2    C3 4672   0.669   4.502   0.750 -0.1136  0.2231  0.1082
  307MPD2    C4 4673   0.778   4.438   0.810  0.5327  0.4334 -0.1372
  307MPD2    C5 4674   0.903   4.497   0.802  0.0380  0.7708  0.6500
  307MPD2     H 4675   0.603   4.666   0.630 -0.9174 -2.3332 -0.8729
  307MPD2    H1 4676   0.765   4.346   0.865  2.4135  1.1158  1.4653
  307MPD2    H2 4677   1.025   4.645   0.710 -0.6015 -0.4614  0.3462
  307MPD2    H3 4678   0.983   4.440   0.849  1.7225  0.5003 -2.5208
  307MPD2     N 4679   0.536   4.457   0.771  0.6960  0.7504  0.4993
  307MPD2    H5 4680   0.465   4.520   0.736  0.0404  0.3693  1.1507
  307MPD2    N1 4681   0.820   0.039   0.564  0.2200 -0.1093 -0.1155
  307MPD2    H7 4682   0.738   0.083   0.523  0.6361  0.3414 -0.4613
  308TMC3    C1 4683   0.204   4.142   0.895 -0.2825 -0.3071  0.4387
  308TMC3    C2 4684   0.125   4.229   0.961 -0.1689  0.8128  0.1085
  308TMC3    C3 4685   0.168   4.361   0.965  0.0386  0.0756 -0.0733
  308TMC3    C4 4686   0.330   4.171   0.845  0.3125  0.5606 -0.5982
  308TMC3    C5 4687   0.367   4.304   0.849 -0.0208 -0.2401  0.4812
  308TMC3    C6 4688   0.285   4.400   0.905  0.8831 -0.1068  0.9678
  308TMC3     C 4689   0.146   4.012   0.865  0.5808 -0.2356  0.2509
  308TMC3     O 4690   0.225   3.932   0.826  0.1897 -0.1478 -0.0174
  308TMC3     H 4691   0.034   4.196   1.010 -1.4068  0.9849 -2.0760
  308TMC3    H1 4692   0.391   4.091   0.803 -1.0458  0.2654 -1.9993
  308TMC3    H2 4693   0.321   4.500   0.924  2.4846 -0.2423 -1.2634
  308TMC3    C7 4694   0.508   4.332   0.819  1.0667  0.2689  0.4846
  308TMC3    C8 4695   0.083   4.459   1.036 -0.2763  0.1780 -0.3769
  308TMC3    O1 4696   0.574   4.232   0.795 -0.2815  0.1250  0.3799
  308TMC3    O2 4697   0.000   4.415   1.116  0.4175  0.0611 -0.4069
  309MPD2     C 4698   0.160   4.308  17.544  0.6860  0.4678 -0.0962
  309MPD2    C1 4699   0.112   4.353  17.427 -0.1545 -0.3560  0.2209
  309MPD2    C2 4700   4.715   4.373  17.408 -0.0850 -0.4852 -0.5725
  309MPD2    C3 4701   4.620   4.359  17.512  0.7237  0.2275  0.1557
  309MPD2    C4 4702   4.669   4.315  17.637  0.4082 -0.8414 -0.3371
  309MPD2    C5 4703   0.068   4.288  17.643 -0.1769  0.1281  0.5757
  309MPD2     H 4704   4.691   4.422  17.315  0.8432  1.4499  0.2030
  309MPD2    H1 4705   4.603   4.295  17.721 -2.9060 -0.4803 -2.8575
  309MPD2    H2 4706   0.265   4.282  17.555  1.2045  1.9226 -1.5579
  309MPD2    H3 4707   0.087   4.266   0.003  1.4245 -0.8475  0.0858
  309MPD2     N 4708   4.487   4.393  17.494  0.5763 -0.5142  0.2552
  309MPD2    H5 4709   4.470   4.437  17.405  2.6570  0.5396  0.3832
  309MPD2    N1 4710   0.191   4.375  17.313 -0.0187  0.0162 -1.1877
  309MPD2    H7 4711   0.142   4.417  17.234  0.5963  1.9404 -0.5291
  310TMC3    C1 4712   0.360   4.349  17.152 -0.5964  0.5471  0.5090
  310TMC3    C2 4713   0.270   4.385  17.052 -0.6794 -0.1947  0.0268
  310TMC3    C3 4714   0.306   4.349  16.920 -0.0669 -0.3528  0.0247
  310TMC3    C4 4715   0.483   4.295  17.127  0.0747 -0.3347 -0.2584
  310TMC3    C5 4716   0.506   4.263  16.997  0.8808  0.2521  0.1971
  310TMC3    C6 4717   0.426   4.292  16.889 -0.7082 -0.6060  0.2795
  310TMC3     C 4718   0.323   4.341  17.294  0.5504  0.3821 -0.5796
  310TMC3     O 4719   0.399   4.292  17.374 -0.4868 -0.1872  0.8065
  310TMC3     H 4720   0.164   4.402  17.071 -0.4414 -0.3578  1.5362
  310TMC3    H1 4721   0.542   4.254  17.208 -2.3953 -3.0581  0.1611
  310TMC3    H2 4722   0.447   4.257  16.789 -1.9958 -0.4230 -0.0542
  310TMC3    C7 4723   0.631   4.187  16.958 -0.4815 -0.9136  0.4611
  310TMC3    C8 4724   0.211   4.387  16.814  0.5072  0.4895  0.7469
  310TMC3    O1 4725   0.627   4.135  16.847  0.3697 -0.1790  0.2427
  310TMC3    O2 4726   0.224   4.341  16.702  1.0388  0.6925 -0.6747
  311MPD2     C 4727   2.484   0.557  12.885 -0.5969  0.1050  0.7284
  311MPD2    C1 4728   2.482   0.685  12.840 -0.8111 -0.2620  0.8144
  311MPD2    C2 4729   2.362   0.740  12.798  1.3929 -0.3685 -0.6977
  311MPD2    C3 4730   2.244   0.673  12.811  0.9623  0.1027 -0.0858
  311MPD2    C4 4731   2.245   0.536  12.842  0.4838  0.2902  0.4824
  311MPD2    C5 4732   2.366   0.486  12.885  0.2702  0.0306 -0.2382
  311MPD2     H 4733   2.361   0.842  12.763  2.4943  0.1310  0.7411
  311MPD2    H1 4734   2.152   0.483  12.861  0.3789  0.6369  0.9387
  311MPD2    H2 4735   2.569   0.506  12.928 -0.6503 -0.9936 -0.4942
  311MPD2    H3 4736   2.364   0.389  12.934  0.5353 -0.9736 -2.2112
  311MPD2     N 4737   2.128   0.756  12.779  0.2828  0.0923 -0.1396
  311MPD2    H5 4738   2.153   0.854  12.769  0.3291  0.4104  3.1921
  311MPD2    N1 4739   2.593   0.765  12.822 -0.4952  0.0843 -0.2340
  311MPD2    H7 4740   2.581   0.863  12.800  0.7610  0.8299  2.3469
  312TMC3    C1 4741   1.905   0.813  12.729  0.2036 -0.2870 -0.0206
  312TMC3    C2 4742   1.815   0.793  12.626 -0.1282 -0.4199 -0.2451
  312TMC3    C3 4743   1.767   0.912  12.580 -0.1758 -1.3972  0.7488
  312TMC3    C4 4744   1.948   0.933  12.777  0.4295 -0.0870  0.2282
  312TMC3    C5 4745   1.881   1.039  12.741 -0.6059  0.0936  0.3403
  312TMC3    C6 4746   1.793   1.031  12.640  0.0027 -0.2405  0.2020
  312TMC3     C 4747   2.002   0.705  12.747  0.2703  0.1821 -0.0924
  312TMC3     O 4748   1.972   0.590  12.720 -0.2479 -0.1151  0.5119
  312TMC3     H 4749   1.789   0.696  12.585  1.0552 -0.4176 -0.9799
  312TMC3    H1 4750   2.014   0.946  12.861  0.2290 -0.0505  0.3807
  312TMC3    H2 4751   1.732   1.118  12.616 -2.5641 -1.9080  0.7093
  312TMC3    C7 4752   1.965   1.165  12.747  0.1205  0.2116  0.0484
  312TMC3    C8 4753   1.658   0.909  12.503 -0.6644  0.5981 -0.5285
  312TMC3    O1 4754   2.028   1.192  12.650 -0.1138 -0.5393 -0.0992
  312TMC3    O2 4755   1.633   1.000  12.425 -0.0966  0.1215  0.0857
  313MPD2     C 4756   0.995   0.365  11.799  0.0780  0.5638  0.2330
  313MPD2    C1 4757   1.051   0.357  11.668  0.4885 -0.2537 -0.0584
  313MPD2    C2 4758   1.057   0.231  11.614 -1.3648  0.5798 -0.2139
  313MPD2    C3 4759   0.992   0.122  11.666 -0.3947  1.0232 -0.8752
  313MPD2    C4 4760   0.929   0.128  11.789  0.0607  0.2498 -0.2352
  313MPD2    C5 4761   0.938   0.252  11.853 -0.7095 -0.3964 -0.6158
  313MPD2     H 4762   1.108   0.212  11.520 -0.9817  1.4047 -0.1667
  313MPD2    H1 4763   0.884   0.041  11.835  0.2551  0.4193  0.2798
  313MPD2    H2 4764   1.001   0.455  11.859 -1.9784 -0.2303  1.6531
  313MPD2    H3 4765   0.909   0.264  11.956 -1.3956  0.3057 -0.8901
  313MPD2     N 4766   0.984   0.008  11.583 -0.4508 -0.4046  0.2015
  313MPD2    H5 4767   1.042   0.000  11.500  0.6614 -0.6603  1.0011
  313MPD2    N1 4768   1.117   0.463  11.599  0.2270 -0.1682 -0.2085
  313MPD2    H7 4769   1.151   0.432  11.509  1.4866  0.0090  0.2009
  314TMC3    C1 4770   1.184   0.675  11.533  0.2385  0.3403 -0.9518
  314TMC3    C2 4771   1.304   0.739  11.545  0.0647  0.0075  0.1349
  314TMC3    C3 4772   1.363   0.788  11.428  0.6638 -0.5206  1.3123
  314TMC3    C4 4773   1.121   0.656  11.416 -0.4911 -0.2030 -0.4517
  314TMC3    C5 4774   1.188   0.698  11.302 -0.1396  0.4075 -0.6701
  314TMC3    C6 4775   1.303   0.769  11.302 -0.2651  0.3183 -0.0469
  314TMC3     C 4776   1.134   0.592  11.642 -0.4852  0.0024 -0.1014
  314TMC3     O 4777   1.117   0.642  11.753  0.0464 -0.2768  0.0504
  314TMC3     H 4778   1.349   0.766  11.640  0.8758 -0.2143 -0.1826
  314TMC3    H1 4779   1.028   0.601  11.409 -0.5830  0.2596 -3.2112
  314TMC3    H2 4780   1.343   0.826  11.219 -2.4019 -0.3885 -1.5586
  314TMC3    C7 4781   1.128   0.665  11.173 -0.0810 -0.5845  0.1406
  314TMC3    C8 4782   1.503   0.831  11.427  0.1308  0.1366  0.2867
  314TMC3    O1 4783   1.013   0.632  11.184  0.1679 -0.4791  0.4923
  314TMC3    O2 4784   1.535   0.902  11.334 -0.1913 -0.0936  0.4222
  315MPD2     C 4785   0.880   3.738  17.349 -0.8803  0.0756 -0.1390
  315MPD2    C1 4786   0.912   3.735  17.480  0.7050 -0.7580 -0.5537
  315MPD2    C2 4787   0.878   3.839  17.557  0.4964  0.2382  0.7253
  315MPD2    C3 4788   0.824   3.957  17.510 -0.3789 -0.0774 -0.1762
  315MPD2    C4 4789   0.800   3.963  17.375 -0.2604  0.5791 -0.5173
  315MPD2    C5 4790   0.828   3.857  17.298 -0.1632 -0.4774 -0.1176
  315MPD2     H 4791   0.893   3.831  17.664 -0.4271 -1.1233  0.7618
  315MPD2    H1 4792   0.761   4.050  17.323 -0.1770 -1.2320 -3.6195
  315MPD2    H2 4793   0.889   3.651  17.286  0.4557  1.0257 -1.2444
  315MPD2    H3 4794   0.805   3.866  17.192  1.8670 -2.6931 -0.7427
  315MPD2     N 4795   0.800   4.053  17.607  0.3750  0.1173 -0.4807
  315MPD2    H5 4796   0.805   4.024  17.704  0.2748 -1.2064 -0.8619
  315MPD2    N1 4797   0.961   3.613  17.545 -0.0366  0.0337  0.2064
  315MPD2    H7 4798   0.972   3.600  17.645  0.8450  0.4827  0.1731
  316TMC3    C1 4799   0.785   4.275  17.698 -0.3812 -1.3769  0.6195
  316TMC3    C2 4800   0.795   4.228   0.076 -0.2708 -0.1557  0.1041
  316TMC3    C3 4801   0.810   4.320   0.176 -0.8447  0.3129  0.2944
  316TMC3    C4 4802   0.792   4.408  17.666 -0.0743  0.0585  0.6514
  316TMC3    C5 4803   0.801   4.496   0.027  0.4585  0.4692 -0.3637
  316TMC3    C6 4804   0.808   4.455   0.156 -0.4897 -0.0394 -0.3746
  316TMC3     C 4805   0.778   4.184  17.583  0.5303  0.3965 -0.1285
  316TMC3     O 4806   0.773   4.234  17.472 -0.6224  0.1212  0.3289
  316TMC3     H 4807   0.810   4.123   0.097 -1.5256 -0.2275  0.6411
  316TMC3    H1 4808   0.799   4.440  17.563  1.3111 -1.2480  0.3475
  316TMC3    H2 4809   0.826   4.535   0.228  0.1420  1.3217 -2.0542
  316TMC3    C7 4810   0.814   4.641   0.009 -0.0627  0.0691  0.0107
  316TMC3    C8 4811   0.837   4.289   0.317 -0.2660  0.2904 -0.1873
  316TMC3    O1 4812   0.824   4.709   0.108  0.5746 -0.6896 -0.4819
  316TMC3    O2 4813   0.822   4.382   0.394  0.2535  0.2834 -0.2984
  317MPD2     C 4814   3.411   2.813  13.112  0.1435  0.0680 -0.2192
  317MPD2    C1 4815   3.430   2.679  13.079 -0.4214  0.9072 -0.1438
  317MPD2    C2 4816   3.517   2.608  13.164  1.1085  0.1889  0.2003
  317MPD2    C3 4817   3.598   2.672  13.260  0.4541 -0.6584 -0.7064
  317MPD2    C4 4818   3.579   2.804  13.293  0.2210  0.3700  0.0790
  317MPD2    C5 4819   3.481   2.871  13.218 -0.0308  0.5279 -0.2663
  317MPD2     H 4820   3.548   2.506  13.146 -0.7295 -0.4795  0.7964
  317MPD2    H1 4821   3.635   2.852  13.373 -1.6810  0.2246  1.4811
  317MPD2    H2 4822   3.364   2.883  13.044  0.6087  0.7400  0.1474
  317MPD2    H3 4823   3.476   2.978  13.230  0.7763  0.4193  1.1033
  317MPD2     N 4824   3.664   2.584  13.351 -0.7022  0.2774  0.0702
  317MPD2    H5 4825   3.660   2.486  13.327  2.9412  0.1571 -0.0859
  317MPD2    N1 4826   3.365   2.616  12.973  0.7040 -0.6450 -0.1065
  317MPD2    H7 4827   3.378   2.517  12.958 -1.7436 -0.7184 -1.8753
  318TMC3    C1 4828   3.810   2.491  13.509 -0.8133  0.0676  0.1505
  318TMC3    C2 4829   3.725   2.386  13.540  0.0468 -0.6589 -0.2429
  318TMC3    C3 4830   3.784   2.274  13.599  0.9899  0.4823 -0.0364
  318TMC3    C4 4831   3.944   2.494  13.537 -1.0707 -0.0354 -0.3837
  318TMC3    C5 4832   3.996   2.382  13.596  0.5235 -0.9707 -0.6339
  318TMC3    C6 4833   3.917   2.273  13.622 -0.0766 -1.0168  0.3618
  318TMC3     C 4834   3.761   2.615  13.446  0.3853  0.1133  0.0685
  318TMC3     O 4835   3.811   2.719  13.475  0.8089  0.1001 -0.4873
  318TMC3     H 4836   3.618   2.391  13.525  0.0963  1.2217  0.0044
  318TMC3    H1 4837   3.997   2.587  13.519 -1.4007  0.0756 -0.8141
  318TMC3    H2 4838   3.965   2.181  13.652 -0.6801 -1.2659  0.5792
  318TMC3    C7 4839   4.131   2.359  13.553  0.6593 -0.7467  0.2162
  318TMC3    C8 4840   3.711   2.151  13.593  0.6014 -0.0825 -1.5542
  318TMC3    O1 4841   4.154   2.422  13.449 -0.1372  0.5972  0.8992
  318TMC3    O2 4842   3.719   2.065  13.680 -0.4206 -0.5048  0.1675
  319MPD2     C 4843   4.234   3.762  16.029 -0.4845 -0.5297 -0.5630
  319MPD2    C1 4844   4.138   3.763  16.127  0.1225 -0.5973  0.5333
  319MPD2    C2 4845   4.014   3.706  16.100 -0.7918  1.1369  0.0767
  319MPD2    C3 4846   3.991   3.640  15.983  0.3107 -0.4367  0.6592
  319MPD2    C4 4847   4.081   3.642  15.882  0.6798  0.4404  0.7291
  319MPD2    C5 4848   4.206   3.696  15.914  0.2484 -0.6122 -0.1233
  319MPD2     H 4849   3.939   3.705  16.179 -0.4149  0.1926  0.4188
  319MPD2    H1 4850   4.061   3.596  15.786  1.3238 -1.8243  1.6801
  319MPD2    H2 4851   4.332   3.808  16.036 -1.7393  2.4261 -2.1969
  319MPD2    H3 4852   4.279   3.694  15.834 -0.5330  2.3312 -0.9220
  319MPD2     N 4853   3.869   3.579  15.955 -0.3111 -0.1667 -0.5562
  319MPD2    H5 4854   3.848   3.562  15.857 -0.3652 -1.7497 -0.2649
  319MPD2    N1 4855   4.159   3.808  16.254 -0.1433 -0.0146 -0.5894
  319MPD2    H7 4856   4.071   3.820  16.304  0.4992 -2.4134  1.1393
  320TMC3    C1 4857   3.671   3.472  15.973 -0.3924 -0.2044 -0.1617
  320TMC3    C2 4858   3.585   3.564  15.903 -0.4868 -0.4473 -0.2505
  320TMC3    C3 4859   3.450   3.536  15.917  0.2687  0.6675  0.2947
  320TMC3    C4 4860   3.616   3.365  16.047 -0.5212 -0.6612  0.5475
  320TMC3    C5 4861   3.477   3.344  16.035 -0.2902  1.0810 -0.0178
  320TMC3    C6 4862   3.393   3.428  15.969  0.0235 -1.2227  0.3409
  320TMC3     C 4863   3.780   3.533  16.046 -0.2649 -0.2012 -0.2101
  320TMC3     O 4864   3.772   3.521  16.169 -0.6348  0.4642 -0.1328
  320TMC3     H 4865   3.622   3.656  15.859  1.4207 -0.2156  1.8383
  320TMC3    H1 4866   3.687   3.301  16.098 -1.4009 -1.7263  0.4353
  320TMC3    H2 4867   3.286   3.411  15.969 -0.3289  0.9557  1.2399
  320TMC3    C7 4868   3.424   3.215  16.079 -0.4941 -0.2860 -0.6784
  320TMC3    C8 4869   3.379   3.660  15.907 -0.5268  0.1588 -0.3245
  320TMC3    O1 4870   3.351   3.158  16.000  0.1261  0.2576 -0.1210
  320TMC3    O2 4871   3.439   3.752  15.855  0.6646 -0.3679  0.0778
  321TMC3    C1 4872   4.266   3.899  16.444  0.4980  0.1167  0.2448
  321TMC3    C2 4873   4.155   3.883  16.520  0.2687  0.8208 -0.7154
  321TMC3    C3 4874   4.143   3.959  16.639  0.5052  0.1844  0.5165
  321TMC3    C4 4875   4.370   3.974  16.477 -0.4418  0.4105 -0.1081
  321TMC3    C5 4876   4.354   4.050  16.594  0.4208  0.3870  0.1746
  321TMC3    C6 4877   4.238   4.050  16.673  0.2171  0.2808  0.0964
  321TMC3     C 4878   4.279   3.844  16.311  0.1825 -0.0862 -0.3098
  321TMC3     O 4879   4.390   3.824  16.269  0.1190  0.1494 -0.0945
  321TMC3     H 4880   4.078   3.820  16.479  0.7674  0.1288 -0.5806
  321TMC3    H1 4881   4.456   3.996  16.416 -1.2002 -2.4655 -2.2346
  321TMC3    H2 4882   4.241   4.097  16.770 -1.8929 -1.0560  0.8132
  321TMC3    C7 4883   4.464   4.077  16.680 -0.2830 -0.9347 -0.0805
  321TMC3    C8 4884   4.063   3.905  16.750  0.6339  0.2836 -0.1549
  321TMC3    O1 4885   4.543   3.987  16.701  0.3389 -0.1512  0.1735
  321TMC3    O2 4886   4.067   3.971  16.849 -0.5232 -0.1311  0.0696
  322MPD2     C 4887   2.848   0.337  13.570  0.5401 -0.5727 -0.3660
  322MPD2    C1 4888   2.957   0.284  13.636  0.1374  0.1489  0.4047
  322MPD2    C2 4889   3.020   0.176  13.582 -0.2511  0.0365  0.2574
  322MPD2    C3 4890   2.965   0.107  13.471  0.0334 -0.7344 -0.3195
  322MPD2    C4 4891   2.854   0.166  13.402 -0.3417  0.4707  0.0895
  322MPD2    C5 4892   2.796   0.275  13.458 -0.0065  0.1051  0.4393
  322MPD2     H 4893   3.095   0.127  13.644  0.9217 -0.1821 -1.3393
  322MPD2    H1 4894   2.811   0.132  13.309 -0.9262  0.6974  0.2764
  322MPD2    H2 4895   2.791   0.422  13.607  2.3809  1.3361 -1.9076
  322MPD2    H3 4896   2.712   0.318  13.404  1.4026 -2.1205 -3.5302
  322MPD2     N 4897   3.026   4.722  13.434  0.4941  0.5215 -0.1505
  322MPD2    H5 4898   3.103   4.689  13.492 -0.2840  0.7923  1.0351
  322MPD2    N1 4899   3.012   0.334  13.756 -0.2452  0.6153  0.2601
  322MPD2    H7 4900   3.103   0.308  13.792 -0.6618 -0.9036  0.2110
  323TMC3    C1 4901   3.004   0.464  13.953  0.6529 -0.9064 -0.1683
  323TMC3    C2 4902   3.123   0.521  13.916  0.5554 -0.5396  0.7355
  323TMC3    C3 4903   3.211   0.539  14.017  0.6136 -0.6204 -0.6189
  323TMC3    C4 4904   2.975   0.420  14.079 -0.1605 -0.4739  0.2434
  323TMC3    C5 4905   3.063   0.446  14.175  0.4559  0.3032  0.2073
  323TMC3    C6 4906   3.188   0.498  14.144  0.3505 -0.4263  0.1122
  323TMC3     C 4907   2.932   0.413  13.838  0.0742 -0.4803  0.0679
  323TMC3     O 4908   2.812   0.430  13.833 -0.0215 -0.1148 -0.9570
  323TMC3     H 4909   3.135   0.565  13.818  2.1607 -2.7059 -0.0421
  323TMC3    H1 4910   2.880   0.372  14.100  0.2244  0.0352  3.0959
  323TMC3    H2 4911   3.267   0.517  14.216 -0.1983 -0.5285  0.7415
  323TMC3    C7 4912   3.045   0.376  14.296 -0.6413  0.2626 -0.0304
  323TMC3    C8 4913   3.357   0.558  13.985 -0.6408  0.1131  0.2972
  323TMC3    O1 4914   3.001   0.261  14.293 -0.2790  0.2553 -0.0166
  323TMC3    O2 4915   3.434   0.493  14.050 -0.4700 -0.0691 -0.7446
  324MPD2     C 4916   0.398   1.241  14.107 -0.0289 -0.3295 -0.3879
  324MPD2    C1 4917   0.447   1.369  14.134  0.1082 -0.3765 -0.2867
  324MPD2    C2 4918   0.362   1.474  14.178 -0.4868  0.4085 -0.1024
  324MPD2    C3 4919   0.228   1.443  14.205  0.0648  1.0376 -0.3130
  324MPD2    C4 4920   0.185   1.323  14.161 -0.1395 -0.3650  0.2877
  324MPD2    C5 4921   0.266   1.222  14.123 -0.3470 -0.0717  0.5648
  324MPD2     H 4922   0.390   1.575  14.209 -0.6489  0.5091 -0.2876
  324MPD2    H1 4923   0.078   1.305  14.168  0.0622 -1.0543  1.6463
  324MPD2    H2 4924   0.458   1.158  14.071  1.9628  0.5532  0.8928
  324MPD2    H3 4925   0.216   1.131  14.094 -2.4986  1.0772  0.6939
  324MPD2     N 4926   0.130   1.528  14.260  0.2102  0.5553 -0.2753
  324MPD2    H5 4927   0.035   1.492  14.259  0.1211  0.7747  0.3655
  324MPD2    N1 4928   0.584   1.407  14.108 -0.1744  0.0405 -0.1620
  324MPD2    H7 4929   0.617   1.501  14.126  0.5555 -0.2870  0.1962
  325TMC3    C1 4930   0.030   1.708  14.352  0.8308 -0.2311  0.5800
  325TMC3    C2 4931   4.673   1.627  14.408  0.4752 -0.4470  0.7008
  325TMC3    C3 4932   4.555   1.689  14.448  0.2656 -0.3992 -0.6883
  325TMC3    C4 4933   0.013   1.844  14.344  0.3190 -0.2336  0.4414
  325TMC3    C5 4934   4.630   1.900  14.377  0.2540  1.1691  0.0113
  325TMC3    C6 4935   4.528   1.822  14.437  0.4653 -0.1594 -0.4205
  325TMC3     C 4936   0.151   1.655  14.294  0.0507  0.1661 -0.4002
  325TMC3     O 4937   0.249   1.726  14.279  0.1478 -0.1113  0.2690
  325TMC3     H 4938   4.684   1.520  14.420 -0.3800 -0.6639 -0.4329
  325TMC3    H1 4939   0.084   1.897  14.282 -0.4247  1.3376  0.9416
  325TMC3    H2 4940   4.428   1.853  14.465 -0.1942 -0.8922 -2.0051
  325TMC3    C7 4941   4.582   2.008  14.291 -0.3628 -0.0420 -0.0768
  325TMC3    C8 4942   4.437   1.606  14.446 -0.4628  0.2491 -0.0765
  325TMC3    O1 4943   4.617   2.014  14.174 -0.3246  0.4044  0.0066
  325TMC3    O2 4944   4.345   1.653  14.387  0.2500  0.5263 -0.1163
  326MPD2     C 4945   1.436   3.129  11.171 -0.4113 -0.4673 -0.5080
  326MPD2    C1 4946   1.503   3.090  11.058  0.0155 -0.1770  0.4940
  326MPD2    C2 4947   1.630   3.038  11.070 -0.5325  0.1329 -0.4729
  326MPD2    C3 4948   1.687   3.010  11.196  0.9087 -0.1297 -0.0003
  326MPD2    C4 4949   1.617   3.048  11.306  0.3010 -0.5240 -0.2495
  326MPD2    C5 4950   1.492   3.104  11.291  0.4723 -0.6989  0.5100
  326MPD2     H 4951   1.690   3.015  10.983 -0.3903 -0.9236 -0.0964
  326MPD2    H1 4952   1.658   3.036  11.406 -1.7526 -2.3038  0.3833
  326MPD2    H2 4953   1.338   3.174  11.179 -0.2395 -0.6078  2.4615
  326MPD2    H3 4954   1.432   3.136  11.376  0.4311  0.1996  0.1388
  326MPD2     N 4955   1.818   2.969  11.210  0.3037  0.5496  0.6481
  326MPD2    H5 4956   1.866   2.980  11.299 -1.2266  2.0840  1.2803
  326MPD2    N1 4957   1.455   3.108  10.919 -0.0255 -0.1283 -0.4299
  326MPD2    H7 4958   1.505   3.058  10.846 -0.7720  1.1273 -1.8152
  327TMC3    C1 4959   1.302   3.125  10.750 -0.6427 -0.1366  0.0533
  327TMC3    C2 4960   1.251   3.229  10.680 -0.6062  0.5092  0.0992
  327TMC3    C3 4961   1.159   3.208  10.580  0.4473  0.8054 -0.1986
  327TMC3    C4 4962   1.261   2.997  10.726  0.0660 -0.0610 -0.2100
  327TMC3    C5 4963   1.169   2.977  10.627 -0.3442  0.2962  0.6611
  327TMC3    C6 4964   1.123   3.081  10.550  1.0540 -0.0692  0.9296
  327TMC3     C 4965   1.340   3.171  10.879 -0.5982 -0.0499  0.2971
  327TMC3     O 4966   1.268   3.259  10.924  0.0532  0.0777  0.3185
  327TMC3     H 4967   1.262   3.332  10.711 -0.5580  0.2611  0.9121
  327TMC3    H1 4968   1.300   2.914  10.783  1.9202  1.6414  1.0193
  327TMC3    H2 4969   1.069   3.045  10.464  0.8889  2.4455 -0.0312
  327TMC3    C7 4970   1.108   2.849  10.614  0.0763 -0.0006 -0.4460
  327TMC3    C8 4971   1.099   3.326  10.515  0.2129 -0.4038 -0.3225
  327TMC3    O1 4972   1.088   2.815  10.498 -0.3600 -0.1929 -0.2488
  327TMC3    O2 4973   1.171   3.425  10.513 -0.4954 -0.2209  0.1579
  328MPD2     C 4974   3.635   2.726  17.069 -0.1083  0.0214 -0.0678
  328MPD2    C1 4975   3.542   2.626  17.049 -0.2337  0.0229 -0.4552
  328MPD2    C2 4976   3.434   2.667  16.979 -0.2845  0.5939  0.3987
  328MPD2    C3 4977   3.413   2.793  16.931  0.2299  0.0265  0.1861
  328MPD2    C4 4978   3.503   2.893  16.958  0.0069  0.0850  0.2253
  328MPD2    C5 4979   3.617   2.855  17.027 -0.7028 -0.2513  0.0679
  328MPD2     H 4980   3.348   2.601  16.973  0.1306  0.1583 -0.9053
  328MPD2    H1 4981   3.484   2.993  16.921  1.5134 -0.3236 -1.6482
  328MPD2    H2 4982   3.726   2.690  17.116  0.1411  1.7666  0.7880
  328MPD2    H3 4983   3.679   2.937  17.060 -1.1187  0.2552 -0.3996
  328MPD2     N 4984   3.297   2.819  16.851  0.5540 -0.2631  1.2131
  328MPD2    H5 4985   3.277   2.916  16.831  0.1481 -0.7093 -0.5287
  328MPD2    N1 4986   3.553   2.502  17.117  0.4420  0.9961 -0.5583
  328MPD2    H7 4987   3.631   2.485  17.180 -1.2806 -0.5278  1.1609
  329TMC3    C1 4988   3.450   2.301  17.201 -0.1997 -0.6582  0.1884
  329TMC3    C2 4989   3.545   2.306  17.304 -1.0769  0.4293  0.3049
  329TMC3    C3 4990   3.495   2.286  17.426 -0.0758 -0.2253  0.0032
  329TMC3    C4 4991   3.325   2.248  17.215 -0.0471 -0.4609 -0.2745
  329TMC3    C5 4992   3.282   2.223  17.343 -0.4319 -0.1373  0.3608
  329TMC3    C6 4993   3.366   2.233  17.445 -0.0143  0.2799  0.5442
  329TMC3     C 4994   3.467   2.400  17.088  0.3398 -0.6833 -0.1130
  329TMC3     O 4995   3.389   2.388  16.997 -0.3457 -0.3518 -0.1238
  329TMC3     H 4996   3.646   2.341  17.287 -1.3637  0.6392 -0.9334
  329TMC3    H1 4997   3.265   2.234  17.126 -1.1975 -0.9931  0.5881
  329TMC3    H2 4998   3.322   2.223  17.543  0.8276 -2.3685  0.6352
  329TMC3    C7 4999   3.140   2.200  17.365 -0.9053  0.6565 -0.4568
  329TMC3    C8 5000   3.581   2.302  17.542  0.3775 -0.2416 -0.5318
  329TMC3    O1 5001   3.091   2.221  17.475  0.1550 -0.1003  0.1856
  329TMC3    O2 5002   3.700   2.294  17.514  0.0124 -1.0564 -0.7312
  330TMC3    C1 5003   1.713   2.213   9.764  0.0621  0.1105 -0.5411
  330TMC3    C2 5004   1.605   2.145   9.718 -0.1492  0.2184  0.7849
  330TMC3    C3 5005   1.588   2.012   9.744  0.1766 -0.6026 -0.8825
  330TMC3    C4 5006   1.812   2.149   9.840  0.3780 -0.1142 -0.2800
  330TMC3    C5 5007   1.795   2.015   9.862 -0.1427  0.9282 -0.4852
  330TMC3    C6 5008   1.680   1.948   9.825  0.3276  0.8635  0.2248
  330TMC3     C 5009   1.721   2.359   9.756 -0.0408  0.5779 -0.0316
  330TMC3     O 5010   1.811   2.409   9.821  0.3219  0.3352 -0.0658
  330TMC3     H 5011   1.537   2.193   9.648  0.0022  1.8829  1.7560
  330TMC3    H1 5012   1.896   2.209   9.873 -0.6351  1.2810 -0.2281
  330TMC3    H2 5013   1.673   1.841   9.832  2.4143  0.4865 -3.4530
  330TMC3    C7 5014   1.883   1.948   9.958 -0.1536  0.1136 -0.4719
  330TMC3    C8 5015   1.464   1.947   9.705  0.3452 -0.6978 -0.3362
  330TMC3    O1 5016   1.847   1.842  10.009  0.0761 -0.3761 -0.4427
  330TMC3    O2 5017   1.399   2.003   9.616  0.1413 -0.4777  0.1476
  331MPD2     C 5018   4.238   1.213  13.369  0.2159  0.1732  0.0069
  331MPD2    C1 5019   4.347   1.249  13.293  0.1950  0.6244  0.0249
  331MPD2    C2 5020   4.423   1.155  13.221  0.6518 -0.1762  0.1452
  331MPD2    C3 5021   4.409   1.025  13.255  0.0279 -0.0643  0.1200
  331MPD2    C4 5022   4.306   0.989  13.338  0.5905 -0.1482  0.5001
  331MPD2    C5 5023   4.214   1.082  13.379  0.4485 -0.6887 -0.2366
  331MPD2     H 5024   4.508   1.183  13.159  0.4831  0.3238  0.1344
  331MPD2    H1 5025   4.284   0.883  13.352 -0.0995 -0.3527 -2.1019
  331MPD2    H2 5026   4.161   1.277  13.411 -0.0803  0.5054 -1.0470
  331MPD2    H3 5027   4.127   1.046  13.433  0.9461 -2.1477 -0.4067
  331MPD2     N 5028   4.502   0.943  13.197  0.0035 -0.8482 -1.3047
  331MPD2    H5 5029   4.568   0.988  13.135  1.4021  1.5019  1.8369
  331MPD2    N1 5030   4.390   1.385  13.283 -0.3929 -0.0870 -0.0829
  331MPD2    H7 5031   4.333   1.463  13.315  1.5047  2.2663 -2.5163
  332TMC3    C1 5032   4.637   0.758  13.150  0.7060  0.4684  0.5498
  332TMC3    C2 5033   4.648   0.800  13.017 -0.6586  0.4718  0.7694
  332TMC3    C3 5034   0.023   0.767  12.950  0.1929 -0.3997  0.6504
  332TMC3    C4 5035   4.734   0.701  13.225 -0.0175 -0.1251 -0.2887
  332TMC3    C5 5036   0.118   0.697  13.157 -0.3313 -0.5754 -0.6871
  332TMC3    C6 5037   0.132   0.721  13.021 -0.6993  1.1252 -0.4076
  332TMC3     C 5038   4.521   0.809  13.224 -0.1911 -0.5928  0.7543
  332TMC3     O 5039   4.468   0.739  13.309  0.5730  0.3114 -0.1070
  332TMC3     H 5040   4.568   0.847  12.961 -0.5661 -0.1427  0.1232
  332TMC3    H1 5041   4.722   0.682  13.332  0.0246  2.1847  0.1296
  332TMC3    H2 5042   0.223   0.708  12.964 -0.5146  1.2463 -0.1397
  332TMC3    C7 5043   0.198   0.586  13.207 -0.2937 -0.1663  0.3204
  332TMC3    C8 5044   0.063   0.824  12.819 -0.6062  0.7486  0.2198
  332TMC3    O1 5045   0.138   0.515  13.287 -0.4786  0.4594 -0.6814
  332TMC3    O2 5046   0.178   0.858  12.807 -0.7400  0.0837 -0.3393
  333MPD2     C 5047   4.555   1.024  11.378  0.3974 -0.3746 -0.4203
  333MPD2    C1 5048   4.627   0.943  11.295 -0.3357  0.7984 -0.1744
  333MPD2    C2 5049   4.607   0.806  11.304  0.1575  0.0188 -0.5029
  333MPD2    C3 5050   4.518   0.750  11.404  0.4375  0.6368  0.1894
  333MPD2    C4 5051   4.447   0.838  11.483  0.1063 -0.8994 -0.6050
  333MPD2    C5 5052   4.468   0.971  11.471 -0.8281  0.2678  0.2163
  333MPD2     H 5053   4.665   0.746  11.236  1.3383 -0.0381  0.5567
  333MPD2    H1 5054   4.369   0.796  11.545 -0.9801  0.0568 -1.3220
  333MPD2    H2 5055   4.573   1.131  11.376  0.0986 -0.3009  0.7970
  333MPD2    H3 5056   4.409   1.031  11.539  2.2108  2.7635  0.6200
  333MPD2     N 5057   4.517   0.614  11.409 -0.2788 -0.0641  0.2218
  333MPD2    H5 5058   4.599   0.579  11.362 -1.7790 -0.8652 -1.7834
  333MPD2    N1 5059   4.724   0.996  11.204 -0.4057 -0.4829  0.6146
  333MPD2    H7 5060   4.719   1.097  11.194  0.7506 -0.6558 -1.8256
  334TMC3    C1 5061   0.104   0.995  10.999 -0.5096  0.2005  0.4401
  334TMC3    C2 5062   0.209   0.936  10.922  0.3048 -0.4446  0.3332
  334TMC3    C3 5063   0.267   1.022  10.833 -0.3366  0.3346 -0.4306
  334TMC3    C4 5064   0.062   1.127  10.983  0.3294  0.4351  0.4815
  334TMC3    C5 5065   0.120   1.203  10.887 -0.1505  0.2005 -0.7192
  334TMC3    C6 5066   0.228   1.154  10.814  0.0015 -0.0163 -0.3268
  334TMC3     C 5067   0.066   0.918  11.118  0.3663  0.5819  0.2060
  334TMC3     O 5068   0.115   0.807  11.132  0.3829  0.5899  0.2576
  334TMC3     H 5069   0.244   0.833  10.926 -0.2594 -0.7206 -1.7523
  334TMC3    H1 5070   4.701   1.155  11.021  0.2850  0.9148  0.0137
  334TMC3    H2 5071   0.259   1.217  10.731  0.9873  1.4180  1.1435
  334TMC3    C7 5072   0.079   1.336  10.853 -0.3110  0.1738  0.1317
  334TMC3    C8 5073   0.395   0.975  10.776  0.5594  0.2136 -0.1229
  334TMC3    O1 5074   4.695   1.349  10.868  0.3220  1.0131  0.1839
  334TMC3    O2 5075   0.410   0.857  10.762  0.0531 -0.0658  0.1897
  335TMC3    C1 5076   4.132   2.441  17.476 -0.0973 -0.2658  0.6705
  335TMC3    C2 5077   4.088   2.424  17.354 -0.6104  0.4140  0.3169
  335TMC3    C3 5078   4.135   2.504  17.260 -0.1917 -0.5462  0.1864
  335TMC3    C4 5079   4.238   2.527  17.508  0.2238  0.0990 -0.7514
  335TMC3    C5 5080   4.285   2.610  17.407 -0.0059 -0.4407  0.8174
  335TMC3    C6 5081   4.236   2.595  17.276 -0.2938  0.7349 -0.8451
  335TMC3     C 5082   4.063   2.370  17.577 -0.2204  0.3781 -0.4943
  335TMC3     O 5083   4.049   2.410  17.693  0.1880 -0.2298  0.0338
  335TMC3     H 5084   3.996   2.368  17.339  0.6218 -1.6165  0.3377
  335TMC3    H1 5085   4.282   2.538  17.607 -1.7963  2.4714 -0.1063
  335TMC3    H2 5086   4.269   2.668  17.203 -0.4929  1.7194  0.0491
  335TMC3    C7 5087   4.408   2.694  17.426 -0.0412  0.1791  0.9899
  335TMC3    C8 5088   4.098   2.491  17.121  0.6133  0.3868 -0.4066
  335TMC3    O1 5089   4.446   2.740  17.324 -0.0567  0.1363  0.4114
  335TMC3    O2 5090   4.154   2.556  17.034 -0.3523  0.0967 -0.0828
  336MPD2     C 5091   3.764   0.384  16.489  0.7124 -0.3950 -0.2900
  336MPD2    C1 5092   3.745   0.324  16.367 -0.3034  0.6069 -0.2542
  336MPD2    C2 5093   3.785   0.190  16.354 -0.0971 -0.2688 -0.1424
  336MPD2    C3 5094   3.836   0.119  16.460  0.3988  0.5851  0.5307
  336MPD2    C4 5095   3.859   0.180  16.582 -0.3798 -0.0097  0.1402
  336MPD2    C5 5096   3.821   0.314  16.595 -0.7823  0.6002  0.3573
  336MPD2     H 5097   3.769   0.134  16.262 -1.2333  1.3811 -0.9537
  336MPD2    H1 5098   3.906   0.129  16.665 -0.5238  0.2593  0.3843
  336MPD2    H2 5099   3.733   0.487  16.505 -0.8560 -0.8135 -0.5533
  336MPD2    H3 5100   3.841   0.364  16.689  0.7821 -2.3331  1.5947
  336MPD2     N 5101   3.875   4.719  16.449  0.2442  0.2076  0.4516
  336MPD2    H5 5102   3.920   4.684  16.534  1.7997  2.8204  0.6901
  336MPD2    N1 5103   3.685   0.390  16.257  0.5139 -0.4254  0.4802
  336MPD2    H7 5104   3.690   0.344  16.167 -1.2723  0.5336 -0.1092
  337TMC3    C1 5105   3.611   0.568  16.135 -0.2580  0.2314 -0.0946
  337TMC3    C2 5106   3.492   0.624  16.103  0.0035  0.5257  1.2050
  337TMC3    C3 5107   3.480   0.702  15.990  0.1168  0.2476  0.2913
  337TMC3    C4 5108   3.720   0.574  16.053 -0.1586 -0.5493 -0.2464
  337TMC3    C5 5109   3.700   0.649  15.938  0.0869  0.2026  0.4960
  337TMC3    C6 5110   3.583   0.714  15.898 -0.2006  0.0134 -0.1457
  337TMC3     C 5111   3.616   0.501  16.260 -0.3289  0.2152 -0.1808
  337TMC3     O 5112   3.575   0.567  16.354 -0.4829 -0.0469  0.5576
  337TMC3     H 5113   3.412   0.618  16.175 -0.9131 -1.9370 -0.0452
  337TMC3    H1 5114   3.819   0.541  16.083  0.2557 -1.4595 -2.5697
  337TMC3    H2 5115   3.574   0.779  15.812  0.5793 -1.8000 -1.5942
  337TMC3    C7 5116   3.822   0.674  15.865  0.3269 -0.2560  0.1866
  337TMC3    C8 5117   3.340   0.722  15.959 -0.4896  0.3230 -1.0419
  337TMC3    O1 5118   3.891   0.580  15.833 -0.4621  0.0427 -0.2631
  337TMC3    O2 5119   3.247   0.724  16.046  0.1491  0.1852  0.3418
  338MPD2     C 5120   3.525   3.688   0.898  0.4775  0.3857 -0.6929
  338MPD2    C1 5121   3.624   3.781   0.863 -0.4195 -0.2475 -0.6424
  338MPD2    C2 5122   3.601   3.916   0.886  0.1650  0.1501 -0.4779
  338MPD2    C3 5123   3.479   3.953   0.935  0.1882  0.4151  0.1534
  338MPD2    C4 5124   3.384   3.859   0.959 -0.7021  0.3989  0.2617
  338MPD2    C5 5125   3.413   3.731   0.956 -0.0951 -0.2484 -0.0566
  338MPD2     H 5126   3.667   3.991   0.845  0.8002  0.7734  1.6756
  338MPD2    H1 5127   3.293   3.880   1.014 -0.6363 -0.2545  0.6254
  338MPD2    H2 5128   3.538   3.580   0.896 -0.6338  0.2346  0.0972
  338MPD2    H3 5129   3.346   3.653   0.990  0.2324 -0.1560  0.7855
  338MPD2     N 5130   3.441   4.083   0.922 -0.0343  0.1248  0.2274
  338MPD2    H5 5131   3.510   4.142   0.878 -0.1938 -1.9864 -2.8386
  338MPD2    N1 5132   3.741   3.735   0.797 -0.3948  0.1810 -0.3269
  338MPD2    H7 5133   3.809   3.810   0.783 -0.9119  0.3111 -2.1210
  339TMC3    C1 5134   3.319   4.277   0.923 -0.4400 -0.0749 -0.0259
  339TMC3    C2 5135   3.275   4.374   1.001  0.5820  0.2514  0.0859
  339TMC3    C3 5136   3.267   4.504   0.958 -0.0008 -0.3649  0.9538
  339TMC3    C4 5137   3.340   4.297   0.787 -1.0279 -0.0740 -0.4166
  339TMC3    C5 5138   3.336   4.424   0.746 -0.3135  0.3200  0.4291
  339TMC3    C6 5139   3.295   4.529   0.824  0.0830  0.8290  0.2701
  339TMC3     C 5140   3.334   4.143   0.980  0.0746  0.2537 -0.2653
  339TMC3     O 5141   3.272   4.106   1.081 -0.0707 -0.1907 -0.0003
  339TMC3     H 5142   3.242   4.348   1.101 -0.4771 -2.8159 -1.0609
  339TMC3    H1 5143   3.345   4.208   0.724  1.2741 -0.3140  0.0752
  339TMC3    H2 5144   3.282   4.627   0.778 -2.1744 -0.0651 -1.0099
  339TMC3    C7 5145   3.362   4.450   0.609 -0.3659  0.0001 -0.1841
  339TMC3    C8 5146   3.196   4.601   1.046 -0.9222  0.0626 -0.1683
  339TMC3    O1 5147   3.357   4.565   0.566 -0.2757  0.1299  0.1838
  339TMC3    O2 5148   3.143   4.698   0.987 -0.2422 -0.6929  0.1397
  340MPD2     C 5149   4.534   1.924  10.043 -0.1729  0.0417 -0.3420
  340MPD2    C1 5150   4.633   1.906   9.955  0.1791  0.1937  0.3432
  340MPD2    C2 5151   4.730   2.005   9.952 -0.0909 -0.0027  0.2469
  340MPD2    C3 5152   4.729   2.119  10.035 -0.3311  0.1959 -0.3609
  340MPD2    C4 5153   4.626   2.129  10.120 -0.1732  0.2373 -0.2229
  340MPD2    C5 5154   4.530   2.031  10.126  0.0427 -0.3023  0.6196
  340MPD2     H 5155   0.083   1.999   9.891 -1.2484 -0.8848 -1.3789
  340MPD2    H1 5156   4.612   2.201  10.201 -1.3509  0.0087 -0.2160
  340MPD2    H2 5157   4.458   1.847  10.043 -1.4087  1.2517 -2.2005
  340MPD2    H3 5158   4.450   2.019  10.199  0.5792 -1.0080  1.0927
  340MPD2     N 5159   0.092   2.220  10.040  0.0924  0.0202  0.1403
  340MPD2    H5 5160   0.076   2.303  10.096 -0.3678 -0.1749  0.2932
  340MPD2    N1 5161   4.639   1.778   9.884  0.6371 -0.1658  0.2539
  340MPD2    H7 5162   4.569   1.706   9.900  0.6115  0.2664  2.0960
  341TMC3    C1 5163   4.720   1.623   9.722  0.3477  0.4016 -0.3462
  341TMC3    C2 5164   4.616   1.542   9.750 -0.3460 -0.6502 -1.1261
  341TMC3    C3 5165   4.620   1.418   9.701 -0.4757 -0.4463 -0.4852
  341TMC3    C4 5166   0.096   1.576   9.662  0.0307 -1.3791 -0.5634
  341TMC3    C5 5167   0.093   1.450   9.608  0.2350 -0.6828  0.3780
  341TMC3    C6 5168   4.723   1.362   9.630  0.1474 -0.3422 -0.3028
  341TMC3     C 5169   4.735   1.754   9.789 -0.4913  0.8094  0.4206
  341TMC3     O 5170   0.093   1.823   9.754 -1.2179 -0.4880 -0.6846
  341TMC3     H 5171   4.545   1.571   9.827  0.6687  1.3057 -0.9007
  341TMC3    H1 5172   0.173   1.651   9.644  0.5455 -1.6814  0.4254
  341TMC3    H2 5173   4.725   1.260   9.593 -1.8876  0.3513 -2.2631
  341TMC3    C7 5174   0.220   1.405   9.569 -0.4544 -0.4437 -0.1875
  341TMC3    C8 5175   4.510   1.323   9.719 -0.2079  0.3577 -0.4177
  341TMC3    O1 5176   0.306   1.489   9.540 -0.6640  0.3898  0.1615
  341TMC3    O2 5177   4.531   1.211   9.672  0.1490  0.1454  0.2802
  342MPD2     C 5178   1.895   0.678  17.577  0.4802 -0.7942 -0.5162
  342MPD2    C1 5179   2.029   0.674  17.574 -0.1344  0.1316  0.2870
  342MPD2    C2 5180   2.101   0.789  17.541 -0.0797  0.4141  0.0714
  342MPD2    C3 5181   2.033   0.906  17.533  0.2655 -0.4693  0.1436
  342MPD2    C4 5182   1.899   0.909  17.549  0.6017  0.1560  0.0638
  342MPD2    C5 5183   1.832   0.791  17.568  0.1189  0.4602 -0.2160
  342MPD2     H 5184   2.209   0.787  17.534 -0.0657  1.7741 -0.1948
  342MPD2    H1 5185   1.848   1.005  17.556 -0.2871 -0.5181  2.6620
  342MPD2    H2 5186   1.834   0.588  17.586  0.6133 -0.8330  0.0286
  342MPD2    H3 5187   1.724   0.785  17.580 -0.0781  0.7228 -1.8158
  342MPD2     N 5188   2.098   1.031  17.523 -0.0290 -0.1339 -0.0702
  342MPD2    H5 5189   2.031   1.106  17.534 -1.1244 -1.0744 -0.3495
  342MPD2    N1 5190   2.104   0.556  17.603 -0.2554 -0.3829 -0.7257
  342MPD2    H7 5191   2.202   0.559  17.576 -0.1355  0.0284 -0.2309
  343TMC3    C1 5192   2.147   0.333  17.669 -0.6804  0.0605  0.4355
  343TMC3    C2 5193   2.279   0.365  17.662  0.2116  0.3916 -0.0978
  343TMC3    C3 5194   2.366   0.261  17.667 -0.0392  0.3088  0.4248
  343TMC3    C4 5195   2.096   0.203  17.676 -0.1929 -0.0277 -0.0569
  343TMC3    C5 5196   2.192   0.103  17.668  0.0833  0.3443 -0.1742
  343TMC3    C6 5197   2.326   0.134  17.671 -0.1514 -0.5310  0.2347
  343TMC3     C 5198   2.053   0.445  17.665 -0.6311 -0.2591 -0.3344
  343TMC3     O 5199   1.943   0.424  17.715  0.0432 -0.0579 -0.4368
  343TMC3     H 5200   2.310   0.469  17.661 -1.9408  1.0485 -0.3823
  343TMC3    H1 5201   1.991   0.179  17.667 -0.4558  0.5683  1.5207
  343TMC3    H2 5202   2.404   0.058  17.677 -0.9997 -1.4716 -0.6836
  343TMC3    C7 5203   2.140   4.709  17.657 -0.4523  0.4989  0.4076
  343TMC3    C8 5204   2.503   0.304  17.661  0.3015 -0.0158  0.4883
  343TMC3    O1 5205   2.021   4.692  17.679  0.2978  0.2467 -0.9703
  343TMC3    O2 5206   2.510   0.412  17.719 -0.2810 -0.1432 -0.2435
  344MPD2     C 5207   3.304   0.410  10.764 -0.0714 -0.5705  1.0554
  344MPD2    C1 5208   3.318   0.355  10.642 -0.4545  0.6924  1.1224
  344MPD2    C2 5209   3.391   0.433  10.547  0.2390 -0.5933  0.2118
  344MPD2    C3 5210   3.452   0.553  10.576 -0.3930 -0.2434 -0.5352
  344MPD2    C4 5211   3.430   0.606  10.703  1.0346 -0.5919 -0.5848
  344MPD2    C5 5212   3.348   0.536  10.791  0.4382  0.2713 -1.0727
  344MPD2     H 5213   3.404   0.390  10.449 -1.8586  0.1617 -0.4094
  344MPD2    H1 5214   3.479   0.697  10.734  1.0403 -1.4744  2.0752
  344MPD2    H2 5215   3.244   0.359  10.839 -0.8006 -0.3883  0.6018
  344MPD2    H3 5216   3.326   0.572  10.891  0.7830  0.1504 -0.9546
  344MPD2     N 5217   3.531   0.626  10.485  0.5535 -0.3119  0.0338
  344MPD2    H5 5218   3.576   0.705  10.531  3.6210 -2.7649  1.2938
  344MPD2    N1 5219   3.272   0.224  10.616  0.2322 -0.1227  0.0335
  344MPD2    H7 5220   3.273   0.185  10.522 -0.5951 -1.0410  0.4045
  345TMC3    C1 5221   3.630   0.715  10.300 -0.8810 -0.4755 -0.0240
  345TMC3    C2 5222   3.712   0.798  10.382 -0.7274 -0.0302  0.2475
  345TMC3    C3 5223   3.765   0.909  10.325  0.3553 -0.0639  0.1453
  345TMC3    C4 5224   3.598   0.761  10.175 -0.0611 -0.6406 -0.6929
  345TMC3    C5 5225   3.666   0.866  10.123  1.3064 -0.6078  0.0970
  345TMC3    C6 5226   3.745   0.946  10.198 -0.1104 -0.0171  0.3393
  345TMC3     C 5227   3.556   0.608  10.358 -0.4902 -0.4631 -0.9903
  345TMC3     O 5228   3.520   0.516  10.285  0.0250 -0.2617 -0.0238
  345TMC3     H 5229   3.726   0.782  10.488  1.4481 -2.0665 -0.3466
  345TMC3    H1 5230   3.541   0.701  10.106 -0.6921 -0.1345 -0.6125
  345TMC3    H2 5231   3.788   1.039  10.160  0.9817  0.6029  3.1164
  345TMC3    C7 5232   3.631   0.929   9.994 -0.3640  0.0943  0.5562
  345TMC3    C8 5233   3.858   0.987  10.399  0.2670 -0.5049  0.0498
  345TMC3    O1 5234   3.701   1.022   9.958  0.6772 -0.3649 -0.7825
  345TMC3    O2 5235   3.803   1.045  10.486 -0.2193 -0.7485  0.3118
  346MPD2     C 5236   3.265   2.166  14.422  0.2262  0.1301  0.4249
  346MPD2    C1 5237   3.391   2.117  14.384  0.1348 -0.3616  0.2892
  346MPD2    C2 5238   3.511   2.160  14.442 -0.3954 -0.6784 -0.5192
  346MPD2    C3 5239   3.503   2.244  14.547 -0.0946 -0.4213 -1.0222
  346MPD2    C4 5240   3.378   2.300  14.580 -0.0351  0.1295 -0.4284
  346MPD2    C5 5241   3.262   2.258  14.520  0.3390 -0.0963  0.7898
  346MPD2     H 5242   3.610   2.127  14.411  0.1428  0.7825 -0.3786
  346MPD2    H1 5243   3.373   2.370  14.663  1.5806 -0.3623  0.0762
  346MPD2    H2 5244   3.168   2.131  14.388 -0.2396  0.8323  1.0292
  346MPD2    H3 5245   3.163   2.290  14.551 -0.6843 -3.0675  0.5838
  346MPD2     N 5246   3.623   2.283  14.607  0.7141 -0.0092 -0.0910
  346MPD2    H5 5247   3.708   2.251  14.561 -0.5255 -0.4983 -2.0600
  346MPD2    N1 5248   3.412   2.030  14.278  0.2930  0.1649 -0.3613
  346MPD2    H7 5249   3.510   2.006  14.266 -0.1752 -1.7789 -0.4047
  347TMC3    C1 5250   3.780   2.371  14.751  0.7318 -0.3162 -0.8615
  347TMC3    C2 5251   3.865   2.363  14.644  0.0700  0.2124  0.3638
  347TMC3    C3 5252   4.002   2.378  14.664  0.0880 -0.0643 -0.3359
  347TMC3    C4 5253   3.827   2.412  14.874  0.4589  0.1482 -1.2310
  347TMC3    C5 5254   3.960   2.430  14.888 -0.3894 -0.1455 -0.5571
  347TMC3    C6 5255   4.048   2.405  14.789 -0.5263 -0.0976  0.0468
  347TMC3     C 5256   3.639   2.354  14.729  0.2977 -0.3087  0.3655
  347TMC3     O 5257   3.555   2.387  14.815 -0.1213 -0.2278 -0.0647
  347TMC3     H 5258   3.840   2.335  14.543 -0.8604  0.6046  0.4847
  347TMC3    H1 5259   3.750   2.450  14.940  0.7976  0.3191 -0.9355
  347TMC3    H2 5260   4.155   2.401  14.806 -0.8324 -1.0864  1.8002
  347TMC3    C7 5261   4.013   2.477  15.010 -0.4504 -0.1441 -0.1323
  347TMC3    C8 5262   4.095   2.295  14.587  0.7000  0.1820 -0.2577
  347TMC3    O1 5263   3.934   2.516  15.100  0.4782 -0.0175  0.2225
  347TMC3    O2 5264   4.183   2.237  14.649  0.4778 -0.1178 -0.0368
  348MPD2     C 5265   2.701   1.779  11.965  0.3263  0.7536  0.8062
  348MPD2    C1 5266   2.622   1.740  11.861 -0.0614 -0.5200  0.1712
  348MPD2    C2 5267   2.535   1.824  11.794 -0.5486  0.1723 -0.7494
  348MPD2    C3 5268   2.522   1.953  11.833 -0.4067  0.8426 -0.0645
  348MPD2    C4 5269   2.619   2.002  11.921  0.1776 -0.4935 -0.3381
  348MPD2    C5 5270   2.721   1.920  11.976  0.2022  1.0290 -0.2294
  348MPD2     H 5271   2.470   1.778  11.720 -0.8731 -1.1289  0.3344
  348MPD2    H1 5272   2.620   2.106  11.952  2.9569 -1.4712  2.8753
  348MPD2    H2 5273   2.765   1.717  12.026  0.8215 -0.3959 -0.8891
  348MPD2    H3 5274   2.792   1.948  12.053  1.4012 -1.9251 -0.2695
  348MPD2     N 5275   2.418   2.036  11.784 -0.2728  0.1375 -0.2973
  348MPD2    H5 5276   2.429   2.136  11.800  0.4031 -0.1192  0.8217
  348MPD2    N1 5277   2.614   1.597  11.849 -0.2290  0.4630 -0.7864
  348MPD2    H7 5278   2.652   1.544  11.926  1.1602  0.4100 -1.5094
  349TMC3    C1 5279   2.504   1.409  11.765 -0.0418 -0.6381 -0.1086
  349TMC3    C2 5280   2.526   1.337  11.879 -0.3916  0.3961  0.1656
  349TMC3    C3 5281   2.428   1.253  11.930  0.2903  0.0411 -0.0266
  349TMC3    C4 5282   2.387   1.391  11.693  0.3675 -0.2847  0.5720
  349TMC3    C5 5283   2.287   1.314  11.750  0.0335  0.0487 -0.8756
  349TMC3    C6 5284   2.302   1.250  11.871 -0.7323  0.5584  0.3198
  349TMC3     C 5285   2.562   1.537  11.742 -0.2119 -0.2185  0.5062
  349TMC3     O 5286   2.543   1.585  11.631  0.6944 -0.2723  0.1246
  349TMC3     H 5287   2.617   1.345  11.937 -0.8650 -0.0026  0.9724
  349TMC3    H1 5288   2.373   1.451  11.604  0.3202 -0.9367  0.1409
  349TMC3    H2 5289   2.221   1.195  11.917  0.1441 -0.5362  0.5283
  349TMC3    C7 5290   2.146   1.333  11.703  0.4300 -0.4933  0.3665
  349TMC3    C8 5291   2.450   1.171  12.046 -0.3090  0.3038  0.4033
  349TMC3    O1 5292   2.070   1.270  11.775  0.0815  0.0716 -0.3875
  349TMC3    O2 5293   2.363   1.085  12.069  0.2307 -0.2523  0.2042
  350MPD2     C 5294   1.151   0.126  10.733 -0.2147 -0.0922  0.3052
  350MPD2    C1 5295   1.113   4.736  10.706  0.3967  0.0897  0.2642
  350MPD2    C2 5296   1.089   4.659  10.820 -0.2728  0.0503  0.7937
  350MPD2    C3 5297   1.093   4.709  10.949 -0.5980 -0.1671  0.1241
  350MPD2    C4 5298   1.123   0.107  10.969 -0.8446  0.2371  0.4751
  350MPD2    C5 5299   1.160   0.183  10.860 -0.2613  0.3595 -0.2284
  350MPD2     H 5300   1.063   4.555  10.803  1.2943 -0.1947 -0.1604
  350MPD2    H1 5301   1.126   0.157  11.066 -0.3041  2.6143 -0.7764
  350MPD2    H2 5302   1.197   0.195  10.663  1.0807 -1.5354 -0.2719
  350MPD2    H3 5303   1.185   0.288  10.873  1.8940 -0.1676 -0.2933
  350MPD2     N 5304   1.041   4.623  11.056 -0.7802  0.7868 -0.1789
  350MPD2    H5 5305   1.008   4.534  11.020 -0.4877  0.8820 -0.6687
  350MPD2    N1 5306   1.103   4.680  10.576  0.6135 -0.0457 -0.1117
  350MPD2    H7 5307   1.098   4.579  10.572  0.6675 -0.0300 -0.5688
  351TMC3    C1 5308   1.114   4.675  10.342 -0.0735  0.4740 -0.6394
  351TMC3    C2 5309   1.190   4.554  10.338 -0.4493  0.0345 -0.7173
  351TMC3    C3 5310   1.193   4.497  10.218 -0.0123 -0.4531 -0.1748
  351TMC3    C4 5311   1.043   4.717  10.235 -0.1710 -0.0219  0.0927
  351TMC3    C5 5312   1.044   4.645  10.119 -0.8228 -0.2316 -0.4063
  351TMC3    C6 5313   1.121   4.535  10.104 -0.4905  0.3677  0.0198
  351TMC3     C 5314   1.089   0.014  10.465 -0.1099 -0.3035  0.0879
  351TMC3     O 5315   1.075   0.136  10.459 -0.0420 -0.1439 -0.0543
  351TMC3     H 5316   1.267   4.541  10.413 -1.4647  0.0268  0.3345
  351TMC3    H1 5317   0.987   0.070  10.259  0.2003  0.6182 -1.3995
  351TMC3    H2 5318   1.143   4.493  10.007 -1.3612  1.2823 -0.5719
  351TMC3    C7 5319   1.006   4.711   9.996 -0.1960 -0.9665  0.1878
  351TMC3    C8 5320   1.284   4.390  10.201  0.1677 -0.0264 -0.1752
  351TMC3    O1 5321   0.994   4.648   9.890 -0.2709  0.1772  0.0333
  351TMC3    O2 5322   1.308   4.365  10.085 -0.4036 -0.8263 -0.1376
  352MPD2     C 5323   3.974   2.196   0.866 -0.1325 -0.7500  0.1462
  352MPD2    C1 5324   3.919   2.121   0.768 -0.7368  0.1648  0.2467
  352MPD2    C2 5325   3.985   2.014   0.710  0.2104  0.0628 -0.2537
  352MPD2    C3 5326   4.122   2.011   0.724  0.4813  0.1504  0.0923
  352MPD2    C4 5327   4.182   2.104   0.810  0.3362  0.7548 -0.6283
  352MPD2    C5 5328   4.109   2.187   0.882  0.4634  0.0164 -0.1010
  352MPD2     H 5329   3.935   1.940   0.650  2.1517 -0.3368 -1.3572
  352MPD2    H1 5330   4.289   2.111   0.829  0.2555 -1.0754  0.4983
  352MPD2    H2 5331   3.915   2.272   0.917 -0.7645  0.0337 -1.7671
  352MPD2    H3 5332   4.162   2.248   0.954  1.9818 -0.1180 -1.1152
  352MPD2     N 5333   4.200   1.915   0.665  0.4886 -0.0322  0.3166
  352MPD2    H5 5334   4.301   1.920   0.675  0.4680 -1.0441  1.0236
  352MPD2    N1 5335   3.780   2.144   0.754 -0.3862 -0.2516  0.1486
  352MPD2    H7 5336   3.732   2.203   0.822  0.7955  0.9310 -0.0383
  353TMC3    C1 5337   4.270   1.734   0.519 -0.2878 -0.2982  0.0878
  353TMC3    C2 5338   4.377   1.714   0.590  0.1180  0.7203 -0.4667
  353TMC3    C3 5339   4.460   1.615   0.556  0.6976  0.3066  0.0537
  353TMC3    C4 5340   4.241   1.657   0.407  0.0808 -0.5913 -1.2161
  353TMC3    C5 5341   4.331   1.556   0.370  0.2149 -0.4896  0.1915
  353TMC3    C6 5342   4.436   1.531   0.452 -0.7506  0.0660  0.0032
  353TMC3     C 5343   4.156   1.817   0.576  0.3322 -0.4557  0.3717
  353TMC3     O 5344   4.049   1.797   0.522  0.3157 -0.0425  0.1245
  353TMC3     H 5345   4.397   1.761   0.686  1.3637 -0.3115 -0.2229
  353TMC3    H1 5346   4.150   1.668   0.349  1.5995  0.9365 -3.3045
  353TMC3    H2 5347   4.497   1.442   0.441 -0.9113  0.2349 -2.2784
  353TMC3    C7 5348   4.281   1.461   0.278  0.4491  0.4466 -0.6538
  353TMC3    C8 5349   4.569   1.597   0.650  0.4923 -0.2040 -0.1877
  353TMC3    O1 5350   4.158   1.462   0.259 -0.3723 -0.2710  0.0860
  353TMC3    O2 5351   4.619   1.695   0.699 -0.3289  0.3188 -0.0261
  354TMC3    C1 5352   0.988   2.974  13.228 -0.6389 -0.3752  0.5620
  354TMC3    C2 5353   1.034   3.103  13.246 -0.9545  0.2318 -0.5727
  354TMC3    C3 5354   1.014   3.189  13.141  0.2196  0.7184 -0.5412
  354TMC3    C4 5355   0.924   2.939  13.117 -0.2264  0.0627 -0.2082
  354TMC3    C5 5356   0.894   3.031  13.020  0.7712  0.1530 -0.0810
  354TMC3    C6 5357   0.947   3.158  13.030 -0.1637 -0.3751 -0.5888
  354TMC3     C 5358   0.971   2.880  13.338  0.0781 -0.3978 -0.4295
  354TMC3     O 5359   0.969   2.761  13.306 -0.1597  0.0417 -0.0809
  354TMC3     H 5360   1.093   3.130  13.333 -2.1102 -0.6286  0.4831
  354TMC3    H1 5361   0.881   2.840  13.106 -0.8238  0.4803 -1.6681
  354TMC3    H2 5362   0.935   3.229  12.950 -0.2729 -0.7258 -0.8870
  354TMC3    C7 5363   0.928   2.983  12.882 -0.1670  0.6227  0.9218
  354TMC3    C8 5364   1.125   3.265  13.093  0.1947 -0.3477  0.4712
  354TMC3    O1 5365   0.902   3.056  12.785 -0.2214  0.3554 -0.1588
  354TMC3    O2 5366   1.107   3.365  13.022 -0.9005 -0.3446 -0.4466
  355MPD2     C 5367   1.213   3.290  11.477  0.2191 -1.0552 -0.4430
  355MPD2    C1 5368   1.268   3.395  11.403 -0.4821 -0.5209  0.8964
  355MPD2    C2 5369   1.407   3.419  11.430 -0.0417  0.4517 -0.4284
  355MPD2    C3 5370   1.463   3.371  11.547  0.2647  0.2217 -1.0136
  355MPD2    C4 5371   1.404   3.270  11.615 -0.5373 -0.2896 -0.7955
  355MPD2    C5 5372   1.280   3.226  11.579 -0.2127 -0.2514 -0.2302
  355MPD2     H 5373   1.469   3.484  11.369 -0.3957 -0.4059 -1.6994
  355MPD2    H1 5374   1.460   3.217  11.692 -0.4334 -1.2056 -1.4962
  355MPD2    H2 5375   1.113   3.251  11.459 -1.3311  2.7447  0.1099
  355MPD2    H3 5376   1.229   3.142  11.626 -1.8603  0.6228 -0.4788
  355MPD2     N 5377   1.585   3.415  11.596  0.1443  0.1988 -0.3397
  355MPD2    H5 5378   1.622   3.390  11.687  1.6927  1.2416 -0.6919
  355MPD2    N1 5379   1.194   3.455  11.305 -0.5289 -0.2091 -0.4011
  355MPD2    H7 5380   1.117   3.397  11.273  1.1721 -1.8532 -1.5296
  356TMC3    C1 5381   1.743   3.596  11.621 -0.6741  0.2252 -0.0503
  356TMC3    C2 5382   1.812   3.685  11.556 -0.2446 -0.3101  0.3014
  356TMC3    C3 5383   1.837   3.804  11.623  0.0520 -0.4605 -0.2349
  356TMC3    C4 5384   1.711   3.606  11.752 -0.2342  0.1238  0.3990
  356TMC3    C5 5385   1.745   3.725  11.810 -0.6558 -0.2017  0.1723
  356TMC3    C6 5386   1.813   3.822  11.755  0.3343 -0.0553  0.3605
  356TMC3     C 5387   1.668   3.508  11.532 -0.3084  0.7038  0.3287
  356TMC3     O 5388   1.679   3.522  11.410  0.3960 -0.5836  0.3466
  356TMC3     H 5389   1.833   3.677  11.450 -1.6530  3.0250 -0.2555
  356TMC3    H1 5390   1.650   3.535  11.807 -1.8464  1.5181  0.4314
  356TMC3    H2 5391   1.829   3.917  11.804 -2.6214 -0.9951  3.1442
  356TMC3    C7 5392   1.709   3.734  11.953  0.4706 -0.0989  0.5526
  356TMC3    C8 5393   1.856   3.920  11.532  0.4102 -0.5150  0.0898
  356TMC3    O1 5394   1.632   3.655  12.003 -0.3154  0.2109 -0.1579
  356TMC3    O2 5395   1.838   3.894  11.416  0.0611 -0.4285 -0.0270
  357MPD2     C 5396   1.117   1.811   1.137  0.2547 -0.4625  0.5897
  357MPD2    C1 5397   1.198   1.870   1.228  0.1427 -0.3220  0.0733
  357MPD2    C2 5398   1.246   1.789   1.334  0.5395 -0.3025  0.4245
  357MPD2    C3 5399   1.204   1.653   1.341 -1.0293 -0.0152  0.3789
  357MPD2    C4 5400   1.115   1.602   1.259 -0.1426 -0.4172  0.7664
  357MPD2    C5 5401   1.075   1.685   1.162  0.1475 -0.2536 -1.2226
  357MPD2     H 5402   1.305   1.823   1.418  1.5216 -0.3990 -0.2275
  357MPD2    H1 5403   1.083   1.498   1.260 -2.5641  0.3298  0.8882
  357MPD2    H2 5404   1.063   1.873   1.066 -0.6675 -1.8091  0.1310
  357MPD2    H3 5405   0.988   1.650   1.108 -0.5073 -1.2612  0.5232
  357MPD2     N 5406   1.239   1.562   1.431 -0.7422  0.0847  0.1748
  357MPD2    H5 5407   1.196   1.471   1.427 -1.2321  0.3275 -0.1786
  357MPD2    N1 5408   1.229   2.007   1.216 -0.2220  0.7750  0.4444
  357MPD2    H7 5409   1.198   2.050   1.129  2.1674 -0.0432 -0.8252
  358TMC3    C1 5410   1.311   2.226   1.275  0.5833 -0.0439 -0.0961
  358TMC3    C2 5411   1.314   2.269   1.144  0.3534 -0.5425 -0.9175
  358TMC3    C3 5412   1.327   2.406   1.128  0.2615 -0.3235  0.1468
  358TMC3    C4 5413   1.343   2.314   1.372  0.2307 -0.8141  0.2688
  358TMC3    C5 5414   1.350   2.448   1.350  0.1854  0.2043 -0.7440
  358TMC3    C6 5415   1.328   2.502   1.225 -1.1473  0.4333  0.9070
  358TMC3     C 5416   1.292   2.085   1.314  0.5392  0.4728 -0.5551
  358TMC3     O 5417   1.315   2.049   1.431  0.2480 -0.0031  0.3306
  358TMC3     H 5418   1.323   2.199   1.061 -0.9147  1.2710 -2.5843
  358TMC3    H1 5419   1.342   2.282   1.476  1.8037  2.2439  1.2263
  358TMC3    H2 5420   1.355   2.607   1.215  0.9107 -0.3257 -1.6540
  358TMC3    C7 5421   1.377   2.537   1.459  0.1077 -0.1152  0.3866
  358TMC3    C8 5422   1.311   2.466   0.993 -0.2295  0.0447 -0.4812
  358TMC3    O1 5423   1.465   2.507   1.540 -0.0348 -0.0898 -0.5362
  358TMC3    O2 5424   1.312   2.587   0.990  0.4278  0.3473  0.4468
  359MPD2     C 5425   2.175   1.967  12.082 -0.4956  0.6210 -0.2701
  359MPD2    C1 5426   2.100   2.063  12.131  0.7464  0.2049 -1.1456
  359MPD2    C2 5427   2.000   2.038  12.216 -0.3406 -0.3571  0.5265
  359MPD2    C3 5428   1.964   1.908  12.241  0.8910  1.1977 -0.1026
  359MPD2    C4 5429   2.046   1.807  12.199  0.0133  0.0304  0.3684
  359MPD2    C5 5430   2.152   1.841  12.122  0.0599  0.3213 -0.9328
  359MPD2     H 5431   1.935   2.119  12.246 -1.6954 -1.0082 -0.6505
  359MPD2    H1 5432   2.022   1.701  12.203  0.2455  0.0047  1.0430
  359MPD2    H2 5433   2.265   1.979  12.023 -0.1503  0.0039  0.1230
  359MPD2    H3 5434   2.220   1.768  12.079  1.2794  1.2622 -0.6064
  359MPD2     N 5435   1.847   1.868  12.312  0.0005  0.0023 -0.1886
  359MPD2    H5 5436   1.825   1.769  12.315 -2.8831  0.7505  3.1076
  359MPD2    N1 5437   2.113   2.200  12.087  0.8987  0.2690  0.4427
  359MPD2    H7 5438   2.049   2.271  12.123 -2.1255 -1.9805 -0.4637
  360TMC3    C1 5439   2.196   2.375  11.947  0.2140  0.1955 -0.1046
  360TMC3    C2 5440   2.306   2.444  11.904  0.5890  0.3345  0.0222
  360TMC3    C3 5441   2.267   2.557  11.837  0.1634 -0.5045 -0.1680
  360TMC3    C4 5442   2.063   2.405  11.919  0.0746  0.0302 -0.4656
  360TMC3    C5 5443   2.039   2.517  11.848 -0.3637 -0.5410 -0.2981
  360TMC3    C6 5444   2.141   2.590  11.804 -0.4080 -0.5236 -0.8757
  360TMC3     C 5445   2.218   2.244  12.012 -0.4226  0.0753 -0.7518
  360TMC3     O 5446   2.332   2.207  11.999  0.1161  0.2881  0.2179
  360TMC3     H 5447   2.398   2.440  11.962 -0.2896 -0.0457  1.3691
  360TMC3    H1 5448   1.981   2.336  11.931  0.3320 -0.1746  0.1323
  360TMC3    H2 5449   2.123   2.671  11.733  0.3609 -0.9813 -1.5890
  360TMC3    C7 5450   1.910   2.525  11.775 -0.3214 -0.3446  0.0771
  360TMC3    C8 5451   2.371   2.643  11.779 -0.8003 -0.2728 -0.0924
  360TMC3    O1 5452   1.909   2.554  11.656  0.1459  0.0248 -0.6767
  360TMC3    O2 5453   2.341   2.763  11.785  0.0449  0.0188 -0.2849
  361MPD2     C 5454   2.944   0.782  16.815  0.1701 -0.4991 -0.7013
  361MPD2    C1 5455   3.017   0.882  16.879 -0.1475  0.0850  0.3306
  361MPD2    C2 5456   3.147   0.842  16.900  0.0117 -0.6276  0.4766
  361MPD2    C3 5457   3.204   0.720  16.873 -0.1267 -0.3092 -0.4607
  361MPD2    C4 5458   3.131   0.634  16.805 -0.5233  0.2131  0.1021
  361MPD2    C5 5459   2.998   0.659  16.779 -0.2404  0.2251 -0.0680
  361MPD2     H 5460   3.207   0.918  16.950 -1.9333  0.1904  1.5527
  361MPD2    H1 5461   3.169   0.539  16.771 -1.0918  0.4630 -1.2077
  361MPD2    H2 5462   2.841   0.799  16.785 -0.2725  2.5430  2.4619
  361MPD2    H3 5463   2.944   0.588  16.717  0.2973 -0.9309  0.8042
  361MPD2     N 5464   3.339   0.682  16.911 -0.7661 -0.4554 -0.0677
  361MPD2    H5 5465   3.370   0.587  16.895  0.3060  0.0730 -1.1154
  361MPD2    N1 5466   2.959   1.008  16.912  0.5358  0.1469 -0.5399
  361MPD2    H7 5467   3.031   1.069  16.949 -0.8507  1.3783  0.1386
  362TMC3    C1 5468   2.788   1.165  16.969 -0.6011  1.0547 -0.5449
  362TMC3    C2 5469   2.662   1.184  17.020  0.3158 -0.0677 -0.1999
  362TMC3    C3 5470   2.614   1.310  17.034 -0.1880  0.5308  0.4321
  362TMC3    C4 5471   2.877   1.273  16.947  0.6767  0.3694 -0.6779
  362TMC3    C5 5472   2.821   1.402  16.957 -0.0128  0.4406 -0.1037
  362TMC3    C6 5473   2.694   1.420  17.011  0.0461 -0.7739  0.5517
  362TMC3     C 5474   2.825   1.031  16.933  0.1536  0.5020 -0.0975
  362TMC3     O 5475   2.730   0.953  16.917 -0.3569 -0.4860 -0.2519
  362TMC3     H 5476   2.596   1.100  17.034  0.3125  0.1888  1.2845
  362TMC3    H1 5477   2.970   1.256  16.894 -0.0436 -0.3654 -1.7043
  362TMC3    H2 5478   2.667   1.523  17.032  0.1847 -0.3188 -1.4638
  362TMC3    C7 5479   2.850   1.499  16.856 -0.1003 -0.1106  0.2931
  362TMC3    C8 5480   2.477   1.324  17.082  0.4721  0.7313  0.1788
  362TMC3    O1 5481   2.762   1.581  16.835  0.7973  0.4153  0.5619
  362TMC3    O2 5482   2.410   1.225  17.097  0.2653 -0.3924  0.0534
  363TMC3    C1 5483   1.868   4.160   9.296  0.0336 -0.2778  0.1578
  363TMC3    C2 5484   1.898   4.096   9.414 -0.2286 -0.3159 -0.2454
  363TMC3    C3 5485   1.913   4.173   9.524  0.7685 -0.9505 -0.4309
  363TMC3    C4 5486   1.845   4.293   9.283 -0.6102  0.1536  1.0238
  363TMC3    C5 5487   1.843   4.365   9.400  0.3136 -0.2486  0.2676
  363TMC3    C6 5488   1.880   4.305   9.518 -1.3133 -0.5146 -0.7601
  363TMC3     C 5489   1.841   4.082   9.174 -0.6165  0.1104  0.7616
  363TMC3     O 5490   1.863   4.132   9.062 -0.6875  0.0885 -0.3560
  363TMC3     H 5491   1.916   3.990   9.423  1.1564 -0.1099 -0.6042
  363TMC3    H1 5492   1.803   4.323   9.188  1.2360  0.1992  0.2378
  363TMC3    H2 5493   1.886   4.363   9.609  1.4949 -1.0227 -0.6144
  363TMC3    C7 5494   1.767   4.496   9.404  0.1146 -0.3715 -0.3082
  363TMC3    C8 5495   1.944   4.123   9.658  0.7580 -0.7834  0.1291
  363TMC3    O1 5496   1.755   4.559   9.300  0.1326 -0.2026  0.4178
  363TMC3    O2 5497   1.927   4.208   9.745 -0.0200  0.2208 -0.5341
  364MPD2     C 5498   0.688   3.627  10.430 -0.1567  0.2370 -0.0623
  364MPD2    C1 5499   0.829   3.635  10.408 -0.4446 -0.7884  0.1749
  364MPD2    C2 5500   0.913   3.532  10.433  0.0963 -1.1339 -0.0806
  364MPD2    C3 5501   0.871   3.417  10.485  0.8415 -0.2811 -0.7336
  364MPD2    C4 5502   0.735   3.404  10.506  0.0275 -1.0332 -0.0534
  364MPD2    C5 5503   0.643   3.505  10.475  0.2435 -0.6820  0.2124
  364MPD2     H 5504   1.016   3.537  10.399  0.3307 -0.6777  0.7049
  364MPD2    H1 5505   0.692   3.308  10.533  2.0518 -1.4177  1.7885
  364MPD2    H2 5506   0.613   3.701  10.403  0.9131  1.9491  1.6190
  364MPD2    H3 5507   0.537   3.483  10.485 -0.1825  1.9927  1.5453
  364MPD2     N 5508   0.959   3.313  10.516 -0.0310  0.5819  0.7389
  364MPD2    H5 5509   0.921   3.226  10.552 -1.0980  1.8453  2.6652
  364MPD2    N1 5510   0.874   3.768  10.383  0.5497 -0.2809 -0.2985
  364MPD2    H7 5511   0.810   3.845  10.396 -1.2712 -1.8302  0.0057
  365TMC3    C1 5512   1.030   3.938  10.313  0.1842 -0.3492  0.2877
  365TMC3    C2 5513   1.106   3.953  10.199 -0.3469  0.5041 -0.0856
  365TMC3    C3 5514   1.106   4.078  10.143 -0.4396 -0.2581  0.8604
  365TMC3    C4 5515   0.949   4.025  10.376  0.1771 -0.0367  0.0543
  365TMC3    C5 5516   0.955   4.147  10.318 -0.5490 -0.0384 -0.6348
  365TMC3    C6 5517   1.025   4.174  10.205  0.6143 -0.0439  0.1629
  365TMC3     C 5518   1.001   3.800  10.351  0.5786 -0.4393  1.1892
  365TMC3     O 5519   1.083   3.725  10.302 -0.4421 -0.0665  0.4140
  365TMC3     H 5520   1.177   3.875  10.173 -0.3692  0.4466  0.0268
  365TMC3    H1 5521   0.908   4.009  10.475  1.0376 -0.3797  0.3574
  365TMC3    H2 5522   1.024   4.271  10.159  1.4363  1.1003  2.5387
  365TMC3    C7 5523   0.898   4.267  10.384  0.5896 -0.3901 -0.3834
  365TMC3    C8 5524   1.125   4.090  10.001  0.3120 -0.0611 -0.3669
  365TMC3    O1 5525   0.941   4.376  10.353  0.0667 -0.3429  0.0582
  365TMC3    O2 5526   1.088   4.192   9.941 -0.3745 -0.0900  0.3418
  366MPD2     C 5527   3.464   3.837  15.542 -0.1135  0.1764  0.2418
  366MPD2    C1 5528   3.532   3.943  15.480  0.1413 -0.3119  1.1068
  366MPD2    C2 5529   3.648   3.906  15.411 -0.7168 -0.4696 -0.1908
  366MPD2    C3 5530   3.698   3.780  15.417 -0.7040 -0.4245  0.2452
  366MPD2    C4 5531   3.636   3.676  15.483 -0.3343 -0.1262 -0.1418
  366MPD2    C5 5532   3.520   3.713  15.551 -0.2169 -0.3225  0.1202
  366MPD2     H 5533   3.715   3.975  15.361 -1.0752 -0.9025 -1.2736
  366MPD2    H1 5534   3.672   3.575  15.494 -1.5785 -0.5360  0.1710
  366MPD2    H2 5535   3.371   3.851  15.597 -1.9390  1.7696 -3.2453
  366MPD2    H3 5536   3.464   3.635  15.601 -1.2979 -0.0970 -0.7348
  366MPD2     N 5537   3.831   3.772  15.368 -0.2225  0.1431  0.1171
  366MPD2    H5 5538   3.855   3.844  15.301 -1.4301 -0.5054 -1.0086
  366MPD2    N1 5539   3.501   4.082  15.492  0.2430 -0.5539  0.4398
  366MPD2    H7 5540   3.559   4.150  15.445 -1.3985  0.7284  0.2600
  367TMC3    C1 5541   3.437   4.275  15.595  0.4196 -0.1518  0.4882
  367TMC3    C2 5542   3.562   4.295  15.641 -0.0473 -0.9702 -0.3726
  367TMC3    C3 5543   3.628   4.406  15.607 -0.6008 -0.4144 -0.2228
  367TMC3    C4 5544   3.381   4.364  15.509  0.7207  0.1005 -0.9889
  367TMC3    C5 5545   3.458   4.467  15.473 -0.7005 -0.2004  0.2214
  367TMC3    C6 5546   3.585   4.494  15.510  0.5298  0.6049  0.3823
  367TMC3     C 5547   3.396   4.136  15.572 -0.6408  0.5982  0.0586
  367TMC3     O 5548   3.303   4.087  15.634 -0.4487 -0.6538  0.1193
  367TMC3     H 5549   3.592   4.232  15.725 -2.7085 -1.5467  0.1365
  367TMC3    H1 5550   3.281   4.357  15.468 -0.7380 -0.0633  2.5970
  367TMC3    H2 5551   3.650   4.567  15.463  1.0135  0.9597  1.5992
  367TMC3    C7 5552   3.404   4.565  15.377 -0.0472 -0.1549  0.3322
  367TMC3    C8 5553   3.755   4.414  15.677 -0.2594 -0.5355 -0.0400
  367TMC3    O1 5554   3.424   4.682  15.400  0.5031 -0.4836  0.3345
  367TMC3    O2 5555   3.809   4.312  15.724 -0.2524  0.7147 -0.4496
  368MPD2     C 5556   0.379   1.330  13.422  0.2442 -0.7627 -0.0053
  368MPD2    C1 5557   0.453   1.435  13.457  0.3106 -0.2241 -0.1456
  368MPD2    C2 5558   0.592   1.437  13.446  0.4471 -0.4864  0.7604
  368MPD2    C3 5559   0.649   1.326  13.381  0.7553 -0.5687 -0.7512
  368MPD2    C4 5560   0.575   1.218  13.354  0.3369  0.2579 -0.4899
  368MPD2    C5 5561   0.443   1.216  13.381  0.2765 -0.5926 -0.6005
  368MPD2     H 5562   0.659   1.520  13.463 -0.1986  0.1094  0.4279
  368MPD2    H1 5563   0.613   1.134  13.297 -0.6353  0.2657 -1.1465
  368MPD2    H2 5564   0.271   1.323  13.418  0.1971  0.8203 -1.4768
  368MPD2    H3 5565   0.386   1.129  13.348 -0.0021 -0.1857 -1.1917
  368MPD2     N 5566   0.782   1.320  13.331 -0.1942 -0.2161 -0.0143
  368MPD2    H5 5567   0.820   1.237  13.287 -1.1138 -0.7243  0.1478
  368MPD2    N1 5568   0.383   1.550  13.496 -0.1807 -0.2818 -0.3904
  368MPD2    H7 5569   0.282   1.541  13.492 -0.5319  1.9980  3.3273
  369TMC3    C1 5570   0.316   1.774  13.511 -0.0567 -0.3956  0.2159
  369TMC3    C2 5571   0.341   1.891  13.446 -0.0324  0.5358 -0.8214
  369TMC3    C3 5572   0.235   1.969  13.399 -0.0769  0.7476  0.0528
  369TMC3    C4 5573   0.187   1.729  13.523  0.3612  0.4469 -0.3788
  369TMC3    C5 5574   0.083   1.806  13.483 -0.4220  0.0878 -0.0478
  369TMC3    C6 5575   0.103   1.923  13.415  0.2349  0.7165 -0.3729
  369TMC3     C 5576   0.432   1.679  13.513 -0.2901  0.2000  0.6632
  369TMC3     O 5577   0.548   1.716  13.517 -0.0746 -0.6346  0.4682
  369TMC3     H 5578   0.443   1.929  13.436  0.1179  0.7422  1.4979
  369TMC3    H1 5579   0.170   1.632  13.569 -0.8314  1.1629  0.7127
  369TMC3    H2 5580   0.012   1.979  13.397  0.5713  1.2031 -0.5481
  369TMC3    C7 5581   4.684   1.767  13.520  0.3843 -0.2626 -0.3616
  369TMC3    C8 5582   0.257   2.050  13.280 -0.1043  0.1766  0.2247
  369TMC3    O1 5583   4.679   1.716  13.635 -0.6094  0.3311  0.1638
  369TMC3    O2 5584   0.167   2.085  13.207 -0.4106  0.0921  0.0596
  370TMC3    C1 5585   4.264   2.075  16.276 -0.5386  0.4533  0.3134
  370TMC3    C2 5586   4.169   2.004  16.353  0.8879 -0.1150 -0.2006
  370TMC3    C3 5587   4.148   1.870  16.320  0.1642  0.3758  0.0025
  370TMC3    C4 5588   4.318   2.013  16.166 -0.3560 -0.2568 -0.3389
  370TMC3    C5 5589   4.294   1.879  16.144  0.0187 -0.0064  0.7260
  370TMC3    C6 5590   4.216   1.802  16.223 -0.7032 -0.4003  0.3644
  370TMC3     C 5591   4.312   2.198  16.332  0.5108  0.0358 -0.1318
  370TMC3     O 5592   4.261   2.224  16.439  0.0110  0.0421  0.0060
  370TMC3     H 5593   4.122   2.045  16.441  2.0153 -0.5036  0.5820
  370TMC3    H1 5594   4.374   2.070  16.093 -3.0673 -0.6576 -2.7853
  370TMC3    H2 5595   4.212   1.696  16.202 -2.9763 -0.2894  0.2672
  370TMC3    C7 5596   4.349   1.817  16.023 -0.0051 -0.9176 -0.1475
  370TMC3    C8 5597   4.094   1.779  16.418 -0.5474 -0.4819 -0.3938
  370TMC3    O1 5598   4.328   1.892  15.931 -0.3218 -0.2596  0.3709
  370TMC3    O2 5599   4.113   1.658  16.399 -0.0604  0.6228  0.2702
  371TMC3    C1 5600   0.889   0.189  15.609 -0.5322  0.6414  0.2396
  371TMC3    C2 5601   0.753   0.206  15.597  0.1668  0.4921  0.2256
  371TMC3    C3 5602   0.709   0.336  15.610 -0.0527  0.5354 -0.0086
  371TMC3    C4 5603   0.980   0.294  15.617 -0.2279  0.7685  0.3573
  371TMC3    C5 5604   0.925   0.420  15.616  0.3431  0.2520  0.4553
  371TMC3    C6 5605   0.791   0.441  15.617  0.3367 -0.1895  0.2170
  371TMC3     C 5606   0.936   0.057  15.619  0.6820 -0.1043  0.8403
  371TMC3     O 5607   1.052   0.042  15.586  0.3231  0.3803 -0.1353
  371TMC3     H 5608   0.690   0.124  15.565  1.6268 -0.8482  0.8038
  371TMC3    H1 5609   1.083   0.273  15.641 -0.0638  2.4956  1.1713
  371TMC3    H2 5610   0.752   0.542  15.609 -0.5567 -0.6599 -1.3477
  371TMC3    C7 5611   1.005   0.530  15.583  0.7405  0.9882  0.2493
  371TMC3    C8 5612   0.569   0.361  15.582 -0.0182  0.3911  0.6464
  371TMC3    O1 5613   0.961   0.642  15.577  0.4816  0.1808  0.3633
  371TMC3    O2 5614   0.504   0.282  15.510  0.7107  0.4550  0.2035
  372MPD2     C 5615   1.058   1.691  13.668 -0.3275  0.4419 -0.6490
  372MPD2    C1 5616   1.132   1.579  13.697  0.2772 -0.4874  0.1932
  372MPD2    C2 5617   1.062   1.462  13.720  0.1048  0.3617  0.0572
  372MPD2    C3 5618   0.927   1.454  13.726  0.6615 -0.1160  0.2257
  372MPD2    C4 5619   0.853   1.571  13.718  0.2143 -0.2484 -0.1768
  372MPD2    C5 5620   0.920   1.688  13.689  0.8470  0.0764 -0.6184
  372MPD2     H 5621   1.114   1.367  13.721  0.6297  0.6456 -0.4387
  372MPD2    H1 5622   0.745   1.574  13.720  0.2968  2.9694  0.7699
  372MPD2    H2 5623   1.084   1.793  13.640  2.0760  0.0391  0.1226
  372MPD2    H3 5624   0.874   1.786  13.680  0.7090  0.1569  0.9768
  372MPD2     N 5625   0.863   1.331  13.718  0.5539 -0.4423 -0.1722
  372MPD2    H5 5626   0.916   1.246  13.701 -0.6154 -1.2986  0.5236
  372MPD2    N1 5627   1.274   1.578  13.682 -0.1587 -0.9071  0.5994
  372MPD2    H7 5628   1.324   1.492  13.703  0.5060 -1.1280 -1.8766
  373TMC3    C1 5629   0.686   1.174  13.688  0.6813  0.0020  0.4931
  373TMC3    C2 5630   0.576   1.134  13.752 -0.1468 -0.7701 -0.0657
  373TMC3    C3 5631   0.530   1.009  13.731 -0.1165  0.2371  0.5150
  373TMC3    C4 5632   0.767   1.089  13.617 -0.1114 -0.5170 -0.4787
  373TMC3    C5 5633   0.720   0.961  13.600 -0.5156 -0.0443  0.2818
  373TMC3    C6 5634   0.604   0.919  13.656 -0.1326 -0.3703 -0.3755
  373TMC3     C 5635   0.730   1.310  13.731  0.2997  0.2538  0.1854
  373TMC3     O 5636   0.648   1.383  13.781  0.3348  0.2886 -0.2058
  373TMC3     H 5637   0.512   1.198  13.812 -0.7626 -0.7453 -0.7473
  373TMC3    H1 5638   0.856   1.119  13.562 -1.4904 -0.4937 -2.6985
  373TMC3    H2 5639   0.585   0.813  13.665  0.6638 -0.3509  1.6868
  373TMC3    C7 5640   0.813   0.858  13.593 -0.0838 -0.1823  0.0671
  373TMC3    C8 5641   0.477   0.931  13.841  0.1367  0.3906 -0.4898
  373TMC3    O1 5642   0.771   0.749  13.542  0.9482 -0.4799  0.1079
  373TMC3    O2 5643   0.412   0.832  13.815 -0.0382  0.6531 -0.0417
  374TMC3    C1 5644   0.957   2.082  10.136 -0.1263 -0.0279 -0.3548
  374TMC3    C2 5645   1.030   2.169  10.069 -0.0383 -0.0789  0.5824
  374TMC3    C3 5646   1.156   2.122  10.031  0.1990 -0.0133 -0.0425
  374TMC3    C4 5647   1.005   1.959  10.172 -0.2361 -0.2524 -0.3368
  374TMC3    C5 5648   1.129   1.921  10.145  0.6458  0.3648  0.4707
  374TMC3    C6 5649   1.210   2.000  10.065 -0.0957 -0.1846 -0.6493
  374TMC3     C 5650   0.837   2.118  10.211  0.1565  0.2393  0.6380
  374TMC3     O 5651   0.767   2.022  10.240 -0.0336  0.0926 -0.1805
  374TMC3     H 5652   0.986   2.259  10.029 -1.5132 -1.0168  0.1005
  374TMC3    H1 5653   0.948   1.896  10.239  0.7084  1.1180  1.7656
  374TMC3    H2 5654   1.297   1.950  10.024 -0.4772 -2.1992  0.9578
  374TMC3    C7 5655   1.193   1.815  10.221  0.3175  0.0448  0.4132
  374TMC3    C8 5656   1.259   2.222  10.002 -0.4211 -0.3180  0.0507
  374TMC3    O1 5657   1.307   1.841  10.259  0.4755 -0.3036 -0.4567
  374TMC3    O2 5658   1.224   2.332   9.968 -0.1012 -0.7683  0.3377
  375MPD2     C 5659   0.834   2.858  17.295 -0.2260 -0.3925  0.0685
  375MPD2    C1 5660   0.751   2.891  17.195  0.0838  0.1750  0.4193
  375MPD2    C2 5661   0.775   2.855  17.066 -0.0185 -0.7457 -0.0130
  375MPD2    C3 5662   0.896   2.791  17.036 -0.5594  0.1400 -0.9424
  375MPD2    C4 5663   0.987   2.761  17.137  0.3124 -0.0942  0.4543
  375MPD2    C5 5664   0.955   2.793  17.269  0.5575 -0.3059  0.4972
  375MPD2     H 5665   0.705   2.880  16.987  0.6942 -0.7201 -0.6449
  375MPD2    H1 5666   1.085   2.719  17.120  0.6432  0.0360  2.0169
  375MPD2    H2 5667   0.819   2.895  17.396 -1.7735  0.8757 -0.6188
  375MPD2    H3 5668   1.017   2.770  17.355 -0.5247 -0.2713  1.2929
  375MPD2     N 5669   0.950   2.761  16.910  0.7550  0.6355  0.9359
  375MPD2    H5 5670   1.034   2.705  16.911 -0.0213 -0.5085  1.8009
  375MPD2    N1 5671   0.635   2.973  17.213 -0.0925  0.0546  0.2694
  375MPD2    H7 5672   0.581   2.985  17.128  1.0952 -2.1884 -0.8134
  376TMC3    C1 5673   0.944   2.735  16.667 -0.4087 -0.3792  0.2973
  376TMC3    C2 5674   1.063   2.668  16.664  0.8075  0.1597  1.0416
  376TMC3    C3 5675   1.103   2.624  16.542  0.1846  0.3649 -0.1995
  376TMC3    C4 5676   0.873   2.767  16.556  0.3608  0.4013  0.4790
  376TMC3    C5 5677   0.915   2.725  16.437 -0.4717  0.2740  0.4944
  376TMC3    C6 5678   1.036   2.651  16.428 -0.0226  0.6463  0.4615
  376TMC3     C 5679   0.882   2.787  16.793 -0.1623  0.3350 -0.1521
  376TMC3     O 5680   0.775   2.849  16.780 -0.6873  0.2584 -0.9229
  376TMC3     H 5681   1.114   2.637  16.755  1.0479 -1.0832  0.4810
  376TMC3    H1 5682   0.777   2.818  16.560 -0.2929 -0.7567 -0.4730
  376TMC3    H2 5683   1.075   2.629  16.330  0.0366  3.3269 -0.1083
  376TMC3    C7 5684   0.831   2.727  16.320  0.0913 -0.5405  0.0887
  376TMC3    C8 5685   1.214   2.538  16.529 -0.1645 -0.2156 -0.5817
  376TMC3    O1 5686   0.881   2.741  16.210 -0.0518 -1.0547 -0.1604
  376TMC3    O2 5687   1.306   2.543  16.609 -0.2558  0.0725 -0.0667
  377MPD2     C 5688   3.973   1.740  12.713  0.8765 -0.5039 -0.2748
  377MPD2    C1 5689   4.029   1.765  12.835  0.7269 -0.2263  0.1916
  377MPD2    C2 5690   3.974   1.718  12.947 -0.2819 -0.6204  0.5443
  377MPD2    C3 5691   3.859   1.635  12.943 -0.0118 -0.2253  0.5427
  377MPD2    C4 5692   3.814   1.600  12.820  0.3676 -0.1356 -0.4066
  377MPD2    C5 5693   3.859   1.666  12.704  0.6115 -0.0594  0.8895
  377MPD2     H 5694   4.007   1.746  13.047 -1.5831 -0.6790  0.9985
  377MPD2    H1 5695   3.727   1.538  12.803  0.8364 -1.3395  1.5272
  377MPD2    H2 5696   4.016   1.760  12.615  1.4969 -2.9365 -0.5107
  377MPD2    H3 5697   3.823   1.646  12.604  0.3945  1.3933  0.6660
  377MPD2     N 5698   3.808   1.569  13.059 -0.1099  0.1142 -0.1646
  377MPD2    H5 5699   3.757   1.483  13.045  1.1246 -0.8073  0.9657
  377MPD2    N1 5700   4.155   1.830  12.835  0.1387 -0.4901 -0.4131
  377MPD2    H7 5701   4.193   1.858  12.745  2.6103 -1.8158  0.2208
  378TMC3    C1 5702   4.506   2.054  12.809 -0.1790  0.3329  0.1696
  378TMC3    C2 5703   4.381   2.004  12.818 -0.4828 -0.6821  0.3782
  378TMC3    C3 5704   4.366   1.905  12.914  0.5682 -0.6615 -0.7895
  378TMC3    C4 5705   4.612   2.018  12.895 -0.0274  0.6641  0.9289
  378TMC3    C5 5706   4.589   1.917  12.984 -0.3306  0.2270 -0.0338
  378TMC3    C6 5707   4.464   1.861  12.996  0.0679 -0.3301 -1.1003
  378TMC3     C 5708   4.542   2.139  12.691 -0.3448 -0.2948  0.2857
  378TMC3     O 5709   4.465   2.130  12.596 -0.2621  0.1188  0.5484
  378TMC3     H 5710   4.306   2.051  12.756  0.9828  0.7059 -0.3432
  378TMC3    H1 5711   4.710   2.060  12.873  0.5392 -1.1418 -0.0039
  378TMC3    H2 5712   4.465   1.773  13.060  3.0799  0.2312 -0.3570
  378TMC3    C7 5713   4.696   1.843  13.045  0.3270 -0.2290 -0.3130
  378TMC3    C8 5714   4.243   1.838  12.940  0.7144 -0.2266  1.0458
  378TMC3    O1 5715   4.671   1.790  13.154 -0.5252  0.1859  0.0868
  378TMC3    O2 5716   4.232   1.780  13.046  0.3170  0.2677  0.0668
  379MPD2     C 5717   4.533   4.619  16.621  0.0932 -0.0948 -0.0988
  379MPD2    C1 5718   4.600   4.505  16.584  0.4287  0.0223 -0.3916
  379MPD2    C2 5719   4.694   4.450  16.668  0.2339 -0.8789  0.4458
  379MPD2    C3 5720   0.000   4.515  16.783  0.7626 -0.1934  0.1342
  379MPD2    C4 5721   4.654   4.620  16.829  0.3188 -0.2172 -0.5771
  379MPD2    C5 5722   4.554   4.664  16.743  0.1477 -0.3025  0.0124
  379MPD2     H 5723   0.020   4.368  16.634  0.2416 -0.2016 -1.1897
  379MPD2    H1 5724   4.679   4.674  16.919 -0.9880 -0.0847 -0.2856
  379MPD2    H2 5725   4.467   4.663  16.547  1.7239  2.9346  0.2384
  379MPD2    H3 5726   4.504   0.022  16.758  1.4096  0.4195 -0.4253
  379MPD2     N 5727   0.111   4.471  16.861  0.4964 -0.2546  0.4479
  379MPD2    H5 5728   0.128   4.522  16.947 -0.1097 -0.5937  0.7694
  379MPD2    N1 5729   4.562   4.453  16.455  0.0233  0.3923 -0.2541
  379MPD2    H7 5730   4.500   4.517  16.405 -1.1032 -1.3218 -1.0416
  380TMC3    C1 5731   4.553   4.323  16.253  0.5037  0.2788  0.1388
  380TMC3    C2 5732   4.653   4.353  16.157  0.4725  0.0449 -0.4976
  380TMC3    C3 5733   4.621   4.435  16.046  0.0546  0.0938 -0.4041
  380TMC3    C4 5734   4.426   4.369  16.233 -0.1587  0.0301  1.1505
  380TMC3    C5 5735   4.393   4.436  16.115 -0.3238  0.1175  0.6947
  380TMC3    C6 5736   4.491   4.476  16.021 -0.1522 -0.5565  0.4967
  380TMC3     C 5737   4.601   4.333  16.394 -0.4002  0.8703 -0.9448
  380TMC3     O 5738   4.686   4.252  16.433  0.2246 -0.5366  0.7170
  380TMC3     H 5739   0.015   4.308  16.154  0.9620  1.1078 -0.6397
  380TMC3    H1 5740   4.345   4.344  16.300 -0.9765 -1.1039 -0.2372
  380TMC3    H2 5741   4.467   4.550  15.946  0.4531  0.0220  0.8657
  380TMC3    C7 5742   4.262   4.488  16.102 -0.1217 -0.4978 -0.0337
  380TMC3    C8 5743   4.722   4.526  15.982  0.3072 -0.6097  0.2059
  380TMC3    O1 5744   4.214   4.537  16.207  0.5334  0.6976  0.4073
  380TMC3    O2 5745   4.699   4.563  15.872  0.3431 -0.7659  0.3517
  381TMC3    C1 5746   4.226   1.078  16.266 -0.0134  0.6496 -0.6931
  381TMC3    C2 5747   4.290   1.201  16.226  0.1502  0.8495  0.1620
  381TMC3    C3 5748   4.268   1.316  16.293 -0.7719  0.4478  0.4869
  381TMC3    C4 5749   4.136   1.080  16.367 -0.3865  0.0288  0.6070
  381TMC3    C5 5750   4.112   1.205  16.428 -0.4296 -0.2191  0.2935
  381TMC3    C6 5751   4.171   1.323  16.395  0.4359 -0.4773  0.2829
  381TMC3     C 5752   4.240   0.967  16.172  0.2309 -0.1413 -0.1701
  381TMC3     O 5753   4.299   0.998  16.070 -0.4536  0.5306  0.2630
  381TMC3     H 5754   4.370   1.198  16.153 -0.9661 -0.6061 -1.0206
  381TMC3    H1 5755   4.067   0.998  16.378  1.0528 -1.1220  1.0469
  381TMC3    H2 5756   4.142   1.418  16.437  1.0251 -1.3738  2.7567
  381TMC3    C7 5757   4.043   1.201  16.552  0.1698  0.3309  0.8290
  381TMC3    C8 5758   4.379   1.411  16.292 -0.7413  0.0366 -0.2863
  381TMC3    O1 5759   4.038   1.093  16.603 -0.4789 -0.0375 -0.0746
  381TMC3    O2 5760   4.463   1.391  16.206  0.1381  0.0489 -0.0736
  382MPD2     C 5761   3.662   3.797  17.130  0.4349  0.0000 -0.3975
  382MPD2    C1 5762   3.598   3.751  17.246  0.3406  0.5152  0.2795
  382MPD2    C2 5763   3.595   3.612  17.271  0.4268  0.2599 -0.3441
  382MPD2    C3 5764   3.652   3.523  17.183  0.2646 -0.8809 -0.0026
  382MPD2    C4 5765   3.703   3.569  17.061 -1.2612  0.2277  0.2457
  382MPD2    C5 5766   3.705   3.701  17.035  0.3032  0.1985 -0.2278
  382MPD2     H 5767   3.557   3.582  17.368  0.8074 -0.6916 -0.4841
  382MPD2    H1 5768   3.754   3.505  16.991 -0.6045  1.2287 -0.1862
  382MPD2    H2 5769   3.672   3.902  17.104  2.0527 -0.4900 -1.7752
  382MPD2    H3 5770   3.752   3.728  16.941  1.2948 -0.8322 -0.0301
  382MPD2     N 5771   3.662   3.387  17.207 -0.0325  0.0018  0.2589
  382MPD2    H5 5772   3.701   3.323  17.139 -0.8180  0.7093 -0.8616
  382MPD2    N1 5773   3.524   3.833  17.337 -0.0318  0.5023 -0.0358
  382MPD2    H7 5774   3.481   3.779  17.412 -3.1024 -0.2535 -2.3524
  383TMC3    C1 5775   3.649   3.180  17.322 -0.7722 -0.0147  1.2307
  383TMC3    C2 5776   3.547   3.120  17.250 -0.1833 -0.3646 -1.3202
  383TMC3    C3 5777   3.496   3.004  17.303  0.6327 -0.5776  0.3662
  383TMC3    C4 5778   3.690   3.127  17.437 -0.4231  0.0832 -0.6891
  383TMC3    C5 5779   3.627   3.018  17.491 -0.1976 -0.7336  0.0100
  383TMC3    C6 5780   3.533   2.948  17.420 -0.3887  1.4624 -0.5716
  383TMC3     C 5781   3.633   3.326  17.326 -0.1389  0.4605  0.3216
  383TMC3     O 5782   3.605   3.376  17.431  0.0594 -0.0525 -0.8070
  383TMC3     H 5783   3.510   3.160  17.157  1.0833  2.9883 -0.3812
  383TMC3    H1 5784   3.755   3.187  17.500  0.8192  0.9868 -2.8293
  383TMC3    H2 5785   3.479   2.874  17.478 -1.9895  1.3819 -2.1725
  383TMC3    C7 5786   3.614   3.026  17.633 -0.5714 -0.1001  0.0190
  383TMC3    C8 5787   3.368   2.961  17.242 -0.3953 -0.5573 -0.8735
  383TMC3    O1 5788   3.657   3.125  17.692 -0.2052  0.0970  0.1347
  383TMC3    O2 5789   3.320   3.039  17.161  0.0818  0.0339 -0.2300
  384MPD2     C 5790   0.106   0.264  12.152 -0.4671 -0.6860  0.8661
  384MPD2    C1 5791   0.162   0.217  12.269 -0.4686  0.0413  0.1284
  384MPD2    C2 5792   0.284   0.149  12.260  0.4376 -0.5233  0.2289
  384MPD2    C3 5793   0.349   0.130  12.135  0.1043  0.0580  0.4243
  384MPD2    C4 5794   0.299   0.190  12.024 -0.5120 -0.3248 -0.3589
  384MPD2    C5 5795   0.183   0.260  12.035 -0.2477 -0.4828 -0.0514
  384MPD2     H 5796   0.335   0.101  12.343 -1.0165 -1.3759  0.6174
  384MPD2    H1 5797   0.354   0.190  11.930 -1.8255 -1.7328 -1.1154
  384MPD2    H2 5798   0.022   0.333  12.144  1.6590  1.7890 -0.2284
  384MPD2    H3 5799   0.147   0.317  11.950  1.5515 -0.4151 -0.7618
  384MPD2     N 5800   0.467   0.052  12.142  0.0124 -0.1946 -0.0013
  384MPD2    H5 5801   0.499   0.024  12.234 -2.3250 -0.9295  0.5807
  384MPD2    N1 5802   0.084   0.218  12.387  0.3680  0.0322  0.4915
  384MPD2    H7 5803   4.731   0.266  12.387  0.7085  0.6646  1.0909
  385TMC3    C1 5804   0.648   4.667  12.080 -0.3717 -0.2978 -0.4823
  385TMC3    C2 5805   0.614   4.544  12.020  1.0311 -0.0663 -0.2451
  385TMC3    C3 5806   0.601   4.440  12.100 -0.0277  0.0777 -0.2365
  385TMC3    C4 5807   0.667   4.676  12.217  0.1913  0.3977  0.0664
  385TMC3    C5 5808   0.646   4.568  12.298  0.0529  0.0969 -0.3900
  385TMC3    C6 5809   0.609   4.452  12.237 -0.5826 -0.0541 -0.2326
  385TMC3     C 5810   0.552   0.033  12.039 -0.2133 -0.1823  0.6481
  385TMC3     O 5811   0.531   0.052  11.922 -0.1956  0.3772  0.0053
  385TMC3     H 5812   0.594   4.556  11.914 -2.2616  2.5936  0.6666
  385TMC3    H1 5813   0.689   0.037  12.261  2.4414 -0.0705 -0.0351
  385TMC3    H2 5814   0.597   4.365  12.300  1.9205  2.7226  4.0355
  385TMC3    C7 5815   0.564   4.590  12.417  0.1750  0.0589 -0.0104
  385TMC3    C8 5816   0.568   4.306  12.049  0.0058 -0.8998  0.1916
  385TMC3    O1 5817   0.513   4.703  12.417 -0.7548  0.9251 -0.4156
  385TMC3    O2 5818   0.535   4.230  12.140  0.1256 -0.4034 -0.3854
  386TMC3    C1 5819   1.202   1.804  11.815  0.0222  0.3711 -0.4362
  386TMC3    C2 5820   1.230   1.870  11.699  0.6085 -0.7658 -1.4514
  386TMC3    C3 5821   1.178   1.995  11.678 -0.4654  0.4793 -0.3181
  386TMC3    C4 5822   1.118   1.858  11.915 -0.2455 -0.1866  0.3126
  386TMC3    C5 5823   1.071   1.983  11.890 -0.1393 -0.0205 -0.1767
  386TMC3    C6 5824   1.104   2.055  11.777 -1.3016  0.4506  0.1926
  386TMC3     C 5825   1.282   1.685  11.840  0.3581 -0.4673 -0.2480
  386TMC3     O 5826   1.384   1.675  11.776  0.6366  0.6485 -0.0138
  386TMC3     H 5827   1.280   1.815  11.621 -0.9998 -0.7640 -2.4685
  386TMC3    H1 5828   1.082   1.798  11.999  3.2216 -0.8817  1.3025
  386TMC3    H2 5829   1.067   2.156  11.764 -3.4241 -0.4840 -1.0762
  386TMC3    C7 5830   0.951   2.025  11.958  0.3180 -0.6079  0.0167
  386TMC3    C8 5831   1.125   2.033  11.542  0.2751  0.2820 -0.4624
  386TMC3    O1 5832   0.952   2.013  12.079  0.3261 -0.2460 -0.9965
  386TMC3    O2 5833   1.042   2.121  11.547  0.3315 -0.2327  0.3214
  387MPD2     C 5834   3.189   2.392  10.020 -0.1135  0.3199 -0.1401
  387MPD2    C1 5835   3.238   2.307  10.116  0.7122  0.5757  0.3433
  387MPD2    C2 5836   3.261   2.174  10.093 -0.1751 -0.5085 -0.5353
  387MPD2    C3 5837   3.247   2.123   9.965 -0.2328 -0.1585 -0.1129
  387MPD2    C4 5838   3.194   2.206   9.870  0.6428  1.0131  0.3248
  387MPD2    C5 5839   3.168   2.340   9.895  0.0113  0.0304 -0.0170
  387MPD2     H 5840   3.295   2.109  10.173  2.2114  1.7162  0.2230
  387MPD2    H1 5841   3.185   2.179   9.765  0.1528 -1.8082  1.1112
  387MPD2    H2 5842   3.153   2.493  10.041 -1.1533  0.1389 -1.0177
  387MPD2    H3 5843   3.134   2.409   9.819 -0.0729 -0.0386 -0.0404
  387MPD2     N 5844   3.285   1.991   9.944  0.3484 -0.2790 -0.1096
  387MPD2    H5 5845   3.293   1.936  10.029  0.9484  1.6664  1.1113
  387MPD2    N1 5846   3.259   2.346  10.249 -0.7613  0.0504 -0.3379
  387MPD2    H7 5847   3.276   2.271  10.315 -0.4159  0.7623  0.3783
  388TMC3    C1 5848   3.311   2.485  10.434  0.2118 -0.1973  0.2223
  388TMC3    C2 5849   3.424   2.568  10.438 -0.2987  0.2102  0.1801
  388TMC3    C3 5850   3.530   2.523  10.506  0.1858 -0.1430 -0.1828
  388TMC3    C4 5851   3.307   2.360  10.491  0.0465 -0.7132 -0.4357
  388TMC3    C5 5852   3.423   2.313  10.545 -0.3134  0.5644 -0.2130
  388TMC3    C6 5853   3.529   2.394  10.553  0.8258  0.5412  0.2500
  388TMC3     C 5854   3.266   2.477  10.292 -0.4424 -0.0018  0.1285
  388TMC3     O 5855   3.263   2.580  10.224 -0.5442  0.1373 -0.4115
  388TMC3     H 5856   3.426   2.664  10.388 -0.5295  1.5309  2.7278
  388TMC3    H1 5857   3.218   2.298  10.490  0.1227 -0.8209 -0.4874
  388TMC3    H2 5858   3.603   2.370  10.629 -1.6352  0.1562  2.5352
  388TMC3    C7 5859   3.449   2.181  10.498 -0.6471 -0.5907 -0.3270
  388TMC3    C8 5860   3.642   2.619  10.521 -0.4422 -0.0749 -0.1156
  388TMC3    O1 5861   3.355   2.130  10.438 -0.5913  0.1807  0.7851
  388TMC3    O2 5862   3.752   2.563  10.536  0.1662  0.0342  0.0864
  389MPD2     C 5863   2.359   0.360  11.507  0.1064  0.2476  0.0053
  389MPD2    C1 5864   2.320   0.289  11.397  0.4440 -0.1778  0.2488
  389MPD2    C2 5865   2.220   0.190  11.414 -0.2839 -0.3013  0.2596
  389MPD2    C3 5866   2.163   0.174  11.539  0.4177 -0.7380 -0.2617
  389MPD2    C4 5867   2.190   0.261  11.633 -0.7722 -0.3729 -0.3475
  389MPD2    C5 5868   2.302   0.346  11.626  0.4729  0.4005  0.1289
  389MPD2     H 5869   2.176   0.137  11.331  0.3773 -2.0152  0.9916
  389MPD2    H1 5870   2.148   0.253  11.733  0.0376  0.3061  0.0465
  389MPD2    H2 5871   2.446   0.425  11.505  0.6381 -0.4291  1.2398
  389MPD2    H3 5872   2.328   0.397  11.718  1.1765 -2.2535  1.4241
  389MPD2     N 5873   2.056   0.084  11.568  0.2974  0.3995  0.1128
  389MPD2    H5 5874   2.000   0.091  11.652 -2.4886  0.8095 -1.7946
  389MPD2    N1 5875   2.381   0.329  11.273  0.1225 -0.1067  0.3271
  389MPD2    H7 5876   2.456   0.398  11.267 -0.8676  0.9318  0.0206
  390TMC3    C1 5877   1.877   4.658  11.524 -0.2300 -0.4032 -0.2372
  390TMC3    C2 5878   1.852   4.644  11.658  0.3204  0.1717 -0.2624
  390TMC3    C3 5879   1.742   4.577  11.697  0.0904 -0.5066 -0.0620
  390TMC3    C4 5880   1.796   4.619  11.423  0.0087  0.1915 -0.1239
  390TMC3    C5 5881   1.677   4.565  11.465 -0.2649 -0.7979 -0.5597
  390TMC3    C6 5882   1.649   4.546  11.601  0.0476  0.6411  0.0695
  390TMC3     C 5883   2.002   4.723  11.482 -0.0886 -0.2676  0.4763
  390TMC3     O 5884   2.032   4.709  11.364 -0.4750  0.4134  0.2468
  390TMC3     H 5885   1.937   4.653  11.725 -0.8712 -1.5269  1.4920
  390TMC3    H1 5886   1.827   4.635  11.321 -2.0530  0.3770 -0.7236
  390TMC3    H2 5887   1.555   4.519  11.648  0.0411  2.8063  1.2656
  390TMC3    C7 5888   1.591   4.504  11.370 -0.0067 -0.2492 -0.2282
  390TMC3    C8 5889   1.757   4.459  11.784  0.2155 -0.9489 -0.4734
  390TMC3    O1 5890   1.640   4.474  11.263 -0.1963 -0.1240 -0.3914
  390TMC3    O2 5891   1.749   4.469  11.905  0.0309 -0.0777 -0.0407
  391MPD2     C 5892   1.721   1.856  11.280  0.0002  0.4419 -0.4951
  391MPD2    C1 5893   1.836   1.925  11.275 -0.2239 -0.6046 -0.1390
  391MPD2    C2 5894   1.884   1.953  11.152  0.3524 -0.1967  0.3657
  391MPD2    C3 5895   1.823   1.919  11.035 -1.0990  0.3349  0.2933
  391MPD2    C4 5896   1.696   1.864  11.043  0.1584 -0.3628 -0.3819
  391MPD2    C5 5897   1.654   1.817  11.166 -0.8240  0.4679  0.7182
  391MPD2     H 5898   1.980   2.002  11.145  0.2249  0.2299  1.6301
  391MPD2    H1 5899   1.644   1.833  10.954 -1.0415  3.9168 -1.1596
  391MPD2    H2 5900   1.698   1.817  11.378  0.7100  1.1514 -0.0491
  391MPD2    H3 5901   1.565   1.757  11.172 -0.3602 -0.0978  1.8843
  391MPD2     N 5902   1.894   1.951  10.916 -0.0126  0.1188 -0.8250
  391MPD2    H5 5903   1.990   1.982  10.913 -0.0359 -0.0163 -3.1200
  391MPD2    N1 5904   1.897   1.978  11.391 -0.3574 -0.4702  0.3197
  391MPD2    H7 5905   1.853   1.949  11.478  0.0865  0.1320  0.7509
  392TMC3    C1 5906   1.914   1.993  10.672  0.3074  0.2045 -0.0939
  392TMC3    C2 5907   1.850   1.980  10.548  0.1033 -0.1598  0.0511
  392TMC3    C3 5908   1.885   2.074  10.456 -0.7022  0.1438 -1.7880
  392TMC3    C4 5909   2.012   2.090  10.700  0.2399  0.1731 -0.1093
  392TMC3    C5 5910   2.053   2.165  10.596 -0.4653 -0.1247  0.1995
  392TMC3    C6 5911   1.995   2.157  10.471 -0.4880 -0.5601  0.1366
  392TMC3     C 5912   1.830   1.946  10.790 -0.0204  0.0178 -0.3506
  392TMC3     O 5913   1.715   1.917  10.763  0.2772  0.2152 -0.9335
  392TMC3     H 5914   1.766   1.912  10.536  0.3106 -0.7692  2.0272
  392TMC3    H1 5915   2.076   2.080  10.786 -1.0457  0.2588  0.8647
  392TMC3    H2 5916   2.030   2.221  10.390 -1.7627  2.4312  1.9704
  392TMC3    C7 5917   2.174   2.234  10.621  0.3296  1.2024  0.9178
  392TMC3    C8 5918   1.777   2.104  10.367  0.0147 -0.1182  0.3644
  392TMC3    O1 5919   2.210   2.260  10.736  0.6691 -0.3963  0.0371
  392TMC3    O2 5920   1.677   2.038  10.386  0.2059  0.2614  0.0365
  393TMC3    C1 5921   4.732   4.735  10.846  0.3452 -0.1523  0.9727
  393TMC3    C2 5922   4.639   4.684  10.766  0.1519 -0.5603 -0.0478
  393TMC3    C3 5923   4.545   4.596  10.813 -0.0834 -0.1570 -0.0358
  393TMC3    C4 5924   0.022   4.665  10.963  0.4299 -0.5387 -0.5797
  393TMC3    C5 5925   4.681   4.557  11.001 -0.0517  0.3413  0.6879
  393TMC3    C6 5926   4.565   4.528  10.928 -0.0028  0.3253  0.4084
  393TMC3     C 5927   0.113   0.061  10.784 -0.1117  0.3356  0.4711
  393TMC3     O 5928   0.109   0.068  10.661  0.1827 -0.0921  0.6776
  393TMC3     H 5929   4.619   4.736  10.672 -2.2559  1.7376  1.7394
  393TMC3    H1 5930   0.116   4.689  11.012  0.0123  0.8200 -0.4669
  393TMC3    H2 5931   4.494   4.449  10.949  1.1457 -0.9946 -0.6959
  393TMC3    C7 5932   4.719   4.479  11.119  0.0072  0.4116 -0.4016
  393TMC3    C8 5933   4.491   4.513  10.714 -0.2754  0.3036 -0.6005
  393TMC3    O1 5934   4.635   4.422  11.187 -0.2320 -0.3879 -0.4388
  393TMC3    O2 5935   4.404   4.433  10.749 -0.4168  0.1203  0.5054
  394TMC3    C1 5936   2.401   0.332  11.032  0.2428  0.4832  0.0276
  394TMC3    C2 5937   2.375   0.280  10.910  0.1527 -0.0813  1.1397
  394TMC3    C3 5938   2.371   0.367  10.804  0.3899 -0.2099 -0.4197
  394TMC3    C4 5939   2.459   0.455  11.036  0.1646 -0.0734  0.0179
  394TMC3    C5 5940   2.454   0.538  10.928 -0.2747 -0.7153  0.4101
  394TMC3    C6 5941   2.405   0.498  10.809  0.3146  0.6291 -0.9715
  394TMC3     C 5942   2.352   0.264  11.157  0.7071  0.7910 -0.5142
  394TMC3     O 5943   2.295   0.154  11.155  0.2163  0.7711 -0.5166
  394TMC3     H 5944   2.342   0.177  10.896  0.7943  0.2700 -3.1200
  394TMC3    H1 5945   2.490   0.496  11.132  1.5277  0.2274 -0.5489
  394TMC3    H2 5946   2.396   0.561  10.722  0.4761  0.6479 -0.9748
  394TMC3    C7 5947   2.558   0.642  10.920 -0.1195 -0.4939 -0.2127
  394TMC3    C8 5948   2.327   0.316  10.674  0.6161  0.1264 -0.1722
  394TMC3    O1 5949   2.546   0.726  10.831  0.5068 -0.4558 -0.7207
  394TMC3    O2 5950   2.360   0.196  10.660  0.5154  0.1999  0.1335
  395TMC3    C1 5951   2.195   2.445  14.835 -0.1131  0.3173 -0.1288
  395TMC3    C2 5952   2.064   2.484  14.820 -0.5387 -0.0721  0.7114
  395TMC3    C3 5953   2.010   2.582  14.902  0.2044  0.6353 -0.8049
  395TMC3    C4 5954   2.277   2.524  14.911  0.4741  0.6267 -0.9304
  395TMC3    C5 5955   2.217   2.620  14.988 -0.8626  0.1786 -0.1486
  395TMC3    C6 5956   2.087   2.660  14.981  0.2376 -0.0937  0.5086
  395TMC3     C 5957   2.263   2.384  14.727  0.4981  0.2148  0.2324
  395TMC3     O 5958   2.363   2.449  14.694 -0.2389 -0.2022 -0.0406
  395TMC3     H 5959   2.005   2.432  14.745  1.2759 -0.6560 -0.3162
  395TMC3    H1 5960   2.379   2.490  14.919 -0.0943 -0.9803 -0.5094
  395TMC3    H2 5961   2.047   2.735  15.048 -0.8472 -0.6516  0.4860
  395TMC3    C7 5962   2.310   2.722  15.046  0.9482  0.1798 -0.1029
  395TMC3    C8 5963   1.869   2.569  14.939 -0.3306  0.4439 -0.3125
  395TMC3    O1 5964   2.262   2.821  15.097  0.0207 -0.4360 -0.1729
  395TMC3    O2 5965   1.823   2.664  15.006 -0.2275  0.1264  0.0505
  396MPD2     C 5966   1.919   3.141  17.429 -0.2086  0.5631 -0.3737
  396MPD2    C1 5967   2.027   3.185  17.490  0.3668 -0.6864 -0.0155
  396MPD2    C2 5968   2.103   3.285  17.433  0.0433 -0.1979 -0.4856
  396MPD2    C3 5969   2.064   3.348  17.313  0.1308 -0.1475 -0.6688
  396MPD2    C4 5970   1.950   3.310  17.255 -0.8585  0.9872 -0.6461
  396MPD2    C5 5971   1.871   3.207  17.315 -0.1101  0.3750  0.6596
  396MPD2     H 5972   2.193   3.317  17.484 -0.1151  0.4209 -0.5944
  396MPD2    H1 5973   1.906   3.356  17.167  0.4448  2.1995 -0.6617
  396MPD2    H2 5974   1.875   3.049  17.466 -1.0615  1.1413  0.0348
  396MPD2    H3 5975   1.782   3.169  17.266  1.5955 -4.3925  1.3361
  396MPD2     N 5976   2.148   3.448  17.271  0.5294  0.5668  0.3189
  396MPD2    H5 5977   2.248   3.455  17.289  0.6279 -1.6246  0.5276
  396MPD2    N1 5978   2.082   3.099  17.590 -0.5138  0.1634 -0.6669
  396MPD2    H7 5979   2.053   3.001  17.590 -1.4830  0.4505  0.5830
  397TMC3    C1 5980   2.289   3.024  17.687  0.1955 -0.2139 -0.4136
  397TMC3    C2 5981   2.381   3.021  17.592 -0.5126 -0.1249  1.0163
  397TMC3    C3 5982   2.387   2.929  17.493 -0.0612  0.0594 -0.3373
  397TMC3    C4 5983   2.227   2.903  17.709 -0.4538  0.2100 -0.2554
  397TMC3    C5 5984   2.252   2.798  17.626  0.0757 -0.2136  0.2652
  397TMC3    C6 5985   2.313   2.813  17.506  0.2774  0.0597  0.0917
  397TMC3     C 5986   2.191   3.128  17.665 -0.4191 -0.1558  0.7986
  397TMC3     O 5987   2.231   3.241  17.691  0.1397 -0.3664 -0.1605
  397TMC3     H 5988   2.409   3.125  17.575  0.3143  0.1050  3.6696
  397TMC3    H1 5989   2.155   2.898   0.044 -0.4606  0.6585 -0.2339
  397TMC3    H2 5990   2.315   2.724  17.445 -0.7907 -0.1287  0.3179
  397TMC3    C7 5991   2.159   2.686  17.623  0.7148  0.3886  0.2014
  397TMC3    C8 5992   2.394   2.982  17.362 -0.0147  0.5971  0.4263
  397TMC3    O1 5993   2.121   2.636  17.513 -0.1170  0.2533  0.1845
  397TMC3    O2 5994   2.299   2.955  17.292 -0.3127 -0.1840  0.4120
  398MPD2     C 5995   4.089   4.597   0.229 -0.3241 -0.1774  0.0416
  398MPD2    C1 5996   4.194   4.557   0.305  0.6933 -0.2161  0.5376
  398MPD2    C2 5997   4.270   4.650   0.373 -0.0362  0.1796  0.7675
  398MPD2    C3 5998   4.238   0.047   0.363  0.1325 -0.1743 -0.6450
  398MPD2    C4 5999   4.117   0.087   0.304  0.5275  0.1404 -0.7915
  398MPD2    C5 6000   4.051   4.732   0.235 -0.3579 -0.3022  0.5664
  398MPD2     H 6001   4.355   4.615   0.430  0.6430  0.1589 -0.2515
  398MPD2    H1 6002   4.080   0.189   0.306  0.8450  0.2393 -0.0421
  398MPD2    H2 6003   4.041   4.531   0.158  0.3728  0.9754 -1.5035
  398MPD2    H3 6004   3.968   0.028   0.173  2.0410  0.2091 -2.3456
  398MPD2     N 6005   4.323   0.142   0.433  0.1352  1.1078 -0.2976
  398MPD2    H5 6006   4.401   0.111   0.490 -0.1679  1.1186  0.1304
  398MPD2    N1 6007   4.245   4.428   0.303  0.2589 -0.1341  0.1007
  398MPD2    H7 6008   4.330   4.412   0.357 -1.6974 -0.9110  2.9283
  399TMC3    C1 6009   4.252   4.195   0.280  0.7274  0.4400  0.4270
  399TMC3    C2 6010   4.326   4.179   0.393  0.3733  0.4047 -0.3032
  399TMC3    C3 6011   4.373   4.055   0.420  0.0069  0.6050 -0.6742
  399TMC3    C4 6012   4.223   4.088   0.199 -0.0653  0.2168  0.2049
  399TMC3    C5 6013   4.255   3.964   0.243 -0.0751  0.2940  0.2877
  399TMC3    C6 6014   4.337   3.943   0.350  0.4463  0.1180  0.0327
  399TMC3     C 6015   4.183   4.323   0.248 -0.0685 -0.7264  0.8753
  399TMC3     O 6016   4.081   4.317   0.181 -0.3793 -0.4991 -0.3154
  399TMC3     H 6017   4.333   4.254   0.471  0.5740 -1.4773  1.4881
  399TMC3    H1 6018   4.148   4.095   0.122  0.8597  1.2287 -0.6062
  399TMC3    H2 6019   4.360   3.843   0.386 -2.1996 -0.2845  0.5707
  399TMC3    C7 6020   4.179   3.847   0.205 -0.1655 -0.7343 -0.2856
  399TMC3    C8 6021   4.503   4.040   0.480 -0.0092  0.0016 -0.4849
  399TMC3    O1 6022   4.164   3.757   0.285  0.1307  0.0909 -0.0520
  399TMC3    O2 6023   4.562   3.933   0.464  0.0807  0.2217 -0.3406
  400TMC3    C1 6024   3.097   2.804  16.730  0.6461 -0.3167  0.2670
  400TMC3    C2 6025   2.992   2.730  16.680 -0.0907  0.8010  0.0948
  400TMC3    C3 6026   2.890   2.799  16.610  0.0669  0.2700  0.3001
  400TMC3    C4 6027   3.101   2.938  16.712 -0.0528 -0.5183 -0.2353
  400TMC3    C5 6028   2.993   3.004  16.659  0.3410 -0.9100 -0.0619
  400TMC3    C6 6029   2.894   2.933  16.602  0.1481 -0.4696 -0.3381
  400TMC3     C 6030   3.197   2.738  16.812  0.1178 -0.5673 -0.2482
  400TMC3     O 6031   3.168   2.627  16.845 -0.3249 -0.4009  0.1664
  400TMC3     H 6032   2.994   2.623  16.697 -0.0255  0.3331 -2.9421
  400TMC3    H1 6033   3.183   3.003  16.739 -1.3283  1.0109  0.0107
  400TMC3    H2 6034   2.809   2.983  16.556  0.5562 -0.4835 -1.1097
  400TMC3    C7 6035   3.007   3.146  16.613 -0.1489  0.2975 -0.2937
  400TMC3    C8 6036   2.756   2.737  16.602  0.0665 -0.4557  0.0501
  400TMC3    O1 6037   2.951   3.184  16.510 -0.1509  1.1762  0.2508
  400TMC3    O2 6038   2.657   2.807  16.628 -0.1885 -0.2915  0.1032
  401MPD2     C 6039   1.036   1.254   0.533  0.0604 -0.1620  0.1197
  401MPD2    C1 6040   1.162   1.211   0.520 -1.1146  0.3836 -0.5622
  401MPD2    C2 6041   1.190   1.078   0.536 -0.0901 -0.1584  0.2657
  401MPD2    C3 6042   1.098   0.998   0.599 -0.3394  0.2678  0.6549
  401MPD2    C4 6043   0.972   1.034   0.627 -0.4000 -0.2990 -1.1465
  401MPD2    C5 6044   0.938   1.168   0.582 -0.5563  0.5037  0.1841
  401MPD2     H 6045   1.288   1.037   0.516 -0.7207 -0.6923 -1.6483
  401MPD2    H1 6046   0.888   0.982   0.672  0.7805 -0.6677  0.6141
  401MPD2    H2 6047   1.010   1.359   0.533  1.3433  0.1576 -0.0877
  401MPD2    H3 6048   0.845   1.213   0.613 -0.6673  0.5468 -0.2145
  401MPD2     N 6049   1.146   0.869   0.647  0.2647  0.4158  0.0074
  401MPD2    H5 6050   1.239   0.840   0.620 -0.5032 -0.1646 -2.0073
  401MPD2    N1 6051   1.269   1.304   0.514  0.5954  0.3272  0.5011
  401MPD2    H7 6052   1.358   1.255   0.515  0.9113  0.8831 -1.0465
  402TMC3    C1 6053   1.116   0.644   0.733  0.1813  0.5252  0.2989
  402TMC3    C2 6054   1.068   0.565   0.838 -0.1164 -0.3179  0.8983
  402TMC3    C3 6055   1.121   0.440   0.857  0.1540  0.2640  0.0274
  402TMC3    C4 6056   1.194   0.596   0.635 -0.4551 -0.3235 -0.2954
  402TMC3    C5 6057   1.248   0.472   0.655  0.1791  0.3866  0.2332
  402TMC3    C6 6058   1.216   0.398   0.767 -0.7006  0.0275  0.3222
  402TMC3     C 6059   1.067   0.788   0.727 -0.6729  0.1019 -0.5274
  402TMC3     O 6060   0.972   0.806   0.794  0.1215  0.5628 -0.7414
  402TMC3     H 6061   1.023   0.613   0.924  0.3555  1.0956  0.3585
  402TMC3    H1 6062   1.210   0.651   0.544  1.3537  0.8625  0.7496
  402TMC3    H2 6063   1.269   0.307   0.795 -2.2117 -1.4999 -1.8257
  402TMC3    C7 6064   1.333   0.404   0.551  0.4643 -0.1987  0.4561
  402TMC3    C8 6065   1.156   0.415   1.001  0.3937 -0.2327  1.0463
  402TMC3    O1 6066   1.332   0.282   0.547 -0.5535 -0.4492  0.6675
  402TMC3    O2 6067   1.273   0.396   1.020 -0.1473  0.8057  0.0233
  403MPD2     C 6068   4.518   0.020  13.149 -0.1707 -0.6326  0.1898
  403MPD2    C1 6069   4.499   4.651  13.237  0.8061  0.0237 -0.0091
  403MPD2    C2 6070   4.571   4.663  13.364  0.1006  0.2868 -0.2662
  403MPD2    C3 6071   4.663   0.024  13.385  0.0238 -0.5879  0.0040
  403MPD2    C4 6072   4.693   0.113  13.284 -0.0208 -0.1398  0.1456
  403MPD2    C5 6073   4.616   0.111  13.176 -0.1325 -0.5081  0.2704
  403MPD2     H 6074   4.537   4.587  13.433  2.4045 -0.9900 -0.5437
  403MPD2    H1 6075   0.032   0.188  13.298 -0.2974  0.0314  0.7282
  403MPD2    H2 6076   4.470   0.021  13.052 -0.2630 -2.4210  0.2131
  403MPD2    H3 6077   4.630   0.198  13.113  1.5074  0.1350  1.5232
  403MPD2     N 6078   4.720   0.044  13.510 -0.2404 -0.1901 -0.0525
  403MPD2    H5 6079   0.049   0.119  13.526 -0.1728 -0.0332 -1.0547
  403MPD2    N1 6080   4.410   4.551  13.194  0.2289  0.7217 -0.7330
  403MPD2    H7 6081   4.360   4.574  13.108  0.0257 -0.4806 -0.9326
  404TMC3    C1 6082   4.322   4.326  13.183  0.7221 -0.5885  0.6409
  404TMC3    C2 6083   4.301   4.203  13.240 -0.8590  0.2085 -0.1428
  404TMC3    C3 6084   4.272   4.095  13.165 -0.2858  0.4426 -0.3748
  404TMC3    C4 6085   4.304   4.329  13.045  0.2184 -0.0658 -0.6031
  404TMC3    C5 6086   4.278   4.218  12.971  0.3166  0.2937  0.1672
  404TMC3    C6 6087   4.257   4.093  13.027  0.2579 -0.0957  0.6235
  404TMC3     C 6088   4.399   4.428  13.250  0.3546  0.7121  0.0991
  404TMC3     O 6089   4.463   4.389  13.348 -0.1819 -0.7947  0.3743
  404TMC3     H 6090   4.329   4.202  13.345  1.4961 -0.7802 -0.7871
  404TMC3    H1 6091   4.325   4.425  13.000 -1.8651 -0.0221 -1.4486
  404TMC3    H2 6092   4.258   4.005  12.964  0.3824  0.7208 -0.5182
  404TMC3    C7 6093   4.276   4.236  12.824 -0.1938 -0.6675  0.4617
  404TMC3    C8 6094   4.308   3.966  13.221 -0.7152 -0.0849 -0.0645
  404TMC3    O1 6095   4.310   4.345  12.788 -0.1078  0.8683 -0.8527
  404TMC3    O2 6096   4.352   3.884  13.141  0.1949 -0.0382 -0.5606
  405MPD2     C 6097   0.140   0.066  15.072 -0.3697 -0.5055 -0.0973
  405MPD2    C1 6098   0.063   4.691  15.057 -0.1021 -0.4002  0.1023
  405MPD2    C2 6099   0.006   4.663  14.929 -0.7497 -0.1839  0.0611
  405MPD2    C3 6100   0.030   0.001  14.822  0.0971 -0.1341 -0.1601
  405MPD2    C4 6101   0.103   0.111  14.833  0.4358  0.3158 -0.0171
  405MPD2    C5 6102   0.140   0.146  14.961  0.4812  0.4926 -0.1525
  405MPD2     H 6103   4.677   4.578  14.916 -1.7691  0.3033  1.9344
  405MPD2    H1 6104   0.120   0.172  14.744  2.5282 -0.9705 -0.5129
  405MPD2    H2 6105   0.188   0.105  15.161 -1.6027  0.4865  0.1416
  405MPD2    H3 6106   0.179   0.247  14.966 -0.6598  1.0320 -2.2275
  405MPD2     N 6107   4.697   4.697  14.703 -0.3661  0.7171  0.2258
  405MPD2    H5 6108   4.629   4.622  14.711  1.6485 -1.1269  0.1612
  405MPD2    N1 6109   0.052   4.604  15.169  0.5576 -0.3282  0.3845
  405MPD2    H7 6110   0.072   4.644  15.260  0.9101 -0.5520  0.4074
  406TMC3    C1 6111   4.462   4.671  14.334 -0.1582  0.5452  0.4544
  406TMC3    C2 6112   4.485   4.537  14.321  0.5821  0.1500  0.1039
  406TMC3    C3 6113   4.581   4.472  14.398 -0.7165 -0.4316 -1.0117
  406TMC3    C4 6114   4.533   0.003  14.430 -0.1688  0.1123  0.0659
  406TMC3    C5 6115   4.635   4.677  14.488 -0.0083  0.5538 -0.2293
  406TMC3    C6 6116   4.654   4.543  14.484 -0.1286 -0.6775  0.4117
  406TMC3     C 6117   4.348   4.731  14.270  0.4087 -0.4479 -0.2667
  406TMC3     O 6118   4.324   4.700  14.157  0.2377  0.2093  0.6056
  406TMC3     H 6119   4.430   4.486  14.243  0.2963 -0.1938  0.5305
  406TMC3    H1 6120   4.528   0.105  14.464 -0.4710  0.6461 -1.5939
  406TMC3    H2 6121   0.005   4.500  14.531  1.2289  1.0420 -0.5727
  406TMC3    C7 6122   4.709   0.020  14.582 -0.0898 -0.1524 -0.3988
  406TMC3    C8 6123   4.530   4.341  14.441  0.3960 -0.5596 -0.5752
  406TMC3    O1 6124   0.036   0.116  14.539  0.2010  0.4855 -0.0992
  406TMC3    O2 6125   4.447   4.288  14.370 -0.7640  0.1268 -0.0814
  407MPD2     C 6126   2.809   1.947  10.068 -0.1412 -0.6182 -0.4261
  407MPD2    C1 6127   2.882   2.043  10.006 -0.1584 -1.1645 -0.4402
  407MPD2    C2 6128   2.896   2.166  10.071  1.0745 -0.0542  0.2799
  407MPD2    C3 6129   2.854   2.174  10.202  0.1733  0.3977  0.6747
  407MPD2    C4 6130   2.790   2.076  10.265 -0.3202  0.0728 -0.0149
  407MPD2    C5 6131   2.756   1.966  10.193 -0.4568  0.4049 -0.5896
  407MPD2     H 6132   2.935   2.252  10.016 -2.3237  2.4996  1.8733
  407MPD2    H1 6133   2.760   2.082  10.369  0.5674  1.6119  0.1600
  407MPD2    H2 6134   2.765   1.863  10.014 -2.0550 -1.1082  1.8821
  407MPD2    H3 6135   2.712   1.880  10.241  1.6602 -0.9705 -1.0943
  407MPD2     N 6136   2.882   2.287  10.282 -0.4352  0.2721 -0.3391
  407MPD2    H5 6137   2.870   2.281  10.383  1.7800 -1.6430 -0.2024
  407MPD2    N1 6138   2.925   2.039   9.870  0.0583  0.4747  0.5866
  407MPD2    H7 6139   2.965   2.127   9.838 -0.2477 -0.0611 -1.2526
  408TMC3    C1 6140   2.927   1.976   9.641 -0.0382 -0.5167 -0.0169
  408TMC3    C2 6141   2.955   1.863   9.565  1.2378 -0.2712  0.8942
  408TMC3    C3 6142   3.038   1.873   9.456  0.5954 -0.7489 -0.3931
  408TMC3    C4 6143   2.971   2.102   9.610  0.9214 -0.1298  0.2837
  408TMC3    C5 6144   3.059   2.108   9.503 -0.2564 -0.3060  0.0423
  408TMC3    C6 6145   3.099   1.990   9.428  0.2182 -0.3311  0.1486
  408TMC3     C 6146   2.897   1.936   9.779  0.1066 -0.6123  0.1809
  408TMC3     O 6147   2.853   1.823   9.791 -0.3686  0.6749  0.3391
  408TMC3     H 6148   2.912   1.764   9.581  0.9344 -0.5170 -1.3387
  408TMC3    H1 6149   2.943   2.189   9.667  1.5144  0.8974 -0.9917
  408TMC3    H2 6150   3.167   2.009   9.346 -0.2735 -0.8916 -0.3943
  408TMC3    C7 6151   3.140   2.220   9.473 -0.3369 -0.4129 -0.3577
  408TMC3    C8 6152   3.125   1.759   9.450  0.1611 -0.0850  0.9590
  408TMC3    O1 6153   3.254   2.195   9.434 -0.5648 -0.2099  0.4024
  408TMC3    O2 6154   3.078   1.646   9.439  0.0268  0.4025  0.4918
  409MPD2     C 6155   1.974   2.524  17.039  0.0637  0.2803  0.4444
  409MPD2    C1 6156   2.085   2.519  17.128 -0.0776 -0.5528 -0.3749
  409MPD2    C2 6157   2.181   2.620  17.117  0.1444  0.5828  0.7133
  409MPD2    C3 6158   2.173   2.728  17.029 -0.3197  0.2713  0.5586
  409MPD2    C4 6159   2.065   2.730  16.948 -0.2141  0.6804  0.6373
  409MPD2    C5 6160   1.963   2.632  16.954 -0.0465 -0.5047 -0.5334
  409MPD2     H 6161   2.264   2.614  17.187 -0.8949 -2.0904  1.7175
  409MPD2    H1 6162   2.068   2.807  16.872 -1.2940 -0.1828 -0.2801
  409MPD2    H2 6163   1.892   2.453  17.043  0.3179  0.0403  1.3713
  409MPD2    H3 6164   1.886   2.642  16.879 -0.0336  0.1056 -0.4655
  409MPD2     N 6165   2.274   2.817  17.013  0.2275 -0.2561 -0.2241
  409MPD2    H5 6166   2.242   2.910  16.986 -0.2899  0.0336  1.3760
  409MPD2    N1 6167   2.104   2.415  17.220 -0.1317 -0.2653  0.3367
  409MPD2    H7 6168   2.189   2.415  17.277 -0.4789  0.2345  0.8573
  410TMC3    C1 6169   2.490   2.891  16.987 -0.2906  0.4891  0.0114
  410TMC3    C2 6170   2.613   2.888  17.045 -0.4241 -0.3235 -0.2060
  410TMC3    C3 6171   2.711   2.968  16.996  0.2479 -0.0344  0.2224
  410TMC3    C4 6172   2.458   2.974  16.887  0.6483 -0.0734  0.3307
  410TMC3    C5 6173   2.561   3.052  16.837 -0.6218  0.1466 -0.3088
  410TMC3    C6 6174   2.687   3.048  16.887 -0.1095  0.0186 -0.5790
  410TMC3     C 6175   2.400   2.783  17.020  0.2017  0.7312 -0.6567
  410TMC3     O 6176   2.451   2.672  17.015  0.5731 -0.6019  0.2479
  410TMC3     H 6177   2.633   2.810  17.118  1.6519  0.8836  0.4998
  410TMC3    H1 6178   2.364   2.972  16.833  0.6511 -1.2261  0.3645
  410TMC3    H2 6179   2.762   3.114  16.844 -0.7335  0.8898 -0.3477
  410TMC3    C7 6180   2.534   3.105  16.703  0.1805  0.0190 -0.0241
  410TMC3    C8 6181   2.850   2.948  17.037 -0.2421 -0.0576 -0.4336
  410TMC3    O1 6182   2.436   3.052  16.647  0.1629 -0.1709 -0.1498
  410TMC3    O2 6183   2.932   3.036  17.030 -0.2344 -0.0125 -0.2605
  411MPD2     C 6184   2.723   3.660  14.774 -0.2840 -0.1244  0.7672
  411MPD2    C1 6185   2.613   3.627  14.848 -0.7177 -0.1688 -0.5044
  411MPD2    C2 6186   2.572   3.499  14.854 -0.0099  0.0787 -0.5696
  411MPD2    C3 6187   2.652   3.398  14.795  0.0783 -0.1302  0.1673
  411MPD2    C4 6188   2.771   3.429  14.752  0.4996  0.1577 -0.1578
  411MPD2    C5 6189   2.801   3.556  14.733 -0.5809  0.5711 -0.1821
  411MPD2     H 6190   2.481   3.479  14.908  0.3097 -0.0700 -0.0917
  411MPD2    H1 6191   2.827   3.347  14.710  0.3514 -0.5294  0.9880
  411MPD2    H2 6192   2.763   3.761  14.775  0.9136 -0.5867 -0.0786
  411MPD2    H3 6193   2.892   3.586  14.684 -0.0134 -0.1205  0.4553
  411MPD2     N 6194   2.610   3.263  14.791 -0.2329  0.0756 -0.1650
  411MPD2    H5 6195   2.681   3.196  14.764 -1.5544 -0.9026 -1.1860
  411MPD2    N1 6196   2.532   3.729  14.890 -0.1929  0.1178  0.0310
  411MPD2    H7 6197   2.560   3.820  14.853 -0.1421 -0.3493 -1.0964
  412TMC3    C1 6198   2.485   3.059  14.786 -0.1270 -0.0820  0.0577
  412TMC3    C2 6199   2.369   2.994  14.818  0.3630 -0.6033  0.0535
  412TMC3    C3 6200   2.349   2.875  14.768  0.0590  0.3008  0.1606
  412TMC3    C4 6201   2.574   3.009  14.700 -0.1089 -0.2862  0.0985
  412TMC3    C5 6202   2.559   2.878  14.653  0.9470 -0.2674  0.1276
  412TMC3    C6 6203   2.442   2.812  14.689 -0.4056  0.0119 -0.4008
  412TMC3     C 6204   2.488   3.206  14.825  0.2146 -0.7529  0.2921
  412TMC3     O 6205   2.390   3.250  14.884  0.1856  0.3529  0.7154
  412TMC3     H 6206   2.292   3.043  14.876  0.2820 -1.1973  0.4487
  412TMC3    H1 6207   2.655   3.066  14.658  0.1452 -0.2895  0.5777
  412TMC3    H2 6208   2.426   2.711  14.653  0.7519 -0.5490  0.6787
  412TMC3    C7 6209   2.569   2.874  14.516  0.0663 -0.4874  0.1064
  412TMC3    C8 6210   2.214   2.868  14.722 -0.5634  0.2172 -0.2738
  412TMC3    O1 6211   2.459   2.875  14.464  0.0029 -0.2658 -0.1249
  412TMC3    O2 6212   2.114   2.895  14.787  0.5920 -0.0712  0.2682
  413MPD2     C 6213   3.890   1.920  15.257  0.3736  0.6472 -0.2898
  413MPD2    C1 6214   3.856   1.794  15.207  0.5105 -0.0984 -0.2386
  413MPD2    C2 6215   3.944   1.684  15.214  0.0444 -0.8384  0.0922
  413MPD2    C3 6216   4.066   1.707  15.272  0.4319 -0.8358 -0.8522
  413MPD2    C4 6217   4.104   1.835  15.312 -0.9517  0.9525  0.6032
  413MPD2    C5 6218   4.016   1.942  15.306  0.7836  0.2144  0.6923
  413MPD2     H 6219   3.909   1.585  15.189 -0.3295 -0.6777 -0.0290
  413MPD2    H1 6220   4.207   1.856  15.339 -1.3871  3.5018  0.3651
  413MPD2    H2 6221   3.820   2.001  15.242 -0.5329 -0.1541 -0.3984
  413MPD2    H3 6222   4.036   2.046  15.327  0.1268  0.6779 -0.9847
  413MPD2     N 6223   4.161   1.601  15.267  0.1845  0.5747  0.5950
  413MPD2    H5 6224   4.128   1.522  15.212 -0.0697 -1.0311  3.0520
  413MPD2    N1 6225   3.725   1.778  15.160  0.1797 -0.8445 -0.8326
  413MPD2    H7 6226   3.657   1.845  15.194  1.6298  0.3582 -0.3312
  414TMC3    C1 6227   4.348   1.474  15.279  0.0384  0.0250  0.2880
  414TMC3    C2 6228   4.386   1.386  15.375 -0.0553  0.2873 -0.4644
  414TMC3    C3 6229   4.377   1.255  15.346  0.9106  0.3290  0.3923
  414TMC3    C4 6230   4.338   1.432  15.151  0.4893 -0.5477  0.0613
  414TMC3    C5 6231   4.342   1.306  15.111  0.0447 -0.6523  0.2629
  414TMC3    C6 6232   4.352   1.213  15.214  0.6336  0.9374 -0.0194
  414TMC3     C 6233   4.283   1.592  15.326 -0.5483  0.4764 -0.6249
  414TMC3     O 6234   4.331   1.671  15.410 -0.3826  0.4671  0.4360
  414TMC3     H 6235   4.413   1.426  15.472 -0.1383 -0.5669 -0.0895
  414TMC3    H1 6236   4.334   1.508  15.074  2.0689 -1.1462 -0.6116
  414TMC3    H2 6237   4.352   1.106  15.197 -0.8837  0.7443  1.2454
  414TMC3    C7 6238   4.465   1.291  15.027  0.1984 -0.8578 -0.8150
  414TMC3    C8 6239   4.458   1.167  15.425  0.0103 -0.7268 -0.0472
  414TMC3    O1 6240   4.546   1.382  15.031  0.1571 -0.2868 -0.0778
  414TMC3    O2 6241   4.507   1.073  15.365  0.2945 -0.1027 -0.3208
  415TMC3    C1 6242   0.726   3.977  10.021  0.2009  0.1990 -0.3438
  415TMC3    C2 6243   0.733   4.042   9.900  0.0179 -0.6174 -0.1048
  415TMC3    C3 6244   0.787   3.973   9.794  0.6703  0.2530 -0.0052
  415TMC3    C4 6245   0.764   3.845  10.034 -0.0744 -0.4798  0.1976
  415TMC3    C5 6246   0.826   3.781   9.925 -0.8082  0.0122  0.3612
  415TMC3    C6 6247   0.846   3.845   9.805 -0.0599 -0.1104  0.9601
  415TMC3     C 6248   0.651   4.044  10.132  0.3086 -0.5708  0.2360
  415TMC3     O 6249   0.659   3.982  10.241 -0.1537  0.3009  0.1067
  415TMC3     H 6250   0.706   4.147   9.895  0.5564 -0.5319 -1.3372
  415TMC3    H1 6251   0.741   3.791  10.125 -0.0488  0.4424  0.7563
  415TMC3    H2 6252   0.906   3.808   9.722  0.3936 -0.4979  1.4605
  415TMC3    C7 6253   0.861   3.639   9.941  0.0253  0.3803  0.5712
  415TMC3    C8 6254   0.827   4.045   9.678  0.4632 -0.0310 -0.2876
  415TMC3    O1 6255   0.969   3.595   9.905 -0.0394  0.3715  0.8288
  415TMC3    O2 6256   0.813   3.980   9.575  0.1013 -0.3125 -0.0670
  416MPD2     C 6257   1.870   2.508  11.243 -0.1635  0.3966 -0.8848
  416MPD2    C1 6258   1.751   2.525  11.184 -0.8720 -0.0869  0.1501
  416MPD2    C2 6259   1.706   2.424  11.113  0.0588 -0.3476  0.0759
  416MPD2    C3 6260   1.766   2.302  11.100 -0.1360 -0.7284 -0.1946
  416MPD2    C4 6261   1.902   2.297  11.134  0.1008  0.4481  0.0677
  416MPD2    C5 6262   1.946   2.396  11.215 -0.2459 -0.2796  0.1096
  416MPD2     H 6263   1.606   2.440  11.077 -0.3677 -1.3081  0.8320
  416MPD2    H1 6264   1.960   2.205  11.123  0.6195  0.7487  0.3087
  416MPD2    H2 6265   1.910   2.568  11.324 -0.3878 -3.0409  1.7735
  416MPD2    H3 6266   2.046   2.387  11.256 -0.2327  0.3833  0.2172
  416MPD2     N 6267   1.707   2.188  11.045  0.0913 -0.1614  0.3102
  416MPD2    H5 6268   1.777   2.138  10.991  0.4286 -0.9602  1.4854
  416MPD2    N1 6269   1.666   2.634  11.217 -0.8322  0.2924  0.6778
  416MPD2    H7 6270   1.692   2.699  11.291  2.2688  0.0694 -0.2061
  417TMC3    C1 6271   1.458   2.738  11.236 -0.1890  0.9413  0.4604
  417TMC3    C2 6272   1.470   2.735  11.376  0.3604  0.6036  0.1092
  417TMC3    C3 6273   1.369   2.803  11.443 -0.4901 -0.0921  0.6170
  417TMC3    C4 6274   1.354   2.804  11.171  0.6199 -0.6109  0.2357
  417TMC3    C5 6275   1.253   2.852  11.242  0.2234  0.0318  0.1280
  417TMC3    C6 6276   1.256   2.851  11.378 -0.2373 -0.2008  0.3944
  417TMC3     C 6277   1.549   2.664  11.152  0.2909 -0.2666 -0.6042
  417TMC3     O 6278   1.517   2.662  11.032 -0.0620 -0.0621 -0.2338
  417TMC3     H 6279   1.551   2.673  11.412 -1.9691 -2.7103 -0.3070
  417TMC3    H1 6280   1.349   2.805  11.063 -1.6507 -0.4967  0.3453
  417TMC3    H2 6281   1.182   2.906  11.435 -0.1918 -0.3911  0.6347
  417TMC3    C7 6282   1.161   2.939  11.174  0.1800 -0.0730 -0.1836
  417TMC3    C8 6283   1.386   2.851  11.577 -0.6658 -0.7073  0.6878
  417TMC3    O1 6284   1.164   2.953  11.053 -0.1747  0.0528  0.4186
  417TMC3    O2 6285   1.280   2.885  11.635  0.3540 -0.4638 -0.2747
  418TMC3    C1 6286   4.646   0.450   0.414 -0.7660 -0.5213  0.3529
  418TMC3    C2 6287   4.517   0.427   0.373  0.3443  0.0699 -0.8941
  418TMC3    C3 6288   4.451   0.333   0.452  0.7891  0.7050  0.0946
  418TMC3    C4 6289   4.693   0.412   0.531 -0.2060  0.0509 -0.2477
  418TMC3    C5 6290   4.610   0.346   0.617  0.5765 -0.2763  0.2508
  418TMC3    C6 6291   4.484   0.305   0.580  0.6153  0.4115 -0.6889
  418TMC3     C 6292   0.000   0.491   0.312  0.4171  0.1072 -0.1158
  418TMC3     O 6293   4.684   0.557   0.222  0.3332  0.5648 -0.3520
  418TMC3     H 6294   4.486   0.437   0.270 -0.9441  0.3073 -0.4740
  418TMC3    H1 6295   0.061   0.427   0.556 -0.7643  3.6672 -0.0598
  418TMC3    H2 6296   4.428   0.229   0.633  1.8514  0.8610  1.2483
  418TMC3    C7 6297   4.670   0.253   0.707  0.3057  0.1167 -0.2316
  418TMC3    C8 6298   4.332   0.270   0.392 -0.2857  0.8372 -0.0169
  418TMC3    O1 6299   0.016   0.175   0.656  0.1327 -0.0727 -0.3063
  418TMC3    O2 6300   4.270   0.335   0.310 -0.2537  0.1845  0.2849
  419MPD2     C 6301   4.083   2.670  12.272 -0.0597 -0.4704 -0.1512
  419MPD2    C1 6302   3.980   2.755  12.255  0.2867  0.2964 -0.3679
  419MPD2    C2 6303   3.881   2.765  12.350 -0.4514 -0.6049  0.5381
  419MPD2    C3 6304   3.887   2.685  12.467 -0.4475  0.1818 -0.1184
  419MPD2    C4 6305   3.990   2.595  12.482 -0.1614  0.2351  0.8080
  419MPD2    C5 6306   4.090   2.597  12.387 -0.1939  0.6122 -0.1312
  419MPD2     H 6307   3.807   2.844  12.348 -2.4797 -2.4956  0.8382
  419MPD2    H1 6308   3.995   2.549  12.580 -0.0869  0.0907  0.7364
  419MPD2    H2 6309   4.163   2.639  12.206  0.6997  1.6992 -0.2406
  419MPD2    H3 6310   4.180   2.538  12.400 -0.7136 -0.2878 -0.6578
  419MPD2     N 6311   3.788   2.715  12.567  0.4894 -0.2345 -0.0981
  419MPD2    H5 6312   3.722   2.789  12.544  0.7296  0.0095 -0.0078
  419MPD2    N1 6313   3.987   2.854  12.160 -0.6304  0.2339 -0.0421
  419MPD2    H7 6314   3.918   2.928  12.165 -0.5970  0.2606  0.0207
  420TMC3    C1 6315   3.702   2.749  12.791  0.1963 -0.0680 -0.0336
  420TMC3    C2 6316   3.607   2.822  12.722 -0.3062  0.9609 -0.4565
  420TMC3    C3 6317   3.566   2.938  12.776  0.6772 -0.1359  0.5024
  420TMC3    C4 6318   3.765   2.803  12.902  0.2108  0.4306  0.0232
  420TMC3    C5 6319   3.725   2.929  12.945 -0.0962  1.1134  0.2606
  420TMC3    C6 6320   3.615   2.989  12.891 -0.6330 -0.1466  0.1450
  420TMC3     C 6321   3.804   2.690  12.704 -0.2910 -0.0752 -1.4647
  420TMC3     O 6322   3.890   2.626  12.762  0.0876 -0.1438 -0.0557
  420TMC3     H 6323   3.566   2.793  12.625 -0.6492 -0.1611  0.0366
  420TMC3    H1 6324   3.836   2.746  12.961 -1.5477 -1.0339  0.7065
  420TMC3    H2 6325   3.548   3.059  12.941 -2.4644 -0.1862 -2.2715
  420TMC3    C7 6326   3.763   2.963  13.081  0.1167 -0.3586 -0.5266
  420TMC3    C8 6327   3.460   3.014  12.710  0.2112  0.3026  0.6005
  420TMC3    O1 6328   3.848   2.891  13.132  0.6244 -0.3751 -0.1258
  420TMC3    O2 6329   3.389   2.960  12.626 -0.1871  0.0131  0.0361
  421TMC3    C1 6330   0.033   0.028  13.729  0.7033 -0.2764 -0.6192
  421TMC3    C2 6331   4.709   0.072  13.845  0.2948 -0.4095 -0.6026
  421TMC3    C3 6332   0.056   0.090  13.954 -0.9189 -0.1687 -0.1532
  421TMC3    C4 6333   0.159   4.716  13.724 -0.7625  0.2223 -0.8853
  421TMC3    C5 6334   0.235   0.013  13.826 -0.3816  0.1410  0.0594
  421TMC3    C6 6335   0.189   0.079  13.937  0.9398 -0.1104  0.5747
  421TMC3     C 6336   4.693   4.712  13.622 -0.5875  0.6429  0.1042
  421TMC3     O 6337   4.602   4.635  13.653  0.0257 -0.2712  0.1094
  421TMC3     H 6338   4.602   0.080  13.857 -0.0756 -3.1860 -2.2474
  421TMC3    H1 6339   0.194   4.652  13.644 -0.6115 -2.5785  1.4448
  421TMC3    H2 6340   0.255   0.080  14.024 -1.1512  0.0184  2.1590
  421TMC3    C7 6341   0.351   4.687  13.859 -0.2553  0.0787  0.1923
  421TMC3    C8 6342   0.015   0.143  14.085 -1.0541 -0.2626 -0.0701
  421TMC3    O1 6343   0.443   0.011  13.913 -0.0625 -0.2313  0.4063
  421TMC3    O2 6344   0.097   0.139  14.177 -0.3286  0.1720  0.1507
  422TMC3    C1 6345   3.028   0.878  12.691 -0.5367  0.0886  0.2863
  422TMC3    C2 6346   3.003   1.006  12.729  1.0510  0.1067  0.3749
  422TMC3    C3 6347   2.897   1.045  12.797  0.0750 -0.3236 -0.6020
  422TMC3    C4 6348   2.935   0.782  12.724 -0.5339  0.8200 -0.3966
  422TMC3    C5 6349   2.822   0.820  12.791 -0.3410 -0.1192 -0.2200
  422TMC3    C6 6350   2.801   0.953  12.834 -0.5735  0.3179  0.1636
  422TMC3     C 6351   3.108   0.852  12.574  0.3107  0.0364 -0.6295
  422TMC3     O 6352   3.188   0.946  12.544  0.2807  0.0618  0.0230
  422TMC3     H 6353   3.077   1.077  12.693 -1.8966  2.8556 -0.2729
  422TMC3    H1 6354   2.949   0.678  12.694  0.4285  0.3943  1.5573
  422TMC3    H2 6355   2.710   0.987  12.882 -1.0412 -1.1349  0.3003
  422TMC3    C7 6356   2.728   0.720  12.827 -0.4099  0.3405 -0.1043
  422TMC3    C8 6357   2.883   1.188  12.831 -0.3263  0.1552 -0.5917
  422TMC3    O1 6358   2.781   0.610  12.828 -0.1863 -0.0370  0.0642
  422TMC3    O2 6359   2.979   1.250  12.788  0.3666 -0.0942  0.0464
  423MPD2     C 6360   3.203   2.110   0.178 -0.0376 -0.8600  0.9281
  423MPD2    C1 6361   3.314   2.063   0.237 -0.1084 -0.0748  0.1691
  423MPD2    C2 6362   3.404   1.994   0.158 -0.2315 -0.2912  0.1740
  423MPD2    C3 6363   3.375   1.953   0.027  0.2055  0.5988  0.0052
  423MPD2    C4 6364   3.262   2.004  17.708 -0.4396  0.5943 -0.8965
  423MPD2    C5 6365   3.175   2.076   0.041 -0.2968 -0.0548 -0.2582
  423MPD2     H 6366   3.498   1.975   0.208 -0.1049 -1.8601 -0.6601
  423MPD2    H1 6367   3.242   1.980  17.604 -0.2114  1.9840 -1.2678
  423MPD2    H2 6368   3.134   2.171   0.235  0.1511 -0.4679  0.7429
  423MPD2    H3 6369   3.084   2.119   0.000  0.2634  0.9611 -0.4272
  423MPD2     N 6370   3.469   1.874  17.693  0.6602  0.7502 -0.3425
  423MPD2    H5 6371   3.455   1.881  17.592  0.4662 -1.5853 -0.4603
  423MPD2    N1 6372   3.354   2.094   0.370  0.5191 -0.4540 -0.6915
  423MPD2    H7 6373   3.441   2.058   0.409  0.3382 -0.7981 -0.6065
  424TMC3    C1 6374   3.365   2.157   0.584 -0.4703 -0.3061  0.5481
  424TMC3    C2 6375   3.501   2.153   0.562 -0.1338 -0.2388 -0.8760
  424TMC3    C3 6376   3.565   2.122   0.684  0.4227 -0.8383 -0.8423
  424TMC3    C4 6377   3.294   2.146   0.698 -0.3628 -1.0843  0.1405
  424TMC3    C5 6378   3.365   2.132   0.815  0.3335 -0.5538  0.1642
  424TMC3    C6 6379   3.504   2.119   0.805  0.2965 -0.2487 -0.2705
  424TMC3     C 6380   3.277   2.156   0.463 -0.2678  0.4456 -0.4327
  424TMC3     O 6381   3.163   2.195   0.464  0.4205 -0.3035  0.3016
  424TMC3     H 6382   3.553   2.171   0.469  0.8755 -2.3704 -0.7300
  424TMC3    H1 6383   3.185   2.148   0.697 -0.3199  0.5547 -0.9350
  424TMC3    H2 6384   3.557   2.100   0.898  1.1382 -0.7323 -0.8528
  424TMC3    C7 6385   3.305   2.107   0.945  0.0358 -0.1193 -0.4516
  424TMC3    C8 6386   3.696   2.078   0.664 -0.6137 -0.1369 -0.9133
  424TMC3    O1 6387   3.381   2.106   1.038  0.4421 -0.4551  0.5428
  424TMC3    O2 6388   3.725   2.031   0.555 -0.3731  0.5267 -0.7522
  425MPD2     C 6389   3.035   1.264  17.291 -0.6734 -0.5627  0.0421
  425MPD2    C1 6390   2.960   1.150  17.295  0.3764  0.1945 -0.7768
  425MPD2    C2 6391   2.826   1.160  17.315 -0.5693 -0.0042 -0.0186
  425MPD2    C3 6392   2.770   1.276  17.353 -0.3483  0.2695 -0.2571
  425MPD2    C4 6393   2.847   1.391  17.338 -0.3413  0.2102  0.8476
  425MPD2    C5 6394   2.977   1.384  17.303  0.3042 -0.0343  0.1283
  425MPD2     H 6395   2.765   1.073  17.337 -0.7286  0.1437  0.1209
  425MPD2    H1 6396   2.808   1.488  17.365 -0.6252  0.6149 -1.0858
  425MPD2    H2 6397   3.141   1.263  17.270 -0.5617  1.0912  0.5253
  425MPD2    H3 6398   3.037   1.474  17.304  1.3198 -0.7241  1.1670
  425MPD2     N 6399   2.633   1.277  17.385 -0.5976  0.0510  0.2941
  425MPD2    H5 6400   2.589   1.185  17.390  0.0613 -0.2800  0.0047
  425MPD2    N1 6401   3.024   1.022  17.272 -0.4422 -0.8823  0.7876
  425MPD2    H7 6402   3.123   1.021  17.248 -0.3792 -0.2160  1.0219
  426TMC3    C1 6403   3.061   0.788  17.276 -0.4984  0.2287  0.4826
  426TMC3    C2 6404   3.012   0.689  17.204 -0.3734  0.3498  1.0694
  426TMC3    C3 6405   3.083   0.575  17.217 -0.8511  0.2702 -0.4091
  426TMC3    C4 6406   3.169   0.792  17.360 -0.2682  0.4086  0.0274
  426TMC3    C5 6407   3.244   0.671  17.366 -0.4551  0.0862  1.4815
  426TMC3    C6 6408   3.200   0.567  17.287 -0.5716  0.0437 -0.7489
  426TMC3     C 6409   2.968   0.898  17.279 -0.8278 -0.1414  0.5157
  426TMC3     O 6410   2.851   0.864  17.297 -0.1334 -0.3943 -0.2617
  426TMC3     H 6411   2.929   0.702  17.135 -0.1991 -0.3256  0.7340
  426TMC3    H1 6412   3.203   0.883  17.408 -0.6794 -0.8208  2.6751
  426TMC3    H2 6413   3.250   0.471  17.283 -1.5919 -0.5548  0.7513
  426TMC3    C7 6414   3.303   0.629  17.487 -0.0537 -0.1441 -0.3893
  426TMC3    C8 6415   3.038   0.459  17.157  0.1980 -0.0480  0.5073
  426TMC3    O1 6416   3.360   0.523  17.487 -0.4713 -0.3241  0.2256
  426TMC3    O2 6417   3.125   0.386  17.105 -0.1794 -0.2099 -0.4432
  427MPD2     C 6418   1.620   3.544  14.958 -1.0978 -0.2254  0.2964
  427MPD2    C1 6419   1.585   3.418  14.998  0.3789 -0.3933  0.1512
  427MPD2    C2 6420   1.453   3.375  14.985  0.2987  0.1988  0.4095
  427MPD2    C3 6421   1.352   3.467  14.942  0.1393  0.2534 -0.1396
  427MPD2    C4 6422   1.392   3.595  14.912 -0.0708  0.2226 -0.3320
  427MPD2    C5 6423   1.521   3.636  14.920 -0.1850 -0.1577  0.5744
  427MPD2     H 6424   1.440   3.275  15.025  1.2644 -0.3441 -0.6367
  427MPD2    H1 6425   1.319   3.671  14.885 -1.9422 -0.8320  1.8118
  427MPD2    H2 6426   1.718   3.589  14.967 -1.7146  1.4187 -1.1838
  427MPD2    H3 6427   1.549   3.740  14.908  0.6606 -0.0902  3.1585
  427MPD2     N 6428   1.212   3.438  14.939  0.2580 -0.0686  0.7240
  427MPD2    H5 6429   1.143   3.511  14.925 -0.4391 -0.9929 -0.6174
  427MPD2    N1 6430   1.680   3.329  15.064  0.1042 -0.0047  0.2647
  427MPD2    H7 6431   1.643   3.247  15.110 -0.8210 -0.0780 -0.6219
  428TMC3    C1 6432   1.865   3.276  15.185 -0.3126  0.6625 -0.3317
  428TMC3    C2 6433   1.836   3.148  15.193  0.3701  0.5684 -0.9311
  428TMC3    C3 6434   1.887   3.067  15.294 -1.0381  0.1809  0.6201
  428TMC3    C4 6435   1.945   3.330  15.286  0.1313  0.3299 -1.1802
  428TMC3    C5 6436   1.993   3.250  15.388 -0.0599  0.1253 -0.6377
  428TMC3    C6 6437   1.963   3.119  15.391  0.3984 -0.0372  0.3436
  428TMC3     C 6438   1.817   3.356  15.078 -0.0678  0.0179 -0.2891
  428TMC3     O 6439   1.880   3.460  15.046 -0.5955  0.3882  0.7817
  428TMC3     H 6440   1.795   3.097  15.106 -0.3917  0.6666 -0.6288
  428TMC3    H1 6441   1.970   3.435  15.279  3.3299 -0.4692 -1.9998
  428TMC3    H2 6442   1.997   3.046  15.463  2.0949  0.4398  0.0276
  428TMC3    C7 6443   2.101   3.306  15.469 -0.6492  0.0497 -0.1720
  428TMC3    C8 6444   1.837   2.931  15.317  0.3122 -0.5308 -0.7579
  428TMC3    O1 6445   2.104   3.260  15.584 -0.0679  1.0410 -0.0114
  428TMC3    O2 6446   1.801   2.876  15.214 -0.1490 -0.1439 -0.2589
  429MPD2     C 6447   2.711   3.383  17.556 -0.8568  0.1211 -0.4040
  429MPD2    C1 6448   2.844   3.348  17.553  0.4163  0.0994 -0.5915
  429MPD2    C2 6449   2.936   3.426  17.495  0.5784 -0.4568  0.0171
  429MPD2    C3 6450   2.896   3.544  17.433 -0.3628  0.0447 -0.8034
  429MPD2    C4 6451   2.767   3.590  17.443 -0.1533 -0.2590  0.3235
  429MPD2    C5 6452   2.677   3.512  17.509 -0.0769  0.3956  0.4716
  429MPD2     H 6453   3.037   3.386  17.494  0.2317 -1.3134 -0.6611
  429MPD2    H1 6454   2.739   3.689  17.410 -1.2533  0.2707  2.8871
  429MPD2    H2 6455   2.651   3.318  17.620 -0.5493  0.0880 -0.1483
  429MPD2    H3 6456   2.573   3.540  17.514  0.3764  2.0147  1.0009
  429MPD2     N 6457   2.999   3.616  17.373 -0.2292 -0.4084  0.9354
  429MPD2    H5 6458   3.090   3.571  17.382  0.0567  0.3036  1.6206
  429MPD2    N1 6459   2.886   3.217  17.589  0.3765 -0.0518 -0.1774
  429MPD2    H7 6460   2.984   3.189  17.582  0.9190  1.6532  0.6227
  430TMC3    C1 6461   3.112   3.775  17.258 -0.0317 -0.1511 -0.3572
  430TMC3    C2 6462   3.128   3.900  17.209 -0.5135  0.0067 -0.0254
  430TMC3    C3 6463   3.224   3.929  17.116  0.2437 -0.1265  0.0274
  430TMC3    C4 6464   3.189   3.670  17.216  0.2447  0.1574 -0.6424
  430TMC3    C5 6465   3.293   3.691  17.129 -0.1327  0.2568  0.4342
  430TMC3    C6 6466   3.302   3.821  17.081 -0.8905  0.2041  0.5330
  430TMC3     C 6467   2.984   3.737  17.312 -0.0208 -0.6432  0.1240
  430TMC3     O 6468   2.890   3.816  17.310  1.0842  0.5017 -0.0480
  430TMC3     H 6469   3.048   3.970  17.231 -0.5800  0.4838 -1.7955
  430TMC3    H1 6470   3.180   3.565  17.239 -0.1521  0.3598  0.1424
  430TMC3    H2 6471   3.387   3.847  17.019 -1.2202  2.3995  0.9997
  430TMC3    C7 6472   3.283   3.590  17.036  0.2057 -0.0705  0.5268
  430TMC3    C8 6473   3.167   3.987  17.000 -1.5191 -0.2420 -0.4845
  430TMC3    O1 6474   3.318   3.470  17.052  0.0017 -0.0858 -0.5288
  430TMC3    O2 6475   3.177   3.923  16.899 -0.6549  0.4629 -0.4500
  431MPD2     C 6476   3.426   3.421  12.210 -0.2573 -0.2848  0.3254
  431MPD2    C1 6477   3.537   3.497  12.171  0.1780 -0.2000  0.1458
  431MPD2    C2 6478   3.647   3.436  12.112 -0.1219  0.3426  0.2658
  431MPD2    C3 6479   3.639   3.297  12.087 -0.2716  0.7910 -0.5086
  431MPD2    C4 6480   3.528   3.222  12.123  0.3912  0.7343  0.4687
  431MPD2    C5 6481   3.422   3.281  12.184 -0.3018  0.3267 -0.4882
  431MPD2     H 6482   3.729   3.496  12.073 -0.2849 -0.1396 -0.8276
  431MPD2    H1 6483   3.533   3.116  12.100  1.3491  1.1402 -1.1738
  431MPD2    H2 6484   3.336   3.471  12.245  0.4027 -0.5335  2.3867
  431MPD2    H3 6485   3.342   3.216  12.220  1.1653 -0.6681  0.9816
  431MPD2     N 6486   3.739   3.222  12.020 -0.3717  0.8142  0.3417
  431MPD2    H5 6487   3.732   3.122  12.035 -0.0172  0.9747  1.5961
  431MPD2    N1 6488   3.544   3.639  12.197  0.2356 -0.2705 -0.5751
  431MPD2    H7 6489   3.632   3.684  12.172  0.2366  0.9430  1.6042
  432TMC3    C1 6490   3.947   3.173  11.924  0.0964 -0.7545 -0.7468
  432TMC3    C2 6491   4.046   3.212  11.832 -0.4813 -0.0124  0.1654
  432TMC3    C3 6492   4.143   3.115  11.812  0.0154  0.1971  0.2089
  432TMC3    C4 6493   3.950   3.060  12.000  0.3262  0.5685 -0.3065
  432TMC3    C5 6494   4.050   2.971  11.968  0.3564 -0.2577  0.6490
  432TMC3    C6 6495   4.144   3.000  11.875  0.4693 -0.0155 -0.0369
  432TMC3     C 6496   3.843   3.272  11.950 -0.7444 -0.1467 -0.1873
  432TMC3     O 6497   3.849   3.384  11.907 -0.3328 -0.0708  0.4130
  432TMC3     H 6498   4.038   3.303  11.773  1.0183  1.4383  2.2024
  432TMC3    H1 6499   3.877   3.048  12.079 -2.3938 -0.1833 -2.9042
  432TMC3    H2 6500   4.234   2.940  11.875 -0.3448 -1.2731 -1.5286
  432TMC3    C7 6501   4.075   2.856  12.058  0.6124  0.4296 -0.4597
  432TMC3    C8 6502   4.252   3.154  11.731  0.2291  0.3481 -0.1554
  432TMC3    O1 6503   4.158   2.774  12.028  0.0688  0.5747 -0.9087
  432TMC3    O2 6504   4.273   3.274  11.704  0.0247  0.6831 -0.0708
  433MPD2     C 6505   2.519   1.993  10.709 -0.4060 -0.6890 -0.0736
  433MPD2    C1 6506   2.638   1.923  10.710 -0.2898  0.3498  0.1309
  433MPD2    C2 6507   2.740   1.966  10.797  0.1775  0.1028  0.1128
  433MPD2    C3 6508   2.718   2.071  10.880 -0.0774 -0.4438 -0.1408
  433MPD2    C4 6509   2.594   2.134  10.881  0.6675 -0.7736 -0.2522
  433MPD2    C5 6510   2.495   2.097  10.791 -0.2192 -0.2056 -0.5326
  433MPD2     H 6511   2.839   1.922  10.804 -0.1331 -0.6495 -0.3039
  433MPD2    H1 6512   2.556   2.220  10.936  1.5206  0.0250 -0.8984
  433MPD2    H2 6513   2.449   1.941  10.644 -1.0909  1.2563 -0.8849
  433MPD2    H3 6514   2.400   2.148  10.801  0.4651  0.8763  0.3854
  433MPD2     N 6515   2.824   2.111  10.967 -0.5872  0.6155 -0.2133
  433MPD2    H5 6516   2.900   2.044  10.972 -0.6446  0.5965  0.4328
  433MPD2    N1 6517   2.654   1.812  10.624 -0.5097 -0.8193  0.4086
  433MPD2    H7 6518   2.569   1.770  10.589 -1.7769  0.0735  2.4320
  434TMC3    C1 6519   2.752   1.605  10.596 -0.4794 -0.1384 -0.1872
  434TMC3    C2 6520   2.838   1.538  10.675  0.0180  0.2728  0.5195
  434TMC3    C3 6521   2.800   1.414  10.714  0.1022 -0.3476  0.2753
  434TMC3    C4 6522   2.640   1.560  10.540 -0.7008 -0.1990 -0.2042
  434TMC3    C5 6523   2.595   1.434  10.589  0.1211 -0.3655  0.5863
  434TMC3    C6 6524   2.677   1.362  10.673 -0.1260 -0.7055 -0.0519
  434TMC3     C 6525   2.773   1.753  10.608  0.3297  0.5362 -0.6240
  434TMC3     O 6526   2.889   1.792  10.623 -0.2183 -0.4593  0.2092
  434TMC3     H 6527   2.927   1.586  10.713  0.0859  0.7831 -0.2752
  434TMC3    H1 6528   2.580   1.610  10.465 -0.0194 -1.1030 -1.3618
  434TMC3    H2 6529   2.670   1.254  10.685  2.5117 -1.1193 -2.2621
  434TMC3    C7 6530   2.457   1.398  10.569  0.1464 -0.2691 -0.1253
  434TMC3    C8 6531   2.883   1.348  10.812 -0.0505 -0.6955  0.4396
  434TMC3    O1 6532   2.403   1.466  10.484  0.0209 -0.6066  0.2306
  434TMC3    O2 6533   3.001   1.381  10.811 -0.6449  0.2736  0.2806
  435MPD2     C 6534   4.594   2.041  15.509 -0.7426 -0.1860  0.6193
  435MPD2    C1 6535   4.558   2.034  15.641 -0.0038  0.3403 -0.0887
  435MPD2    C2 6536   4.652   1.983  15.723 -0.1183  0.4164  0.1429
  435MPD2    C3 6537   0.033   1.931  15.694 -0.4763 -0.1920  0.1753
  435MPD2    C4 6538   0.071   1.937  15.567  0.5757  0.0042  0.3517
  435MPD2    C5 6539   4.715   1.995  15.473  0.1775  0.0469  0.0132
  435MPD2     H 6540   4.630   1.981  15.829 -0.0477  0.8095  0.1625
  435MPD2    H1 6541   0.168   1.902  15.535  1.0318  0.8396  0.8552
  435MPD2    H2 6542   4.523   2.079  15.436 -0.6068 -0.6143  0.2583
  435MPD2    H3 6543   0.004   1.998  15.368  1.4555 -0.3738  0.3114
  435MPD2     N 6544   0.095   1.863  15.792 -1.3333  0.4935 -0.4293
  435MPD2    H5 6545   0.044   1.876  15.878  0.7455 -1.3577  1.0779
  435MPD2    N1 6546   4.432   2.081  15.693 -0.7556  0.3471  0.2938
  435MPD2    H7 6547   4.410   2.066  15.791 -0.1916  1.1067  0.5395
  436TMC3    C1 6548   4.121   2.203  15.896  0.3147  0.3286  0.3079
  436TMC3    C2 6549   4.224   2.192  15.806 -0.0210 -0.1460 -0.1021
  436TMC3    C3 6550   4.201   2.138  15.682  0.2272 -0.5450 -0.3418
  436TMC3    C4 6551   4.000   2.151  15.870  0.0371  0.3045  0.0334
  436TMC3    C5 6552   3.987   2.095  15.741  0.0764  0.5801  0.3642
  436TMC3    C6 6553   4.079   2.090  15.642 -0.3005 -0.6542 -0.1497
  436TMC3     C 6554   4.136   2.305  15.994 -0.2421 -0.4826  0.5007
  436TMC3     O 6555   4.235   2.377  15.978  0.3467 -0.0205  0.4095
  436TMC3     H 6556   4.311   2.256  15.818  0.5788 -1.2168  1.1613
  436TMC3    H1 6557   3.929   2.125  15.948  0.2265 -0.0176  0.0986
  436TMC3    H2 6558   4.064   2.058  15.540 -0.6354 -0.2470 -0.2257
  436TMC3    C7 6559   3.862   2.019  15.720 -0.2996 -0.7760  0.2988
  436TMC3    C8 6560   4.321   2.105  15.607 -0.4329 -0.3410  0.4647
  436TMC3    O1 6561   3.764   2.071  15.769  0.2382 -0.2955  0.1589
  436TMC3    O2 6562   4.306   2.076  15.487 -0.1510 -0.5915  0.0254
  437TMC3    C1 6563   3.014   3.618  12.609  0.3250 -0.8266 -0.1996
  437TMC3    C2 6564   2.896   3.565  12.568  0.3056  0.3762 -0.3651
  437TMC3    C3 6565   2.819   3.636  12.483 -0.1715 -0.1254  0.0291
  437TMC3    C4 6566   3.056   3.742  12.565  0.8857 -0.3666  0.3807
  437TMC3    C5 6567   2.985   3.802  12.466  0.0390 -0.5650  0.1121
  437TMC3    C6 6568   2.862   3.757  12.433 -0.2818 -0.3176 -0.2772
  437TMC3     C 6569   3.085   3.557  12.718 -0.1150  0.4505  0.4860
  437TMC3     O 6570   3.174   3.630  12.759  0.7674  0.0928  0.5239
  437TMC3     H 6571   2.858   3.472  12.608  0.3699  0.8675  0.8541
  437TMC3    H1 6572   3.145   3.791  12.602 -0.7920  3.4719 -0.6575
  437TMC3    H2 6573   2.806   3.819  12.364 -2.2564 -0.2529  1.4116
  437TMC3    C7 6574   3.025   3.930  12.415 -0.0823  0.5127 -0.1506
  437TMC3    C8 6575   2.677   3.620  12.470  0.3961 -0.1602  0.0235
  437TMC3    O1 6576   2.936   4.005  12.375  0.2283  0.8162  0.1047
  437TMC3    O2 6577   2.631   3.641  12.360 -0.0248  0.1844  0.2532
  438MPD2     C 6578   0.542   4.665  16.946 -0.4740  0.7644 -0.0163
  438MPD2    C1 6579   0.639   4.651  17.040 -0.3621  1.1533  0.5094
  438MPD2    C2 6580   0.610   4.666  17.175  0.2448 -0.4097  0.2658
  438MPD2    C3 6581   0.481   4.696  17.214 -0.4605  0.8466 -0.0955
  438MPD2    C4 6582   0.383   4.722  17.118  0.6932  0.0683 -0.0484
  438MPD2    C5 6583   0.417   4.709  16.985 -0.0974  0.2662  0.3512
  438MPD2     H 6584   0.690   4.662  17.248  1.5531  1.7752 -1.0288
  438MPD2    H1 6585   0.286   0.021  17.148  0.9328 -0.5851  1.4617
  438MPD2    H2 6586   0.559   4.643  16.841 -1.4545 -1.1770  0.2264
  438MPD2    H3 6587   0.355   4.725  16.899 -0.2448 -0.6590  0.2865
  438MPD2     N 6588   0.435   4.674  17.354 -0.7979 -0.0449 -0.6236
  438MPD2    H5 6589   0.337   4.691  17.371 -0.3584  0.5617  1.2706
  438MPD2    N1 6590   0.766   4.587  17.007  0.3478  0.3242 -0.1114
  438MPD2    H7 6591   0.827   4.585  17.088 -1.5542 -0.9410  1.2984
  439TMC3    C1 6592   0.936   4.477  16.912  0.3281  0.0587 -0.0156
  439TMC3    C2 6593   0.992   4.415  16.802 -0.9907  0.1144  0.5093
  439TMC3    C3 6594   1.122   4.374  16.806  0.0876  0.0391  0.5201
  439TMC3    C4 6595   1.014   4.505  17.023 -1.4435  0.2866 -0.3087
  439TMC3    C5 6596   1.134   4.453  17.021 -0.3694  0.1316 -0.0343
  439TMC3    C6 6597   1.193   4.386  16.922  0.1774 -0.1481  0.3102
  439TMC3     C 6598   0.804   4.533  16.887  0.0511  0.7130  0.7998
  439TMC3     O 6599   0.736   4.500  16.793  0.3836 -0.1650 -0.3595
  439TMC3     H 6600   0.940   4.417  16.707  1.2111  1.5270 -0.6599
  439TMC3    H1 6601   0.971   4.543  17.115  2.3842  0.8174  1.2371
  439TMC3    H2 6602   1.289   4.337  16.936  1.0287  1.7153  0.9868
  439TMC3    C7 6603   1.210   4.457  17.143  0.3747  0.1978  0.2473
  439TMC3    C8 6604   1.176   4.294  16.697 -0.0861  0.2416  0.3150
  439TMC3    O1 6605   1.291   4.367  17.156  0.2210 -0.0832  0.1574
  439TMC3    O2 6606   1.296   4.265  16.700  0.1419 -0.6329 -0.3707
  440MPD2     C 6607   4.386   0.245  14.985  0.2388  0.3750 -0.7496
  440MPD2    C1 6608   4.323   0.337  15.063 -0.1351 -0.2856 -0.2277
  440MPD2    C2 6609   4.386   0.353  15.189 -1.0487  0.5514  0.1593
  440MPD2    C3 6610   4.499   0.282  15.221  0.2386 -0.1729  0.7716
  440MPD2    C4 6611   4.549   0.182  15.140 -0.1539 -1.0195 -0.4392
  440MPD2    C5 6612   4.483   0.158  15.019 -0.4369 -0.0107 -0.3231
  440MPD2     H 6613   4.347   0.435  15.248 -2.8522  0.2670 -0.6499
  440MPD2    H1 6614   4.631   0.119  15.175  0.3395 -0.6742 -0.9768
  440MPD2    H2 6615   4.348   0.230  14.885 -1.2730  2.2867 -0.4620
  440MPD2    H3 6616   4.522   0.095  14.940 -1.7243 -1.4122  0.1503
  440MPD2     N 6617   4.560   0.298  15.343  0.4376  0.3727 -0.0421
  440MPD2    H5 6618   4.641   0.242  15.367  1.0761  1.1179 -0.4684
  440MPD2    N1 6619   4.210   0.417  15.015  0.3178  0.4088 -0.1967
  440MPD2    H7 6620   4.189   0.498  15.073  1.6676 -0.9902  2.2740
  441TMC3    C1 6621   4.611   0.390  15.554  0.7323  0.5311 -0.3460
  441TMC3    C2 6622   4.582   0.497  15.631 -0.5614 -0.5913  0.4459
  441TMC3    C3 6623   4.673   0.527  15.729  0.1154 -0.2554  0.2315
  441TMC3    C4 6624   4.728   0.321  15.571  0.8468  0.2106  0.2636
  441TMC3    C5 6625   0.078   0.353  15.671  0.3046 -0.1106  0.0166
  441TMC3    C6 6626   0.052   0.458  15.753 -0.4050 -0.4057 -0.1258
  441TMC3     C 6627   4.520   0.386  15.443 -0.2137 -0.1694  0.5317
  441TMC3     O 6628   4.426   0.459  15.444  0.0449  0.2213  0.7487
  441TMC3     H 6629   4.486   0.547  15.633 -0.1907  0.0481  1.9020
  441TMC3    H1 6630   0.020   0.245  15.498 -0.4958  1.0842 -1.1546
  441TMC3    H2 6631   0.114   0.488  15.837 -1.1054 -0.0668  0.2683
  441TMC3    C7 6632   0.133   0.229  15.734 -0.1501 -0.4136  0.3209
  441TMC3    C8 6633   4.654   0.656  15.798 -0.9159 -0.9436  0.3880
  441TMC3    O1 6634   0.119   0.127  15.668 -0.0161 -0.2069 -0.7566
  441TMC3    O2 6635   4.692   0.668  15.912  0.0928 -0.1558  0.3961
  442MPD2     C 6636   2.231   1.002  16.044 -0.1105  0.4843 -0.1331
  442MPD2    C1 6637   2.135   0.930  16.107 -0.6386 -0.6581 -0.6399
  442MPD2    C2 6638   2.150   0.793  16.126 -0.0851  0.4838 -0.0130
  442MPD2    C3 6639   2.264   0.734  16.072 -0.4602 -0.1620 -0.0939
  442MPD2    C4 6640   2.350   0.804  15.996  0.4368 -0.0576 -0.8575
  442MPD2    C5 6641   2.333   0.939  15.985  0.3961  0.5202 -0.0621
  442MPD2     H 6642   2.068   0.749  16.182  1.1838 -1.4549  0.3426
  442MPD2    H1 6643   2.431   0.758  15.940  0.6688  0.4067 -0.9050
  442MPD2    H2 6644   2.235   1.108  16.023 -0.0241  0.5604  0.2689
  442MPD2    H3 6645   2.413   0.996  15.939  1.4102  0.0139  1.0541
  442MPD2     N 6646   2.285   0.593  16.083 -1.0856  0.1708  0.2347
  442MPD2    H5 6647   2.350   0.551  16.018  2.4153  0.1296  3.7063
  442MPD2    N1 6648   2.021   0.988  16.168 -0.3017  0.7624 -0.1694
  442MPD2    H7 6649   1.958   0.918  16.206  2.1807  0.3592  3.2105
  443TMC3    C1 6650   1.865   1.158  16.218 -0.5839 -0.3719  0.0723
  443TMC3    C2 6651   1.795   1.272  16.175  0.6755  0.0712  0.2903
  443TMC3    C3 6652   1.680   1.301  16.233  0.3230  0.1553  0.7092
  443TMC3    C4 6653   1.830   1.101  16.339  0.8273  0.7684 -0.6585
  443TMC3    C5 6654   1.727   1.155  16.404  0.3164  0.3599 -0.1221
  443TMC3    C6 6655   1.642   1.248  16.352 -0.1989  0.1641 -0.1234
  443TMC3     C 6656   1.981   1.115  16.143 -0.3459 -0.9593 -0.9128
  443TMC3     O 6657   2.022   1.195  16.056 -0.1579  0.0871  0.1564
  443TMC3     H 6658   1.827   1.319  16.083 -0.2225  0.7180  0.3044
  443TMC3    H1 6659   1.895   1.035  16.394  1.3072  1.6919 -0.1128
  443TMC3    H2 6660   1.546   1.273  16.395  0.1684  1.0499  0.1775
  443TMC3    C7 6661   1.687   1.094  16.523  0.4418  0.5562 -0.0173
  443TMC3    C8 6662   1.578   1.393  16.179 -0.9114 -0.1056  0.9329
  443TMC3    O1 6663   1.711   0.974  16.528  0.1416 -0.1216  0.1192
  443TMC3    O2 6664   1.531   1.472  16.264 -0.4843  0.1411  0.7606
  444MPD2     C 6665   2.787   0.367  17.611  0.6430  0.3266  0.2253
  444MPD2    C1 6666   2.724   0.253  17.560 -0.5941 -0.2965 -0.2840
  444MPD2    C2 6667   2.795   0.162  17.486  0.4088 -0.2878 -0.3334
  444MPD2    C3 6668   2.933   0.181  17.464 -1.5297 -0.1100 -0.1471
  444MPD2    C4 6669   2.995   0.288  17.525 -0.3633  0.6809 -0.2023
  444MPD2    C5 6670   2.920   0.374  17.602 -0.0903  0.0222  1.0744
  444MPD2     H 6671   2.746   0.073  17.451  2.4864 -1.2529 -0.7859
  444MPD2    H1 6672   3.101   0.305  17.517 -0.4400  0.6094 -1.3679
  444MPD2    H2 6673   2.737   0.447  17.664 -0.6754  0.4301 -1.1747
  444MPD2    H3 6674   2.966   0.459  17.651  0.3577 -0.8728  2.2157
  444MPD2     N 6675   2.998   0.082  17.390  0.0166  0.4779  0.0150
  444MPD2    H5 6676   2.935   0.003  17.377 -0.1866  0.4768  1.0143
  444MPD2    N1 6677   2.587   0.226  17.585  0.8789 -0.1916  0.5373
  444MPD2    H7 6678   2.550   0.144  17.538 -0.8787  0.2978  1.0495
  445TMC3    C1 6679   3.156   4.689  17.278  0.7367 -0.2150  0.0756
  445TMC3    C2 6680   3.099   4.571  17.321  0.2429 -0.0839 -0.5230
  445TMC3    C3 6681   3.149   4.449  17.286 -0.0421 -0.3372 -0.4627
  445TMC3    C4 6682   3.264   4.676  17.194  0.1392  0.0376 -0.1200
  445TMC3    C5 6683   3.310   4.549  17.157  0.0802 -0.7669 -0.0385
  445TMC3    C6 6684   3.258   4.434  17.203  0.7043 -0.2768 -0.1477
  445TMC3     C 6685   3.123   0.081  17.339  0.4813 -0.2617 -0.3438
  445TMC3     O 6686   3.196   0.178  17.307 -0.0836  0.5863  0.0005
  445TMC3     H 6687   3.013   4.582  17.386  0.2775  2.3442 -0.8860
  445TMC3    H1 6688   3.308   0.033  17.160  0.3424 -0.3892 -1.0295
  445TMC3    H2 6689   3.290   4.334  17.178 -1.4625 -0.8355 -0.7347
  445TMC3    C7 6690   3.430   4.532  17.080 -0.8055 -0.2812  0.3154
  445TMC3    C8 6691   3.093   4.323  17.343  0.8405  0.0331 -0.2831
  445TMC3    O1 6692   3.439   4.596  16.975 -0.3212  0.2506 -0.7108
  445TMC3    O2 6693   3.116   4.217  17.287  0.4796  0.2321  0.0443
  446MPD2     C 6694   2.716   1.285  11.433  0.0566  0.5263 -0.0915
  446MPD2    C1 6695   2.663   1.351  11.323  0.4940 -0.3381 -0.1744
  446MPD2    C2 6696   2.742   1.420  11.233  0.1761 -0.6043  0.1101
  446MPD2    C3 6697   2.882   1.423  11.243 -0.2866  0.1023 -1.0174
  446MPD2    C4 6698   2.928   1.375  11.366  0.2958  0.5126  0.2877
  446MPD2    C5 6699   2.850   1.310  11.457 -0.1406 -0.7797 -0.4576
  446MPD2     H 6700   2.698   1.458  11.141  1.2781 -1.1759 -0.6397
  446MPD2    H1 6701   3.031   1.391  11.396  0.6578 -1.5392  0.1602
  446MPD2    H2 6702   2.658   1.221  11.497  0.6984 -0.5854 -0.6279
  446MPD2    H3 6703   2.890   1.277  11.552 -1.7290  1.4298  0.9980
  446MPD2     N 6704   2.957   1.486  11.146 -0.0567  0.1502  0.0927
  446MPD2    H5 6705   2.903   1.526  11.070  1.5179 -2.0948 -2.1913
  446MPD2    N1 6706   2.525   1.336  11.290  0.8629  0.2441 -0.6365
  446MPD2    H7 6707   2.484   1.412  11.237  1.0516 -0.9658 -2.5269
  447TMC3    C1 6708   3.151   1.591  11.050 -0.2383  0.5547 -0.0893
  447TMC3    C2 6709   3.111   1.717  11.015 -0.2586 -0.6122 -0.2217
  447TMC3    C3 6710   3.208   1.816  11.008 -0.8548 -0.0416  0.1976
  447TMC3    C4 6711   3.282   1.559  11.054  0.8480  0.1157 -0.3931
  447TMC3    C5 6712   3.378   1.657  11.027 -0.8558  0.5839  0.9116
  447TMC3    C6 6713   3.344   1.789  11.000 -0.2181  0.7657  0.3195
  447TMC3     C 6714   3.089   1.525  11.162 -0.2461 -0.2672 -0.7511
  447TMC3     O 6715   3.163   1.506  11.256 -0.8598 -0.5686  0.3252
  447TMC3     H 6716   3.007   1.747  11.026  0.1283  0.7624 -0.3373
  447TMC3    H1 6717   3.303   1.454  11.073  0.2622  0.3878  1.7762
  447TMC3    H2 6718   3.421   1.855  10.961  0.5066  1.2307  2.5509
  447TMC3    C7 6719   3.524   1.633  11.040 -0.3857 -0.2578 -0.4128
  447TMC3    C8 6720   3.160   1.938  10.951 -0.0307 -0.7484  0.0998
  447TMC3    O1 6721   3.608   1.716  11.047 -0.3349  0.4899  0.0326
  447TMC3    O2 6722   3.040   1.958  10.931 -0.2249 -0.0764  0.2813
  448TMC3    C1 6723   0.932   1.387  17.106  0.0489  0.1294 -0.0331
  448TMC3    C2 6724   0.979   1.277  17.046 -0.1496 -0.1050 -0.3368
  448TMC3    C3 6725   1.045   1.184  17.119 -0.0982 -0.0007  0.3773
  448TMC3    C4 6726   0.951   1.400  17.241  0.1499 -0.6042  1.2863
  448TMC3    C5 6727   1.017   1.312  17.314 -0.2073 -0.3807 -0.0025
  448TMC3    C6 6728   1.068   1.199  17.254  0.5662  0.0005  0.0897
  448TMC3     C 6729   0.845   1.485  17.050 -0.7431  0.2127  0.3639
  448TMC3     O 6730   0.748   1.512  17.123  0.1282  0.1290 -0.2386
  448TMC3     H 6731   0.941   1.256  16.947  0.5644  1.9779 -1.0512
  448TMC3    H1 6732   0.923   1.494  17.289 -0.5883 -0.2121  0.0840
  448TMC3    H2 6733   1.093   1.121  17.325  1.4813  1.6508  1.6058
  448TMC3    C7 6734   0.975   1.285  17.448  0.2061  0.5397  0.4667
  448TMC3    C8 6735   1.089   1.065  17.056  0.7135  0.3773  0.5697
  448TMC3    O1 6736   0.857   1.317  17.480 -0.0804 -0.9891  0.0527
  448TMC3    O2 6737   1.117   0.966  17.122 -0.4266 -0.4928  0.2627
  449MPD2     C 6738   2.212   4.012  13.632 -0.0456  0.2018 -0.6930
  449MPD2    C1 6739   2.146   3.918  13.555 -0.3023 -0.2581 -0.7311
  449MPD2    C2 6740   2.082   3.811  13.622 -0.8612 -0.6429  1.2132
  449MPD2    C3 6741   2.087   3.803  13.763  0.6167  0.6351 -0.0651
  449MPD2    C4 6742   2.167   3.888  13.837  0.0258 -0.2969  0.0405
  449MPD2    C5 6743   2.228   3.994  13.769 -0.1879 -0.6232 -0.2035
  449MPD2     H 6744   2.023   3.737  13.569  1.0579 -1.5391  0.3471
  449MPD2    H1 6745   2.179   3.877  13.945  1.6741  1.0877 -0.0046
  449MPD2    H2 6746   2.270   4.094  13.592  1.2692  0.0841  0.9780
  449MPD2    H3 6747   2.284   4.069  13.823 -0.3660 -1.0933  0.6351
  449MPD2     N 6748   2.021   3.696  13.821  0.4942  0.3649  0.1635
  449MPD2    H5 6749   1.970   3.638  13.755  1.7165  3.6349 -3.6789
  449MPD2    N1 6750   2.134   3.913  13.412 -0.2982  0.0627 -0.8510
  449MPD2    H7 6751   2.075   3.845  13.365 -1.4885  1.9996 -2.1727
  450TMC3    C1 6752   2.113   3.974  13.196  0.1534  0.0460 -0.6201
  450TMC3    C2 6753   2.202   3.933  13.098  0.6618 -0.7340  0.6022
  450TMC3    C3 6754   2.159   3.840  13.006  0.1056 -0.5671 -0.1868
  450TMC3    C4 6755   1.982   3.928  13.193  0.1082  0.3636  0.7614
  450TMC3    C5 6756   1.943   3.826  13.112  0.7105  0.4298 -0.0596
  450TMC3    C6 6757   2.030   3.789  13.012 -0.1597  0.3707 -0.3952
  450TMC3     C 6758   2.158   4.014  13.326 -0.5673 -0.3504 -1.1804
  450TMC3     O 6759   2.214   4.118  13.346  0.3241 -0.0200  0.9122
  450TMC3     H 6760   2.304   3.969  13.104  0.8656 -1.1813 -0.1941
  450TMC3    H1 6761   1.917   3.967  13.270 -2.2625 -0.6501 -0.7343
  450TMC3    H2 6762   1.999   3.721  12.933 -0.0370 -0.5218  0.3125
  450TMC3    C7 6763   1.893   3.725  13.202  0.2645  0.2006  0.1212
  450TMC3    C8 6764   2.207   3.857  12.871  1.0597 -0.9285  0.3374
  450TMC3    O1 6765   1.933   3.734  13.314  0.1853  0.4606 -0.0493
  450TMC3    O2 6766   2.121   3.838  12.793  0.1037  0.1194 -0.5637
  451MPD2     C 6767   3.658   3.596   1.171  0.6995  0.1504 -0.2999
  451MPD2    C1 6768   3.562   3.526   1.232  0.2673 -0.3640  0.5672
  451MPD2    C2 6769   3.556   3.390   1.205  0.0370  0.3448  0.3176
  451MPD2    C3 6770   3.648   3.324   1.122  0.0716  0.5575  0.0099
  451MPD2    C4 6771   3.745   3.405   1.069  0.1252  0.4302  0.4287
  451MPD2    C5 6772   3.757   3.539   1.093 -0.5459  0.2785 -0.2678
  451MPD2     H 6773   3.475   3.335   1.250 -1.1077  1.0102 -0.9398
  451MPD2    H1 6774   3.807   3.373   0.986  1.1478  1.0810  0.9416
  451MPD2    H2 6775   3.655   3.704   1.188 -0.3185  0.4187 -2.1809
  451MPD2    H3 6776   3.818   3.604   1.032  0.8354 -0.5525  0.2167
  451MPD2     N 6777   3.636   3.189   1.077  0.3034 -0.1849 -0.0932
  451MPD2    H5 6778   3.701   3.173   1.000  0.1152  1.3837 -0.5872
  451MPD2    N1 6779   3.464   3.590   1.312  0.1863 -0.4710  0.1618
  451MPD2    H7 6780   3.468   3.691   1.302 -3.0649 -0.0010  3.3927
  452TMC3    C1 6781   3.500   3.003   0.997  0.0317  0.1106  0.4147
  452TMC3    C2 6782   3.395   2.922   1.025  0.0249 -0.1941 -0.4048
  452TMC3    C3 6783   3.387   2.800   0.960 -0.2141 -0.5681 -0.4217
  452TMC3    C4 6784   3.607   2.958   0.916 -0.1735  0.3173 -0.0156
  452TMC3    C5 6785   3.599   2.833   0.865 -0.1507  0.1321 -0.2188
  452TMC3    C6 6786   3.494   2.745   0.887  0.0388  0.7687  0.8410
  452TMC3     C 6787   3.523   3.114   1.091  0.6581  0.4826  0.3190
  452TMC3     O 6788   3.439   3.122   1.180 -0.0684 -0.2208  0.5413
  452TMC3     H 6789   3.317   2.959   1.091 -0.5278 -0.6653 -0.7817
  452TMC3    H1 6790   3.691   3.018   0.885  0.6338 -1.0346 -0.4614
  452TMC3    H2 6791   3.488   2.661   0.819  0.3902  1.9828 -0.6834
  452TMC3    C7 6792   3.671   2.819   0.741 -0.1822 -0.0531 -0.5182
  452TMC3    C8 6793   3.253   2.744   0.939  0.4569 -0.7526  0.8448
  452TMC3    O1 6794   3.660   2.922   0.672  0.3575 -0.1976 -0.3003
  452TMC3    O2 6795   3.158   2.820   0.965 -0.5183  0.7846  0.2663
  453TMC3    C1 6796   4.193   0.332  12.714  0.3988 -0.3597  0.5336
  453TMC3    C2 6797   4.163   0.268  12.596  0.4378 -0.6556  0.3129
  453TMC3    C3 6798   4.069   0.323  12.515 -0.1887 -0.5208  0.5696
  453TMC3    C4 6799   4.127   0.440  12.758 -0.1723  0.1778 -0.5254
  453TMC3    C5 6800   4.043   0.499  12.672  0.6142  0.4149  0.3370
  453TMC3    C6 6801   4.003   0.438  12.552  0.4272 -0.3698 -0.8706
  453TMC3     C 6802   4.333   0.358  12.708 -1.3417 -0.8628  0.4220
  453TMC3     O 6803   4.388   0.334  12.599  0.6761 -0.3715  0.1310
  453TMC3     H 6804   4.222   0.181  12.570  1.5982  0.2897 -0.2290
  453TMC3    H1 6805   4.157   0.492  12.848  0.3032  0.6101 -0.9349
  453TMC3    H2 6806   3.948   0.493  12.476 -0.8444  0.7104  0.8378
  453TMC3    C7 6807   4.059   0.640  12.649 -0.3487 -0.0715  0.1771
  453TMC3    C8 6808   4.104   0.320  12.376 -0.3189  0.1854 -0.4529
  453TMC3    O1 6809   4.079   0.682  12.538  0.0424  0.1070  0.5473
  453TMC3    O2 6810   4.025   0.352  12.293 -0.1407  0.3038  0.1883
  454MPD2     C 6811   3.527   4.427  16.264 -0.7339 -0.9983  0.4210
  454MPD2    C1 6812   3.408   4.489  16.226  0.3495 -0.1143  0.4575
  454MPD2    C2 6813   3.307   4.489  16.311 -0.2098 -0.5159  0.1208
  454MPD2    C3 6814   3.321   4.422  16.432 -0.3034  0.1715 -0.1163
  454MPD2    C4 6815   3.434   4.361  16.471  0.3991  0.1844  0.1213
  454MPD2    C5 6816   3.537   4.366  16.386 -0.5127 -0.4683 -0.1087
  454MPD2     H 6817   3.216   4.541  16.282  0.1454  0.7999  1.3553
  454MPD2    H1 6818   3.437   4.307  16.565 -2.5230  0.5027  0.4209
  454MPD2    H2 6819   3.600   4.426  16.185 -1.3519  2.8974 -0.1908
  454MPD2    H3 6820   3.621   4.313  16.430  0.0166 -0.6519 -1.3184
  454MPD2     N 6821   3.206   4.435  16.508 -0.5437 -0.3137 -0.1300
  454MPD2    H5 6822   3.129   4.495  16.478  0.6443  0.8521 -0.8408
  454MPD2    N1 6823   3.391   4.547  16.097 -0.3930  0.0134 -0.3954
  454MPD2    H7 6824   3.312   4.608  16.084  0.0436 -0.0771 -3.4807
  455TMC3    C1 6825   3.055   4.446  16.677  0.4469 -0.6845  0.2439
  455TMC3    C2 6826   3.066   4.541  16.776 -0.1958 -0.5725  1.0018
  455TMC3    C3 6827   2.962   4.622  16.790  0.3844 -0.3958 -0.0084
  455TMC3    C4 6828   2.949   4.439  16.590  0.2815 -0.1007 -0.4661
  455TMC3    C5 6829   2.851   4.534  16.601 -0.2490 -0.4214  0.5780
  455TMC3    C6 6830   2.863   4.622  16.709  0.5028  0.3328 -0.1695
  455TMC3     C 6831   3.180   4.392  16.635  0.2830 -0.1555  0.1399
  455TMC3     O 6832   3.255   4.352  16.722 -0.3098 -0.3197  0.3701
  455TMC3     H 6833   3.151   4.545  16.844  2.1432  0.7229 -1.9806
  455TMC3    H1 6834   2.946   4.354  16.522 -1.1558 -1.3786  1.1733
  455TMC3    H2 6835   2.781   4.693  16.716  0.5846  0.5577 -1.4865
  455TMC3    C7 6836   2.736   4.543  16.508  0.1840  0.0814 -0.3205
  455TMC3    C8 6837   2.965   4.718  16.899 -0.7124 -0.3851 -0.2347
  455TMC3    O1 6838   2.642   4.613  16.542 -0.1279 -0.0266  0.1363
  455TMC3    O2 6839   3.077   0.009  16.938 -0.6342  0.4543 -0.0934
  456MPD2     C 6840   0.798   4.598  16.300 -0.7739 -0.6466 -0.8608
  456MPD2    C1 6841   0.925   4.583  16.354 -0.0294  0.3732 -0.6937
  456MPD2    C2 6842   0.949   4.642  16.475 -0.2046  0.2216  0.2638
  456MPD2    C3 6843   0.854   4.721  16.531 -0.1318  0.6095  0.6457
  456MPD2    C4 6844   0.743   0.028  16.460  0.0353 -0.6774  0.4588
  456MPD2    C5 6845   0.713   4.691  16.352 -0.2806  0.2740  0.4043
  456MPD2     H 6846   1.042   4.628  16.529  0.2183 -1.5454 -0.9299
  456MPD2    H1 6847   0.669   0.101  16.488  0.4994  1.2878 -3.4272
  456MPD2    H2 6848   0.762   4.546  16.212  4.7537 -2.6202 -1.9545
  456MPD2    H3 6849   0.619   4.700  16.299  0.2062  0.4748 -0.4101
  456MPD2     N 6850   0.901   0.056  16.650  0.0985  0.2371 -0.0398
  456MPD2    H5 6851   0.981   0.024  16.704 -0.4421 -1.8068 -0.4394
  456MPD2    N1 6852   1.025   4.514  16.283  0.2143  0.6952 -0.0481
  456MPD2    H7 6853   0.997   4.466  16.199  0.7098 -1.7779  1.2086
  457TMC3    C1 6854   0.906   0.226  16.811  0.4102 -0.0452 -0.1561
  457TMC3    C2 6855   0.951   0.355  16.804 -0.5171 -0.6378 -0.2714
  457TMC3    C3 6856   0.987   0.415  16.921 -0.0874 -0.4543 -0.0912
  457TMC3    C4 6857   0.920   0.145  16.921  1.0341 -0.4597  0.2689
  457TMC3    C5 6858   0.963   0.205  17.033 -0.5011 -0.4221 -0.2533
  457TMC3    C6 6859   0.995   0.342  17.038  0.1126  0.2974 -0.5143
  457TMC3     C 6860   0.847   0.173  16.688 -0.4140 -0.2320 -0.0995
  457TMC3     O 6861   0.804   0.260  16.608 -0.0918 -0.2942  0.0841
  457TMC3     H 6862   0.928   0.418  16.720  0.4240  1.0520  0.7364
  457TMC3    H1 6863   0.914   0.037  16.921  2.6770 -0.5424 -0.9687
  457TMC3    H2 6864   1.034   0.389  17.127  0.1824  0.1045 -0.4443
  457TMC3    C7 6865   0.926   0.141  17.158 -0.1242  0.1126 -0.0562
  457TMC3    C8 6866   1.019   0.555  16.916 -0.6458 -0.4973  0.9807
  457TMC3    O1 6867   0.931   0.021  17.167 -0.2601  0.4127 -0.3269
  457TMC3    O2 6868   1.018   0.608  17.028  0.0482 -0.0601  0.0908
  458MPD2     C 6869   3.349   4.324  12.412 -0.1746  0.1968 -0.0435
  458MPD2    C1 6870   3.405   4.226  12.491 -0.3058  0.4203 -0.0518
  458MPD2    C2 6871   3.336   4.104  12.505 -0.4012  0.1436 -0.5398
  458MPD2    C3 6872   3.210   4.088  12.451  0.3842  0.1813  1.1157
  458MPD2    C4 6873   3.156   4.190  12.378  0.1040  0.2130 -0.0434
  458MPD2    C5 6874   3.222   4.304  12.357 -0.7268 -0.2152 -0.0317
  458MPD2     H 6875   3.380   4.020  12.558 -0.3245  0.3020 -0.3494
  458MPD2    H1 6876   3.061   4.191  12.327 -0.0173  0.4019  0.1891
  458MPD2    H2 6877   3.398   4.415  12.381 -2.8379  0.9965 -1.9069
  458MPD2    H3 6878   3.187   4.377  12.284 -2.5615 -0.4099  0.6678
  458MPD2     N 6879   3.151   3.960  12.453  0.5413 -0.2878  0.1934
  458MPD2    H5 6880   3.199   3.881  12.494  3.2771  0.2150 -1.9948
  458MPD2    N1 6881   3.524   4.257  12.562  0.1531 -0.5656 -0.3695
  458MPD2    H7 6882   3.565   4.349  12.548 -1.4556  0.3150  0.7638
  459TMC3    C1 6883   3.705   4.210  12.719 -0.5892  0.1538 -0.2886
  459TMC3    C2 6884   3.779   4.319  12.687 -0.3207 -0.0620 -0.2328
  459TMC3    C3 6885   3.866   4.369  12.779 -0.7616 -0.5014  0.1361
  459TMC3    C4 6886   3.722   4.133  12.835  0.4066 -0.8542  0.8174
  459TMC3    C5 6887   3.810   4.193  12.929  0.1743 -0.2685  0.3562
  459TMC3    C6 6888   3.879   4.302  12.899 -0.1263  0.2058 -0.1834
  459TMC3     C 6889   3.582   4.169  12.646  0.5360 -0.3147  0.6885
  459TMC3     O 6890   3.553   4.053  12.667  0.3567  0.2853 -0.1800
  459TMC3     H 6891   3.759   4.382  12.601 -1.5104  0.8380  0.7142
  459TMC3    H1 6892   3.665   4.045  12.861 -0.9413 -0.3768 -0.5265
  459TMC3    H2 6893   3.967   4.326  12.958 -0.9054  1.5032  0.4326
  459TMC3    C7 6894   3.873   4.096  13.025  0.3352 -0.0559  0.2031
  459TMC3    C8 6895   3.961   4.470  12.748  0.0923 -0.1550 -0.1077
  459TMC3    O1 6896   3.918   3.993  12.972 -0.6274 -0.0566 -0.0154
  459TMC3    O2 6897   4.023   4.524  12.842 -0.0058  0.1433  0.4932
  460MPD2     C 6898   3.371   2.226  10.917 -0.0010  0.1278 -0.6904
  460MPD2    C1 6899   3.250   2.163  10.898  0.1623 -0.2884  0.6362
  460MPD2    C2 6900   3.140   2.222  10.832 -0.2896 -0.5902 -0.0907
  460MPD2    C3 6901   3.154   2.358  10.787  0.2075 -0.0610 -0.2326
  460MPD2    C4 6902   3.277   2.416  10.815 -0.3410 -0.2093  0.2318
  460MPD2    C5 6903   3.382   2.351  10.870  0.1040 -0.6635 -0.3291
  460MPD2     H 6904   3.045   2.174  10.817 -1.1991  1.2489 -0.2854
  460MPD2    H1 6905   3.298   2.520  10.794  0.1239 -0.6809 -1.6653
  460MPD2    H2 6906   3.461   2.176  10.951 -0.2674  2.2671  3.0997
  460MPD2    H3 6907   3.478   2.399  10.887 -0.0731 -0.5432  0.3646
  460MPD2     N 6908   3.054   2.415  10.697 -0.4684 -0.1929 -0.2124
  460MPD2    H5 6909   2.974   2.357  10.674 -0.5762  0.1717 -0.7422
  460MPD2    N1 6910   3.257   2.032  10.948  0.2936 -0.2847  0.1166
  460MPD2    H7 6911   3.343   1.998  10.987  0.2600 -2.8724 -2.0338
  461TMC3    C1 6912   2.982   2.572  10.540 -0.5289  0.2617 -0.5617
  461TMC3    C2 6913   2.968   2.470  10.450 -0.3467 -0.3438 -0.7584
  461TMC3    C3 6914   2.956   2.509  10.319 -0.2027  0.0279 -0.0628
  461TMC3    C4 6915   2.974   2.706  10.506  0.2335 -0.7951  0.4054
  461TMC3    C5 6916   2.966   2.736  10.379 -0.4515  0.0476  0.0805
  461TMC3    C6 6917   2.955   2.638  10.279 -0.1657 -0.6006 -0.2449
  461TMC3     C 6918   3.050   2.553  10.663  0.3898  0.1055  0.2557
  461TMC3     O 6919   3.123   2.646  10.698  0.4014  0.2204  0.0263
  461TMC3     H 6920   2.983   2.364  10.471  0.2024 -0.6247 -2.5967
  461TMC3    H1 6921   2.955   2.772  10.590 -1.5619  1.8620 -2.0936
  461TMC3    H2 6922   2.972   2.671  10.177 -0.0749 -0.1497 -0.0874
  461TMC3    C7 6923   2.916   2.864  10.334  0.4992 -0.5276  0.5462
  461TMC3    C8 6924   2.913   2.408  10.226  0.9025  0.3192  0.3495
  461TMC3    O1 6925   2.860   2.860  10.225 -0.1077 -0.6410 -0.0265
  461TMC3    O2 6926   2.905   2.446  10.111 -0.1962 -0.3590 -0.1043
  462TMC3    C1 6927   3.235   2.804   0.554 -0.7202  0.1948 -0.2842
  462TMC3    C2 6928   3.330   2.701   0.559 -0.9342  0.0757 -0.1679
  462TMC3    C3 6929   3.295   2.577   0.524 -0.0570 -0.3916  0.3300
  462TMC3    C4 6930   3.108   2.775   0.500  0.3974 -0.0757  0.2869
  462TMC3    C5 6931   3.095   2.658   0.444 -0.5380  0.2549 -0.7181
  462TMC3    C6 6932   3.183   2.555   0.454  0.2377  0.0377  0.0590
  462TMC3     C 6933   3.243   2.916   0.639 -0.3346 -0.7004  0.0254
  462TMC3     O 6934   3.349   2.974   0.656  0.5202  0.2829  0.8200
  462TMC3     H 6935   3.425   2.712   0.610 -0.6251  3.0078 -1.3924
  462TMC3    H1 6936   3.031   2.849   0.483 -1.9433 -2.5958 -0.0625
  462TMC3    H2 6937   3.161   2.452   0.429  0.1599 -0.0137  0.3341
  462TMC3    C7 6938   2.991   2.623   0.354  0.2091  0.5583 -0.1743
  462TMC3    C8 6939   3.413   2.513   0.473 -0.2097 -0.0200 -0.7800
  462TMC3    O1 6940   2.971   2.506   0.322  0.0843  0.6157 -0.1691
  462TMC3    O2 6941   3.503   2.481   0.554 -0.0474 -0.2181  0.0500
  463MPD2     C 6942   3.240   1.792   0.541  0.3933  0.0598  0.0587
  463MPD2    C1 6943   3.282   1.734   0.660 -0.0718 -0.4527 -0.2008
  463MPD2    C2 6944   3.410   1.680   0.666  0.8969  1.0279  0.0453
  463MPD2    C3 6945   3.498   1.690   0.562  0.1315  0.0883 -0.2123
  463MPD2    C4 6946   3.461   1.754   0.446 -0.7463 -0.7088  0.4821
  463MPD2    C5 6947   3.326   1.796   0.438 -0.1098 -0.5779  0.1767
  463MPD2     H 6948   3.446   1.628   0.754 -1.0122  1.0081  0.8138
  463MPD2    H1 6949   3.524   1.754   0.357  0.6873 -0.3709  1.4977
  463MPD2    H2 6950   3.139   1.824   0.519 -0.2238 -2.1241 -0.2570
  463MPD2    H3 6951   3.291   1.832   0.342 -0.9204  0.9191  1.0346
  463MPD2     N 6952   3.625   1.639   0.571 -0.2030 -0.1327  0.6689
  463MPD2    H5 6953   3.679   1.647   0.485 -1.0345 -0.2960  0.1340
  463MPD2    N1 6954   3.195   1.712   0.771 -0.4091 -0.3236  0.4762
  463MPD2    H7 6955   3.228   1.651   0.845  0.5693 -0.2665  0.0935
  464TMC3    C1 6956   2.984   1.725   0.889 -0.3724 -1.2582  0.6327
  464TMC3    C2 6957   2.850   1.748   0.878 -0.2503  0.1434  0.1375
  464TMC3    C3 6958   2.772   1.698   0.972 -0.6990  0.6935 -0.0762
  464TMC3    C4 6959   3.045   1.660   0.991  0.3776 -0.3202  1.1099
  464TMC3    C5 6960   2.959   1.628   1.086 -0.3948 -0.9048  0.3120
  464TMC3    C6 6961   2.827   1.649   1.086 -0.0017  0.0675  0.3614
  464TMC3     C 6962   3.068   1.769   0.781 -0.6769 -0.4354  0.1205
  464TMC3     O 6963   3.009   1.841   0.702  0.0274  0.8859 -0.0539
  464TMC3     H 6964   2.811   1.778   0.781 -0.0369  0.8945  0.2862
  464TMC3    H1 6965   3.153   1.652   0.989  0.4326  0.2748  1.6553
  464TMC3    H2 6966   2.763   1.608   1.164 -0.8033 -0.7588 -0.7166
  464TMC3    C7 6967   3.025   1.546   1.188  0.5378 -0.2368 -0.3549
  464TMC3    C8 6968   2.631   1.711   0.948 -0.6328  0.0397 -0.0994
  464TMC3    O1 6969   3.148   1.559   1.203  0.1348  0.1512  0.1014
  464TMC3    O2 6970   2.587   1.796   0.867  0.0425 -0.0792  0.0258
  465MPD2     C 6971   0.276   0.024  16.549  0.0522  1.0306 -0.0703
  465MPD2    C1 6972   0.269   0.160  16.529  1.0600  0.3249  0.0000
  465MPD2    C2 6973   0.166   0.210  16.453  0.2427  0.3045 -0.0388
  465MPD2    C3 6974   0.075   0.124  16.392 -0.5944 -0.2346  1.2641
  465MPD2    C4 6975   0.079   4.728  16.422 -0.1694 -1.1662  0.6171
  465MPD2    C5 6976   0.177   4.677  16.503 -1.1335  0.1756 -0.5130
  465MPD2     H 6977   0.161   0.317  16.436  0.2531  0.3720  0.3728
  465MPD2    H1 6978   0.013   4.652  16.382  1.5229 -2.5198  0.3783
  465MPD2    H2 6979   0.350   4.720  16.618 -0.5354  1.0128  0.5474
  465MPD2    H3 6980   0.175   4.571  16.524 -0.8382 -0.2004 -2.3850
  465MPD2     N 6981   4.707   0.186  16.315  0.1074 -0.4025 -0.7438
  465MPD2    H5 6982   4.701   0.286  16.328 -2.0777 -0.4182 -1.5736
  465MPD2    N1 6983   0.351   0.252  16.592  0.0296 -0.0919  0.2355
  465MPD2    H7 6984   0.322   0.349  16.584  0.2778 -0.1352 -1.1765
  466TMC3    C1 6985   4.247   0.192  16.313  0.3336 -0.2510  0.6293
  466TMC3    C2 6986   4.258   0.325  16.338 -0.7102 -0.1121 -0.0130
  466TMC3    C3 6987   4.372   0.395  16.305 -0.3972  0.5721  0.5137
  466TMC3    C4 6988   4.360   0.127  16.263 -0.1428  0.3936 -0.1255
  466TMC3    C5 6989   4.477   0.198  16.249 -0.2105  0.3000 -0.6476
  466TMC3    C6 6990   4.484   0.335  16.271 -0.5934 -0.4150 -0.7009
  466TMC3     C 6991   4.192   0.133  16.430 -0.0207 -0.4499 -0.4615
  466TMC3     O 6992   4.153   0.209  16.518  0.3457 -0.5073  0.2114
  466TMC3     H 6993   4.170   0.384  16.361 -0.9180 -0.1850 -0.6132
  466TMC3    H1 6994   4.366   0.019  16.253 -0.3572  0.5361 -1.8755
  466TMC3    H2 6995   4.576   0.391  16.273  0.2882 -1.8687 -0.6773
  466TMC3    C7 6996   4.599   0.118  16.262 -0.5399  0.7651  0.7220
  466TMC3    C8 6997   4.375   0.534  16.357  0.1922  0.0305 -0.0886
  466TMC3    O1 6998   4.584   4.732  16.240  0.6293  0.4345  0.3012
  466TMC3    O2 6999   4.325   0.553  16.467  0.0338  0.2126 -0.0893
  467TMC3    C1 7000   1.309   3.321  14.171 -0.2154  0.5093 -0.3319
  467TMC3    C2 7001   1.271   3.343  14.042 -0.2514 -0.3394 -0.3308
  467TMC3    C3 7002   1.142   3.342  14.005  0.2590 -0.0787  0.0201
  467TMC3    C4 7003   1.225   3.283  14.263  0.2548  0.4774 -0.0222
  467TMC3    C5 7004   1.087   3.293  14.229  0.2861 -0.2457  0.3407
  467TMC3    C6 7005   1.044   3.328  14.097  0.0501 -0.5318  0.1522
  467TMC3     C 7006   1.449   3.299  14.195  0.4957 -0.2269  0.1722
  467TMC3     O 7007   1.480   3.300  14.313 -0.2263 -0.1415 -0.0312
  467TMC3     H 7008   1.346   3.362  13.966 -0.2714 -3.1122 -1.0594
  467TMC3    H1 7009   1.253   3.255  14.364 -1.2123  1.9097  0.7862
  467TMC3    H2 7010   0.945   3.311  14.058  0.5012 -0.3599 -1.0488
  467TMC3    C7 7011   1.000   3.236  14.335  0.0161  0.4228 -0.2592
  467TMC3    C8 7012   1.103   3.362  13.865  0.0411  0.8545 -0.1082
  467TMC3    O1 7013   1.052   3.159  14.419  0.8205 -0.0100  0.0024
  467TMC3    O2 7014   0.986   3.331  13.828  0.5564  0.7393 -0.1231
  468MPD2     C 7015   0.123   1.829  10.717  0.4992  0.3334 -0.0933
  468MPD2    C1 7016   0.239   1.793  10.780 -0.1075 -0.5904  0.3927
  468MPD2    C2 7017   0.244   1.663  10.827 -0.4858 -0.3059 -0.4507
  468MPD2    C3 7018   0.153   1.564  10.805  0.0740  0.1106  0.5910
  468MPD2    C4 7019   0.034   1.607  10.754  0.4250  0.0074  1.0373
  468MPD2    C5 7020   0.026   1.739  10.710 -0.2594  0.6574 -0.0578
  468MPD2     H 7021   0.336   1.638  10.878  0.0028  2.0824 -0.1391
  468MPD2    H1 7022   4.685   1.545  10.735  1.1486  0.1062 -2.6328
  468MPD2    H2 7023   0.118   1.928  10.671 -1.2282 -0.3591 -1.4017
  468MPD2    H3 7024   4.665   1.763  10.668 -0.7034  0.0300  0.6068
  468MPD2     N 7025   0.180   1.433  10.847 -0.0405 -0.1574  0.1990
  468MPD2    H5 7026   0.274   1.406  10.873  0.5334  0.5386 -1.1434
  468MPD2    N1 7027   0.349   1.879  10.802 -0.1132  0.5214 -0.3982
  468MPD2    H7 7028   0.426   1.850  10.862  1.0950  0.8824 -1.7589
  469TMC3    C1 7029   0.454   2.080  10.850 -0.3881 -0.4495  0.1299
  469TMC3    C2 7030   0.571   2.010  10.866 -0.9803  0.3802 -0.0527
  469TMC3    C3 7031   0.665   2.064  10.958  0.0855 -0.3679  0.3346
  469TMC3    C4 7032   0.414   2.193  10.910 -0.0861  0.1170  0.0324
  469TMC3    C5 7033   0.502   2.228  11.008  0.3185  0.6376 -0.2924
  469TMC3    C6 7034   0.626   2.179  11.028  0.5492  0.2179 -0.1029
  469TMC3     C 7035   0.349   2.017  10.770 -0.1195  0.2574  0.2072
  469TMC3     O 7036   0.259   2.090  10.724  0.0831  0.2724  0.3042
  469TMC3     H 7037   0.592   1.918  10.813  1.6430  0.1022  1.4506
  469TMC3    H1 7038   0.315   2.236  10.899  0.3526  0.7744 -1.2856
  469TMC3    H2 7039   0.703   2.222  11.092  0.1791  0.6047  0.0763
  469TMC3    C7 7040   0.462   2.352  11.086  0.0309  0.4102 -0.7260
  469TMC3    C8 7041   0.804   2.028  10.955  0.6810  0.2538  0.5976
  469TMC3    O1 7042   0.367   2.414  11.040  0.4785 -0.2346  0.4050
  469TMC3    O2 7043   0.840   1.953  10.866 -0.2048  0.1262 -0.3103
  470TMC3    C1 7044   2.031   2.648   1.265 -0.6611 -0.0997 -0.2769
  470TMC3    C2 7045   1.939   2.744   1.306 -0.0225  0.0042  0.3059
  470TMC3    C3 7046   1.946   2.870   1.248 -0.1716  0.5624  0.3947
  470TMC3    C4 7047   2.126   2.668   1.172 -0.4472  0.3206 -0.2659
  470TMC3    C5 7048   2.131   2.795   1.119 -0.7062  0.2980  0.7804
  470TMC3    C6 7049   2.038   2.889   1.152  0.7893  0.2029  0.9721
  470TMC3     C 7050   2.050   2.524   1.346  0.0302 -0.3437  0.4744
  470TMC3     O 7051   2.165   2.488   1.373 -0.5794  0.1354  0.3752
  470TMC3     H 7052   1.861   2.710   1.373 -0.6289  0.4426 -0.1898
  470TMC3    H1 7053   2.183   2.586   1.132 -0.9401 -1.2263  2.2070
  470TMC3    H2 7054   2.047   2.989   1.111  0.7177  0.1443  0.8119
  470TMC3    C7 7055   2.257   2.848   1.065 -0.1692  0.0618 -1.0511
  470TMC3    C8 7056   1.924   2.988   1.335 -0.3467 -0.0366 -0.7735
  470TMC3    O1 7057   2.241   2.962   1.025  0.0734 -0.1217 -0.5994
  470TMC3    O2 7058   1.978   3.094   1.306 -0.4236  0.0748 -0.4306
  471MPD2     C 7059   2.786   4.236  16.789 -0.1043 -0.1919  0.0663
  471MPD2    C1 7060   2.877   4.151  16.726 -0.0480  0.0918  0.9478
  471MPD2    C2 7061   2.984   4.109  16.798 -0.5349  0.5360  0.2236
  471MPD2    C3 7062   2.989   4.149  16.932 -0.0600  0.8236  0.0641
  471MPD2    C4 7063   2.906   4.247  16.986  0.1525  0.0073 -0.5915
  471MPD2    C5 7064   2.800   4.287  16.918 -0.2584  0.2012 -1.1603
  471MPD2     H 7065   3.052   4.042  16.747 -0.5700 -0.3437  1.3252
  471MPD2    H1 7066   2.918   4.286  17.086  0.7985  0.0861 -0.7022
  471MPD2    H2 7067   2.694   4.270  16.742 -0.4716  0.9000  1.5505
  471MPD2    H3 7068   2.728   4.356  16.961  1.0208  1.5294 -1.1535
  471MPD2     N 7069   3.087   4.095  17.027  0.5271 -0.1146  0.2167
  471MPD2    H5 7070   3.091   4.122  17.124 -0.0520  0.1905  0.1533
  471MPD2    N1 7071   2.857   4.086  16.602  0.0579  0.0786 -0.3745
  471MPD2    H7 7072   2.920   4.017  16.563 -3.3841 -2.4453 -1.5050
  472TMC3    C1 7073   2.737   4.016  16.419 -0.4861 -0.3988 -0.2068
  472TMC3    C2 7074   2.636   4.047  16.331 -0.2027 -0.1382  0.0687
  472TMC3    C3 7075   2.593   3.941  16.253  0.3009  0.5554 -0.3342
  472TMC3    C4 7076   2.803   3.894  16.427 -0.1615 -0.2987 -0.5998
  472TMC3    C5 7077   2.750   3.790  16.354  0.2079  0.2106 -0.2858
  472TMC3    C6 7078   2.642   3.810  16.273 -0.0657 -0.1446  0.0281
  472TMC3     C 7079   2.745   4.104  16.531 -0.1874  0.4205 -0.8586
  472TMC3     O 7080   2.654   4.186  16.543  0.6424  0.1305  0.2067
  472TMC3     H 7081   2.582   4.140  16.322 -0.9379 -0.6260 -0.5442
  472TMC3    H1 7082   2.878   3.878  16.504  0.8555 -1.7546 -1.8880
  472TMC3    H2 7083   2.595   3.733  16.212 -1.0314  1.4491 -1.2561
  472TMC3    C7 7084   2.741   3.659  16.423  0.5882  0.1812 -0.1995
  472TMC3    C8 7085   2.449   3.941  16.227  0.6300 -0.1670  0.0312
  472TMC3    O1 7086   2.755   3.655  16.546  0.0051 -0.6298 -0.4279
  472TMC3    O2 7087   2.399   4.023  16.149  0.1695 -0.0763  0.3904
  473MPD2     C 7088   3.423   1.436  13.625  0.2135 -0.1931 -0.7121
  473MPD2    C1 7089   3.313   1.520  13.637 -0.0445  0.1637  0.3801
  473MPD2    C2 7090   3.270   1.561  13.762  0.4944  0.1271 -0.2033
  473MPD2    C3 7091   3.344   1.528  13.875 -0.3287  0.3237 -0.0537
  473MPD2    C4 7092   3.461   1.458  13.856 -0.1084 -0.6096  0.3560
  473MPD2    C5 7093   3.490   1.405  13.740  0.3499  0.7732 -0.2857
  473MPD2     H 7094   3.179   1.619  13.768 -0.8271 -1.9672 -0.2261
  473MPD2    H1 7095   3.511   1.424  13.946  0.0344  1.1008  0.9241
  473MPD2    H2 7096   3.465   1.405  13.530  2.9153 -1.0479  0.7591
  473MPD2    H3 7097   3.570   1.333  13.727 -2.4392 -2.6502  1.5000
  473MPD2     N 7098   3.302   1.566  14.006 -0.0117  0.4276 -0.0312
  473MPD2    H5 7099   3.362   1.534  14.082 -0.2982  1.2652  0.5361
  473MPD2    N1 7100   3.227   1.552  13.531  0.1363 -0.1640  0.9493
  473MPD2    H7 7101   3.142   1.597  13.564 -0.1588  0.4159 -0.6190
  474TMC3    C1 7102   3.144   1.610  14.166 -0.2952  1.3280 -0.1548
  474TMC3    C2 7103   3.019   1.650  14.200  0.6645 -0.3988  0.0393
  474TMC3    C3 7104   2.999   1.687  14.330  0.3345  0.5059 -0.2796
  474TMC3    C4 7105   3.246   1.599  14.260  0.0893 -0.1044 -0.2029
  474TMC3    C5 7106   3.211   1.637  14.393 -0.2569 -0.5243 -0.5306
  474TMC3    C6 7107   3.094   1.691  14.427  0.5204 -0.2632  0.2263
  474TMC3     C 7108   3.181   1.623  14.030 -0.2826 -0.0956 -0.3753
  474TMC3     O 7109   3.088   1.663  13.960  0.2329 -0.2836 -0.1622
  474TMC3     H 7110   2.942   1.658  14.125 -0.1934 -1.4899  0.8167
  474TMC3    H1 7111   3.345   1.560  14.242  0.4818  1.1020 -0.6145
  474TMC3    H2 7112   3.066   1.715  14.529 -0.8111 -1.5875  0.1539
  474TMC3    C7 7113   3.328   1.686  14.468 -0.5695 -0.0999 -0.3600
  474TMC3    C8 7114   2.899   1.794  14.345  0.2237 -0.0245  1.0305
  474TMC3    O1 7115   3.435   1.629  14.464  0.3342  0.1689  0.7974
  474TMC3    O2 7116   2.828   1.790  14.447  0.1944  0.4380 -0.0253
  475MPD2     C 7117   0.340   4.342  11.455 -0.6247  0.0313 -0.5863
  475MPD2    C1 7118   0.406   4.397  11.347  0.4707 -0.0188  0.5428
  475MPD2    C2 7119   0.333   4.438  11.232 -0.3190  0.2056  0.7935
  475MPD2    C3 7120   0.196   4.413  11.230 -0.4601 -0.5863 -0.4686
  475MPD2    C4 7121   0.136   4.363  11.344 -0.4742 -0.2498 -0.0758
  475MPD2    C5 7122   0.204   4.322  11.454  0.8540 -0.9144 -0.5215
  475MPD2     H 7123   0.383   4.495  11.155 -1.8508  1.6219  0.8566
  475MPD2    H1 7124   0.029   4.350  11.354 -0.6387  1.8223  0.8658
  475MPD2    H2 7125   0.396   4.315  11.544 -1.6168 -1.1309 -0.3059
  475MPD2    H3 7126   0.146   4.284  11.538  0.1169 -0.1951 -0.7037
  475MPD2     N 7127   0.120   4.469  11.126  0.1350  0.6995  0.0616
  475MPD2    H5 7128   0.169   4.505  11.044  1.7791 -0.3455  0.5837
  475MPD2    N1 7129   0.549   4.421  11.376  0.9000 -0.0915 -0.6164
  475MPD2    H7 7130   0.585   4.382  11.463  0.6467 -0.7028 -0.7894
  476TMC3    C1 7131   0.770   4.483  11.327 -0.1557  0.2609  0.2041
  476TMC3    C2 7132   0.864   4.507  11.227  0.3705  0.3441  0.2168
  476TMC3    C3 7133   0.985   4.548  11.273  0.8852  0.3134 -1.1118
  476TMC3    C4 7134   0.797   4.500  11.459 -0.8771 -0.3672 -0.1375
  476TMC3    C5 7135   0.915   4.541  11.500 -0.2174 -0.3183  0.0732
  476TMC3    C6 7136   1.012   4.563  11.407 -0.1995  0.1436  0.4128
  476TMC3     C 7137   0.635   4.465  11.281  0.3314 -0.1080 -0.0999
  476TMC3     O 7138   0.619   4.474  11.159 -0.2857  0.0874 -0.0506
  476TMC3     H 7139   0.829   4.512  11.125 -0.6940  1.0335  0.6130
  476TMC3    H1 7140   0.726   4.484  11.539 -1.5549  1.9295 -0.2841
  476TMC3    H2 7141   1.109   4.591  11.445 -0.3136 -1.1463  1.6732
  476TMC3    C7 7142   0.905   4.636  11.605 -0.5163 -0.2877  0.9454
  476TMC3    C8 7143   1.038   4.653  11.190  0.3958 -0.4875 -0.4578
  476TMC3    O1 7144   0.813   4.627  11.685  0.0331  0.1567  0.4185
  476TMC3    O2 7145   1.062   0.021  11.246  0.3596  0.6057 -0.4851
  477MPD2     C 7146   3.878   1.053  11.800  0.3609 -0.5760  0.6360
  477MPD2    C1 7147   3.760   0.994  11.763 -0.4657  0.3146  0.1552
  477MPD2    C2 7148   3.712   0.875  11.818 -0.4682 -0.4178 -0.3570
  477MPD2    C3 7149   3.771   0.827  11.933 -0.1607 -0.2348  0.0786
  477MPD2    C4 7150   3.885   0.887  11.981  0.7004  1.2057  0.2716
  477MPD2    C5 7151   3.939   1.002  11.912 -0.0051  0.0974  0.8723
  477MPD2     H 7152   3.617   0.832  11.792  1.1683 -1.9265 -3.9434
  477MPD2    H1 7153   3.936   0.857  12.072 -0.8752 -1.0407  0.3959
  477MPD2    H2 7154   3.913   1.144  11.752  2.6129 -1.4868  0.5348
  477MPD2    H3 7155   4.030   1.048  11.948  0.5384 -0.3745  0.0984
  477MPD2     N 7156   3.705   0.726  12.004 -0.0339 -0.4268  0.2335
  477MPD2    H5 7157   3.630   0.682  11.952 -1.5397 -0.4224  2.4152
  477MPD2    N1 7158   3.693   1.056  11.654 -0.4519  0.1786 -0.3454
  477MPD2    H7 7159   3.734   1.136  11.608 -0.3394 -0.2960 -1.0708
  478TMC3    C1 7160   3.540   1.091  11.486  0.6402  0.6303  0.4267
  478TMC3    C2 7161   3.555   1.226  11.499  0.2349 -0.5207 -0.4731
  478TMC3    C3 7162   3.465   1.311  11.437  0.5606 -0.1526  0.0325
  478TMC3    C4 7163   3.449   1.037  11.398  0.0521  0.9851  0.4494
  478TMC3    C5 7164   3.375   1.124  11.326 -0.5067  0.2557  0.5503
  478TMC3    C6 7165   3.379   1.261  11.342 -0.2559 -0.0202 -0.3568
  478TMC3     C 7166   3.591   1.002  11.586 -0.0323  0.5404  0.2505
  478TMC3     O 7167   3.533   0.896  11.601 -0.0506  0.3075 -0.3756
  478TMC3     H 7168   3.626   1.268  11.570 -0.1864 -0.2563 -0.2035
  478TMC3    H1 7169   3.450   0.931  11.375 -1.7554  1.2702 -1.0166
  478TMC3    H2 7170   3.306   1.325  11.294  1.2803  0.5868 -1.8838
  478TMC3    C7 7171   3.250   1.073  11.298 -0.3017 -0.3136 -0.1389
  478TMC3    C8 7172   3.502   1.453  11.431  0.0498  0.6190  0.1061
  478TMC3    O1 7173   3.210   0.989  11.378 -0.3958  0.8655 -0.2564
  478TMC3    O2 7174   3.615   1.472  11.462 -0.6738  0.2215  0.2897
  479MPD2     C 7175   2.337   3.572  15.402 -0.0278  0.2365  0.4669
  479MPD2    C1 7176   2.264   3.488  15.484 -0.3008 -0.5848  0.0132
  479MPD2    C2 7177   2.278   3.495  15.625 -0.7827  1.1478 -0.0531
  479MPD2    C3 7178   2.360   3.590  15.682 -0.4084  0.0999 -0.1791
  479MPD2    C4 7179   2.427   3.673  15.597  0.2322 -0.3475 -0.4978
  479MPD2    C5 7180   2.413   3.665  15.461  0.3101 -0.7909 -0.7911
  479MPD2     H 7181   2.233   3.419  15.687 -0.4472  0.2362 -0.9381
  479MPD2    H1 7182   2.494   3.751  15.631  1.7561 -1.6397 -0.5084
  479MPD2    H2 7183   2.305   3.574  15.298  2.8486  0.8065 -0.3894
  479MPD2    H3 7184   2.475   3.733  15.403  1.6350  0.4709  2.1245
  479MPD2     N 7185   2.384   3.616  15.821 -0.3644  0.2304  0.5057
  479MPD2    H5 7186   2.465   3.675  15.837  0.0259 -0.4089  0.9000
  479MPD2    N1 7187   2.174   3.401  15.413 -0.1712  0.8380  0.4415
  479MPD2    H7 7188   2.172   3.415  15.312  0.6785  2.0733  0.5948
  480TMC3    C1 7189   2.081   3.305  16.004  0.1478 -0.1198  0.5216
  480TMC3    C2 7190   1.981   3.331  15.911  0.2529  0.5472 -0.2326
  480TMC3    C3 7191   1.991   3.447  15.841  0.6159  0.4971 -0.9185
  480TMC3    C4 7192   2.192   3.388  16.023 -0.2066  0.6148 -0.1346
  480TMC3    C5 7193   2.205   3.491  15.934  0.4461  0.0596  0.9363
  480TMC3    C6 7194   2.101   3.531  15.856 -0.0684  0.3509 -0.0690
  480TMC3     C 7195   2.076   3.180  16.075  0.0998 -0.3189 -0.2850
  480TMC3     O 7196   2.014   3.090  16.019 -0.1894  0.3838 -0.0064
  480TMC3     H 7197   1.896   3.264  15.901 -0.2914  1.4769 -1.6830
  480TMC3    H1 7198   2.277   3.355  16.081 -1.6082 -1.0721  0.9760
  480TMC3    H2 7199   2.122   3.619  15.796  0.9959 -0.1584 -0.4640
  480TMC3    C7 7200   2.338   3.544  15.930  0.2649  0.6320  0.1348
  480TMC3    C8 7201   1.893   3.464  15.735  0.9290  0.1711 -0.0748
  480TMC3    O1 7202   2.409   3.533  16.029 -0.2688  0.7365  0.2569
  480TMC3    O2 7203   1.812   3.377  15.716  0.1606  0.2786  0.4300
  481MPD2     C 7204   4.207   3.004  14.280  1.1492 -0.5189  0.4680
  481MPD2    C1 7205   4.087   2.937  14.289  0.5091  0.2821 -0.0015
  481MPD2    C2 7206   4.043   2.895  14.413  0.0389  0.2061 -0.0676
  481MPD2    C3 7207   4.124   2.910  14.528  0.2705  0.9609 -0.7614
  481MPD2    C4 7208   4.246   2.973  14.507 -0.4934 -0.5596  0.0188
  481MPD2    C5 7209   4.289   3.021  14.388  0.4738 -0.3652 -0.1519
  481MPD2     H 7210   3.945   2.850  14.420 -0.5307  1.5021  0.1057
  481MPD2    H1 7211   4.314   2.980  14.592 -0.4644 -1.5168  0.0803
  481MPD2    H2 7212   4.240   3.040  14.184 -2.6921  2.5105  0.2716
  481MPD2    H3 7213   4.386   3.068  14.371  1.1250 -0.8506  2.1508
  481MPD2     N 7214   4.088   2.867  14.660 -0.3246  0.2600 -0.3827
  481MPD2    H5 7215   4.142   2.909  14.736  3.1179 -2.7035 -1.2222
  481MPD2    N1 7216   3.999   2.925  14.177  0.6715  0.7680 -0.0592
  481MPD2    H7 7217   4.039   2.972  14.096  1.8917  1.9550  1.2099
  482TMC3    C1 7218   3.865   2.819  14.026 -0.4641  0.0922 -0.1273
  482TMC3    C2 7219   3.804   2.702  13.987  0.5672 -0.2531 -0.4620
  482TMC3    C3 7220   3.735   2.701  13.868 -0.9126 -0.1637  0.5642
  482TMC3    C4 7221   3.867   2.930  13.941 -0.2445  0.1751  0.6035
  482TMC3    C5 7222   3.809   2.918  13.818 -0.1113  0.0925 -0.8003
  482TMC3    C6 7223   3.735   2.806  13.784  1.0214  0.0509  0.0188
  482TMC3     C 7224   3.910   2.825  14.168  0.7192 -0.5935 -0.5189
  482TMC3     O 7225   3.867   2.734  14.240 -1.0243  0.0891  0.3529
  482TMC3     H 7226   3.803   2.613  14.049 -1.0369 -0.5952 -0.9640
  482TMC3    H1 7227   3.916   3.025  13.960 -0.7531 -0.0004  2.7893
  482TMC3    H2 7228   3.677   2.806  13.693  2.4635 -1.5579 -0.9146
  482TMC3    C7 7229   3.816   3.039  13.735 -0.4217 -0.1811 -0.2032
  482TMC3    C8 7230   3.672   2.572  13.837  0.0726 -0.0257 -0.4245
  482TMC3    O1 7231   3.789   3.147  13.787 -0.2687  0.3969 -0.0393
  482TMC3    O2 7232   3.730   2.470  13.871 -0.1755 -0.2856  0.1637
  483TMC3    C1 7233   1.390   1.472   0.592  0.0725 -0.6030  0.6670
  483TMC3    C2 7234   1.452   1.592   0.559 -0.3619 -0.3702 -0.9435
  483TMC3    C3 7235   1.584   1.610   0.606  0.1734 -0.1632 -0.4083
  483TMC3    C4 7236   1.448   1.379   0.674  0.8050 -0.2027  0.0938
  483TMC3    C5 7237   1.575   1.407   0.713 -0.5077  0.3312 -0.2047
  483TMC3    C6 7238   1.647   1.517   0.687  0.7829  0.1402  0.6907
  483TMC3     C 7239   1.263   1.436   0.535  0.3407  0.3464  0.0238
  483TMC3     O 7240   1.178   1.527   0.532  0.1087 -0.6237 -0.8278
  483TMC3     H 7241   1.388   1.653   0.495  0.2722  1.0821 -0.2028
  483TMC3    H1 7242   1.390   1.299   0.717  0.2691  0.0121 -0.2209
  483TMC3    H2 7243   1.752   1.535   0.708  1.0142  2.0444 -2.1084
  483TMC3    C7 7244   1.616   1.331   0.837  0.0108 -0.1833  0.3126
  483TMC3    C8 7245   1.657   1.727   0.569  0.0911 -0.6861 -0.2410
  483TMC3    O1 7246   1.538   1.241   0.871 -0.2344  0.7136  0.6059
  483TMC3    O2 7247   1.631   1.786   0.461 -0.0209  0.0394 -0.0295
  484MPD2     C 7248   4.057   4.535  12.406 -0.1374 -0.7085 -0.4678
  484MPD2    C1 7249   4.080   4.545  12.535  0.2251 -0.1344  0.2519
  484MPD2    C2 7250   4.191   4.607  12.596 -0.0208  0.0611 -0.1262
  484MPD2    C3 7251   4.276   4.674  12.509  0.3683 -0.3043 -0.2715
  484MPD2    C4 7252   4.250   4.666  12.373  0.2689  0.5755  0.2954
  484MPD2    C5 7253   4.137   4.600  12.318  0.2037 -0.6570 -0.3343
  484MPD2     H 7254   4.217   4.596  12.700 -1.2473  0.7559  0.2592
  484MPD2    H1 7255   4.318   4.713  12.303  1.9650  0.6203  1.9818
  484MPD2    H2 7256   3.968   4.486  12.369 -0.2194  0.2854 -1.5937
  484MPD2    H3 7257   4.110   4.614  12.214 -1.3709  0.9385  0.2773
  484MPD2     N 7258   4.397   0.001  12.545 -0.4828  0.0557 -0.5557
  484MPD2    H5 7259   4.467   0.016  12.473 -2.0077 -1.2867 -2.3267
  484MPD2    N1 7260   3.986   4.478  12.613 -0.0848 -0.0311 -0.1918
  484MPD2    H7 7261   3.935   4.404  12.565 -0.0752 -0.6369  0.7441
  485TMC3    C1 7262   4.583   0.052  12.689 -0.1962 -0.0341 -0.6352
  485TMC3    C2 7263   4.648   0.003  12.804  0.3005 -0.4722 -0.2227
  485TMC3    C3 7264   0.036   0.050  12.817  0.1486  0.2334 -0.2737
  485TMC3    C4 7265   4.640   0.128  12.592  0.0848  0.3903  0.4733
  485TMC3    C5 7266   0.028   0.175  12.620  0.1725 -0.7621 -0.4052
  485TMC3    C6 7267   0.095   0.140  12.734 -0.2697  0.5036 -0.0051
  485TMC3     C 7268   4.438   0.013  12.675 -0.2291 -0.6913  0.2990
  485TMC3     O 7269   4.383   4.735  12.783 -0.9599 -0.0672 -0.3141
  485TMC3     H 7270   4.605   4.684  12.886  1.0613 -0.9358 -0.1420
  485TMC3    H1 7271   4.594   0.151  12.496  1.6968 -0.9769 -0.6418
  485TMC3    H2 7272   0.193   0.182  12.753 -0.0580  1.6019 -3.4223
  485TMC3    C7 7273   0.122   0.166  12.507  0.2016  0.2172 -0.6558
  485TMC3    C8 7274   0.132   4.694  12.879 -0.5242  0.4000  0.0234
  485TMC3    O1 7275   0.237   0.142  12.538  1.0345 -0.7970 -0.2431
  485TMC3    O2 7276   0.091   4.611  12.963  0.2799 -0.5296 -0.0473
  486MPD2     C 7277   2.012   3.142  12.995  0.2056 -0.0927  0.6845
  486MPD2    C1 7278   1.928   3.087  12.899  0.6094  0.2632  0.3288
  486MPD2    C2 7279   1.845   3.175  12.824 -0.1311 -0.0842  0.5669
  486MPD2    C3 7280   1.848   3.310  12.842  0.7887  0.2601  0.4441
  486MPD2    C4 7281   1.939   3.362  12.932 -0.7892 -0.1928  0.3172
  486MPD2    C5 7282   2.015   3.283  13.014 -0.1182 -0.2855 -1.2448
  486MPD2     H 7283   1.771   3.138  12.754  1.8240 -3.4033  0.2252
  486MPD2    H1 7284   1.933   3.464  12.967  3.5984  0.6077 -1.1803
  486MPD2    H2 7285   2.074   3.083  13.062  1.7745 -0.2811 -0.9352
  486MPD2    H3 7286   2.079   3.330  13.088 -1.0261  0.7766 -1.1391
  486MPD2     N 7287   1.745   3.385  12.774  0.2531  0.2809 -0.3579
  486MPD2    H5 7288   1.681   3.328  12.719  1.4687 -0.6694 -0.7626
  486MPD2    N1 7289   1.909   2.948  12.890 -0.7281  0.0161 -0.5303
  486MPD2    H7 7290   1.954   2.896  12.965 -2.4926  0.5865  0.9283
  487TMC3    C1 7291   1.817   2.733  12.844 -0.6301 -0.1328  0.2115
  487TMC3    C2 7292   1.694   2.694  12.808 -0.6946  0.6180 -0.4236
  487TMC3    C3 7293   1.624   2.612  12.902  0.2580  1.2214  0.1059
  487TMC3    C4 7294   1.881   2.691  12.955 -0.0732 -0.3508  0.6092
  487TMC3    C5 7295   1.814   2.597  13.028 -0.1519 -0.0287 -0.2973
  487TMC3    C6 7296   1.679   2.567  13.012 -0.1618  0.1468 -0.8896
  487TMC3     C 7297   1.844   2.870  12.799 -0.0728 -0.3646  0.3060
  487TMC3     O 7298   1.800   2.905  12.691 -0.1038  0.9702  0.2219
  487TMC3     H 7299   1.647   2.737  12.719 -3.3276 -0.5209  0.4063
  487TMC3    H1 7300   1.976   2.730  12.990  0.2922 -0.3081 -0.4496
  487TMC3    H2 7301   1.629   2.493  13.074  0.2176  2.3741  2.0762
  487TMC3    C7 7302   1.880   2.569  13.153 -0.1232 -0.5931 -0.5386
  487TMC3    C8 7303   1.478   2.624  12.897 -0.2475 -0.1435 -0.6648
  487TMC3    O1 7304   1.815   2.573  13.253 -0.2981  0.7139 -0.2906
  487TMC3    O2 7305   1.418   2.643  13.004 -0.1034 -0.1283 -0.1165
  488MPD2     C 7306   1.821   0.283  16.301  0.8798  0.0278 -0.3393
  488MPD2    C1 7307   1.767   0.411  16.304 -0.5587 -0.5661 -0.0655
  488MPD2    C2 7308   1.675   0.444  16.398  0.5969 -0.1086 -0.6518
  488MPD2    C3 7309   1.641   0.343  16.494  0.3525  0.0276 -0.4858
  488MPD2    C4 7310   1.694   0.216  16.486 -0.7510 -0.2214 -0.5076
  488MPD2    C5 7311   1.785   0.190  16.392  0.0759 -0.2422 -0.0059
  488MPD2     H 7312   1.644   0.548  16.400 -0.2072 -0.3596 -0.0639
  488MPD2    H1 7313   1.670   0.139  16.559 -1.1806 -0.0065 -0.4235
  488MPD2    H2 7314   1.893   0.252  16.225 -0.1537 -1.9188 -0.5269
  488MPD2    H3 7315   1.829   0.091  16.393  0.9472  0.1275 -2.2128
  488MPD2     N 7316   1.541   0.381  16.585 -0.3062  0.4368  0.1644
  488MPD2    H5 7317   1.500   0.473  16.569 -1.8519 -0.1509  0.7511
  488MPD2    N1 7318   1.801   0.515  16.212  0.1161  0.0315  0.5355
  488MPD2    H7 7319   1.770   0.610  16.229 -1.1768 -0.6577  2.0133
  489TMC3    C1 7320   1.363   0.363  16.747 -0.1686  0.4221 -0.0286
  489TMC3    C2 7321   1.377   0.492  16.716  0.7499  0.4123  0.5204
  489TMC3    C3 7322   1.377   0.583  16.817 -0.0832 -0.2911  0.5972
  489TMC3    C4 7323   1.371   0.323  16.879 -1.0253 -0.4437 -0.1167
  489TMC3    C5 7324   1.380   0.419  16.975 -0.6618 -0.3421  0.1103
  489TMC3    C6 7325   1.393   0.550  16.950 -1.3062 -0.3123 -0.4603
  489TMC3     C 7326   1.466   0.294  16.666 -0.1736 -0.2970  0.2595
  489TMC3     O 7327   1.476   0.174  16.687  0.2152  0.0918  0.8476
  489TMC3     H 7328   1.352   0.527  16.616  0.2551  0.8606  0.8045
  489TMC3    H1 7329   1.352   0.218  16.899  2.4949 -1.4232 -1.8532
  489TMC3    H2 7330   1.425   0.619  17.028 -0.8914  1.6248 -2.3518
  489TMC3    C7 7331   1.357   0.374  17.111 -0.0186  1.1019  0.7806
  489TMC3    C8 7332   1.421   0.716  16.769 -0.2791 -1.1013 -0.8323
  489TMC3    O1 7333   1.388   0.267  17.148 -0.0959  0.4951  0.0712
  489TMC3    O2 7334   1.468   0.714  16.655  0.2399 -0.2084 -0.4807
  490MPD2     C 7335   2.223   0.024   0.277  0.2214  0.3635  0.1355
  490MPD2    C1 7336   2.321   4.671   0.239 -0.0485  0.2013  0.5725
  490MPD2    C2 7337   2.454   4.714   0.215 -0.2864 -0.0634 -0.0138
  490MPD2    C3 7338   2.485   0.113   0.245  0.6486  0.7965 -0.5245
  490MPD2    C4 7339   2.382   0.195   0.289  0.5227  0.5974 -0.8983
  490MPD2    C5 7340   2.255   0.155   0.300  0.9214 -0.5835 -0.7864
  490MPD2     H 7341   2.537   4.650   0.189  0.8617  1.3889  0.0960
  490MPD2    H1 7342   2.400   0.297   0.320 -2.6022  0.1900  2.2607
  490MPD2    H2 7343   2.121   0.002   0.303 -0.3697  2.5575 -0.3391
  490MPD2    H3 7344   2.181   0.225   0.337  0.2002 -0.6519 -2.0993
  490MPD2     N 7345   2.622   0.151   0.225 -0.3680 -0.2814 -0.1955
  490MPD2    H5 7346   2.672   0.076   0.178  0.7888 -0.2698  1.0158
  490MPD2    N1 7347   2.294   4.533   0.218 -0.2578  0.1829  0.3246
  490MPD2    H7 7348   2.372   4.476   0.189  1.0964  2.5074 -0.6465
  491TMC3    C1 7349   2.195   4.326   0.221 -0.2573  0.3789  0.5373
  491TMC3    C2 7350   2.121   4.238   0.285 -0.3374  0.6298 -0.4478
  491TMC3    C3 7351   2.149   4.101   0.273  0.0164 -0.3253 -0.1346
  491TMC3    C4 7352   2.300   4.291   0.138 -0.5785  1.0110  0.3628
  491TMC3    C5 7353   2.328   4.155   0.132 -0.1992 -0.2818  0.2824
  491TMC3    C6 7354   2.247   4.062   0.196 -0.0330  0.2970  0.0794
  491TMC3     C 7355   2.174   4.471   0.238 -0.1772  0.2802  0.4076
  491TMC3     O 7356   2.072   4.513   0.288 -0.2417  0.5334 -0.3434
  491TMC3     H 7357   2.049   4.276   0.356  0.4777  0.6572  0.3726
  491TMC3    H1 7358   2.351   4.351   0.063  1.5340 -0.1230  0.8752
  491TMC3    H2 7359   2.290   3.962   0.203 -1.1960 -0.2487 -0.6036
  491TMC3    C7 7360   2.415   4.101   0.021 -0.0303  0.5511  0.4193
  491TMC3    C8 7361   2.044   4.009   0.307 -0.8002  0.3142  0.2400
  491TMC3    O1 7362   2.383   3.985  17.740 -0.0434  0.2173 -0.5661
  491TMC3    O2 7363   1.939   4.051   0.350  0.6037  0.4795 -0.0430
  492MPD2     C 7364   3.108   4.441  11.185  0.1235 -0.5969 -0.3637
  492MPD2    C1 7365   3.037   4.413  11.069  0.3848  0.4226  0.3942
  492MPD2    C2 7366   2.905   4.369  11.074 -0.3045  0.1581 -0.0775
  492MPD2    C3 7367   2.843   4.345  11.198  0.4786  0.6151 -0.5251
  492MPD2    C4 7368   2.924   4.354  11.310 -0.2653 -0.1944  0.6580
  492MPD2    C5 7369   3.049   4.409  11.308  0.6711 -0.5862 -0.4499
  492MPD2     H 7370   2.846   4.388  10.985  2.2439  3.8755 -0.9838
  492MPD2    H1 7371   2.884   4.332  11.409 -0.7814 -1.1346  0.2361
  492MPD2    H2 7372   3.201   4.497  11.180  0.5386 -1.3560 -1.0579
  492MPD2    H3 7373   3.098   4.429  11.402  0.1055 -0.5679 -0.1598
  492MPD2     N 7374   2.704   4.322  11.214 -0.5426  0.3224  0.0104
  492MPD2    H5 7375   2.672   4.314  11.310 -2.2974 -1.4720 -0.7252
  492MPD2    N1 7376   3.106   4.446  10.946  0.9701 -0.3079 -0.4888
  492MPD2    H7 7377   3.203   4.473  10.948  1.0638 -0.5466 -1.6901
  493TMC3    C1 7378   3.132   4.520  10.717 -0.3658 -0.6909  0.3417
  493TMC3    C2 7379   3.192   4.638  10.753  0.7237 -0.2688  0.6887
  493TMC3    C3 7380   3.187   0.004  10.662  0.0725  0.0667 -0.1665
  493TMC3    C4 7381   3.063   4.508  10.597  0.9196  0.3595  0.5426
  493TMC3    C5 7382   3.050   4.617  10.513  0.1714  0.0706  1.0158
  493TMC3    C6 7383   3.120   4.734  10.545  0.0212 -0.6528  0.0293
  493TMC3     C 7384   3.048   4.445  10.821 -0.5955  0.4492  0.2357
  493TMC3     O 7385   2.944   4.385  10.793 -0.2285  0.0959 -0.1237
  493TMC3     H 7386   3.260   4.644  10.837 -0.0816 -0.3651  1.3467
  493TMC3    H1 7387   3.009   4.420  10.565 -0.0024  0.7181  1.0986
  493TMC3    H2 7388   3.119   0.077  10.471  0.7997 -0.7775 -0.1210
  493TMC3    C7 7389   2.976   4.587  10.391 -0.0573  0.2591  0.5492
  493TMC3    C8 7390   3.225   0.134  10.709  0.5306 -0.4766  0.2289
  493TMC3    O1 7391   2.885   4.505  10.402  0.2634 -0.3220 -0.8127
  493TMC3    O2 7392   3.221   0.140  10.831  0.6222 -0.1773  0.1630
  494TMC3    C1 7393   3.040   1.691   0.124  0.1205 -0.2362  0.1989
  494TMC3    C2 7394   3.148   1.624   0.175  0.5739  0.2811  0.0165
  494TMC3    C3 7395   3.247   1.580   0.091  0.0903  0.2943  1.0346
  494TMC3    C4 7396   3.024   1.721  17.737 -1.0075 -0.2502 -0.1448
  494TMC3    C5 7397   3.121   1.666  17.652 -0.1485  0.9408 -0.5082
  494TMC3    C6 7398   3.234   1.595  17.700  0.4205 -0.6766 -0.0472
  494TMC3     C 7399   2.964   1.765   0.215 -0.1872  1.1023 -0.0397
  494TMC3     O 7400   3.004   1.812   0.325 -0.2223 -0.1202  0.2623
  494TMC3     H 7401   3.174   1.647   0.278  1.2676 -0.1016 -0.0724
  494TMC3    H1 7402   2.947   1.786  17.697 -0.5024 -1.5036 -3.1087
  494TMC3    H2 7403   3.316   1.578  17.631  1.9977  1.7974  1.2351
  494TMC3    C7 7404   3.102   1.679  17.512 -0.7322 -0.3208  0.1516
  494TMC3    C8 7405   3.349   1.488   0.147  0.3891  0.2947  0.0320
  494TMC3    O1 7406   3.192   1.638  17.433 -0.2457 -0.8073 -0.6030
  494TMC3    O2 7407   3.409   1.426   0.065  0.1004  0.2305 -1.2362
  495TMC3    C1 7408   2.373   3.852  15.014 -0.4263  0.3541  0.1531
  495TMC3    C2 7409   2.304   3.881  14.900  0.2430  0.3157  0.4217
  495TMC3    C3 7410   2.167   3.908  14.904  0.1840  0.5028 -0.0188
  495TMC3    C4 7411   2.310   3.862  15.135 -0.5605 -0.0857  0.0877
  495TMC3    C5 7412   2.179   3.899  15.144 -0.0145  0.6967  0.6712
  495TMC3    C6 7413   2.102   3.921  15.024  0.5933 -0.3655 -0.0117
  495TMC3     C 7414   2.456   3.735  15.007  0.2010  0.6222 -0.6805
  495TMC3     O 7415   2.461   3.657  15.104  0.4718  0.0414  0.0829
  495TMC3     H 7416   2.351   3.876  14.802  1.4321 -1.2425  1.0634
  495TMC3    H1 7417   2.365   3.843  15.226  0.1994  0.7675 -0.1972
  495TMC3    H2 7418   1.995   3.943  15.022  1.0471  2.0330  2.2048
  495TMC3    C7 7419   2.109   3.859  15.266 -0.5504  0.2345 -0.3361
  495TMC3    C8 7420   2.091   3.823  14.821 -0.0485 -0.2141  0.1863
  495TMC3    O1 7421   2.166   3.886  15.369  0.1472  0.0044 -0.4524
  495TMC3    O2 7422   1.967   3.814  14.842  0.0906  0.2794  0.0935
  496MPD2     C 7423   0.009   3.832  15.782 -0.6045  0.8961 -0.6511
  496MPD2    C1 7424   4.696   3.710  15.745  0.2512  0.2484  0.7574
  496MPD2    C2 7425   4.610   3.636  15.825  0.7556 -0.4842  0.3944
  496MPD2    C3 7426   4.580   3.682  15.952  0.1795  0.0979  0.0223
  496MPD2    C4 7427   4.623   3.811  15.981  0.1011  0.1559  0.5085
  496MPD2    C5 7428   4.705   3.886  15.900  0.4228 -0.1757  0.5119
  496MPD2     H 7429   4.587   3.535  15.795  2.4153 -0.8510  0.3938
  496MPD2    H1 7430   4.609   3.849  16.082 -0.0347  1.2154  0.0889
  496MPD2    H2 7431   0.064   3.892  15.709 -0.2684  2.8401  1.1970
  496MPD2    H3 7432   4.734   3.986  15.933  1.7507 -0.3062 -0.2913
  496MPD2     N 7433   4.519   3.616  16.055  0.5087  0.4291  0.2966
  496MPD2    H5 7434   4.495   3.670  16.137  1.9869  2.4941 -0.6240
  496MPD2    N1 7435   0.011   3.652  15.631 -0.5034 -0.0041 -0.1817
  496MPD2    H7 7436   0.097   3.691  15.594 -0.6577  1.0137  0.5279
  497TMC3    C1 7437   4.367   3.463  16.140  0.9864 -0.2256  0.6777
  497TMC3    C2 7438   4.273   3.370  16.090 -0.4538  0.1335  1.1480
  497TMC3    C3 7439   4.169   3.333  16.177 -0.9834  0.2497 -0.7851
  497TMC3    C4 7440   4.361   3.517  16.263  0.1277 -0.0052 -0.1532
  497TMC3    C5 7441   4.264   3.467  16.347  0.2455  0.2983  0.4783
  497TMC3    C6 7442   4.178   3.368  16.305 -0.4296  0.7418  0.3857
  497TMC3     C 7443   4.474   3.490  16.045  0.5224  0.8963 -0.3448
  497TMC3     O 7444   4.494   3.405  15.959 -0.5902  0.2665  0.5779
  497TMC3     H 7445   4.280   3.345  15.985  1.9867 -0.3501  1.4301
  497TMC3    H1 7446   4.437   3.585  16.300  1.1101 -0.6010 -1.1110
  497TMC3    H2 7447   4.093   3.352  16.371  0.1565  0.6678  1.1102
  497TMC3    C7 7448   4.291   3.455  16.488 -0.7220  0.3056 -0.2671
  497TMC3    C8 7449   4.073   3.232  16.134  0.6943  0.1736  1.0136
  497TMC3    O1 7450   4.259   3.351  16.541  0.2913  0.2403  0.0093
  497TMC3    O2 7451   4.042   3.142  16.215  0.5038  0.3218 -0.2278
  498MPD2     C 7452   1.104   4.409   9.461  0.2949 -0.2108 -0.4740
  498MPD2    C1 7453   1.059   4.460   9.583  0.3596 -0.1865 -0.4939
  498MPD2    C2 7454   0.966   4.389   9.657 -0.6518  0.5968  0.4231
  498MPD2    C3 7455   0.926   4.260   9.615 -0.1252 -0.2767 -0.2757
  498MPD2    C4 7456   0.965   4.220   9.489 -0.2436 -0.1781  0.3258
  498MPD2    C5 7457   1.055   4.289   9.419  0.1482 -0.6673  1.2386
  498MPD2     H 7458   0.939   4.430   9.753  0.0592  1.5601  0.2091
  498MPD2    H1 7459   0.929   4.134   9.434  0.1521 -0.6027  0.7392
  498MPD2    H2 7460   1.175   4.466   9.401 -0.7215  0.5821 -0.9234
  498MPD2    H3 7461   1.088   4.260   9.320 -0.3927  1.4133  0.4530
  498MPD2     N 7462   0.857   4.178   9.697 -0.0021  0.0350 -0.1139
  498MPD2    H5 7463   0.852   4.218   9.790 -0.9072 -1.1098  0.3191
  498MPD2    N1 7464   1.088   4.593   9.623  0.1794  0.0199 -0.1126
  498MPD2    H7 7465   1.043   4.627   9.708  0.3201 -2.2355  0.8767
  499TMC3    C1 7466   1.178   0.064   9.632 -0.8540  0.3992 -0.0312
  499TMC3    C2 7467   1.232   0.050   9.752  0.0152 -0.6612 -0.2445
  499TMC3    C3 7468   1.286   0.166   9.799 -0.6151 -0.3973  0.7684
  499TMC3    C4 7469   1.198   0.165   9.548  0.6538 -0.0886  0.3277
  499TMC3    C5 7470   1.244   0.284   9.605  0.2267 -0.0423 -0.4069
  499TMC3    C6 7471   1.288   0.281   9.733  0.0199  0.5282  0.8311
  499TMC3     C 7472   1.165   4.683   9.553 -1.9805  0.6759  0.6963
  499TMC3     O 7473   1.210   4.683   9.439  0.2355  0.2171  0.6805
  499TMC3     H 7474   1.228   4.692   9.805 -0.2069 -0.9557 -0.7922
  499TMC3    H1 7475   1.153   0.167   9.450 -0.4479 -0.1244  0.8365
  499TMC3    H2 7476   1.320   0.372   9.781  1.0493  0.2789  0.6056
  499TMC3    C7 7477   1.222   0.417   9.549 -0.2419  0.0986  0.4264
  499TMC3    C8 7478   1.338   0.174   9.933  0.3693 -0.6391 -0.3413
  499TMC3    O1 7479   1.223   0.519   9.614  0.7101 -0.3449 -0.2028
  499TMC3    O2 7480   1.364   0.279   9.983 -0.2519  0.0827  0.7625
  500MPD2     C 7481   2.016   0.310  10.875  0.0303 -0.1650 -0.9651
  500MPD2    C1 7482   2.005   0.441  10.840  0.5419 -0.1892  0.5136
  500MPD2    C2 7483   1.957   0.487  10.717 -0.4302 -0.5501  0.1003
  500MPD2    C3 7484   1.900   0.391  10.631  0.3441  0.4935 -0.0545
  500MPD2    C4 7485   1.900   0.260  10.667 -0.0494  0.2580  0.0175
  500MPD2    C5 7486   1.965   0.215  10.780  1.0528 -0.8429 -0.8634
  500MPD2     H 7487   1.946   0.591  10.689  0.4917 -0.2193  0.9532
  500MPD2    H1 7488   1.861   0.187  10.597  2.4408  0.5497 -1.6819
  500MPD2    H2 7489   2.068   0.278  10.964 -0.3559  0.3040 -0.5742
  500MPD2    H3 7490   1.975   0.107  10.783  1.7259 -0.7847 -1.1093
  500MPD2     N 7491   1.827   0.427  10.519 -0.2824  0.2878  0.1728
  500MPD2    H5 7492   1.782   0.355  10.463  2.1163  0.3417 -1.7987
  500MPD2    N1 7493   2.058   0.545  10.927  0.0942 -0.7929 -0.0622
  500MPD2    H7 7494   2.050   0.636  10.884  1.1414  0.1480  1.7486
  501TMC3    C1 7495   2.152   0.657  11.111  0.4204 -0.7218  0.5215
  501TMC3    C2 7496   2.137   0.780  11.057  0.0044 -0.0556  0.3830
  501TMC3    C3 7497   2.199   0.887  11.114 -0.0116  0.2654 -0.0883
  501TMC3    C4 7498   2.215   0.645  11.233 -0.1409 -0.2504 -0.5462
  501TMC3    C5 7499   2.269   0.751  11.295 -0.2361 -0.6713  0.0665
  501TMC3    C6 7500   2.265   0.874  11.227 -0.5357 -0.6570 -0.0243
  501TMC3     C 7501   2.100   0.538  11.060 -0.3750  0.1622 -0.1145
  501TMC3     O 7502   2.086   0.444  11.139 -0.3315 -0.6262  0.1252
  501TMC3     H 7503   2.090   0.794  10.961  2.2395  2.2236 -0.3976
  501TMC3    H1 7504   2.223   0.545  11.275 -1.1391 -0.2512 -0.3694
  501TMC3    H2 7505   2.329   0.959  11.248 -1.5428  0.4201 -1.3468
  501TMC3    C7 7506   2.402   0.721  11.341  0.2435  0.0521 -0.4799
  501TMC3    C8 7507   2.241   0.994  11.024  0.1205 -0.1193 -0.5060
  501TMC3    O1 7508   2.448   0.616  11.306  0.8594  0.7592 -0.5428
  501TMC3    O2 7509   2.354   1.037  11.044 -0.1050 -0.2154  0.5466
  502TMC3    C1 7510   1.606   4.516  15.392 -0.9460  0.6585  0.8633
  502TMC3    C2 7511   1.553   4.623  15.331 -0.1285  0.1334  0.3415
  502TMC3    C3 7512   1.417   4.618  15.306  0.1035 -0.1426 -0.0775
  502TMC3    C4 7513   1.530   4.424  15.444 -0.2833  0.6790 -0.0223
  502TMC3    C5 7514   1.402   4.411  15.404  0.0414 -0.2979 -0.3989
  502TMC3    C6 7515   1.341   4.506  15.328  0.1165 -0.6575  0.1928
  502TMC3     C 7516   1.729   4.539  15.462 -0.0450  0.4588 -0.1303
  502TMC3     O 7517   1.797   4.632  15.417 -0.4253 -0.3323  0.5312
  502TMC3     H 7518   1.617   4.701  15.292 -1.1488  0.2567 -1.1108
  502TMC3    H1 7519   1.565   4.335  15.495 -2.0448 -0.3598 -0.6101
  502TMC3    H2 7520   1.244   4.494  15.282  1.1923  0.5191 -2.3716
  502TMC3    C7 7521   1.324   4.294  15.435  0.1851 -0.5992  0.0778
  502TMC3    C8 7522   1.360   4.728  15.232  0.7102 -0.0045  0.2291
  502TMC3    O1 7523   1.382   4.189  15.459  0.3284 -0.3847  0.0787
  502TMC3    O2 7524   1.433   0.087  15.210 -0.2478  0.3241  0.4501
  503MPD2     C 7525   3.790   0.099  16.955  0.3328 -0.0343 -0.7715
  503MPD2    C1 7526   3.796   0.157  17.080 -0.5003 -0.0545 -0.3196
  503MPD2    C2 7527   3.859   0.093  17.185 -0.1863 -0.5991  0.0514
  503MPD2    C3 7528   3.915   4.705  17.164 -0.6429 -0.7745  0.7738
  503MPD2    C4 7529   3.912   4.648  17.032 -0.0580 -0.2395 -0.7858
  503MPD2    C5 7530   3.851   4.716  16.935  0.4957 -0.4908  0.8083
  503MPD2     H 7531   3.866   0.147  17.279 -0.8526  1.8800 -1.3405
  503MPD2    H1 7532   3.959   4.553  17.010 -0.0804 -0.6138  0.7583
  503MPD2    H2 7533   3.743   0.148  16.870  0.8107 -1.5131 -1.8943
  503MPD2    H3 7534   3.854   4.667  16.838 -0.8569 -0.9141  0.9822
  503MPD2     N 7535   3.984   4.639  17.272 -0.2247 -0.1225 -0.0477
  503MPD2    H5 7536   3.973   4.681  17.363 -0.5308 -1.6507  0.6236
  503MPD2    N1 7537   3.751   0.287  17.103 -0.6027 -0.4876 -0.3233
  503MPD2    H7 7538   3.764   0.330  17.194 -1.7048 -0.1489 -0.3281
  504TMC3    C1 7539   4.093   4.471  17.380  0.0350  0.0483  0.2557
  504TMC3    C2 7540   3.986   4.439  17.463 -0.3458  0.5753  0.5306
  504TMC3    C3 7541   4.013   4.380  17.583 -0.3995  0.3428  0.1281
  504TMC3    C4 7542   4.222   4.442  17.407  0.0988  0.5054 -0.2979
  504TMC3    C5 7543   4.249   4.381  17.530  0.0735 -0.2733  0.3823
  504TMC3    C6 7544   4.138   4.353  17.614  0.2112 -0.0118  0.1168
  504TMC3     C 7545   4.072   4.533  17.259  0.0593  0.0765  0.4077
  504TMC3     O 7546   4.145   4.516  17.161  0.1568 -0.6259 -0.1257
  504TMC3     H 7547   3.881   4.462  17.445  0.3290  0.8731 -2.9493
  504TMC3    H1 7548   4.298   4.464  17.333  0.7170  1.3085  0.5718
  504TMC3    H2 7549   4.158   4.307  17.710  1.8749 -1.4035 -0.9090
  504TMC3    C7 7550   4.384   4.345  17.571  0.0745  0.7227  0.1128
  504TMC3    C8 7551   3.913   4.285  17.611 -0.0737  0.5447 -0.4532
  504TMC3    O1 7552   4.392   4.281  17.676  0.3111  0.7530 -0.4280
  504TMC3    O2 7553   3.851   4.238  17.517 -0.2949  0.3299 -0.2780
  505MPD2     C 7554   4.458   3.285  10.426  0.9442 -0.0896 -0.4420
  505MPD2    C1 7555   4.587   3.321  10.404  0.3660 -0.1337  0.3508
  505MPD2    C2 7556   4.631   3.451  10.429  0.3476 -0.1547 -0.4293
  505MPD2    C3 7557   4.536   3.536  10.489  0.5515  0.7149  0.3105
  505MPD2    C4 7558   4.408   3.497  10.531  0.4371  0.8654  0.1293
  505MPD2    C5 7559   4.374   3.370  10.505 -0.4936  0.1806 -0.4891
  505MPD2     H 7560   0.000   3.465  10.411  0.3910  2.3556  1.6125
  505MPD2    H1 7561   4.335   3.566  10.573  0.8824  2.1927 -1.2792
  505MPD2    H2 7562   4.415   3.189  10.400 -0.8737  1.1135 -1.8206
  505MPD2    H3 7563   4.273   3.331  10.520 -0.2720  1.0983  3.3883
  505MPD2     N 7564   4.568   3.660  10.539  0.3824  0.3043 -0.0914
  505MPD2    H5 7565   4.517   3.710  10.612  0.8490 -1.7229  1.6495
  505MPD2    N1 7566   4.681   3.217  10.365 -0.5416  0.0079 -0.0619
  505MPD2    H7 7567   4.649   3.121  10.360  0.5532 -0.4220  1.0789
  506TMC3    C1 7568   0.156   3.126  10.349  0.3217 -1.0030 -0.3967
  506TMC3    C2 7569   0.271   3.133  10.273  0.1039 -0.5633  0.4721
  506TMC3    C3 7570   0.375   3.057  10.320  0.2510  0.2045 -0.0796
  506TMC3    C4 7571   0.144   3.064  10.477 -0.0314 -0.4778  0.3930
  506TMC3    C5 7572   0.260   3.011  10.517 -0.1797  0.6078 -0.1521
  506TMC3    C6 7573   0.369   2.992  10.438  0.0168  0.1893  0.7394
  506TMC3     C 7574   0.078   3.237  10.331 -0.6668  0.3353 -0.3809
  506TMC3     O 7575   0.138   3.333  10.291  0.5763  0.3225  0.6585
  506TMC3     H 7576   0.279   3.181  10.176 -1.8821 -0.5602  0.3078
  506TMC3    H1 7577   0.048   3.068  10.527  0.0965 -1.1830  0.7070
  506TMC3    H2 7578   0.434   2.913  10.472 -2.3135 -2.6714 -1.4545
  506TMC3    C7 7579   0.291   3.100  10.630  0.8596 -0.0209  0.3669
  506TMC3    C8 7580   0.513   3.078  10.286  0.3186 -0.0431  0.6055
  506TMC3    O1 7581   0.195   3.147  10.690 -0.1113  0.0241  0.8963
  506TMC3    O2 7582   0.599   3.010  10.340  0.5412 -0.5478  0.5832
  507TMC3    C1 7583   4.469   4.509  15.384 -1.1360  0.2905  1.0153
  507TMC3    C2 7584   4.399   4.399  15.341  0.1872  0.5475  0.1515
  507TMC3    C3 7585   4.460   4.306  15.262 -0.5625  0.2108 -0.2482
  507TMC3    C4 7586   4.601   4.531  15.350 -0.0354  0.0092 -0.2882
  507TMC3    C5 7587   4.659   4.430  15.279  0.1652  0.3555  0.0207
  507TMC3    C6 7588   4.590   4.315  15.240  0.7382 -0.1064 -0.5219
  507TMC3     C 7589   4.402   4.608  15.465 -0.3197 -0.0731 -0.5093
  507TMC3     O 7590   4.279   4.615  15.466 -0.4702 -0.4522  0.3908
  507TMC3     H 7591   4.295   4.401  15.370  0.5967  3.7113  1.4741
  507TMC3    H1 7592   4.624   4.637  15.349 -0.3180  0.0888  1.4680
  507TMC3    H2 7593   4.644   4.231  15.197  1.7175  0.8818 -1.2362
  507TMC3    C7 7594   4.733   4.476  15.157  0.7291  0.2904 -0.1095
  507TMC3    C8 7595   4.386   4.257  15.148 -0.1298 -0.0819 -0.1009
  507TMC3    O1 7596   4.714   4.407  15.058 -0.1726  0.2124 -0.2345
  507TMC3    O2 7597   4.267   4.247  15.166  0.7104 -0.5003 -0.1529
  508MPD2     C 7598   0.474   2.673  16.315  0.8302 -0.3344 -0.4570
  508MPD2    C1 7599   0.594   2.695  16.253  0.2681 -0.8951  0.5499
  508MPD2    C2 7600   0.610   2.677  16.117  0.2315  0.1503 -0.0028
  508MPD2    C3 7601   0.504   2.623  16.038 -0.4122 -0.1602 -0.5289
  508MPD2    C4 7602   0.385   2.606  16.104 -0.0607 -0.1766 -0.1643
  508MPD2    C5 7603   0.367   2.627  16.240  0.3045 -0.2186 -0.0121
  508MPD2     H 7604   0.704   2.696  16.067 -0.2904 -0.9382 -1.4033
  508MPD2    H1 7605   0.298   2.564  16.054 -0.3431 -0.4137  0.5234
  508MPD2    H2 7606   0.463   2.686  16.422  0.5992  3.2408 -0.9269
  508MPD2    H3 7607   0.274   2.610  16.292  1.1253 -2.8382  0.5923
  508MPD2     N 7608   0.531   2.587  15.902 -0.2244 -0.1669 -0.2762
  508MPD2    H5 7609   0.622   2.614  15.864 -0.2700  0.1067 -0.1921
  508MPD2    N1 7610   0.696   2.727  16.345  0.2172 -0.1456 -0.3604
  508MPD2    H7 7611   0.668   2.722  16.442 -2.1836  0.2310 -1.0307
  509TMC3    C1 7612   0.480   2.577  15.458 -0.4989 -0.2623  0.2364
  509TMC3    C2 7613   0.620   2.578  15.453 -0.7212 -0.1899  0.2899
  509TMC3    C3 7614   0.689   2.514  15.548  0.5912 -0.1633 -0.0038
  509TMC3    C4 7615   0.417   2.557  15.574 -0.0193 -0.0652  0.8621
  509TMC3    C5 7616   0.492   2.514  15.677 -0.0878  0.2718  0.4966
  509TMC3    C6 7617   0.620   2.482  15.665  0.2360 -0.0927 -0.3494
  509TMC3     C 7618   0.406   2.668  15.378 -1.1226 -0.3116 -0.2862
  509TMC3     O 7619   0.290   2.641  15.358  0.0435 -0.5598 -0.0497
  509TMC3     H 7620   0.679   2.597  15.364 -1.1941  1.2327  0.2803
  509TMC3    H1 7621   0.310   2.574  15.582  0.0124  1.4460 -1.8953
  509TMC3    H2 7622   0.667   2.413  15.735 -0.0980 -1.2785 -1.3097
  509TMC3    C7 7623   0.440   2.537  15.814  0.5943  1.1026 -0.4031
  509TMC3    C8 7624   0.835   2.504  15.558 -0.7630 -0.2848  0.5937
  509TMC3    O1 7625   0.325   2.513  15.836  0.2729 -0.4574 -0.2117
  509TMC3    O2 7626   0.886   2.400  15.610  0.2310  0.1082 -0.3143
  510MPD2     C 7627   3.748   4.128  14.541  0.4884  0.6511  0.2319
  510MPD2    C1 7628   3.810   4.009  14.577 -0.4246 -0.1951  0.0801
  510MPD2    C2 7629   3.913   3.952  14.504  0.0533  0.3709  0.1673
  510MPD2    C3 7630   3.958   4.028  14.395  0.2577  0.8117  0.0013
  510MPD2    C4 7631   3.900   4.151  14.357  0.3261 -0.2241 -0.3182
  510MPD2    C5 7632   3.794   4.204  14.435 -0.3333 -0.3686 -0.3524
  510MPD2     H 7633   3.961   3.868  14.552 -3.2457 -0.9792  1.0992
  510MPD2    H1 7634   3.938   4.210  14.274  0.6523 -0.0977 -0.0751
  510MPD2    H2 7635   3.652   4.160  14.579  0.2369  2.1454 -1.7026
  510MPD2    H3 7636   3.752   4.298  14.401  0.5772  0.2963  0.3880
  510MPD2     N 7637   4.083   3.986  14.326 -0.3725  0.7615  0.1226
  510MPD2    H5 7638   4.128   3.900  14.354 -0.6831 -0.7455 -4.0219
  510MPD2    N1 7639   3.766   3.933  14.690  0.6481 -0.0890  0.5314
  510MPD2    H7 7640   3.811   3.843  14.699  0.0853 -0.1885  2.3383
  511TMC3    C1 7641   3.625   3.877  14.876 -0.5083  0.1438  0.5031
  511TMC3    C2 7642   3.511   3.913  14.957 -0.1019 -0.0880  0.8806
  511TMC3    C3 7643   3.482   3.831  15.065 -0.6293  0.2131  0.0641
  511TMC3    C4 7644   3.691   3.755  14.902  0.2191  0.1642  0.8893
  511TMC3    C5 7645   3.659   3.687  15.018  0.5759 -0.6514  0.0132
  511TMC3    C6 7646   3.553   3.717  15.098  0.4738  0.4573 -0.0671
  511TMC3     C 7647   3.668   3.978  14.774 -0.6713  0.0526 -0.7504
  511TMC3     O 7648   3.593   4.073  14.774  0.0153  0.3128  0.1147
  511TMC3     H 7649   3.461   4.009  14.947  0.5848  0.1121 -0.6578
  511TMC3    H1 7650   3.783   3.725  14.853 -0.8080 -0.2130 -0.8216
  511TMC3    H2 7651   3.528   3.659  15.187  1.0680 -0.9519 -0.8168
  511TMC3    C7 7652   3.730   3.560  15.047 -0.4309 -0.3241  0.0622
  511TMC3    C8 7653   3.366   3.860  15.151  0.0298 -0.1911 -0.8955
  511TMC3    O1 7654   3.853   3.560  15.022 -0.2749 -0.8055  0.0367
  511TMC3    O2 7655   3.333   3.979  15.149  0.6466  0.0584  0.2493
  512TMC3    C1 7656   2.621   3.072  13.296 -0.0419 -0.3593  0.3187
  512TMC3    C2 7657   2.729   3.089  13.387  0.1907 -0.0758 -0.1658
  512TMC3    C3 7658   2.850   3.027  13.361 -0.4175  0.3455 -0.3031
  512TMC3    C4 7659   2.640   3.006  13.180 -0.5073 -0.6652  0.0367
  512TMC3    C5 7660   2.758   2.941  13.171 -0.5731 -0.8753 -0.2909
  512TMC3    C6 7661   2.871   2.949  13.252 -0.1900 -0.2477 -0.3540
  512TMC3     C 7662   2.490   3.140  13.312  0.6011 -0.8160  0.6622
  512TMC3     O 7663   2.405   3.113  13.225  0.6851 -0.9206 -0.0389
  512TMC3     H 7664   2.712   3.157  13.470 -1.6240  0.4649 -0.9953
  512TMC3    H1 7665   2.565   2.997  13.102  0.3487 -1.1990 -0.7163
  512TMC3    H2 7666   2.965   2.900  13.230 -1.1948 -1.6500 -1.5318
  512TMC3    C7 7667   2.783   2.895  13.039 -0.0598 -0.3173  0.0069
  512TMC3    C8 7668   2.962   3.042  13.453 -0.1997  0.7930 -0.4491
  512TMC3    O1 7669   2.740   2.957  12.948  0.7914 -0.5298  0.3693
  512TMC3    O2 7670   3.032   2.942  13.478  0.0431  0.3810  0.2032
  513MPD2     C 7671   0.039   4.211  12.666 -0.0113 -0.0106  0.1084
  513MPD2    C1 7672   4.668   4.125  12.661  0.4852  0.3040  0.1510
  513MPD2    C2 7673   4.650   4.038  12.765  0.1563  0.0351 -0.6061
  513MPD2    C3 7674   4.732   4.043  12.877  0.0050 -0.4503 -0.6273
  513MPD2    C4 7675   0.101   4.129  12.884 -0.3965 -0.1795  0.6026
  513MPD2    C5 7676   0.125   4.217  12.774 -0.3789  0.7181  0.0633
  513MPD2     H 7677   4.564   3.971  12.763 -0.1744  0.4897 -2.0440
  513MPD2    H1 7678   0.168   4.136  12.969  1.3507  0.6938 -0.8367
  513MPD2    H2 7679   0.055   4.286  12.589  1.6836  0.8143  1.2389
  513MPD2    H3 7680   0.207   4.288  12.766 -1.4109  1.6991 -1.8158
  513MPD2     N 7681   4.717   3.939  12.977  0.1938  0.0780 -0.2857
  513MPD2    H5 7682   4.643   3.873  12.957  0.5029 -1.1181  2.5038
  513MPD2    N1 7683   4.589   4.121  12.544 -0.4421  0.0235 -0.2804
  513MPD2    H7 7684   4.596   4.187  12.467 -2.6766  0.3465 -0.2138
  514TMC3    C1 7685   4.448   4.035  12.375 -0.4036 -0.6225 -0.9500
  514TMC3    C2 7686   4.551   4.072  12.287  0.0254 -0.5169  0.0802
  514TMC3    C3 7687   4.559   4.010  12.171  0.1341  0.8886 -0.3383
  514TMC3    C4 7688   4.373   3.926  12.353 -0.1446  0.1071 -0.3550
  514TMC3    C5 7689   4.385   3.860  12.240 -0.2376 -0.0659  0.7407
  514TMC3    C6 7690   4.477   3.904  12.146 -0.1558  0.0336 -0.1788
  514TMC3     C 7691   4.485   4.036  12.519  0.0411 -0.1834  0.5075
  514TMC3     O 7692   4.457   3.931  12.581 -0.3345  0.6410  0.0748
  514TMC3     H 7693   4.606   4.164  12.303  0.3089 -0.5611 -0.6088
  514TMC3    H1 7694   4.303   3.895  12.430 -0.4702  2.5549  0.3496
  514TMC3    H2 7695   4.496   3.854  12.052  1.9898  0.0783  0.2376
  514TMC3    C7 7696   4.423   3.720  12.275 -0.9831 -0.2545  0.0767
  514TMC3    C8 7697   4.612   4.094  12.068 -0.1990 -0.7751  0.4390
  514TMC3    O1 7698   4.427   3.634  12.188 -0.0167  0.4167 -0.9425
  514TMC3    O2 7699   4.601   4.216  12.085  0.1541  0.1252  0.5492
  515MPD2     C 7700   2.580   0.450  14.475  0.4325  0.1636  0.0276
  515MPD2    C1 7701   2.540   0.415  14.599 -0.1153 -0.7208  0.0184
  515MPD2    C2 7702   2.626   0.431  14.712  0.2620 -0.3850 -0.5443
  515MPD2    C3 7703   2.753   0.480  14.684 -0.0311  1.3419  1.4608
  515MPD2    C4 7704   2.798   0.510  14.554  0.6870  0.5540 -0.0450
  515MPD2    C5 7705   2.709   0.496  14.450 -0.2079 -0.2753 -0.1584
  515MPD2     H 7706   2.597   0.396  14.811  0.2575  0.7870 -0.1395
  515MPD2    H1 7707   2.894   0.558  14.539  0.4904  0.5817 -1.2264
  515MPD2    H2 7708   2.511   0.443  14.391 -0.2602  1.1235  0.5146
  515MPD2    H3 7709   2.736   0.506  14.345  0.3964  1.5841  0.1872
  515MPD2     N 7710   2.838   0.490  14.791 -0.6753  0.2470  0.0143
  515MPD2    H5 7711   2.936   0.500  14.767 -0.3737  1.0255  1.5852
  515MPD2    N1 7712   2.409   0.364  14.609 -0.7469 -0.4995 -0.0303
  515MPD2    H7 7713   2.353   0.378  14.526  2.0107 -1.7606 -2.1210
  516TMC3    C1 7714   2.227   0.235  14.680 -0.2919  0.3028 -0.1714
  516TMC3    C2 7715   2.203   0.181  14.556  0.6709 -0.1528 -0.9163
  516TMC3    C3 7716   2.078   0.123  14.531  0.0131  0.4521 -0.2806
  516TMC3    C4 7717   2.134   0.214  14.777  0.1054 -0.2976  0.3551
  516TMC3    C5 7718   2.014   0.152  14.749 -0.5958  0.4899  0.9611
  516TMC3    C6 7719   1.984   0.100  14.624  0.4020 -0.7301 -0.5776
  516TMC3     C 7720   2.344   0.308  14.715  0.6972  0.3316 -0.1488
  516TMC3     O 7721   2.393   0.295  14.828 -0.3783 -0.3390 -0.0579
  516TMC3     H 7722   2.284   0.178  14.484  0.9789  0.6047 -0.5957
  516TMC3    H1 7723   2.172   0.233  14.877  1.2498 -0.5178 -0.0420
  516TMC3    H2 7724   1.889   0.051  14.607 -0.5232  0.7483  0.3477
  516TMC3    C7 7725   1.964   0.079  14.858  0.6699  0.7722  0.1297
  516TMC3    C8 7726   2.073   0.038  14.416 -0.5585  0.0836  0.4121
  516TMC3    O1 7727   2.035   0.065  14.959 -0.5625 -0.1519  0.2187
  516TMC3    O2 7728   1.963   0.007  14.375  0.3281 -0.2530 -0.0278
  517MPD2     C 7729   1.995   1.778  17.538 -0.1984 -0.0304 -0.4523
  517MPD2    C1 7730   2.107   1.751  17.601  0.2552 -0.0523  0.5847
  517MPD2    C2 7731   2.149   1.850  17.689 -0.6629 -1.1040 -0.9069
  517MPD2    C3 7732   2.073   1.963  17.726  0.0574 -0.2072 -0.0172
  517MPD2    C4 7733   1.951   1.977  17.661  0.3984 -0.1849 -0.1232
  517MPD2    C5 7734   1.919   1.891  17.564 -0.3919  0.3577  0.2005
  517MPD2     H 7735   2.245   1.830  17.735 -1.2324 -0.7149  0.4515
  517MPD2    H1 7736   1.904   2.074  17.679 -1.3134 -0.9853 -0.2622
  517MPD2    H2 7737   1.962   1.711  17.459  2.3956  0.5584 -2.0474
  517MPD2    H3 7738   1.822   1.913  17.520 -0.3573  1.2289  0.5606
  517MPD2     N 7739   2.112   2.064   0.068 -0.4660  0.2385  0.1726
  517MPD2    H5 7740   2.035   2.120   0.102  0.3995  1.3153  0.3331
  517MPD2    N1 7741   2.168   1.623  17.602 -0.2007 -0.1002  0.4134
  517MPD2    H7 7742   2.258   1.604  17.646  0.0386  0.2265  0.0613
  518TMC3    C1 7743   2.218   1.413  17.513 -0.1875  0.2945 -0.2059
  518TMC3    C2 7744   2.173   1.284  17.501 -0.1492  0.4085 -0.3047
  518TMC3    C3 7745   2.259   1.187  17.459 -0.3298 -0.0817  0.0889
  518TMC3    C4 7746   2.345   1.455  17.480  1.3207 -0.3836 -0.1142
  518TMC3    C5 7747   2.422   1.357  17.428  0.7687 -0.1922  0.1028
  518TMC3    C6 7748   2.381   1.221  17.412 -0.3409  0.5632  0.4791
  518TMC3     C 7749   2.112   1.508  17.545  0.5044  0.1984 -0.1919
  518TMC3     O 7750   1.994   1.490  17.512  0.0986 -0.2083  0.1199
  518TMC3     H 7751   2.070   1.264  17.525 -0.2767  2.4460  0.7986
  518TMC3    H1 7752   2.371   1.560  17.488 -1.0692 -0.0213  2.7193
  518TMC3    H2 7753   2.434   1.143  17.359 -0.2083  0.6141  0.5355
  518TMC3    C7 7754   2.558   1.390  17.411 -0.1007  0.0481  0.1558
  518TMC3    C8 7755   2.221   1.046  17.459  0.4744  0.0871 -0.5424
  518TMC3    O1 7756   2.594   1.504  17.413  0.7377 -0.3551 -0.4477
  518TMC3    O2 7757   2.281   0.959  17.395 -0.1383  0.6553  0.3427
  519MPD2     C 7758   3.849   4.550  14.457 -0.8024  0.5301  0.6005
  519MPD2    C1 7759   3.829   4.615  14.336 -0.1170 -0.8316  0.0833
  519MPD2    C2 7760   3.911   4.592  14.237  0.2247  0.1205  0.6857
  519MPD2    C3 7761   4.021   4.506  14.249 -0.4794  0.4142 -0.3103
  519MPD2    C4 7762   4.040   4.442  14.370  0.3632 -0.2618 -0.0523
  519MPD2    C5 7763   3.955   4.471  14.477  0.2535  0.2226  0.6352
  519MPD2     H 7764   3.885   4.644  14.145  2.4510  2.0287  1.1267
  519MPD2    H1 7765   4.123   4.372  14.378  1.0409  0.6589  0.9429
  519MPD2    H2 7766   3.767   4.555  14.527 -1.0918  1.0422  0.2279
  519MPD2    H3 7767   3.977   4.432  14.576  1.5794  3.5363  1.6509
  519MPD2     N 7768   4.100   4.472  14.134 -0.1053 -0.1085 -0.6943
  519MPD2    H5 7769   4.169   4.398  14.143  0.2032  0.0057 -2.1666
  519MPD2    N1 7770   3.698   4.668  14.306  0.0314  0.0698  0.3588
  519MPD2    H7 7771   3.627   4.663  14.379  0.0545  1.1009  0.4486
  520TMC3    C1 7772   4.160   4.455  13.913 -0.2845 -0.1328 -0.8023
  520TMC3    C2 7773   4.108   4.474  13.789  0.1435  0.2875  0.0217
  520TMC3    C3 7774   4.159   4.401  13.694  0.0072 -0.3616  0.2345
  520TMC3    C4 7775   4.253   4.367  13.950 -0.5806 -0.3852 -0.1652
  520TMC3    C5 7776   4.308   4.292  13.850 -1.5186 -0.4003  0.4281
  520TMC3    C6 7777   4.257   4.304  13.722  0.4468 -0.1054 -0.6009
  520TMC3     C 7778   4.085   4.518  14.009  0.0619 -0.1167  0.3231
  520TMC3     O 7779   4.021   4.618  13.977 -0.1173  0.1812 -0.3784
  520TMC3     H 7780   4.039   4.555  13.768  0.7169  0.2819 -1.8726
  520TMC3    H1 7781   4.284   4.349  14.052 -0.3938 -1.2019 -0.3698
  520TMC3    H2 7782   4.299   4.251  13.637 -0.8360 -0.0956 -1.2375
  520TMC3    C7 7783   4.411   4.199  13.893  0.1573 -0.2374 -0.0525
  520TMC3    C8 7784   4.109   4.404  13.559 -0.1137 -0.1439  0.8892
  520TMC3    O1 7785   4.442   4.204  14.011  0.3884 -0.6900 -0.1712
  520TMC3    O2 7786   4.168   4.345  13.472  0.4968  0.1159 -0.1307
  521MPD2     C 7787   4.603   2.750  17.726 -0.2600  0.2237 -0.1218
  521MPD2    C1 7788   4.574   2.760  17.593 -0.0381  0.2394 -0.1286
  521MPD2    C2 7789   4.654   2.839  17.513 -0.3714  0.4291  0.7417
  521MPD2    C3 7790   0.036   2.890  17.558 -0.5233 -0.3565  0.4821
  521MPD2    C4 7791   0.070   2.870  17.687 -0.0182 -0.3464  0.4634
  521MPD2    C5 7792   4.723   2.809   0.025 -1.0200  0.0101 -0.3275
  521MPD2     H 7793   4.620   2.859  17.412  1.5834 -3.2143 -0.6380
  521MPD2    H1 7794   0.163   2.910  17.728  1.6517 -2.3680 -1.3464
  521MPD2    H2 7795   4.543   2.694   0.052  1.6892 -2.1160 -0.3013
  521MPD2    H3 7796   0.015   2.785   0.127 -0.9308 -0.9451 -0.5792
  521MPD2     N 7797   0.120   2.976  17.485 -0.2434 -0.0148 -0.2471
  521MPD2    H5 7798   0.209   2.993  17.531 -2.0140  2.9912  2.1389
  521MPD2    N1 7799   4.461   2.685  17.549  0.0110  0.2490  0.6152
  521MPD2    H7 7800   4.418   2.623  17.617  0.4709 -0.6778  0.0526
  522TMC3    C1 7801   0.223   3.057  17.285 -0.0277  0.1986 -0.9671
  522TMC3    C2 7802   0.349   3.056  17.348 -0.2303  0.4787  0.3274
  522TMC3    C3 7803   0.455   3.099  17.282 -0.3435 -0.0113 -0.3786
  522TMC3    C4 7804   0.206   3.097  17.153 -0.0056  0.5376  0.4180
  522TMC3    C5 7805   0.324   3.147  17.090  0.3001 -0.3852  0.0378
  522TMC3    C6 7806   0.448   3.132  17.145  0.7976  0.7938  0.2630
  522TMC3     C 7807   0.106   3.002  17.349 -0.3465 -0.2705 -0.4409
  522TMC3     O 7808   0.011   2.988  17.276  0.3313 -0.1737  1.1086
  522TMC3     H 7809   0.367   3.021  17.449 -1.1515  2.8104  1.3157
  522TMC3    H1 7810   0.116   3.076  17.096  0.1326  0.5491  0.1959
  522TMC3    H2 7811   0.535   3.168  17.092 -0.5543  1.2506 -1.6353
  522TMC3    C7 7812   0.345   3.090  16.957  0.2374  0.5360 -0.3324
  522TMC3    C8 7813   0.580   3.038  17.319 -0.2909 -0.0021 -0.3596
  522TMC3    O1 7814   0.438   3.008  16.958  0.4788  0.3574  0.1126
  522TMC3    O2 7815   0.603   3.022  17.438  0.3241 -0.2927 -0.0513
  523MPD2     C 7816   2.892   3.193  10.512 -0.0858 -0.0646 -0.7574
  523MPD2    C1 7817   2.864   3.091  10.418  0.0185  1.3317 -0.0123
  523MPD2    C2 7818   2.768   3.121  10.325  0.0910  0.6123  0.5742
  523MPD2    C3 7819   2.700   3.237  10.313 -0.2818 -0.0304  0.0270
  523MPD2    C4 7820   2.736   3.335  10.403  0.2135  0.4568  0.7391
  523MPD2    C5 7821   2.826   3.312  10.506 -0.7068 -0.1599 -0.0329
  523MPD2     H 7822   2.729   3.029  10.282  3.6604 -0.2715 -0.7507
  523MPD2    H1 7823   2.681   3.428  10.403  2.7514  1.9655  2.5635
  523MPD2    H2 7824   2.968   3.189  10.589  0.4268  2.1733 -1.1396
  523MPD2    H3 7825   2.856   3.395  10.570  0.1620 -1.4307  1.2197
  523MPD2     N 7826   2.607   3.268  10.215 -0.0224 -0.3703  0.0208
  523MPD2    H5 7827   2.588   3.368  10.208 -0.5086 -0.3545  1.6027
  523MPD2    N1 7828   2.928   2.964  10.424  1.2896 -0.4959 -0.0196
  523MPD2    H7 7829   2.988   2.950  10.505  0.7358 -1.8213  0.1588
  524TMC3    C1 7830   2.438   3.248  10.048  0.0844  0.0590  0.6917
  524TMC3    C2 7831   2.386   3.170   9.949  0.5966  0.0234 -0.2034
  524TMC3    C3 7832   2.310   3.222   9.854 -0.2717  0.3385  0.2616
  524TMC3    C4 7833   2.391   3.376  10.068  0.6551  0.5531 -0.4357
  524TMC3    C5 7834   2.309   3.423   9.965  0.5169  0.0283 -0.3318
  524TMC3    C6 7835   2.276   3.354   9.855  0.3092  0.6505  0.2854
  524TMC3     C 7836   2.540   3.181  10.131  0.5594 -0.3499  0.5760
  524TMC3     O 7837   2.549   3.055  10.123 -0.1065  0.6545 -0.3890
  524TMC3     H 7838   2.428   3.070   9.942  1.2849  0.3869 -1.1121
  524TMC3    H1 7839   2.421   3.437  10.153  0.1656  1.4136 -0.8834
  524TMC3    H2 7840   2.222   3.404   9.776 -1.7760  0.4155  1.5752
  524TMC3    C7 7841   2.235   3.542  10.003  0.4555  0.6308  0.5798
  524TMC3    C8 7842   2.292   3.142   9.730 -0.2623  0.1483  0.1534
  524TMC3    O1 7843   2.220   3.555  10.123  0.0496  0.0815 -0.3102
  524TMC3    O2 7844   2.268   3.210   9.625  0.7593  0.3608 -0.0518
  525MPD2     C 7845   0.191   4.271  14.336  0.0036  0.1366 -1.1254
  525MPD2    C1 7846   0.312   4.320  14.380  0.4548 -0.1494 -0.4056
  525MPD2    C2 7847   0.346   4.448  14.330 -0.0185  1.0937  0.6376
  525MPD2    C3 7848   0.267   4.523  14.245  0.4645 -0.0702 -0.1577
  525MPD2    C4 7849   0.153   4.464  14.202  0.4158 -0.3198 -0.0967
  525MPD2    C5 7850   0.118   4.338  14.247  0.7856 -0.3035  0.0494
  525MPD2     H 7851   0.440   4.489  14.363  0.5174  0.6023 -0.2873
  525MPD2    H1 7852   0.086   4.516  14.135  2.3076  0.2098 -1.5980
  525MPD2    H2 7853   0.157   4.170  14.354 -3.5003  1.3270 -1.0915
  525MPD2    H3 7854   0.025   4.300  14.204 -0.0584 -1.6450  3.0164
  525MPD2     N 7855   0.295   4.662  14.223  0.3148 -0.3572  0.9809
  525MPD2    H5 7856   0.219   4.725  14.199  2.3206  2.1820  1.3520
  525MPD2    N1 7857   0.404   4.247  14.457 -0.1848  0.2265  1.0795
  525MPD2    H7 7858   0.491   4.295  14.478  0.2467  0.9318 -2.2605
  526TMC3    C1 7859   0.481   4.083  14.598 -0.2641 -0.0000  0.7958
  526TMC3    C2 7860   0.462   4.008  14.713  0.9699 -0.5635  1.0914
  526TMC3    C3 7861   0.566   3.924  14.762  0.1750 -0.5015 -0.8497
  526TMC3    C4 7862   0.602   4.069  14.538 -0.1848 -0.4319  0.1738
  526TMC3    C5 7863   0.699   3.980  14.580 -0.2082 -0.0238 -0.6020
  526TMC3    C6 7864   0.690   3.905  14.691 -0.2282  0.1853 -0.4208
  526TMC3     C 7865   0.370   4.143  14.533 -0.1974  0.2131 -0.2375
  526TMC3     O 7866   0.262   4.089  14.550 -0.7672  0.3172 -0.0925
  526TMC3     H 7867   0.363   4.008  14.756  0.1285 -1.8894 -0.8284
  526TMC3    H1 7868   0.623   4.130  14.451 -0.2548 -0.8992 -0.1718
  526TMC3    H2 7869   0.755   3.825  14.725 -0.7834  0.8704  2.2661
  526TMC3    C7 7870   0.806   3.963  14.481  0.8556  0.7578 -0.6421
  526TMC3    C8 7871   0.545   3.857  14.887  0.3897  0.1732  0.0034
  526TMC3    O1 7872   0.788   4.023  14.374  0.4773 -0.4702 -0.1082
  526TMC3    O2 7873   0.631   3.866  14.972  0.6115  0.1869  0.6475
  527MPD2     C 7874   2.935   1.949   1.249  0.3719 -0.9236  0.0798
  527MPD2    C1 7875   2.872   2.001   1.138  0.5973 -0.4784  0.0769
  527MPD2    C2 7876   2.949   2.047   1.041  0.4019  0.3875  0.2575
  527MPD2    C3 7877   3.091   2.045   1.051 -0.7690  0.0065 -0.1672
  527MPD2    C4 7878   3.153   2.007   1.173 -0.3759 -0.2880  0.6603
  527MPD2    C5 7879   3.072   1.959   1.271 -0.3165 -0.1832  0.0745
  527MPD2     H 7880   2.905   2.098   0.956  1.8510 -0.9461 -1.2942
  527MPD2    H1 7881   3.258   1.998   1.196 -0.0011 -1.3162 -1.4160
  527MPD2    H2 7882   2.873   1.899   1.322  1.4041 -0.3541  1.3292
  527MPD2    H3 7883   3.114   1.913   1.360  0.9961  1.5344  0.3315
  527MPD2     N 7884   3.172   2.086   0.941  0.4001  0.6827 -0.3236
  527MPD2    H5 7885   3.130   2.110   0.852  0.5495 -0.6593 -0.7592
  527MPD2    N1 7886   2.735   2.002   1.119 -0.3760  0.4834  0.4151
  527MPD2    H7 7887   2.701   2.053   1.038  1.0208  0.1905 -0.3484
  528TMC3    C1 7888   2.507   1.951   1.147  0.1883 -0.2496  0.4959
  528TMC3    C2 7889   2.467   2.069   1.087 -0.0962 -0.6256 -0.2209
  528TMC3    C3 7890   2.332   2.087   1.058 -0.1274 -0.0353 -0.1525
  528TMC3    C4 7891   2.411   1.858   1.181  0.9060 -0.0944  0.7224
  528TMC3    C5 7892   2.278   1.884   1.161  0.1917 -0.0274  0.5333
  528TMC3    C6 7893   2.237   1.996   1.087  0.0233  0.7217 -0.0664
  528TMC3     C 7894   2.641   1.932   1.194 -0.2047 -0.0108 -0.1555
  528TMC3     O 7895   2.668   1.834   1.262 -0.1507 -0.1992 -0.2941
  528TMC3     H 7896   2.537   2.148   1.062  1.0176 -2.2620 -2.2581
  528TMC3    H1 7897   2.437   1.761   1.220 -0.2718 -0.4641  0.5865
  528TMC3    H2 7898   2.132   2.006   1.063  0.1427  0.9991 -0.4734
  528TMC3    C7 7899   2.172   1.811   1.215  0.1594  0.3442  0.0453
  528TMC3    C8 7900   2.304   2.199   0.972  0.0736 -0.2771 -0.1294
  528TMC3    O1 7901   2.066   1.822   1.160 -0.0334 -0.0828  0.0084
  528TMC3    O2 7902   2.392   2.228   0.892 -0.9139  0.1858 -0.1963
  529MPD2     C 7903   0.071   0.582   0.791 -0.4727  0.2439  0.0095
  529MPD2    C1 7904   0.202   0.547   0.779 -0.0858 -0.4497  0.0991
  529MPD2    C2 7905   0.272   0.614   0.684  0.2676  0.2391 -0.3731
  529MPD2    C3 7906   0.213   0.714   0.608 -0.4711 -0.5542 -0.2284
  529MPD2    C4 7907   0.087   0.759   0.638 -0.1283 -0.5375 -0.4671
  529MPD2    C5 7908   0.011   0.685   0.722  0.4076 -0.2100  0.2510
  529MPD2     H 7909   0.372   0.577   0.665  0.2153 -0.4449  0.6689
  529MPD2    H1 7910   0.039   0.846   0.596  0.7575 -0.8212 -2.0668
  529MPD2    H2 7911   0.015   0.520   0.860 -1.6168 -0.6135 -1.7094
  529MPD2    H3 7912   4.648   0.713   0.752 -0.1348 -2.3979  0.4764
  529MPD2     N 7913   0.284   0.783   0.505  0.1058 -0.2515 -1.0931
  529MPD2    H5 7914   0.243   0.857   0.449  1.4767  0.5437 -1.0489
  529MPD2    N1 7915   0.265   0.445   0.851  0.1928  0.5935  0.4153
  529MPD2    H7 7916   0.347   0.404   0.808  0.3126  1.7301 -0.4396
  530TMC3    C1 7917   0.311   0.284   1.020  0.7029 -0.6225 -0.3390
  530TMC3    C2 7918   0.450   0.295   1.004  0.4794  0.4917  0.0070
  530TMC3    C3 7919   0.526   0.195   1.057  0.2192  0.3396  0.0269
  530TMC3    C4 7920   0.263   0.187   1.101 -0.3968 -0.8118 -0.2567
  530TMC3    C5 7921   0.345   0.085   1.130  0.1801  0.3559 -0.3067
  530TMC3    C6 7922   0.478   0.075   1.109  0.8893 -0.8103 -0.4292
  530TMC3     C 7923   0.225   0.396   0.972 -0.1787  0.7128 -0.3291
  530TMC3     O 7924   0.121   0.423   1.032 -0.1007  0.4542  0.1950
  530TMC3     H 7925   0.498   0.384   0.966  2.2551 -0.1288  0.8180
  530TMC3    H1 7926   0.157   0.189   1.124 -0.7858  2.3591 -2.2138
  530TMC3    H2 7927   0.538   4.728   1.143 -0.0208 -1.0712  0.5500
  530TMC3    C7 7928   0.297   4.718   1.217 -0.3850 -0.4536  0.0345
  530TMC3    C8 7929   0.662   0.184   1.003  0.6268 -0.0840 -0.3514
  530TMC3    O1 7930   0.337   4.601   1.207 -0.1213 -0.7380 -0.3231
  530TMC3    O2 7931   0.696   0.250   0.907  0.1709  0.5394  0.2060
  531MPD2     C 7932   4.571   3.377  12.627 -0.0912 -0.1794 -0.3222
  531MPD2    C1 7933   4.584   3.500  12.682 -0.0371  0.6832 -0.1854
  531MPD2    C2 7934   4.561   3.609  12.600  0.1665 -0.2426 -0.4081
  531MPD2    C3 7935   4.494   3.594  12.474  0.4092 -0.2574  0.4322
  531MPD2    C4 7936   4.461   3.470  12.431  0.0325 -0.0946  0.4557
  531MPD2    C5 7937   4.504   3.362  12.509 -0.2434 -0.0361 -0.7113
  531MPD2     H 7938   4.575   3.707  12.644  2.4470 -0.6540 -0.2144
  531MPD2    H1 7939   4.419   3.442  12.335  0.4551 -1.3857  0.6426
  531MPD2    H2 7940   4.600   3.291  12.687  1.5079  0.4173 -0.2533
  531MPD2    H3 7941   4.483   3.264  12.469  0.9230 -0.5254 -0.1089
  531MPD2     N 7942   4.463   3.712  12.405  0.1066 -0.3177  0.8685
  531MPD2    H5 7943   4.467   3.800  12.457  0.8450  0.3772 -0.3661
  531MPD2    N1 7944   4.630   3.505  12.817  0.3286 -0.2597 -0.4624
  531MPD2    H7 7945   4.657   3.418  12.862 -1.7741 -0.3647  0.5983
  532TMC3    C1 7946   4.669   3.607  13.028 -0.3306  0.3141  0.6641
  532TMC3    C2 7947   4.656   3.732  13.088 -0.4053  0.5298  0.7448
  532TMC3    C3 7948   0.025   3.790  13.145  0.3471  0.2554  0.7256
  532TMC3    C4 7949   0.059   3.538  13.029 -0.1419  0.7061  0.2536
  532TMC3    C5 7950   0.155   3.596  13.103 -0.2959  0.3731 -0.8050
  532TMC3    C6 7951   0.140   3.718  13.163 -0.5613  0.0411  0.3956
  532TMC3     C 7952   4.612   3.620  12.896 -0.1482 -0.3270  0.4657
  532TMC3     O 7953   4.556   3.727  12.870 -0.0690  0.3931 -0.3111
  532TMC3     H 7954   4.559   3.781  13.081  0.3608  1.6184 -2.0857
  532TMC3    H1 7955   0.065   3.438  12.988 -0.0679  0.6598  0.3788
  532TMC3    H2 7956   0.230   3.761  13.207 -1.3139 -0.8868  2.8243
  532TMC3    C7 7957   0.267   3.518  13.143 -0.0863 -0.0063 -0.0155
  532TMC3    C8 7958   0.052   3.919  13.094  0.6454  0.0153 -0.4772
  532TMC3    O1 7959   0.361   3.588  13.182 -0.4027  0.1035 -0.0644
  532TMC3    O2 7960   0.156   3.978  13.130 -0.1549  0.1781 -0.7743
  533TMC3    C1 7961   0.397   0.128  14.275 -0.4606 -0.1405 -0.0705
  533TMC3    C2 7962   0.522   0.191  14.258 -0.2195  0.4653 -0.5356
  533TMC3    C3 7963   0.552   0.291  14.337 -0.1978  0.1650  0.3675
  533TMC3    C4 7964   0.324   0.152  14.391  0.1116  0.9973  0.6659
  533TMC3    C5 7965   0.379   0.236  14.483  0.6243 -0.0611 -0.3808
  533TMC3    C6 7966   0.475   0.320  14.444 -0.0718 -0.6095 -0.7888
  533TMC3     C 7967   0.414   4.724  14.238 -0.1306  0.1952  0.0758
  533TMC3     O 7968   0.526   4.679  14.228  0.0617 -0.2651 -0.4997
  533TMC3     H 7969   0.590   0.149  14.185  0.7933 -1.1602  1.3334
  533TMC3    H1 7970   0.242   0.084  14.411 -0.1012  1.3022  0.8201
  533TMC3    H2 7971   0.499   0.404  14.508 -1.1373 -1.5413  0.8239
  533TMC3    C7 7972   0.386   0.172  14.611 -0.6166 -0.5582 -0.8665
  533TMC3    C8 7973   0.688   0.340  14.337 -0.5348  0.0795 -0.6464
  533TMC3    O1 7974   0.338   0.062  14.618  0.0734 -0.0386  0.0915
  533TMC3    O2 7975   0.731   0.365  14.449  0.2507  0.0955 -0.2882
  534MPD2     C 7976   3.108   1.347   1.387 -0.5146 -0.5078  0.8474
  534MPD2    C1 7977   2.982   1.351   1.323 -0.0992  0.1621 -0.5267
  534MPD2    C2 7978   2.890   1.259   1.356 -0.7084 -0.1066  0.3403
  534MPD2    C3 7979   2.931   1.145   1.424  0.3937 -0.3338  0.6366
  534MPD2    C4 7980   3.058   1.135   1.480  0.8876  0.1298  0.0170
  534MPD2    C5 7981   3.142   1.245   1.470  0.7567  0.2841  0.2518
  534MPD2     H 7982   2.790   1.266   1.315 -1.2068  0.4266  1.6230
  534MPD2    H1 7983   3.073   1.048   1.543 -2.7174 -1.3032 -1.1102
  534MPD2    H2 7984   3.175   1.432   1.389  0.6734 -1.4276 -0.8627
  534MPD2    H3 7985   3.233   1.228   1.526  0.4141 -2.1179  0.1022
  534MPD2     N 7986   2.858   1.033   1.442 -0.0980  0.2607 -0.0453
  534MPD2    H5 7987   2.899   0.951   1.486 -3.3744 -1.4640 -0.2029
  534MPD2    N1 7988   2.937   1.458   1.244 -0.0708 -0.3991 -0.2219
  534MPD2    H7 7989   2.845   1.455   1.200 -0.4073 -3.8341  0.7066
  535TMC3    C1 7990   2.674   0.890   1.400 -0.2861 -0.0069 -0.6920
  535TMC3    C2 7991   2.545   0.870   1.429 -0.5484 -0.7368 -0.6281
  535TMC3    C3 7992   2.482   0.778   1.358  0.4650 -0.1892 -0.2511
  535TMC3    C4 7993   2.737   0.814   1.307  0.3732  0.1719  0.2951
  535TMC3    C5 7994   2.665   0.739   1.221 -0.3589 -0.1006 -0.2329
  535TMC3    C6 7995   2.536   0.716   1.249 -0.1353 -0.0681 -0.0757
  535TMC3     C 7996   2.723   1.029   1.418 -0.2201 -0.2403 -0.2394
  535TMC3     O 7997   2.644   1.113   1.385 -0.0287 -0.6760  0.2198
  535TMC3     H 7998   2.497   0.936   1.501  1.2525  3.5327 -3.3497
  535TMC3    H1 7999   2.832   0.851   1.270  2.0144 -2.7214  1.5579
  535TMC3    H2 8000   2.480   0.644   1.190 -0.7837 -0.0838  0.5500
  535TMC3    C7 8001   2.716   0.754   1.085 -0.1984 -0.0072 -0.2142
  535TMC3    C8 8002   2.352   0.727   1.418 -0.0395  0.2363  0.8154
  535TMC3    O1 8003   2.833   0.733   1.058 -0.1623  0.2720 -0.0035
  535TMC3    O2 8004   2.277   0.660   1.347  0.1105 -0.7520  0.1048
  536MPD2     C 8005   2.364   4.141  16.674 -0.0709 -0.2991  0.7017
  536MPD2    C1 8006   2.271   4.047  16.707 -0.4403 -0.2538  0.0962
  536MPD2    C2 8007   2.162   4.029  16.622 -0.1220  0.5014 -0.0130
  536MPD2    C3 8008   2.154   4.106  16.504  0.5732 -0.2271  0.4552
  536MPD2    C4 8009   2.257   4.190  16.473  0.2902 -0.2213  0.1023
  536MPD2    C5 8010   2.360   4.219  16.561 -0.0895 -0.1511  0.1580
  536MPD2     H 8011   2.076   3.970  16.652  0.5738 -0.0862  0.8029
  536MPD2    H1 8012   2.251   4.241  16.377  1.6102  0.1363  0.2228
  536MPD2    H2 8013   2.459   4.157  16.724  1.1025 -1.9273 -1.0017
  536MPD2    H3 8014   2.446   4.283  16.546 -1.2849  1.2744 -0.5875
  536MPD2     N 8015   2.055   4.084  16.406  0.1910 -0.8885 -0.3284
  536MPD2    H5 8016   2.079   4.122  16.315  1.2477  2.6431  1.4422
  536MPD2    N1 8017   2.296   3.973  16.831  0.1458  0.6126 -0.1738
  536MPD2    H7 8018   2.370   4.017  16.885  0.1042  1.1148 -0.5283
  537TMC3    C1 8019   2.290   3.785  16.985 -0.0492 -0.1046  0.2599
  537TMC3    C2 8020   2.389   3.830  17.071 -0.1423  0.6918 -0.2395
  537TMC3    C3 8021   2.400   3.763  17.194  0.0450  0.2175 -0.6106
  537TMC3    C4 8022   2.212   3.674  17.014 -0.3518 -1.0044  0.2708
  537TMC3    C5 8023   2.215   3.626  17.137  0.0586  0.9846  0.4911
  537TMC3    C6 8024   2.311   3.663  17.227  0.3374  0.6611 -0.2331
  537TMC3     C 8025   2.241   3.850  16.859 -0.2400  0.1190 -0.1847
  537TMC3     O 8026   2.169   3.785  16.787  0.6093 -0.3265  0.3293
  537TMC3     H 8027   2.455   3.913  17.050  1.9574 -0.7136  0.8065
  537TMC3    H1 8028   2.148   3.632  16.938 -1.6533  2.2958 -0.4451
  537TMC3    H2 8029   2.298   3.637  17.331 -1.8356 -0.2727 -0.7486
  537TMC3    C7 8030   2.111   3.534  17.174 -0.9693 -0.5540  0.7300
  537TMC3    C8 8031   2.448   3.837  17.308 -0.7227  0.4339 -0.4721
  537TMC3    O1 8032   1.999   3.554  17.119  0.1394  0.6096  0.0273
  537TMC3    O2 8033   2.421   3.800  17.423  0.0986 -0.0020  0.1123
  538TMC3    C1 8034   3.566   2.276  11.581 -0.1447  0.2543 -0.0605
  538TMC3    C2 8035   3.684   2.235  11.528  0.4657 -0.1686 -0.6004
  538TMC3    C3 8036   3.704   2.251  11.391 -1.0225  0.8290  0.3752
  538TMC3    C4 8037   3.469   2.333  11.510  0.1436  0.1599  0.0502
  538TMC3    C5 8038   3.491   2.346  11.374 -0.0145 -0.0758  1.0884
  538TMC3    C6 8039   3.611   2.317  11.310  0.5222 -0.9750 -0.5354
  538TMC3     C 8040   3.579   2.322  11.715  0.2462  0.2423 -0.4313
  538TMC3     O 8041   3.484   2.338  11.788  0.4396  0.0559  0.1741
  538TMC3     H 8042   3.755   2.175  11.583 -0.4648 -1.6919 -1.0856
  538TMC3    H1 8043   3.387   2.372  11.569 -0.1006  1.4249 -1.1144
  538TMC3    H2 8044   3.613   2.303  11.202  0.0568 -0.6780 -0.5844
  538TMC3    C7 8045   3.385   2.416  11.302 -0.0106  0.2283  0.4474
  538TMC3    C8 8046   3.826   2.188  11.340 -0.2193 -0.3533  0.2829
  538TMC3    O1 8047   3.277   2.439  11.352 -0.5968  0.0345  0.2493
  538TMC3    O2 8048   3.900   2.132  11.420 -0.6340 -0.8112 -0.0852
  539MPD2     C 8049   3.556   1.746  11.425  0.2217 -0.3254 -0.1535
  539MPD2    C1 8050   3.430   1.685  11.407 -0.3961 -0.6426 -0.1229
  539MPD2    C2 8051   3.320   1.773  11.402 -0.1487  0.9060  0.2465
  539MPD2    C3 8052   3.337   1.911  11.403  0.3759 -0.1693  0.7058
  539MPD2    C4 8053   3.463   1.962  11.411 -0.1675  0.6110 -0.1973
  539MPD2    C5 8054   3.571   1.878  11.415  0.0486 -0.1911 -0.4021
  539MPD2     H 8055   3.218   1.737  11.401 -0.5580  2.1406 -1.7167
  539MPD2    H1 8056   3.483   2.069  11.418  1.6736  0.3769 -1.8976
  539MPD2    H2 8057   3.648   1.689  11.425  0.6280  0.3374 -0.7807
  539MPD2    H3 8058   3.670   1.923  11.412 -0.5415  1.1812  0.5977
  539MPD2     N 8059   3.237   2.009  11.392 -0.0528  0.3922 -0.4177
  539MPD2    H5 8060   3.266   2.104  11.414  1.1849 -0.0651 -0.0950
  539MPD2    N1 8061   3.406   1.548  11.401  0.4866 -0.0863  0.0736
  539MPD2    H7 8062   3.309   1.517  11.394  0.0779  1.2747 -0.2411
  540TMC3    C1 8063   3.024   2.100  11.323 -0.0323 -0.6855 -0.1854
  540TMC3    C2 8064   2.950   2.095  11.211 -0.3556  0.0779  0.1847
  540TMC3    C3 8065   2.901   2.217  11.168 -0.1064  0.4414  0.0346
  540TMC3    C4 8066   3.025   2.209  11.406 -0.2699 -0.3255 -0.4194
  540TMC3    C5 8067   2.968   2.326  11.366  0.2811 -0.1937  0.3203
  540TMC3    C6 8068   2.902   2.324  11.247 -0.0877 -0.2848 -0.2897
  540TMC3     C 8069   3.107   1.979  11.355 -0.0986 -0.6425  0.3648
  540TMC3     O 8070   3.074   1.869  11.309 -0.3890  0.4086 -0.1001
  540TMC3     H 8071   2.954   2.005  11.152  0.7626 -0.4062  0.9911
  540TMC3    H1 8072   3.069   2.203  11.505 -0.2554  0.8471 -0.3544
  540TMC3    H2 8073   2.867   2.415  11.199 -0.1207 -0.2914 -0.2783
  540TMC3    C7 8074   2.905   2.407  11.468 -0.6972 -0.4299  0.0324
  540TMC3    C8 8075   2.814   2.220  11.056  0.6186  0.1980  0.5962
  540TMC3    O1 8076   2.888   2.347  11.577  0.2572 -0.4079  0.2157
  540TMC3    O2 8077   2.757   2.325  11.036 -0.3509  0.9870 -0.0247
  541MPD2     C 8078   1.453   3.108  13.059 -0.0471 -0.6047 -0.1977
  541MPD2    C1 8079   1.331   3.162  13.024 -0.0562 -0.0058 -0.0121
  541MPD2    C2 8080   1.307   3.188  12.891 -0.3034  0.4295 -0.1856
  541MPD2    C3 8081   1.391   3.138  12.790 -0.1082 -0.3332 -0.2269
  541MPD2    C4 8082   1.508   3.082  12.825 -0.5062 -0.7606 -0.4363
  541MPD2    C5 8083   1.542   3.069  12.953 -0.0016 -0.4079 -0.4006
  541MPD2     H 8084   1.216   3.237  12.859 -0.7364 -0.1779  0.1373
  541MPD2    H1 8085   1.576   3.041  12.752  0.6016 -2.4539  1.5730
  541MPD2    H2 8086   1.488   3.094  13.160 -1.4393 -2.3427  0.0382
  541MPD2    H3 8087   1.634   3.014  12.970  0.7696  1.6960  2.3609
  541MPD2     N 8088   1.338   3.161  12.661  0.2656 -0.7652 -0.3765
  541MPD2    H5 8089   1.252   3.213  12.649  1.2791  0.6503 -1.3956
  541MPD2    N1 8090   1.241   3.199  13.127  0.4921 -0.6476 -0.0491
  541MPD2    H7 8091   1.253   3.157  13.218 -0.6957 -0.6338  0.1141
  542TMC3    C1 8092   1.333   3.154  12.433 -0.0345 -0.1994  0.0362
  542TMC3    C2 8093   1.366   3.084  12.325  0.1165 -0.0526 -0.1503
  542TMC3    C3 8094   1.293   3.098  12.206  0.6780  0.4702  0.6625
  542TMC3    C4 8095   1.226   3.236  12.438  0.3479  0.6042 -0.1642
  542TMC3    C5 8096   1.155   3.247  12.319  0.5845 -0.3840 -0.4063
  542TMC3    C6 8097   1.181   3.174  12.206  0.2751  0.0150  0.3358
  542TMC3     C 8098   1.410   3.133  12.555  0.8291  0.4661 -0.4748
  542TMC3     O 8099   1.515   3.070  12.543 -0.4365 -0.3146  0.4935
  542TMC3     H 8100   1.457   3.027  12.335 -0.2184 -0.6051 -0.2614
  542TMC3    H1 8101   1.216   3.313  12.513  1.9837 -1.0872  1.8011
  542TMC3    H2 8102   1.133   3.197  12.111 -0.0554 -0.2409  0.4402
  542TMC3    C7 8103   1.068   3.362  12.319  0.1662 -0.2498 -0.1325
  542TMC3    C8 8104   1.334   3.052  12.074 -0.1872 -0.2541  0.0672
  542TMC3    O1 8105   1.035   3.404  12.428 -0.4298  0.3591 -0.0349
  542TMC3    O2 8106   1.253   3.041  11.979 -0.7790  0.1921  0.3505
  543TMC3    C1 8107   0.445   4.586  17.578 -0.2546 -0.4536 -0.2325
  543TMC3    C2 8108   0.470   4.468  17.644  0.0263  0.1071  0.4801
  543TMC3    C3 8109   0.426   4.451   0.028  0.3229 -0.0750  0.6347
  543TMC3    C4 8110   0.406   4.691  17.655  0.3498  0.5164 -0.0206
  543TMC3    C5 8111   0.355   4.672   0.042  0.1345 -0.3096 -0.3426
  543TMC3    C6 8112   0.361   4.550   0.093  0.1650  0.1450 -0.0072
  543TMC3     C 8113   0.512   4.610  17.455  0.0811  0.2145  1.1127
  543TMC3     O 8114   0.619   4.549  17.438  0.1282  0.3399 -0.7626
  543TMC3     H 8115   0.505   4.383  17.586 -1.8013 -0.7347  0.6123
  543TMC3    H1 8116   0.400   0.055  17.614  1.0135  0.0769 -1.2310
  543TMC3    H2 8117   0.312   4.532   0.188 -1.0402 -0.1235 -0.6872
  543TMC3    C7 8118   0.239   0.018   0.085  0.3225 -0.4481  0.0014
  543TMC3    C8 8119   0.431   4.314   0.082 -0.5282  0.3918  0.1431
  543TMC3    O1 8120   0.235   0.139   0.069  0.6982 -0.8873  0.6154
  543TMC3    O2 8121   0.426   4.228  17.738  0.3530  0.1304  0.0767
  544MPD2     C 8122   0.487   3.990   0.462  0.3681  0.3310 -0.2417
  544MPD2    C1 8123   0.453   3.966   0.333  0.4190  0.1031 -0.0340
  544MPD2    C2 8124   0.454   4.066   0.237 -0.7071  0.2029 -0.7839
  544MPD2    C3 8125   0.485   4.190   0.288  0.0378  0.2451  0.2384
  544MPD2    C4 8126   0.524   4.212   0.419 -0.0408 -0.2071 -0.3249
  544MPD2    C5 8127   0.542   4.108   0.500 -0.7379  0.2914 -0.0336
  544MPD2     H 8128   0.425   4.047   0.134 -1.4905 -0.3655 -0.4646
  544MPD2    H1 8129   0.547   4.310   0.459 -1.6588 -0.6874  1.7373
  544MPD2    H2 8130   0.497   3.904   0.527 -0.5954  1.3273  1.2134
  544MPD2    H3 8131   0.574   4.118   0.603  0.8319  1.2119 -0.6345
  544MPD2     N 8132   0.460   4.306   0.218  0.0019  0.2066  0.2120
  544MPD2    H5 8133   0.477   4.394   0.265 -1.6954 -0.9196  2.9031
  544MPD2    N1 8134   0.422   3.832   0.305  0.5352 -0.3861 -0.2965
  544MPD2    H7 8135   0.403   3.766   0.380 -0.9822 -0.6430 -0.8992
  545TMC3    C1 8136   0.367   3.644   0.186  0.5288 -0.0363 -0.6212
  545TMC3    C2 8137   0.276   3.595   0.097  0.6601  0.2524 -0.6924
  545TMC3    C3 8138   0.200   3.486   0.128  0.4573 -0.4043  0.2309
  545TMC3    C4 8139   0.394   3.579   0.301  0.2802 -0.4707  0.0525
  545TMC3    C5 8140   0.324   3.465   0.322  0.0118  0.5225  0.8511
  545TMC3    C6 8141   0.218   3.420   0.248  0.4333  0.2144  0.0192
  545TMC3     C 8142   0.404   3.780   0.182  0.2981  0.3530  0.0779
  545TMC3     O 8143   0.397   3.830   0.071  0.4823  0.3396  0.1527
  545TMC3     H 8144   0.256   3.648   0.005  0.8874 -2.5054 -2.3367
  545TMC3    H1 8145   0.485   3.598   0.358  0.9527  1.8869 -1.8083
  545TMC3    H2 8146   0.165   3.327   0.267 -0.3611  0.8221  0.8003
  545TMC3    C7 8147   0.372   3.388   0.437 -0.4045 -0.0956  0.5907
  545TMC3    C8 8148   0.117   3.419   0.033  0.4806  0.7600 -0.1470
  545TMC3    O1 8149   0.289   3.361   0.522 -0.3697  0.1133  0.1346
  545TMC3    O2 8150   0.096   3.307   0.069  0.0129  0.0245  0.3223
  546MPD2     C 8151   2.136   4.220  17.557  0.4569 -0.3990  0.3970
  546MPD2    C1 8152   2.060   4.291  17.644  0.4025  0.0772  0.1033
  546MPD2    C2 8153   2.088   4.420  17.654 -0.5075 -0.1725 -0.3372
  546MPD2    C3 8154   2.195   4.478  17.587  0.8784  0.1786 -0.1751
  546MPD2    C4 8155   2.273   4.400  17.508 -0.1277  0.1043 -0.4797
  546MPD2    C5 8156   2.246   4.268  17.495  0.1100  0.1882 -0.3046
  546MPD2     H 8157   2.050   4.485  17.731  0.4505  1.0320 -0.8778
  546MPD2    H1 8158   2.361   4.444  17.464  0.6675 -0.2991  0.6924
  546MPD2    H2 8159   2.107   4.118  17.531 -0.4968 -0.4245  1.5582
  546MPD2    H3 8160   2.315   4.216  17.430 -0.6830 -0.8782 -0.2903
  546MPD2     N 8161   2.228   4.616  17.601 -0.1667 -0.2765  0.3507
  546MPD2    H5 8162   2.322   4.643  17.574  0.4480 -3.2107 -0.4317
  546MPD2    N1 8163   1.955   4.220  17.701 -0.4800  0.1815 -0.2361
  546MPD2    H7 8164   1.934   4.125  17.669  1.5654 -0.5257  0.4954
  547TMC3    C1 8165   1.735   4.202   0.029  0.1531  0.1064  0.5834
  547TMC3    C2 8166   1.624   4.282   0.018 -0.2570 -0.0508  0.0288
  547TMC3    C3 8167   1.507   4.216  17.737 -0.2934  0.0013 -0.1898
  547TMC3    C4 8168   1.731   4.068   0.007  0.3511  0.8580  0.4899
  547TMC3    C5 8169   1.608   4.010  17.723  0.3394  0.2186 -0.0986
  547TMC3    C6 8170   1.497   4.081  17.721 -0.1607 -0.4532  0.7633
  547TMC3     C 8171   1.866   4.268   0.050  0.2300 -0.7713 -1.1228
  547TMC3     O 8172   1.855   4.376   0.105  0.4615 -0.1443 -0.2973
  547TMC3     H 8173   1.633   4.388   0.038  1.3088 -0.1432 -0.1551
  547TMC3    H1 8174   1.816   4.010   0.042 -0.2305  0.8770  1.9449
  547TMC3    H2 8175   1.412   4.040  17.667 -0.1121 -0.7140  0.8857
  547TMC3    C7 8176   1.577   3.868  17.736 -0.4545  0.0608  0.0253
  547TMC3    C8 8177   1.422   4.281  17.636  0.1400 -0.0843 -0.0297
  547TMC3    O1 8178   1.462   3.833   0.009  0.3194  0.2342 -0.8002
  547TMC3    O2 8179   1.367   4.214  17.549  0.2651  0.0762 -0.6523
  548MPD2     C 8180   1.583   0.070  12.696 -0.3809  0.3058 -0.0387
  548MPD2    C1 8181   1.546   4.686  12.654 -0.0647 -0.0387  0.1242
  548MPD2    C2 8182   1.648   4.600  12.606 -0.3504 -0.0458 -0.1877
  548MPD2    C3 8183   1.783   4.637  12.603  0.3326 -0.2265 -0.0046
  548MPD2    C4 8184   1.816   0.027  12.640 -0.0945 -0.0262  0.1741
  548MPD2    C5 8185   1.715   0.109  12.687 -0.6310  0.1686 -0.6915
  548MPD2     H 8186   1.625   4.501  12.570  0.8204  0.3194 -1.9072
  548MPD2    H1 8187   1.915   0.070  12.646  0.4190 -0.9845 -1.5332
  548MPD2    H2 8188   1.504   0.140  12.722 -0.5135  0.2215 -0.2118
  548MPD2    H3 8189   1.740   0.212  12.710  0.5240 -0.7809  2.2279
  548MPD2     N 8190   1.880   4.541  12.561  0.1723 -0.4074  0.7790
  548MPD2    H5 8191   1.845   4.447  12.550  1.0970 -0.9170  2.1213
  548MPD2    N1 8192   1.409   4.649  12.647  0.2303 -0.2653 -0.5460
  548MPD2    H7 8193   1.353   4.732  12.665 -1.8520 -1.0681 -3.4860
  549TMC3    C1 8194   1.210   4.544  12.626  0.7965 -0.2162 -0.0697
  549TMC3    C2 8195   1.140   4.636  12.556  0.0964 -0.0397 -0.2956
  549TMC3    C3 8196   1.002   4.638  12.577  0.3902  0.3344 -0.3360
  549TMC3    C4 8197   1.147   4.445  12.704  0.8417  0.8289 -0.8090
  549TMC3    C5 8198   1.013   4.456  12.725 -0.9091 -0.3560  0.2510
  549TMC3    C6 8199   0.935   4.553  12.660 -1.0348  0.3167  0.0341
  549TMC3     C 8200   1.353   4.532  12.624 -0.5124  0.2835 -0.0531
  549TMC3     O 8201   1.406   4.419  12.623  0.1349  0.1214 -0.2107
  549TMC3     H 8202   1.191   4.702  12.487  1.9056 -0.0183  1.0429
  549TMC3    H1 8203   1.217   4.386  12.762 -0.8829  0.4433  0.8495
  549TMC3    H2 8204   0.826   4.553  12.657 -1.0630  0.0336  1.1197
  549TMC3    C7 8205   0.940   4.339  12.757 -0.1872 -0.1832  0.7960
  549TMC3    C8 8206   0.925   0.012  12.527  0.1151 -0.0096 -0.0951
  549TMC3    O1 8207   0.826   4.348  12.798  0.1617  0.1432 -0.2365
  549TMC3    O2 8208   0.813   0.011  12.569 -0.2168 -0.0955 -0.2166
  550TMC3    C1 8209   0.836   2.918  11.939  0.5076 -0.5020  1.5068
  550TMC3    C2 8210   0.729   2.944  12.015  0.0878  0.7540  0.0735
  550TMC3    C3 8211   0.702   3.076  12.058  0.1172  0.1234 -0.1188
  550TMC3    C4 8212   0.924   3.024  11.909  0.8075  0.0427  0.8477
  550TMC3    C5 8213   0.904   3.146  11.959 -0.8852 -0.6746  0.2625
  550TMC3    C6 8214   0.787   3.174  12.028  0.1231  0.0320  0.5951
  550TMC3     C 8215   0.797   2.837  11.824 -0.0144  0.0442  0.7078
  550TMC3     O 8216   0.681   2.815  11.797  0.0266  0.0664  0.0101
  550TMC3     H 8217   0.668   2.857  12.036 -0.2274  0.8499 -0.4373
  550TMC3    H1 8218   1.013   3.024  11.848 -0.0772  1.6309 -0.4561
  550TMC3    H2 8219   0.766   3.279  12.049  0.0626 -0.2099  1.7345
  550TMC3    C7 8220   0.931   3.247  11.855  0.4509 -0.0085  0.5149
  550TMC3    C8 8221   0.577   3.109  12.116 -1.1264 -0.0283 -0.3387
  550TMC3    O1 8222   1.038   3.301  11.850  0.3267  1.1502 -0.1419
  550TMC3    O2 8223   0.554   3.223  12.154  0.7919  0.1040  0.1643
  551TMC3    C1 8224   3.150   0.477  13.255  0.5485  0.3295  0.2420
  551TMC3    C2 8225   3.281   0.491  13.212  0.5831 -0.0779  0.4024
  551TMC3    C3 8226   3.359   0.587  13.277  0.3769  0.3138  0.5720
  551TMC3    C4 8227   3.098   0.549  13.364  0.0665  0.3560  0.8979
  551TMC3    C5 8228   3.175   0.651  13.412 -0.0822  1.1075  0.0755
  551TMC3    C6 8229   3.310   0.663  13.378  0.8626  0.6268 -0.3853
  551TMC3     C 8230   3.049   0.438  13.159 -0.6297 -0.4042  0.2967
  551TMC3     O 8231   2.935   0.483  13.157 -0.4108 -0.1466  0.2602
  551TMC3     H 8232   3.315   0.446  13.119  0.8118 -1.5519  1.1910
  551TMC3    H1 8233   2.995   0.538  13.397 -0.8093  1.2426 -1.5106
  551TMC3    H2 8234   3.371   0.739  13.426 -1.0180  1.1069  1.2258
  551TMC3    C7 8235   3.120   0.723  13.523  0.6599  0.8496 -1.0560
  551TMC3    C8 8236   3.492   0.614  13.224 -0.5626  0.2725 -0.1901
  551TMC3    O1 8237   3.196   0.719  13.621  0.0442  0.6766 -0.8945
  551TMC3    O2 8238   3.531   0.548  13.130  0.5771  0.2153 -0.2618
  552MPD2     C 8239   4.653   2.876  14.523  0.7628 -0.4225 -0.1302
  552MPD2    C1 8240   4.700   2.749  14.534 -0.8803  0.3134 -0.3443
  552MPD2    C2 8241   0.077   2.729  14.615 -0.1402  0.7811 -0.0094
  552MPD2    C3 8242   0.132   2.832  14.687 -0.2140  0.3005  0.2919
  552MPD2    C4 8243   0.074   2.958  14.683  1.0039 -0.0391 -0.3201
  552MPD2    C5 8244   4.709   2.977  14.599  0.0474 -0.5990 -0.3779
  552MPD2     H 8245   0.123   2.631  14.614  0.0225  0.8452  1.7019
  552MPD2    H1 8246   0.109   3.035  14.751  1.6591  0.5392 -1.3118
  552MPD2    H2 8247   4.560   2.909  14.478  0.5185  1.5135  1.7601
  552MPD2    H3 8248   4.662   3.074  14.587  0.0872 -0.6456 -0.9216
  552MPD2     N 8249   0.250   2.804  14.756 -0.1790 -0.2289 -0.3028
  552MPD2    H5 8250   0.283   2.708  14.762 -1.0030 -0.5012 -0.0954
  552MPD2    N1 8251   4.647   2.643  14.463 -0.6237 -0.1261  0.3531
  552MPD2    H7 8252   4.706   2.560  14.466 -1.6669 -0.8982 -0.3591
  553TMC3    C1 8253   4.537   2.526  14.297 -0.7488  0.0916 -0.2418
  553TMC3    C2 8254   4.515   2.532  14.159 -0.0517 -0.0276  0.2804
  553TMC3    C3 8255   4.573   2.440  14.075  0.2342 -0.9238 -0.1589
  553TMC3    C4 8256   4.621   2.429  14.350 -0.0897  0.7154  0.2432
  553TMC3    C5 8257   4.670   2.338  14.260 -0.3159  0.6141  0.0456
  553TMC3    C6 8258   4.662   2.341  14.127 -0.7395  0.3874  0.4776
  553TMC3     C 8259   4.550   2.656  14.365  0.0579 -0.0781  0.4671
  553TMC3     O 8260   4.478   2.751  14.336 -0.2007  0.3894 -0.1679
  553TMC3     H 8261   4.451   2.613  14.127  3.1808  1.7818 -1.5096
  553TMC3    H1 8262   4.623   2.416  14.458 -1.0264 -1.1453  0.0278
  553TMC3    H2 8263   4.701   2.262  14.064 -0.0994  0.2936  0.9932
  553TMC3    C7 8264   0.044   2.267  14.314  0.0725  0.5194  0.1636
  553TMC3    C8 8265   4.583   2.469  13.934  0.2186  0.5409 -0.3476
  553TMC3    O1 8266   0.030   2.225  14.429  0.2028  0.4642 -0.1249
  553TMC3    O2 8267   4.688   2.434  13.893 -0.4444  0.1182 -0.2481
  554TMC3    C1 8268   2.215   2.072  11.659  0.0237  0.6274  1.0623
  554TMC3    C2 8269   2.095   2.029  11.614 -0.0938 -0.0560  0.3168
  554TMC3    C3 8270   2.024   2.119  11.538 -0.4386  0.3946 -0.2663
  554TMC3    C4 8271   2.249   2.204  11.644 -0.4205 -0.4283 -0.6948
  554TMC3    C5 8272   2.166   2.284  11.570  0.3565 -0.9474  0.5861
  554TMC3    C6 8273   2.044   2.251  11.530 -0.4585 -0.1264  0.5579
  554TMC3     C 8274   2.309   1.983  11.716  0.2442  0.4440  0.3752
  554TMC3     O 8275   2.268   1.870  11.702 -0.1173  0.4866 -0.1511
  554TMC3     H 8276   2.066   1.926  11.628 -1.4227  0.4608  1.4302
  554TMC3    H1 8277   2.351   2.236  11.664  0.8537 -3.4157 -2.2924
  554TMC3    H2 8278   1.986   2.307  11.457  1.3024 -1.8236 -2.1026
  554TMC3    C7 8279   2.235   2.392  11.503 -0.1375  0.3131  0.0164
  554TMC3    C8 8280   2.011   2.060  11.403 -0.3944 -0.1646  0.5254
  554TMC3    O1 8281   2.350   2.377  11.476 -0.1486  0.6348  0.3423
  554TMC3    O2 8282   2.089   2.097  11.317  0.1451 -0.0710  0.5559
  555TMC3    C1 8283   1.248   1.161  15.015 -0.2573  0.1958 -0.9493
  555TMC3    C2 8284   1.163   1.272  15.034  0.6094  0.2870  0.6884
  555TMC3    C3 8285   1.106   1.280  15.159 -0.1939 -0.4158  0.5627
  555TMC3    C4 8286   1.282   1.079  15.113 -0.3017  0.6562  0.1606
  555TMC3    C5 8287   1.207   1.084  15.228  0.2724 -0.6069 -0.4694
  555TMC3    C6 8288   1.125   1.184  15.258 -0.3949  0.4096  0.6287
  555TMC3     C 8289   1.338   1.158  14.896  0.2523  0.3808  0.1439
  555TMC3     O 8290   1.457   1.131  14.905 -0.4677  0.2408 -0.3184
  555TMC3     H 8291   1.140   1.342  14.954  0.8628 -2.1706 -1.5631
  555TMC3    H1 8292   1.347   0.997  15.084 -0.9187  0.3778 -0.4460
  555TMC3    H2 8293   1.056   1.173  15.341  0.0313  2.9227  1.3122
  555TMC3    C7 8294   1.210   0.977  15.328 -0.1190 -0.1870 -0.7581
  555TMC3    C8 8295   1.000   1.378  15.169 -0.3944 -0.8303  0.5471
  555TMC3    O1 8296   1.127   0.981  15.416  0.0838 -0.5071  0.1191
  555TMC3    O2 8297   0.960   1.432  15.066 -0.2469 -0.4746  0.0004
  556MPD2     C 8298   4.523   3.051  10.821 -0.2905 -0.2516 -0.0088
  556MPD2    C1 8299   4.433   2.979  10.900  0.7588 -0.5341 -1.0807
  556MPD2    C2 8300   4.368   2.867  10.845 -0.0099 -0.1490 -0.2268
  556MPD2    C3 8301   4.393   2.812  10.723 -0.2215  0.9806  0.6501
  556MPD2    C4 8302   4.491   2.883  10.652  0.1641 -0.0606 -0.1335
  556MPD2    C5 8303   4.549   3.001  10.699 -0.5506  0.0418  0.0744
  556MPD2     H 8304   4.290   2.821  10.905 -1.2004 -0.4589 -2.0049
  556MPD2    H1 8305   4.521   2.850  10.553 -2.3389  4.5638 -2.4696
  556MPD2    H2 8306   4.567   3.148  10.840 -0.0512 -0.5935  1.1820
  556MPD2    H3 8307   4.604   3.058  10.626 -1.1171 -2.8120 -2.5962
  556MPD2     N 8308   4.320   2.693  10.681  0.4375  0.1430 -0.3175
  556MPD2    H5 8309   4.245   2.652  10.736  0.0830 -2.3709 -2.6754
  556MPD2    N1 8310   4.394   3.020  11.022 -0.4742  0.4063  0.1057
  556MPD2    H7 8311   4.305   2.985  11.058 -0.4505  0.2168 -0.0183
  557TMC3    C1 8312   4.251   2.524  10.527  0.1903  0.3285  0.2319
  557TMC3    C2 8313   4.179   2.539  10.414 -0.3165  0.1331  0.6319
  557TMC3    C3 8314   4.056   2.480  10.409  0.4429  0.0379  0.1390
  557TMC3    C4 8315   4.206   2.446  10.633  0.0486  0.0568  0.3650
  557TMC3    C5 8316   4.086   2.384  10.622  0.4176  0.3389  0.4318
  557TMC3    C6 8317   4.010   2.406  10.513 -0.6791  0.6525  0.3997
  557TMC3     C 8318   4.341   2.633  10.550  0.6762 -0.7414 -0.1112
  557TMC3     O 8319   4.413   2.669  10.462  0.2634  0.5426  0.1095
  557TMC3     H 8320   4.217   2.590  10.326 -1.0603  1.4451  1.0695
  557TMC3    H1 8321   4.266   2.437  10.722  1.4535  0.4455 -0.5477
  557TMC3    H2 8322   3.907   2.372  10.518  0.2693 -1.1548  6.6584
  557TMC3    C7 8323   4.019   2.330  10.741 -0.5206 -0.1637  0.3092
  557TMC3    C8 8324   4.014   2.441  10.280 -0.3470 -0.4710  0.8274
  557TMC3    O1 8325   3.899   2.355  10.758  0.1083  0.5809 -0.2778
  557TMC3    O2 8326   4.081   2.458  10.180  0.5267  0.0768  0.0510
  558TMC3    C1 8327   1.696   0.565  10.383  0.2085 -0.9887  0.1279
  558TMC3    C2 8328   1.575   0.552  10.443  0.2212 -0.1933 -0.6746
  558TMC3    C3 8329   1.470   0.608  10.375  0.1028 -0.3461 -0.5194
  558TMC3    C4 8330   1.707   0.611  10.256 -0.3946 -0.6839  0.1761
  558TMC3    C5 8331   1.598   0.654  10.185 -0.5888 -0.2897 -0.0826
  558TMC3    C6 8332   1.470   0.656  10.243  0.5316 -0.0722 -1.0175
  558TMC3     C 8333   1.813   0.558  10.465 -0.1392  0.0922 -0.1476
  558TMC3     O 8334   1.902   0.647  10.460 -0.3853 -0.8583  0.2345
  558TMC3     H 8335   1.570   0.514  10.544  1.2874 -0.9780 -0.9136
  558TMC3    H1 8336   1.802   0.633  10.208 -0.6697  1.0242  0.4352
  558TMC3    H2 8337   1.381   0.703  10.204  0.5235 -1.0802 -2.2261
  558TMC3    C7 8338   1.628   0.782  10.118  0.6864  0.0641  0.2683
  558TMC3    C8 8339   1.350   0.631  10.455 -0.8036  0.9605  1.2654
  558TMC3    O1 8340   1.737   0.830  10.156  0.1394 -0.8993  0.4934
  558TMC3    O2 8341   1.250   0.610  10.387  0.1688  0.1632  1.0169
  559MPD2     C 8342   1.763   1.597  10.688  0.1045 -0.4346  0.0233
  559MPD2    C1 8343   1.705   1.526  10.791 -0.1621 -0.5631  0.2577
  559MPD2    C2 8344   1.784   1.472  10.890 -0.0720 -0.0487 -0.0790
  559MPD2    C3 8345   1.922   1.499  10.887 -0.1506  0.2669  0.0729
  559MPD2    C4 8346   1.978   1.573  10.786  0.1155 -0.9760  0.0819
  559MPD2    C5 8347   1.900   1.618  10.683 -0.2838  0.3850  0.2762
  559MPD2     H 8348   1.743   1.425  10.978  2.4842  1.7152  2.0579
  559MPD2    H1 8349   2.086   1.565  10.776  0.0669 -0.8888 -0.4992
  559MPD2    H2 8350   1.709   1.647  10.608 -1.1454 -1.3968  0.2631
  559MPD2    H3 8351   1.938   1.670  10.596  1.4579  3.9392  3.1537
  559MPD2     N 8352   1.984   1.440  10.996  0.1002 -0.1488 -0.5032
  559MPD2    H5 8353   1.915   1.387  11.048 -0.5381 -0.3259 -1.5224
  559MPD2    N1 8354   1.563   1.511  10.787 -0.1158 -0.2535  0.8936
  559MPD2    H7 8355   1.514   1.561  10.714 -0.5620 -0.9812  0.6887
  560TMC3    C1 8356   2.147   1.369  11.144 -0.2781 -0.1018  0.1798
  560TMC3    C2 8357   2.043   1.311  11.215  0.6116  0.0184 -0.3397
  560TMC3    C3 8358   2.074   1.220  11.306  0.2594 -0.2475  0.3686
  560TMC3    C4 8359   2.279   1.341  11.168  0.5273  0.7004 -0.5450
  560TMC3    C5 8360   2.299   1.255  11.279  0.7260 -0.9001  0.3558
  560TMC3    C6 8361   2.200   1.187  11.342 -0.5356  0.3458  0.5939
  560TMC3     C 8362   2.113   1.443  11.027 -0.3667  0.1369 -0.4193
  560TMC3     O 8363   2.200   1.518  10.977  0.0504  0.0525  0.1939
  560TMC3     H 8364   1.940   1.344  11.205  0.3237 -0.0465  2.2531
  560TMC3    H1 8365   2.355   1.384  11.104  1.3588 -1.1352 -0.7861
  560TMC3    H2 8366   2.230   1.127  11.427  0.7177  0.8001  0.4844
  560TMC3    C7 8367   2.435   1.238  11.324 -0.2431 -0.0337 -0.0530
  560TMC3    C8 8368   1.958   1.144  11.359 -0.0023  0.2496 -0.0938
  560TMC3    O1 8369   2.445   1.144  11.401  0.0251  0.4068  0.3276
  560TMC3    O2 8370   1.846   1.172  11.319 -0.1377  0.3047 -0.0098
  561TMC3    C1 8371   4.451   0.221  11.317 -0.3127  0.7646  0.4289
  561TMC3    C2 8372   4.390   0.135  11.405  0.8142 -0.4509 -0.0390
  561TMC3    C3 8373   4.359   0.190  11.531  0.2563  0.2766  0.0116
  561TMC3    C4 8374   4.483   0.351  11.345  0.2742  0.0840  0.3204
  561TMC3    C5 8375   4.461   0.397  11.471  0.1962  0.3948  0.9669
  561TMC3    C6 8376   4.390   0.320  11.562 -0.3523  0.1123  0.0315
  561TMC3     C 8377   4.423   0.189  11.178  0.4357  0.5425  0.9669
  561TMC3     O 8378   4.321   0.127  11.157 -0.1157 -0.0277  0.6746
  561TMC3     H 8379   4.349   0.039  11.377 -0.4056  0.1475 -0.3394
  561TMC3    H1 8380   4.518   0.417  11.267 -3.1017 -0.8207 -1.9723
  561TMC3    H2 8381   4.390   0.356  11.664 -0.1696  1.4452 -0.4400
  561TMC3    C7 8382   4.425   0.540  11.478 -0.5066 -1.1240 -0.3174
  561TMC3    C8 8383   4.270   0.115  11.616 -0.1068 -0.1565  0.0935
  561TMC3    O1 8384   4.331   0.575  11.549  0.0006 -0.0866  0.0854
  561TMC3    O2 8385   4.292   4.732  11.606  0.3709  0.1949  0.3120
  562TMC3    C1 8386   0.950   1.154  16.023 -0.3011  0.2262  0.0988
  562TMC3    C2 8387   0.923   1.251  16.119  0.2397 -0.1768 -0.4485
  562TMC3    C3 8388   0.941   1.382  16.075 -0.2790 -0.4923 -0.4478
  562TMC3    C4 8389   0.986   1.189  15.898  0.4237 -0.7808 -0.1735
  562TMC3    C5 8390   1.008   1.324  15.863  0.4680  0.9732  0.6393
  562TMC3    C6 8391   0.992   1.422  15.958  0.3859  0.3309  0.0484
  562TMC3     C 8392   0.959   1.010  16.052  0.0370  0.3009  0.7891
  562TMC3     O 8393   0.994   0.939  15.957  0.5628 -0.1438 -0.4691
  562TMC3     H 8394   0.894   1.221  16.219  3.4812  0.0636  0.5647
  562TMC3    H1 8395   1.017   1.118  15.822 -1.0063 -2.2109  0.5636
  562TMC3    H2 8396   1.007   1.527  15.936  1.3061  0.1299 -0.2849
  562TMC3    C7 8397   1.075   1.351  15.743 -0.2135 -1.4340  0.3144
  562TMC3    C8 8398   0.888   1.488  16.165 -0.4314 -0.2788  0.4995
  562TMC3    O1 8399   1.079   1.261  15.661 -0.4121 -0.3842 -0.3416
  562TMC3    O2 8400   0.893   1.465  16.287 -0.2823  0.1047  0.4119
  563MPD2     C 8401   3.291   3.204  15.667  1.2601  0.4159  0.4633
  563MPD2    C1 8402   3.209   3.086  15.685  0.1309 -0.1134  0.2478
  563MPD2    C2 8403   3.258   2.963  15.655  0.0224  0.2962  0.6862
  563MPD2    C3 8404   3.388   2.953  15.608  0.5920  0.5596 -0.1691
  563MPD2    C4 8405   3.452   3.069  15.565 -0.3079 -1.0185  0.8717
  563MPD2    C5 8406   3.405   3.196  15.601 -0.6843 -0.4771  0.1478
  563MPD2     H 8407   3.193   2.876  15.653  0.5118 -0.0922  1.5214
  563MPD2    H1 8408   3.558   3.072  15.542 -0.6245 -0.2526 -0.5124
  563MPD2    H2 8409   3.259   3.304  15.690 -0.4198 -0.0018 -0.0763
  563MPD2    H3 8410   3.461   3.287  15.584 -1.8582  0.1308 -0.5028
  563MPD2     N 8411   3.452   2.820  15.616 -0.0010 -0.6628 -0.1271
  563MPD2    H5 8412   3.391   2.748  15.653 -0.4907  0.0989  0.5555
  563MPD2    N1 8413   3.085   3.106  15.742  0.4098 -0.0854 -0.0032
  563MPD2    H7 8414   3.059   3.201  15.766  2.4019  0.9099 -1.8547
  564TMC3    C1 8415   2.858   3.040  15.827 -0.0041  0.0229  0.3700
  564TMC3    C2 8416   2.743   2.968  15.804 -0.1236 -0.2386  0.3429
  564TMC3    C3 8417   2.675   2.913  15.905 -0.3936  0.6216 -0.3364
  564TMC3    C4 8418   2.898   3.069  15.953 -0.1222  0.1834  0.0891
  564TMC3    C5 8419   2.827   3.024  16.060  0.3524 -0.1042  0.7140
  564TMC3    C6 8420   2.711   2.954  16.035 -0.2236  0.0051  0.4439
  564TMC3     C 8421   2.976   3.015  15.735 -0.2052 -0.3013  0.5332
  564TMC3     O 8422   2.974   2.907  15.672 -0.2747 -0.6528 -0.5959
  564TMC3     H 8423   2.705   2.957  15.704  1.8796 -0.0876 -0.4398
  564TMC3    H1 8424   2.998   3.111  15.962  0.3468 -0.5105 -1.7929
  564TMC3    H2 8425   2.654   2.919  16.121 -0.4163  2.2907  1.2539
  564TMC3    C7 8426   2.912   2.960  16.154  0.4739  0.3079  0.3395
  564TMC3    C8 8427   2.676   2.770  15.917  0.3858  1.3382  0.0644
  564TMC3    O1 8428   3.015   3.021  16.188 -0.0294  0.2071 -0.1801
  564TMC3    O2 8429   2.623   2.726  16.014 -0.4862 -0.0070 -0.1443
  565TMC3    C1 8430   3.637   4.259  10.246  0.9617  0.2881 -0.4154
  565TMC3    C2 8431   3.658   4.163  10.336  0.2868  0.1498  0.1005
  565TMC3    C3 8432   3.607   4.042  10.303 -0.6062 -0.3846  0.3064
  565TMC3    C4 8433   3.563   4.245  10.131 -0.6815 -0.4372  0.6222
  565TMC3    C5 8434   3.500   4.128  10.121 -0.6096 -0.8483 -0.1047
  565TMC3    C6 8435   3.523   4.023  10.206  0.2464 -0.5912  0.6316
  565TMC3     C 8436   3.713   4.380  10.246  0.3360 -0.0208  0.1869
  565TMC3     O 8437   3.740   4.443  10.143 -0.3445 -0.3937  0.3076
  565TMC3     H 8438   3.717   4.179  10.426  0.3325  4.0112 -0.6117
  565TMC3    H1 8439   3.555   4.319  10.052  3.3155 -0.5970  0.0447
  565TMC3    H2 8440   3.486   3.923  10.187 -0.8554  0.0852 -0.8185
  565TMC3    C7 8441   3.402   4.117  10.008 -0.5844 -0.4616 -0.8046
  565TMC3    C8 8442   3.651   3.930  10.391 -0.2204 -0.1801  0.2045
  565TMC3    O1 8443   3.406   4.202   9.919  0.5759 -0.1759 -0.4938
  565TMC3    O2 8444   3.671   3.964  10.508 -0.1850 -0.0049  0.2697
  566MPD2     C 8445   0.660   0.688  14.257 -0.0536 -0.0049 -0.2418
  566MPD2    C1 8446   0.749   0.782  14.217  0.3607 -0.7229  0.4725
  566MPD2    C2 8447   0.708   0.876  14.125  0.9844 -0.3288  0.0883
  566MPD2    C3 8448   0.590   0.858  14.054 -0.5204  0.3994  0.8267
  566MPD2    C4 8449   0.509   0.757  14.088  0.4504 -0.1772  0.5007
  566MPD2    C5 8450   0.540   0.673  14.192  0.3529  0.0710  0.1574
  566MPD2     H 8451   0.769   0.961  14.097  0.1757  0.1860 -0.0965
  566MPD2    H1 8452   0.412   0.745  14.042  0.5013  1.4375 -0.0377
  566MPD2    H2 8453   0.689   0.609  14.325 -1.3718  1.0075  1.4847
  566MPD2    H3 8454   0.469   0.601  14.231 -0.0459  0.9077  0.9920
  566MPD2     N 8455   0.564   0.943  13.948 -0.3770  0.4904 -0.3118
  566MPD2    H5 8456   0.632   1.014  13.923  0.0935 -0.5261 -1.9208
  566MPD2    N1 8457   0.880   0.781  14.274 -0.2651 -0.3206  0.5515
  566MPD2    H7 8458   0.902   0.727  14.358 -1.0406  0.5588  1.3247
  567TMC3    C1 8459   1.115   0.847  14.286  0.5037 -0.5566 -0.8604
  567TMC3    C2 8460   1.223   0.887  14.216  0.1168 -0.0616  1.1661
  567TMC3    C3 8461   1.337   0.928  14.280  0.6567 -1.2628  0.2001
  567TMC3    C4 8462   1.114   0.862  14.424  0.8587  0.2762  0.1789
  567TMC3    C5 8463   1.228   0.904  14.485  0.4382  0.4323 -0.4218
  567TMC3    C6 8464   1.341   0.933  14.415  0.4579 -0.6292 -0.6065
  567TMC3     C 8465   0.984   0.853  14.219  0.6273  0.7244  0.7536
  567TMC3     O 8466   0.984   0.924  14.117 -0.3318 -0.0218 -0.6013
  567TMC3     H 8467   1.206   0.894  14.110  1.4043 -0.9145  0.9011
  567TMC3    H1 8468   1.019   0.844  14.473  2.2955 -3.3781  1.6660
  567TMC3    H2 8469   1.427   0.978  14.465 -1.1926  1.1415  0.6401
  567TMC3    C7 8470   1.236   0.881  14.626  0.9913 -0.2664  0.4164
  567TMC3    C8 8471   1.410   1.032  14.202  0.3289 -0.2056 -0.5417
  567TMC3    O1 8472   1.342   0.849  14.677  0.7576  0.0199  0.3412
  567TMC3    O2 8473   1.361   1.080  14.101  0.2838  0.2484  0.5171
  568MPD2     C 8474   3.156   1.570  16.668 -0.2507 -0.0228 -0.5366
  568MPD2    C1 8475   3.017   1.564  16.692  0.8113 -0.4093 -0.0621
  568MPD2    C2 8476   2.929   1.633  16.611  0.1232 -0.3696  0.0873
  568MPD2    C3 8477   2.978   1.708  16.505 -0.6899 -0.2875  0.2347
  568MPD2    C4 8478   3.112   1.706  16.476  0.9825 -0.5309 -0.1155
  568MPD2    C5 8479   3.198   1.640  16.560 -0.3946 -0.0058 -0.3162
  568MPD2     H 8480   2.821   1.630  16.620  0.3288  2.7271  3.4742
  568MPD2    H1 8481   3.158   1.767  16.399  1.6352 -1.0034 -0.1006
  568MPD2    H2 8482   3.227   1.503  16.714 -2.0870 -0.7103  1.3103
  568MPD2    H3 8483   3.307   1.644  16.555 -0.4667  0.7471 -1.1744
  568MPD2     N 8484   2.876   1.759  16.417 -0.3676  0.5740  0.4588
  568MPD2    H5 8485   2.784   1.724  16.438  0.7899 -1.8292  1.5191
  568MPD2    N1 8486   2.977   1.503  16.810 -0.0404  0.0423 -0.0833
  568MPD2    H7 8487   3.047   1.459  16.870  2.0044  1.4402 -1.4601
  569TMC3    C1 8488   2.768   1.874  16.244  0.0841  0.1098 -0.2864
  569TMC3    C2 8489   2.674   1.922  16.328 -0.8916  0.2773 -0.3210
  569TMC3    C3 8490   2.579   2.011  16.268 -0.1834  0.1896  0.2982
  569TMC3    C4 8491   2.775   1.921  16.116 -0.3287  0.0940  0.0465
  569TMC3    C5 8492   2.690   2.025  16.065 -0.4619  0.0946 -0.2760
  569TMC3    C6 8493   2.579   2.058  16.138 -0.0191 -0.5015  0.0694
  569TMC3     C 8494   2.891   1.833  16.304  0.3338  0.5270 -0.0576
  569TMC3     O 8495   2.993   1.870  16.253  0.3341  0.3914 -0.4864
  569TMC3     H 8496   2.671   1.916  16.436 -2.6897  1.1582 -0.3051
  569TMC3    H1 8497   2.858   1.899  16.050  1.0508  0.6598  1.5689
  569TMC3    H2 8498   2.506   2.127  16.097  1.6659  1.1567 -0.1399
  569TMC3    C7 8499   2.737   2.111  15.960 -0.3279 -0.2408  0.2487
  569TMC3    C8 8500   2.514   2.107  16.348 -0.1457 -0.2241 -0.8790
  569TMC3    O1 8501   2.832   2.063  15.903  0.0260  0.0766 -0.1369
  569TMC3    O2 8502   2.394   2.104  16.327 -0.4072 -0.5387  0.6298
  570TMC3    C1 8503   1.876   0.607  16.006  0.0739  0.4330  0.3002
  570TMC3    C2 8504   1.965   0.604  15.900  0.4553  0.2400  0.3269
  570TMC3    C3 8505   1.973   0.710  15.811 -0.1271  1.4237 -0.0847
  570TMC3    C4 8506   1.793   0.713  16.013 -0.4329 -0.3585  0.9095
  570TMC3    C5 8507   1.801   0.810  15.918  0.3813 -0.2712 -0.2722
  570TMC3    C6 8508   1.892   0.813  15.820  0.0500  0.0348  0.0340
  570TMC3     C 8509   1.868   0.494  16.093  0.1436  0.7500  0.5940
  570TMC3     O 8510   1.921   0.391  16.054 -0.5631 -0.7969 -0.5588
  570TMC3     H 8511   2.044   0.530  15.912  0.3016 -0.1525 -1.1076
  570TMC3    H1 8512   1.722   0.723  16.095  0.4724  2.8595  1.2726
  570TMC3    H2 8513   1.905   0.895  15.750  2.5698  0.8813  1.4994
  570TMC3    C7 8514   1.708   0.920  15.936 -0.3915  0.5688 -0.3977
  570TMC3    C8 8515   2.106   0.732  15.758  0.2028  1.1944 -0.3784
  570TMC3    O1 8516   1.649   0.935  16.044  0.1584  0.2524  0.1759
  570TMC3    O2 8517   2.139   0.846  15.730 -0.2887 -0.5284 -0.5463
  571MPD2     C 8518   4.247   2.156   0.302  0.4673  0.2744  0.7065
  571MPD2    C1 8519   4.291   2.220   0.191  0.6700 -0.4383 -0.4587
  571MPD2    C2 8520   4.315   2.360   0.208 -0.4456 -0.3354  0.5544
  571MPD2    C3 8521   4.304   2.414   0.338  0.8214 -0.4174 -0.2046
  571MPD2    C4 8522   4.268   2.344   0.449 -0.1599  0.6932  0.4055
  571MPD2    C5 8523   4.238   2.214   0.424  0.2636  0.9436 -1.4256
  571MPD2     H 8524   4.343   2.420   0.122 -2.3252  0.5910  0.5955
  571MPD2    H1 8525   4.258   2.382   0.550 -2.6885 -0.6978  0.6780
  571MPD2    H2 8526   4.229   2.049   0.295  1.9997  0.0292  0.4449
  571MPD2    H3 8527   4.216   2.154   0.511 -1.2928  1.9475 -1.1375
  571MPD2     N 8528   4.325   2.547   0.363  0.3531 -0.1149  0.4161
  571MPD2    H5 8529   4.336   2.561   0.463 -0.1654 -0.2844  0.4969
  571MPD2    N1 8530   4.297   2.150   0.059  0.1363 -0.4058 -0.7547
  571MPD2    H7 8531   4.245   2.064   0.054 -1.2234  0.3800 -0.0680
  572TMC3    C1 8532   4.299   2.782   0.333  0.0215 -0.0566  0.8992
  572TMC3    C2 8533   4.252   2.797   0.459 -0.0331 -0.2506 -0.6874
  572TMC3    C3 8534   4.224   2.922   0.515  0.8622  0.1131  0.3188
  572TMC3    C4 8535   4.314   2.894   0.250  0.3145  0.4372  0.2892
  572TMC3    C5 8536   4.292   3.015   0.316  0.4740 -0.3606  0.7233
  572TMC3    C6 8537   4.250   3.037   0.446 -0.0398 -0.3286 -1.1148
  572TMC3     C 8538   4.320   2.652   0.271  0.8956 -0.3095  0.1972
  572TMC3     O 8539   4.328   2.651   0.149  0.4821 -0.3038  0.0882
  572TMC3     H 8540   4.223   2.713   0.521  3.4021  0.6558  2.1844
  572TMC3    H1 8541   4.345   2.890   0.147  0.2848  2.8030  0.1951
  572TMC3    H2 8542   4.225   3.132   0.490 -0.3738 -0.8049 -0.2811
  572TMC3    C7 8543   4.356   3.121   0.248 -0.9257  0.6084  0.1295
  572TMC3    C8 8544   4.157   2.931   0.650  0.5943 -0.1597 -0.4532
  572TMC3    O1 8545   4.365   3.118   0.131  0.0535 -0.1560  0.7384
  572TMC3    O2 8546   4.103   3.037   0.680  0.1584  0.1675 -0.0051
  573MPD2     C 8547   1.313   2.285   0.679 -0.2990  0.4310 -0.0019
  573MPD2    C1 8548   1.310   2.396   0.757  0.1396  0.4028 -0.0349
  573MPD2    C2 8549   1.302   2.513   0.689  0.7248 -0.2030  0.5700
  573MPD2    C3 8550   1.299   2.529   0.557 -0.0955 -0.5345 -0.3930
  573MPD2    C4 8551   1.313   2.415   0.476 -0.3745 -0.1088  0.2041
  573MPD2    C5 8552   1.313   2.293   0.538 -0.1502  0.1179 -0.0815
  573MPD2     H 8553   1.300   2.604   0.748 -0.3574 -0.4208  0.8763
  573MPD2    H1 8554   1.297   2.422   0.369 -0.3590 -1.4107  0.1225
  573MPD2    H2 8555   1.311   2.184   0.717 -1.2855  0.9693  1.3670
  573MPD2    H3 8556   1.312   2.207   0.473 -2.8936  0.5619 -0.6361
  573MPD2     N 8557   1.296   2.657   0.495  0.4458  0.1246  0.7145
  573MPD2    H5 8558   1.311   2.675   0.396  2.5737  0.9505  1.1820
  573MPD2    N1 8559   1.305   2.371   0.895  0.0299 -0.2495 -0.0334
  573MPD2    H7 8560   1.298   2.274   0.925 -0.3113 -0.3746 -0.5061
  574TMC3    C1 8561   1.220   2.871   0.473 -0.2897  0.4458  0.1308
  574TMC3    C2 8562   1.094   2.923   0.466  0.3556  0.0629 -0.0603
  574TMC3    C3 8563   1.085   3.033   0.387 -0.2135 -0.5702  0.9410
  574TMC3    C4 8564   1.334   2.912   0.401  0.3974 -0.3359 -0.1816
  574TMC3    C5 8565   1.309   3.014   0.315  0.1439 -0.3726 -0.0974
  574TMC3    C6 8566   1.192   3.079   0.304 -0.4754 -0.3213 -0.2756
  574TMC3     C 8567   1.240   2.763   0.558 -0.3235 -1.0824  0.1478
  574TMC3     O 8568   1.164   2.760   0.656  0.4371  0.0898 -0.0652
  574TMC3     H 8569   1.011   2.889   0.527  0.2351  1.1861  0.3950
  574TMC3    H1 8570   1.434   2.877   0.420  0.6340  0.2154 -0.4076
  574TMC3    H2 8571   1.176   3.168   0.245  1.6339  1.3797  1.7055
  574TMC3    C7 8572   1.421   3.087   0.258  0.0374  0.2501  0.4128
  574TMC3    C8 8573   0.963   3.112   0.398 -0.4331  0.2189 -0.0274
  574TMC3    O1 8574   1.406   3.183   0.187 -0.1849  0.4704  0.2393
  574TMC3    O2 8575   0.952   3.195   0.307  0.1787 -0.3111  0.0810
  575TMC3    C1 8576   4.298   3.794  10.906 -0.4183 -0.7396  0.2413
  575TMC3    C2 8577   4.266   3.847  11.024  0.0412 -0.3112  0.1185
  575TMC3    C3 8578   4.137   3.838  11.065  0.9247  0.5908 -0.5211
  575TMC3    C4 8579   4.203   3.731  10.821  0.7332 -0.6182 -0.5190
  575TMC3    C5 8580   4.076   3.729  10.869 -0.6048 -0.4026 -0.4186
  575TMC3    C6 8581   4.040   3.785  10.989  0.2951 -0.1498  0.2150
  575TMC3     C 8582   4.421   3.850  10.845  0.2931 -0.3322 -0.1020
  575TMC3     O 8583   4.432   3.829  10.725  0.0514  0.2580 -0.0602
  575TMC3     H 8584   4.329   3.911  11.085 -0.9362 -0.1700  0.9872
  575TMC3    H1 8585   4.230   3.704  10.719 -2.4320 -1.3402 -1.1782
  575TMC3    H2 8586   3.938   3.770  11.022 -0.0719 -0.5162 -1.0822
  575TMC3    C7 8587   3.967   3.719  10.773 -0.5153 -0.2287 -0.5355
  575TMC3    C8 8588   4.117   3.881  11.205  0.0658  1.0250  0.2999
  575TMC3    O1 8589   3.864   3.784  10.802 -0.2233  0.0608  0.0214
  575TMC3    O2 8590   4.222   3.866  11.269  0.6463  0.1271 -0.0694
  576MPD2     C 8591   3.291   0.444  12.671  0.2716  0.3787  0.3738
  576MPD2    C1 8592   3.365   0.547  12.619 -0.2493 -0.2226  0.1543
  576MPD2    C2 8593   3.380   0.669  12.692  0.2594 -1.1966  0.0477
  576MPD2    C3 8594   3.314   0.685  12.810 -0.1787 -0.1176 -0.2907
  576MPD2    C4 8595   3.242   0.578  12.862  0.7248  0.3625  0.2208
  576MPD2    C5 8596   3.235   0.459  12.800 -1.1814  0.6192 -0.2226
  576MPD2     H 8597   3.444   0.748  12.655 -1.0375  0.6648  1.7846
  576MPD2    H1 8598   3.180   0.579  12.951  0.5852 -0.6748  0.1453
  576MPD2    H2 8599   3.269   0.356  12.612  0.9794  1.3192 -1.3028
  576MPD2    H3 8600   3.185   0.372  12.840 -0.9330 -0.7014 -2.7736
  576MPD2     N 8601   3.325   0.818  12.866 -0.1192  0.0902  0.6332
  576MPD2    H5 8602   3.370   0.890  12.810  0.3034 -0.5912  0.0960
  576MPD2    N1 8603   3.445   0.529  12.501  0.0974  0.4369 -0.8314
  576MPD2    H7 8604   3.518   0.597  12.483  1.2181 -0.2784  0.9593
  577TMC3    C1 8605   3.569   0.434  12.328  0.3427  0.2651  0.5401
  577TMC3    C2 8606   3.584   0.325  12.247 -0.7468 -0.3618  0.0067
  577TMC3    C3 8607   3.650   0.348  12.126 -0.8625  0.5611 -0.6397
  577TMC3    C4 8608   3.604   0.561  12.282 -0.5286 -0.0742 -0.2770
  577TMC3    C5 8609   3.657   0.574  12.158 -0.0811 -0.4753  0.8514
  577TMC3    C6 8610   3.682   0.467  12.079  0.2992 -0.0561 -0.0298
  577TMC3     C 8611   3.453   0.418  12.419  0.0947  0.1405 -0.6892
  577TMC3     O 8612   3.377   0.320  12.409 -0.1962 -0.2808 -1.4662
  577TMC3     H 8613   3.573   0.222  12.279 -0.1071  0.8325  4.0529
  577TMC3    H1 8614   3.605   0.650  12.345 -0.2855  0.8017 -1.5178
  577TMC3    H2 8615   3.729   0.476  11.982 -0.9118  0.2051 -0.5933
  577TMC3    C7 8616   3.739   0.683  12.130 -0.1792 -0.4823  0.1367
  577TMC3    C8 8617   3.719   0.235  12.075 -0.3583  0.3839 -0.6584
  577TMC3    O1 8618   3.798   0.742  12.215  0.4201 -0.5377 -0.0526
  577TMC3    O2 8619   3.684   0.128  12.126  0.4148  0.4598 -0.1207
  578MPD2     C 8620   0.987   0.479   1.318  0.4989  0.5044 -0.0981
  578MPD2    C1 8621   1.087   0.435   1.239 -0.1090 -0.5917  0.8906
  578MPD2    C2 8622   1.209   0.402   1.295  1.0655 -0.4813 -0.0823
  578MPD2    C3 8623   1.225   0.401   1.440  0.6763 -0.3412  0.4866
  578MPD2    C4 8624   1.120   0.449   1.513 -0.0042  0.6544  0.1482
  578MPD2    C5 8625   1.005   0.491   1.454 -0.8822  0.7988  0.4022
  578MPD2     H 8626   1.294   0.372   1.236 -0.9177 -0.5778 -2.8590
  578MPD2    H1 8627   1.126   0.462   1.621  0.7695 -2.5338  0.4867
  578MPD2    H2 8628   0.888   0.511   1.286 -0.6911 -2.5464  0.5209
  578MPD2    H3 8629   0.930   0.549   1.508 -1.4421  0.4155  0.0277
  578MPD2     N 8630   1.351   0.365   1.483  0.0027 -0.1570  0.5076
  578MPD2    H5 8631   1.417   0.342   1.409 -0.6797  0.7611 -0.4059
  578MPD2    N1 8632   1.062   0.429   1.098 -0.3224 -0.3697 -0.1689
  578MPD2    H7 8633   0.970   0.460   1.068 -0.3868 -0.6880 -0.2930
  579TMC3    C1 8634   1.524   0.316   1.623  0.1869 -0.1620 -0.2818
  579TMC3    C2 8635   1.608   0.387   1.708 -0.6902 -0.3960  0.2676
  579TMC3    C3 8636   1.740   0.386   1.674 -0.5033 -0.3422 -0.0123
  579TMC3    C4 8637   1.564   0.240   1.517  0.5125  0.5925 -0.5026
  579TMC3    C5 8638   1.706   0.231   1.498  0.4440  0.1392  0.3540
  579TMC3    C6 8639   1.792   0.307   1.573 -0.5687 -0.0087 -0.9639
  579TMC3     C 8640   1.387   0.356   1.616  0.6638 -0.2864  0.1292
  579TMC3     O 8641   1.324   0.386   1.717 -0.2125  1.0297 -0.2958
  579TMC3     H 8642   1.561   0.455   1.778 -2.1069 -1.8783  0.7656
  579TMC3    H1 8643   1.490   0.183   1.461  0.6782  1.1033 -1.2345
  579TMC3    H2 8644   1.899   0.306   1.558 -0.6280 -0.5139 -1.3418
  579TMC3    C7 8645   1.771   0.141   1.405  0.4564  0.4722 -0.4837
  579TMC3    C8 8646   1.819   0.495   1.734  0.0987  0.7522 -0.6133
  579TMC3    O1 8647   1.889   0.142   1.406 -0.2615 -0.0368 -0.0423
  579TMC3    O2 8648   1.774   0.540   1.839  0.4299  0.7245  0.0234
  580TMC3    C1 8649   0.931   4.130  11.805 -0.9179  0.6985 -0.4353
  580TMC3    C2 8650   0.939   4.097  11.675 -0.6220 -0.7006  0.1541
  580TMC3    C3 8651   1.004   3.985  11.625  0.4313 -0.9022 -0.0744
  580TMC3    C4 8652   1.005   4.053  11.894 -0.4223  0.1532  0.3192
  580TMC3    C5 8653   1.086   3.947  11.844  0.1365 -0.0357 -0.1673
  580TMC3    C6 8654   1.077   3.907  11.710  0.4395  0.5684 -0.8799
  580TMC3     C 8655   0.960   4.277  11.826  0.1609  0.7175 -1.0202
  580TMC3     O 8656   0.991   4.335  11.724 -0.0750  0.0947 -0.3983
  580TMC3     H 8657   0.887   4.164  11.606  2.4617  1.0610 -0.4607
  580TMC3    H1 8658   1.019   4.092  11.994  1.2060  1.8432 -0.5658
  580TMC3    H2 8659   1.142   3.838  11.658 -1.6270 -1.1171 -1.2155
  580TMC3    C7 8660   1.153   3.859  11.944  0.7133  0.9522 -0.9752
  580TMC3    C8 8661   1.080   4.010  11.502 -0.5894 -0.1996  0.1871
  580TMC3    O1 8662   1.142   3.898  12.063  0.4104 -0.3475 -0.0661
  580TMC3    O2 8663   1.096   3.914  11.431  0.5042  0.6141  0.2788
  581MPD2     C 8664   4.026   4.339  14.957  0.0140  0.0024  0.4455
  581MPD2    C1 8665   3.949   4.243  15.008 -0.9852 -0.3734 -0.5236
  581MPD2    C2 8666   3.816   4.237  14.968  0.3415 -0.1033  0.7127
  581MPD2    C3 8667   3.766   4.342  14.888  0.1696  0.5286 -0.0675
  581MPD2    C4 8668   3.848   4.442  14.840  0.7192  0.5942 -0.4477
  581MPD2    C5 8669   3.978   4.435  14.870  0.2361  0.1759 -0.6733
  581MPD2     H 8670   3.755   4.152  14.994  2.5375 -1.2367  2.1863
  581MPD2    H1 8671   3.806   4.512  14.770  1.4186  0.2529 -1.2139
  581MPD2    H2 8672   4.131   4.337  14.983 -0.0986 -1.7625  0.7186
  581MPD2    H3 8673   4.052   4.502  14.827  1.3555 -0.7002 -0.1237
  581MPD2     N 8674   3.624   4.334  14.871 -0.5515  0.2074  0.7657
  581MPD2    H5 8675   3.571   4.251  14.897  1.3821 -1.5510 -0.8798
  581MPD2    N1 8676   4.021   4.147  15.082 -0.6975  0.3785 -0.4201
  581MPD2    H7 8677   4.120   4.167  15.089 -0.8454  0.8067  0.5015
  582TMC3    C1 8678   4.072   3.971  15.245 -0.5039 -0.7337  0.0278
  582TMC3    C2 8679   4.129   4.052  15.342 -0.1629  0.2321  0.0496
  582TMC3    C3 8680   4.151   3.984  15.459  0.2520 -0.3390  0.4613
  582TMC3    C4 8681   4.034   3.838  15.264 -0.6035  0.7153  0.5282
  582TMC3    C5 8682   4.052   3.787  15.391 -0.2217  0.0921 -0.5160
  582TMC3    C6 8683   4.102   3.860  15.500 -0.1272 -0.1290  0.0754
  582TMC3     C 8684   3.970   4.044  15.157 -0.2983 -0.7489  0.2533
  582TMC3     O 8685   3.859   4.000  15.161  0.2954  0.0614 -0.0652
  582TMC3     H 8686   4.121   4.160  15.334 -0.5245  0.3506  1.9541
  582TMC3    H1 8687   3.998   3.770  15.188 -0.5971  0.4739  0.7422
  582TMC3    H2 8688   4.127   3.817  15.597 -0.5152 -1.4620 -0.4253
  582TMC3    C7 8689   3.935   3.712  15.436  0.0513 -0.3316  0.4778
  582TMC3    C8 8690   4.219   4.056  15.570  0.1307  0.0389 -0.8485
  582TMC3    O1 8691   3.925   3.650  15.540 -0.1862 -0.8444  0.1970
  582TMC3    O2 8692   4.322   4.117  15.551  0.8733  0.2068 -0.7632
  583MPD2     C 8693   3.878   1.267  16.780  0.7255 -0.5909  0.7145
  583MPD2    C1 8694   3.877   1.344  16.671 -0.2517 -0.4101  0.4762
  583MPD2    C2 8695   3.797   1.452  16.664  0.4083 -0.2102  0.7061
  583MPD2    C3 8696   3.699   1.477  16.758 -0.7738  0.6993 -0.8932
  583MPD2    C4 8697   3.689   1.394  16.870 -0.3030 -0.4422 -0.1826
  583MPD2    C5 8698   3.781   1.289  16.875  0.0586  0.0577  0.0897
  583MPD2     H 8699   3.800   1.506  16.570 -1.0865  1.6073  1.7013
  583MPD2    H1 8700   3.621   1.418  16.952 -1.3733 -0.6249 -1.0109
  583MPD2    H2 8701   3.930   1.173  16.791  0.4188 -0.8777 -0.3423
  583MPD2    H3 8702   3.763   1.215  16.952  0.8635 -0.2873 -0.0564
  583MPD2     N 8703   3.622   1.594  16.742 -0.4092  0.5963  0.2088
  583MPD2    H5 8704   3.655   1.660  16.673 -3.1528  0.6896 -1.0326
  583MPD2    N1 8705   3.966   1.319  16.564  0.7887 -0.4982 -0.4378
  583MPD2    H7 8706   3.975   1.384  16.486  0.9244 -1.4671 -1.2388
  584TMC3    C1 8707   3.444   1.747  16.788 -0.6447 -0.2721 -0.8218
  584TMC3    C2 8708   3.533   1.843  16.759  1.3964  0.3000  0.3069
  584TMC3    C3 8709   3.517   1.961  16.825 -0.1632 -0.9096  0.3511
  584TMC3    C4 8710   3.333   1.776  16.874 -0.1051 -0.3108  0.7107
  584TMC3    C5 8711   3.314   1.902  16.921 -0.3227 -0.4221 -0.0284
  584TMC3    C6 8712   3.412   1.992  16.907  0.2999  0.1791 -0.5862
  584TMC3     C 8713   3.496   1.614  16.803 -0.3572  0.4120 -0.0691
  584TMC3     O 8714   3.442   1.538  16.881 -0.4641 -0.0837  0.0551
  584TMC3     H 8715   3.618   1.829  16.694  1.3423  0.1278  0.2742
  584TMC3    H1 8716   3.262   1.703  16.910  0.0151  0.2946  2.1537
  584TMC3    H2 8717   3.393   2.093  16.939  1.4010  0.3267 -0.4055
  584TMC3    C7 8718   3.235   1.903  17.041  0.3324 -0.0376 -0.2260
  584TMC3    C8 8719   3.612   2.062  16.788 -0.1572 -0.1404 -0.2867
  584TMC3    O1 8720   3.272   1.980  17.132  0.6231  0.9099 -0.3730
  584TMC3    O2 8721   3.650   2.055  16.674 -0.3596 -0.4229  0.2159
  585MPD2     C 8722   3.366   0.460   0.809 -0.2838  0.1406 -0.0907
  585MPD2    C1 8723   3.271   0.549   0.755  0.2050  0.0797  0.6319
  585MPD2    C2 8724   3.166   0.495   0.685 -0.0597 -0.2227  0.3893
  585MPD2    C3 8725   3.158   0.358   0.665 -0.3367  0.1405 -1.5194
  585MPD2    C4 8726   3.240   0.273   0.731 -0.1124 -0.7022 -0.1032
  585MPD2    C5 8727   3.345   0.322   0.807  1.4425 -0.4968 -0.5883
  585MPD2     H 8728   3.086   0.551   0.638 -0.3118 -1.3441 -0.5340
  585MPD2    H1 8729   3.237   0.166   0.715  1.0871 -0.6608 -0.6103
  585MPD2    H2 8730   3.459   0.486   0.858 -0.2141 -0.1658 -0.0610
  585MPD2    H3 8731   3.420   0.254   0.847  0.1318  0.8007  4.0935
  585MPD2     N 8732   3.075   0.319   0.560 -0.0872  0.4449 -0.1421
  585MPD2    H5 8733   3.010   0.388   0.524 -0.4600  1.1264  1.8688
  585MPD2    N1 8734   3.298   0.687   0.755  0.5746  0.2402 -0.8471
  585MPD2    H7 8735   3.395   0.708   0.776  1.0023 -0.7066 -1.8678
  586TMC3    C1 8736   3.015   0.195   0.381 -0.4739 -0.2599  0.3148
  586TMC3    C2 8737   3.064   0.119   0.275  0.5686 -0.5301 -0.2545
  586TMC3    C3 8738   2.981   0.106   0.167  0.0409 -0.1823 -0.0629
  586TMC3    C4 8739   2.895   0.258   0.374  0.6280  0.5045 -0.1508
  586TMC3    C5 8740   2.821   0.254   0.258 -0.1734  0.1697 -0.7754
  586TMC3    C6 8741   2.869   0.174   0.155  0.0049  0.0728 -0.2561
  586TMC3     C 8742   3.089   0.198   0.501  0.6419 -0.5786 -0.0174
  586TMC3     O 8743   3.181   0.115   0.507 -0.0074  0.2532 -0.1934
  586TMC3     H 8744   3.156   0.062   0.281  1.1292  0.1611 -2.0300
  586TMC3    H1 8745   2.854   0.314   0.458  3.6392 -1.2225  2.4571
  586TMC3    H2 8746   2.806   0.161   0.067  0.1541  0.0525 -0.3594
  586TMC3    C7 8747   2.676   0.262   0.280  1.0711  0.2086 -0.3537
  586TMC3    C8 8748   3.044   0.049   0.049 -0.4118  0.2754  0.1718
  586TMC3    O1 8749   2.627   0.342   0.358 -0.3821  0.0723  0.2201
  586TMC3    O2 8750   2.987   4.696  17.744  0.5160  0.0152 -0.2612
  587TMC3    C1 8751   1.038   3.790  16.430  0.1242  0.5056  0.2775
  587TMC3    C2 8752   1.050   3.861  16.549  0.0656 -0.2595 -0.1560
  587TMC3    C3 8753   1.169   3.841  16.611 -0.0186  0.1372 -0.2536
  587TMC3    C4 8754   1.127   3.699  16.385  0.1161  0.0643  0.6542
  587TMC3    C5 8755   1.242   3.679  16.450 -0.2717 -0.0495  0.4372
  587TMC3    C6 8756   1.267   3.752  16.570  0.1039  0.5309  0.0550
  587TMC3     C 8757   0.905   3.794  16.373  0.0182  0.4718 -0.2242
  587TMC3     O 8758   0.894   3.788  16.250  0.2867  0.1045  0.3509
  587TMC3     H 8759   0.984   3.946  16.564  0.2266 -0.0407 -0.7152
  587TMC3    H1 8760   1.098   3.658  16.289 -2.8259  1.5457  0.9189
  587TMC3    H2 8761   1.363   3.742  16.619  0.0234 -0.8315 -0.0633
  587TMC3    C7 8762   1.349   3.643  16.361 -0.3079 -0.0100  0.3372
  587TMC3    C8 8763   1.183   3.898  16.744  0.1889 -0.0845 -0.1768
  587TMC3    O1 8764   1.326   3.639  16.241  0.4095  0.4684  0.8995
  587TMC3    O2 8765   1.296   3.901  16.791  0.0425 -0.1617  0.2468
  588TMC3    C1 8766   3.357   1.798   9.840 -0.5322 -0.1683  0.4116
  588TMC3    C2 8767   3.312   1.680   9.792  0.6695 -0.5798 -0.2165
  588TMC3    C3 8768   3.367   1.560   9.836 -0.1479 -0.5417  0.3839
  588TMC3    C4 8769   3.452   1.796   9.937 -0.3219 -0.8654 -0.3671
  588TMC3    C5 8770   3.503   1.681   9.980  0.2776  0.4580 -1.4886
  588TMC3    C6 8771   3.471   1.556   9.927 -0.1604  0.0864 -0.4524
  588TMC3     C 8772   3.295   1.925   9.822  0.0381  0.4860  0.1223
  588TMC3     O 8773   3.289   1.967   9.706  0.1113  0.2177 -0.3349
  588TMC3     H 8774   3.245   1.697   9.708 -1.6103 -0.2571  1.6417
  588TMC3    H1 8775   3.487   1.891   9.975  0.4466 -1.9158  1.5656
  588TMC3    H2 8776   3.523   1.463   9.952  0.6605  0.4716 -0.7289
  588TMC3    C7 8777   3.601   1.694  10.085 -0.5936  0.2097  0.0897
  588TMC3    C8 8778   3.310   1.440   9.779 -0.2075  0.3254 -0.4246
  588TMC3    O1 8779   3.718   1.659  10.056  0.0201  0.8447 -0.2235
  588TMC3    O2 8780   3.189   1.446   9.756 -0.5286 -0.6422  0.0954
  589TMC3    C1 8781   2.133   3.750   1.521 -0.2922  0.2009 -0.3335
  589TMC3    C2 8782   2.217   3.759   1.627  0.5501  0.3298 -0.1221
  589TMC3    C3 8783   2.201   3.666   1.723  0.0527  0.1363  0.3133
  589TMC3    C4 8784   2.035   3.656   1.514  0.2298 -0.1359 -0.4587
  589TMC3    C5 8785   2.024   3.567   1.618  0.6820  0.2433 -0.7814
  589TMC3    C6 8786   2.105   3.562   1.729 -0.4354 -0.2869 -0.3493
  589TMC3     C 8787   2.129   3.862   1.427  0.1513 -0.3728 -0.6716
  589TMC3     O 8788   2.047   3.845   1.339  0.2496 -0.2700  0.2607
  589TMC3     H 8789   2.294   3.834   1.631 -0.8800  1.8629 -1.3958
  589TMC3    H1 8790   1.971   3.654   1.426  0.5409 -0.4211 -0.6799
  589TMC3    H2 8791   2.107   3.485   1.806 -1.1472 -1.9395 -1.9763
  589TMC3    C7 8792   1.964   3.440   1.582 -0.0956 -0.5127 -0.4362
  589TMC3    C8 8793   2.306   3.647   1.821 -0.8736 -0.5784 -0.4026
  589TMC3    O1 8794   1.953   3.422   1.463  0.3724  0.1697  0.2040
  589TMC3    O2 8795   2.277   3.590   1.930  0.2871 -0.1132  0.2654
  590MPD2     C 8796   1.242   2.266  16.273  0.1804  0.1441  0.0104
  590MPD2    C1 8797   1.291   2.357  16.366 -0.3916  0.7579  0.1677
  590MPD2    C2 8798   1.429   2.361  16.396  0.6699  0.4694 -0.2579
  590MPD2    C3 8799   1.514   2.282  16.320 -0.4837  0.3868  0.5339
  590MPD2    C4 8800   1.466   2.203  16.221  0.1800 -0.6472  0.4510
  590MPD2    C5 8801   1.330   2.188  16.207  0.1651 -0.2970  0.4585
  590MPD2     H 8802   1.472   2.433  16.464  1.4214 -0.7987  0.6280
  590MPD2    H1 8803   1.538   2.143  16.166 -0.0319 -1.6897  1.3149
  590MPD2    H2 8804   1.135   2.256  16.258  0.2267  1.3121 -1.0469
  590MPD2    H3 8805   1.288   2.121  16.133  1.7346  0.3831 -1.0455
  590MPD2     N 8806   1.656   2.301  16.349  0.5575 -0.0876 -0.2053
  590MPD2    H5 8807   1.683   2.365  16.424 -1.0232 -1.0733  1.1988
  590MPD2    N1 8808   1.194   2.450  16.421  0.5296 -0.2097 -0.0699
  590MPD2    H7 8809   1.103   2.441  16.376 -0.3121 -1.0573  1.7950
  591TMC3    C1 8810   1.890   2.295  16.330  0.5726  0.1134  0.0433
  591TMC3    C2 8811   1.991   2.237  16.257 -0.0536 -0.4721  0.6417
  591TMC3    C3 8812   2.103   2.309  16.228 -0.3185 -0.4410  0.0845
  591TMC3    C4 8813   1.902   2.426  16.365 -0.0123 -0.3331 -0.4071
  591TMC3    C5 8814   2.022   2.490  16.348 -0.2012 -0.4780 -0.0302
  591TMC3    C6 8815   2.121   2.440  16.266  0.0749  0.1364 -0.1804
  591TMC3     C 8816   1.762   2.229  16.300 -0.4829 -1.0846 -0.5894
  591TMC3     O 8817   1.757   2.127  16.230 -0.0463 -0.5210  0.3306
  591TMC3     H 8818   1.976   2.137  16.218 -0.1456 -0.2427  0.0919
  591TMC3    H1 8819   1.831   2.472  16.433 -1.5875  0.0404 -2.2945
  591TMC3    H2 8820   2.214   2.496  16.265  0.1051  0.0811 -2.0470
  591TMC3    C7 8821   2.038   2.620  16.411  0.2640  0.2314  0.1166
  591TMC3    C8 8822   2.174   2.264  16.105 -0.6647  0.5932  0.8524
  591TMC3    O1 8823   2.007   2.629  16.530  0.1031  0.1721  0.1220
  591TMC3    O2 8824   2.167   2.145  16.076 -0.0640  0.1910  0.6809
  592MPD2     C 8825   2.043   4.355  11.383 -0.1733  1.3429  0.0985
  592MPD2    C1 8826   2.056   4.356  11.516 -0.1950  0.5538  0.0017
  592MPD2    C2 8827   2.000   4.249  11.586 -0.3214  0.1084  0.6569
  592MPD2    C3 8828   1.937   4.145  11.521 -0.1505 -0.1510  0.1458
  592MPD2    C4 8829   1.894   4.173  11.396  0.8573  0.6191  0.1031
  592MPD2    C5 8830   1.948   4.278  11.323  0.7671 -0.5136  0.2385
  592MPD2     H 8831   2.014   4.235  11.693 -3.6071 -1.3008  0.9215
  592MPD2    H1 8832   1.808   4.120  11.356  0.7532  0.7641  0.1349
  592MPD2    H2 8833   2.082   4.434  11.320  2.1507  0.0245 -0.1237
  592MPD2    H3 8834   1.916   4.298  11.221  0.6714 -0.1703  0.3339
  592MPD2     N 8835   1.899   4.033  11.597  0.3970  0.0186  0.0365
  592MPD2    H5 8836   1.932   4.029  11.693 -0.0420 -0.0910  0.1833
  592MPD2    N1 8837   2.153   4.448  11.562  0.0529 -0.1317  0.4150
  592MPD2    H7 8838   2.201   4.494  11.485 -1.3327 -1.8648 -1.4667
  593TMC3    C1 8839   2.279   4.574  11.717 -0.1100 -0.0768  0.0156
  593TMC3    C2 8840   2.255   4.667  11.819 -0.1362 -0.2208  0.0517
  593TMC3    C3 8841   2.338   0.039  11.834  0.5792 -0.0886 -0.1961
  593TMC3    C4 8842   2.367   4.597  11.622 -0.9534  0.3610  0.1469
  593TMC3    C5 8843   2.447   4.707  11.638 -0.4412 -0.0028  0.4383
  593TMC3    C6 8844   2.437   0.062  11.741 -0.6246  0.6584  0.0486
  593TMC3     C 8845   2.181   4.471  11.695  0.3008 -0.5876  0.5993
  593TMC3     O 8846   2.129   4.433  11.796  0.5962 -0.1780 -0.2953
  593TMC3     H 8847   2.174   4.640  11.886  0.8249 -2.0949  0.4648
  593TMC3    H1 8848   2.398   4.529  11.543  1.2886  0.3838  0.9803
  593TMC3    H2 8849   2.501   0.149  11.751  2.0492 -1.2031 -0.9441
  593TMC3    C7 8850   2.556   0.002  11.545  0.5473  0.1858  0.0754
  593TMC3    C8 8851   2.357   0.076  11.977  0.5284 -0.1673 -0.6811
  593TMC3    O1 8852   2.648   0.076  11.571  0.3272 -0.1073 -0.0614
  593TMC3    O2 8853   2.281   0.021  12.057  0.0524 -0.0955  0.0381
  594MPD2     C 8854   1.131   2.676  14.827 -0.4887 -0.1283  0.0252
  594MPD2    C1 8855   1.049   2.788  14.834  0.3138 -0.5948 -0.4672
  594MPD2    C2 8856   1.107   2.912  14.801  0.2356 -0.6526  0.4495
  594MPD2    C3 8857   1.236   2.922  14.749 -1.0399  0.4133  0.2252
  594MPD2    C4 8858   1.306   2.814  14.730 -0.4157 -0.2716  0.3401
  594MPD2    C5 8859   1.256   2.692  14.772  0.4402  0.1014 -0.6825
  594MPD2     H 8860   1.050   3.002  14.820  1.3791  0.5817 -2.0187
  594MPD2    H1 8861   1.408   2.807  14.695 -0.7427  0.0445 -0.6828
  594MPD2    H2 8862   1.098   2.579  14.863  1.2662 -0.4723  0.7217
  594MPD2    H3 8863   1.313   2.602  14.753 -1.2904 -1.2368  0.5868
  594MPD2     N 8864   1.286   3.050  14.703 -0.4781  0.0352 -0.3188
  594MPD2    H5 8865   1.218   3.125  14.708 -0.3588  0.1649 -0.6594
  594MPD2    N1 8866   0.914   2.778  14.879 -0.3256 -0.3247 -0.0371
  594MPD2    H7 8867   0.882   2.689  14.915  3.4006 -0.9698  1.7010
  595TMC3    C1 8868   1.595   3.410  14.628 -1.0540  0.4082  0.0272
  595TMC3    C2 8869   1.566   3.279  14.658 -0.2458  0.5211  0.1060
  595TMC3    C3 8870   1.441   3.227  14.652 -0.2428 -0.0337 -0.3944
  595TMC3    C4 8871   1.490   3.492  14.599  0.2633  0.4397  0.1639
  595TMC3    C5 8872   1.363   3.438  14.592 -0.5162  0.0055 -0.2211
  595TMC3    C6 8873   1.333   3.305  14.616  0.5752 -0.3392  0.4135
  595TMC3     C 8874   1.732   3.470  14.628 -0.0987  0.4499 -0.1688
  595TMC3     O 8875   1.736   3.584  14.579  0.2362 -0.7768  0.1522
  595TMC3     H 8876   1.649   3.217  14.689 -0.3949  0.8607  1.1786
  595TMC3    H1 8877   1.509   3.596  14.574  2.5943 -0.0309 -0.0845
  595TMC3    H2 8878   1.235   3.264  14.593  0.5796  0.4355 -0.9891
  595TMC3    C7 8879   1.248   3.511  14.544  1.1057 -0.8229 -0.0593
  595TMC3    C8 8880   1.419   3.087  14.687  0.3096 -0.6154 -0.0900
  595TMC3    O1 8881   1.139   3.483  14.593  0.3018  0.0855 -0.2748
  595TMC3    O2 8882   1.514   3.024  14.725 -0.1864 -0.2053  0.7808
  596MPD2     C 8883   4.725   0.967  16.772  0.1939 -0.4316  0.0248
  596MPD2    C1 8884   0.028   1.088  16.721  0.0092 -0.2243 -0.8557
  596MPD2    C2 8885   0.097   1.091  16.602 -0.0324  0.1914 -0.0338
  596MPD2    C3 8886   0.125   0.981  16.524  0.0503  0.5166  0.0083
  596MPD2    C4 8887   0.111   0.864  16.589  0.4589 -0.1241  0.1198
  596MPD2    C5 8888   0.028   0.855  16.702  0.4496  0.8064  0.7963
  596MPD2     H 8889   0.142   1.181  16.564 -0.8163 -0.3573 -2.2642
  596MPD2    H1 8890   0.143   0.773  16.541 -1.3277 -0.4674 -0.4416
  596MPD2    H2 8891   4.656   0.944  16.853  2.0759 -2.6849  0.9894
  596MPD2    H3 8892   0.002   0.762  16.750 -0.8332  0.8838  0.2229
  596MPD2     N 8893   0.179   0.987  16.392 -0.1176  0.6295 -0.3927
  596MPD2    H5 8894   0.209   0.896  16.361  1.8388  2.3792 -3.6528
  596MPD2    N1 8895   4.729   1.215  16.775 -0.6134 -0.2206 -0.4605
  596MPD2    H7 8896   0.018   1.294  16.716  0.3183 -1.3498 -1.5540
  597TMC3    C1 8897   4.644   1.391  16.903 -0.0117  0.1500  0.1487
  597TMC3    C2 8898   4.722   1.483  16.834  0.2618 -0.7310  0.0109
  597TMC3    C3 8899   4.690   1.614  16.847 -0.4086 -0.0414 -1.1051
  597TMC3    C4 8900   4.552   1.429  16.997  0.8803 -0.0684 -0.6435
  597TMC3    C5 8901   4.515   1.555  16.997 -0.2595 -0.2618 -0.4484
  597TMC3    C6 8902   4.587   1.650  16.928  0.0655  0.4607  0.1033
  597TMC3     C 8903   4.661   1.246  16.890  0.8306  0.3878 -0.2086
  597TMC3     O 8904   4.622   1.168  16.978  0.1127 -0.2103  0.2753
  597TMC3     H 8905   0.066   1.452  16.769 -0.7414 -2.0346 -0.6101
  597TMC3    H1 8906   4.498   1.353  17.052 -1.3549  0.4551 -2.1316
  597TMC3    H2 8907   4.571   1.757  16.934 -1.7918  0.1338  0.9949
  597TMC3    C7 8908   4.389   1.593  17.067 -0.3956 -0.6257  0.3849
  597TMC3    C8 8909   0.037   1.716  16.796 -0.2864 -0.0902  0.4383
  597TMC3    O1 8910   4.333   1.512  17.137  0.0807  0.7286  0.2681
  597TMC3    O2 8911   0.017   1.824  16.849  0.2991 -0.2250 -0.3866
  598TMC3    C1 8912   3.283   2.678  15.324  0.1180 -0.1763  0.1814
  598TMC3    C2 8913   3.154   2.702  15.368  0.1065 -0.3710 -0.0456
  598TMC3    C3 8914   3.105   2.831  15.364 -0.0937 -0.1583 -0.5057
  598TMC3    C4 8915   3.365   2.781  15.276  0.0992 -0.2916  0.5238
  598TMC3    C5 8916   3.319   2.909  15.282  0.0636  0.3746 -0.3091
  598TMC3    C6 8917   3.188   2.934  15.324 -0.2722  0.1968  0.0762
  598TMC3     C 8918   3.348   2.560  15.373 -0.2035  0.0514  0.6350
  598TMC3     O 8919   3.279   2.491  15.447 -0.7596  0.0057 -0.0315
  598TMC3     H 8920   3.093   2.631  15.423  0.7506  0.6377  1.9642
  598TMC3    H1 8921   3.466   2.768  15.239  0.4621  0.8477  1.1146
  598TMC3    H2 8922   3.148   3.033  15.338  0.9576  0.8974 -1.4620
  598TMC3    C7 8923   3.393   3.011  15.222 -0.3317  0.4257 -0.1678
  598TMC3    C8 8924   2.964   2.856  15.378 -0.2349  0.2535 -0.1927
  598TMC3    O1 8925   3.324   3.102  15.182 -0.2743  0.5659 -0.2728
  598TMC3    O2 8926   2.931   2.974  15.400  0.4481  0.6107 -0.5393
  599MPD2     C 8927   3.067   0.329  15.882 -0.8794 -0.1290 -0.8707
  599MPD2    C1 8928   3.007   0.211  15.912  0.3564  0.0801  0.9539
  599MPD2    C2 8929   2.876   0.218  15.949  0.3829  0.3609  0.4982
  599MPD2    C3 8930   2.810   0.335  15.972 -0.7655  0.1359 -0.1569
  599MPD2    C4 8931   2.876   0.456  15.951  0.7127  0.0383  0.4795
  599MPD2    C5 8932   2.999   0.445  15.899 -0.2248  0.2677 -0.7517
  599MPD2     H 8933   2.826   0.122  15.959 -0.6586  0.8247 -0.2364
  599MPD2    H1 8934   2.821   0.550  15.957  2.0683  0.7505  2.0582
  599MPD2    H2 8935   3.166   0.341  15.838 -1.3505  1.4028 -1.4987
  599MPD2    H3 8936   3.056   0.536  15.883 -0.8926  0.6127 -1.1561
  599MPD2     N 8937   2.686   0.332  16.039  1.1263 -0.2194 -0.0176
  599MPD2    H5 8938   2.651   0.427  16.048  1.1140 -0.3010  0.7854
  599MPD2    N1 8939   3.079   0.088  15.888 -0.2149 -0.1668  0.0275
  599MPD2    H7 8940   3.167   0.092  15.838 -0.9584  0.9804 -1.2163
  600TMC3    C1 8941   2.493   0.259  16.172  0.7217 -0.0565 -0.6690
  600TMC3    C2 8942   2.430   0.153  16.246  0.3518  0.2702 -0.2098
  600TMC3    C3 8943   2.292   0.167  16.271 -0.5365  0.3886  0.8753
  600TMC3    C4 8944   2.415   0.362  16.125  0.4171  1.0717  0.0459
  600TMC3    C5 8945   2.280   0.370  16.157 -0.6123  0.0358 -0.4744
  600TMC3    C6 8946   2.216   0.274  16.230  0.1843  0.1253 -0.0177
  600TMC3     C 8947   2.624   0.225  16.112 -0.2049  0.5297  1.5782
  600TMC3     O 8948   2.656   0.108  16.126 -0.3912  0.1360  0.4854
  600TMC3     H 8949   2.481   0.066  16.286  1.0858 -1.2047 -4.3268
  600TMC3    H1 8950   2.463   0.434  16.060 -1.7716 -0.0494 -2.8109
  600TMC3    H2 8951   2.116   0.293  16.266 -0.2296 -1.8282 -0.1458
  600TMC3    C7 8952   2.219   0.504  16.166 -0.4456  0.0285  0.1566
  600TMC3    C8 8953   2.232   0.035  16.308  0.9130  0.6246  0.5950
  600TMC3    O1 8954   2.134   0.519  16.254  0.3031  0.5825 -0.0559
  600TMC3    O2 8955   2.307   4.695  16.370 -0.2889 -0.0742  0.3121
  601MPD2     C 8956   4.489   3.619   0.217  0.5495 -0.3620  0.2000
  601MPD2    C1 8957   4.450   3.533   0.117 -1.0255 -0.0915 -0.0845
  601MPD2    C2 8958   4.419   3.403   0.156 -0.4407  0.5064 -0.3588
  601MPD2    C3 8959   4.427   3.354   0.284  0.3000  0.2805 -0.3097
  601MPD2    C4 8960   4.471   3.447   0.381  0.0941 -0.1996  0.0121
  601MPD2    C5 8961   4.509   3.576   0.342 -0.0128 -0.1181  0.8534
  601MPD2     H 8962   4.379   3.350   0.071 -0.3404 -0.3826  0.1414
  601MPD2    H1 8963   4.459   3.435   0.488  1.2067  0.9323  0.2699
  601MPD2    H2 8964   4.519   3.722   0.200 -0.9301  0.0333 -0.0367
  601MPD2    H3 8965   4.548   3.646   0.414 -0.7449  1.3664 -0.1823
  601MPD2     N 8966   4.390   3.226   0.327 -0.0996 -0.1475 -0.3495
  601MPD2    H5 8967   4.391   3.214   0.427 -1.3341  1.6239 -0.1211
  601MPD2    N1 8968   4.431   3.574  17.727  0.3977 -0.3713  0.2783
  601MPD2    H7 8969   4.409   3.494  17.668  0.5595  1.2452 -1.9706
  602TMC3    C1 8970   4.423   3.728  17.545 -1.0360 -0.0714  0.4304
  602TMC3    C2 8971   4.471   3.846  17.497  0.3806  0.4831 -0.1898
  602TMC3    C3 8972   4.444   3.876  17.359  0.1531 -0.3575 -0.3801
  602TMC3    C4 8973   4.334   3.651  17.478  0.7934  0.1773 -0.7680
  602TMC3    C5 8974   4.287   3.703  17.360 -0.5765  0.3755 -0.2192
  602TMC3    C6 8975   4.347   3.807  17.286  0.3414  0.1944  0.3488
  602TMC3     C 8976   4.449   3.701  17.686 -0.1239 -0.4096 -0.6218
  602TMC3     O 8977   4.480   3.806  17.744 -0.1899  0.1595  0.1438
  602TMC3     H 8978   4.544   3.906  17.551  1.1876 -0.6457 -0.0245
  602TMC3    H1 8979   4.274   3.570  17.517 -0.6294  1.8240  0.4780
  602TMC3    H2 8980   4.325   3.836  17.184 -0.4645  0.5496  0.6292
  602TMC3    C7 8981   4.194   3.618  17.299 -0.1597  0.4963  0.5298
  602TMC3    C8 8982   4.495   4.007  17.315  0.0554 -1.0039 -0.2772
  602TMC3    O1 8983   4.201   3.497  17.326  0.3228 -0.0034  0.2164
  602TMC3    O2 8984   4.531   4.091  17.397 -0.3627 -0.4801 -0.9431
  603TMC3    C1 8985   3.524   3.716  10.870  0.1036 -0.0580 -0.2956
  603TMC3    C2 8986   3.547   3.707  11.009 -0.5827 -0.2100 -0.0080
  603TMC3    C3 8987   3.564   3.827  11.080  0.1052  0.2528 -0.8640
  603TMC3    C4 8988   3.508   3.836  10.810  0.2975 -0.2274 -0.1668
  603TMC3    C5 8989   3.506   3.952  10.889  0.4795 -0.5230  0.6334
  603TMC3    C6 8990   3.523   3.944  11.022  0.6071 -0.3595  0.1428
  603TMC3     C 8991   3.558   3.600  10.790 -0.0749 -0.0259  0.1086
  603TMC3     O 8992   3.610   3.508  10.849 -0.1980 -0.2340  0.4644
  603TMC3     H 8993   3.556   3.609  11.055  0.3073 -0.1379 -0.0293
  603TMC3    H1 8994   3.505   3.842  10.702 -1.0605  2.3306 -0.0010
  603TMC3    H2 8995   3.556   4.037  11.069  0.0674 -0.4569  0.7161
  603TMC3    C7 8996   3.488   4.087  10.830  0.5269  0.3035  0.6467
  603TMC3    C8 8997   3.556   3.807  11.225  0.4375  0.4712 -0.7770
  603TMC3    O1 8998   3.497   4.185  10.903 -0.0850  0.1285  0.7477
  603TMC3    O2 8999   3.612   3.706  11.271  0.0802 -0.2451 -0.4566
  604MPD2     C 9000   4.027   2.584  16.419 -0.1161  0.0009  0.7199
  604MPD2    C1 9001   3.916   2.505  16.387 -0.1887 -0.2193  0.2313
  604MPD2    C2 9002   3.928   2.408  16.284  0.4893  0.2052 -0.2474
  604MPD2    C3 9003   4.041   2.398  16.205 -0.4673 -0.4189  1.1506
  604MPD2    C4 9004   4.145   2.486  16.227 -0.6815  0.1883 -0.2277
  604MPD2    C5 9005   4.135   2.579  16.332 -0.5757  0.1950 -0.8795
  604MPD2     H 9006   3.849   2.336  16.271 -0.0270  1.0113 -1.5425
  604MPD2    H1 9007   4.242   2.489  16.180  0.2083 -1.9024  1.4804
  604MPD2    H2 9008   4.025   2.647  16.507  3.4196  0.9390  0.1325
  604MPD2    H3 9009   4.223   2.634  16.363  1.0578 -1.8664 -1.8765
  604MPD2     N 9010   4.037   2.309  16.093  0.3613  0.2355 -1.0034
  604MPD2    H5 9011   3.954   2.252  16.082 -0.3464  1.2854 -1.1115
  604MPD2    N1 9012   3.808   2.516  16.472 -0.5262  0.1446  0.2271
  604MPD2    H7 9013   3.807   2.597  16.533 -1.4243 -0.7918  1.4771
  605TMC3    C1 9014   3.587   2.503  16.555  0.3760  0.1397 -0.0879
  605TMC3    C2 9015   3.637   2.576  16.663  0.0982 -0.2522 -0.3869
  605TMC3    C3 9016   3.600   2.708  16.688 -0.1402 -0.6730  0.2830
  605TMC3    C4 9017   3.491   2.568  16.474  0.1279 -0.4926  0.5609
  605TMC3    C5 9018   3.435   2.689  16.514  0.5789 -0.3525 -0.2883
  605TMC3    C6 9019   3.496   2.759  16.615 -0.0932  0.2322  1.1469
  605TMC3     C 9020   3.692   2.433  16.487  0.4708  0.9026  0.4403
  605TMC3     O 9021   3.647   2.342  16.416  0.2820 -0.4374 -0.6119
  605TMC3     H 9022   3.718   2.532  16.721 -0.0149 -0.2566 -0.2327
  605TMC3    H1 9023   3.446   2.523  16.387 -1.0129 -1.1071  1.4682
  605TMC3    H2 9024   3.452   2.856  16.634 -2.0125 -0.3815 -0.1421
  605TMC3    C7 9025   3.310   2.730  16.459 -0.1038  0.1063 -0.2720
  605TMC3    C8 9026   3.715   2.789  16.689 -0.2778  0.6442  0.5513
  605TMC3    O1 9027   3.286   2.848  16.461  0.6887  0.4755  0.8159
  605TMC3    O2 9028   3.825   2.733  16.689 -0.1791  0.2066 -0.4055
  606TMC3    C1 9029   0.280   1.074  16.924 -0.3839 -0.0568  0.4382
  606TMC3    C2 9030   0.226   1.119  17.043 -0.5671  0.2499 -0.1247
  606TMC3    C3 9031   0.174   1.021  17.119 -0.3951 -0.2993  0.2583
  606TMC3    C4 9032   0.299   0.939  16.885 -0.4915  0.2805 -0.0946
  606TMC3    C5 9033   0.241   0.852  16.973 -0.2250 -0.2216  0.2737
  606TMC3    C6 9034   0.179   0.891  17.089 -0.2631 -0.3449  0.3410
  606TMC3     C 9035   0.349   1.179  16.856 -0.3067 -0.0250  0.7770
  606TMC3     O 9036   0.342   1.297  16.892  0.2267  0.5208  0.3644
  606TMC3     H 9037   0.210   1.225  17.060  1.2437  0.3812  0.7566
  606TMC3    H1 9038   0.316   0.913  16.782 -1.9570 -0.7894 -0.0692
  606TMC3    H2 9039   0.149   0.807  17.151 -0.1701  0.4118  1.4115
  606TMC3    C7 9040   0.237   0.716  16.927  0.7287 -0.1311 -0.4558
  606TMC3    C8 9041   0.160   1.046  17.257  0.4321 -1.4228 -0.4790
  606TMC3    O1 9042   0.303   0.677  16.832 -0.5427 -0.1005  0.3255
  606TMC3    O2 9043   0.229   1.135  17.310  0.1290  0.4312  0.7216
  607MPD2     C 9044   2.417   3.627  11.089  1.0803  0.2571  0.3472
  607MPD2    C1 9045   2.333   3.689  11.179  0.3427  0.3639  0.1593
  607MPD2    C2 9046   2.271   3.619  11.282 -0.1193 -0.7119  0.0136
  607MPD2    C3 9047   2.296   3.487  11.300  0.0264  0.6305 -0.1800
  607MPD2    C4 9048   2.382   3.426  11.219 -0.4060 -0.0505  0.3041
  607MPD2    C5 9049   2.440   3.493  11.114 -0.8233  0.2304  0.0389
  607MPD2     H 9050   2.205   3.674  11.348  0.6674 -1.3019  1.2664
  607MPD2    H1 9051   2.402   3.320  11.231 -0.0805  0.2206  2.1687
  607MPD2    H2 9052   2.467   3.675  11.006 -1.4023  2.2351 -0.0222
  607MPD2    H3 9053   2.503   3.438  11.044 -0.8320 -0.5705  0.6487
  607MPD2     N 9054   2.225   3.425  11.408  0.5602  0.5095 -0.2281
  607MPD2    H5 9055   2.176   3.485  11.474  0.0371  0.1623 -0.3064
  607MPD2    N1 9056   2.305   3.827  11.180  0.0626 -0.3992 -0.2526
  607MPD2    H7 9057   2.240   3.871  11.244  0.4734 -2.2983  1.4617
  608TMC3    C1 9058   2.351   4.060  11.141  0.9653 -0.6728 -0.8926
  608TMC3    C2 9059   2.318   4.076  11.275  0.0591 -0.0609  0.5048
  608TMC3    C3 9060   2.384   4.168  11.345  0.4838  0.1469 -0.0805
  608TMC3    C4 9061   2.441   4.143  11.073 -0.3944  0.4400 -0.5724
  608TMC3    C5 9062   2.491   4.242  11.157 -0.5525  0.2641 -0.1722
  608TMC3    C6 9063   2.464   4.253  11.292 -0.1358  0.1467 -0.1914
  608TMC3     C 9064   2.371   3.925  11.100  0.7947  0.3829 -0.2189
  608TMC3     O 9065   2.445   3.911  11.003  0.2109 -0.2054 -0.1641
  608TMC3     H 9066   2.237   4.013  11.308 -1.7991  2.1004  0.0879
  608TMC3    H1 9067   2.472   4.137  10.969 -2.3013  1.8745 -1.2116
  608TMC3    H2 9068   2.519   4.323  11.353 -0.5583  0.0403  0.3080
  608TMC3    C7 9069   2.614   4.299  11.112 -0.2860 -0.7201  1.1551
  608TMC3    C8 9070   2.371   4.173  11.492  0.1054 -0.5967 -0.3837
  608TMC3    O1 9071   2.639   4.315  10.991 -0.0130 -0.2597  0.2263
  608TMC3    O2 9072   2.436   4.255  11.557 -0.0353 -0.3309 -0.1320
  609TMC3    C1 9073   1.442   3.720   8.914 -0.0537  0.5270  0.1762
  609TMC3    C2 9074   1.497   3.802   8.817  0.0900  0.2220 -0.0055
  609TMC3    C3 9075   1.545   3.745   8.705  0.1793 -0.3932  0.4042
  609TMC3    C4 9076   1.442   3.582   8.902  0.2264 -0.2984  0.1339
  609TMC3    C5 9077   1.491   3.537   8.788 -0.2175 -0.4981  0.2630
  609TMC3    C6 9078   1.547   3.610   8.687 -0.4713 -0.3451  0.2790
  609TMC3     C 9079   1.378   3.791   9.022 -0.0818 -0.3057  0.2720
  609TMC3     O 9080   1.374   3.913   9.017  0.2953 -0.0289 -0.2981
  609TMC3     H 9081   1.471   3.907   8.818 -0.9079 -0.0410  1.4495
  609TMC3    H1 9082   1.400   3.511   8.973  2.0933 -1.7436 -0.2254
  609TMC3    H2 9083   1.590   3.566   8.598 -0.6142  0.0354  0.0234
  609TMC3    C7 9084   1.516   3.389   8.774 -0.2135  0.4857 -0.5724
  609TMC3    C8 9085   1.622   3.828   8.616 -0.6778  0.5456  0.0683
  609TMC3    O1 9086   1.517   3.347   8.659  0.1949 -0.4043  0.2810
  609TMC3    O2 9087   1.628   3.801   8.497  0.1888 -0.3078 -0.0600
  610TMC3    C1 9088   2.746   3.223  12.234  0.0580  0.1583 -0.3283
  610TMC3    C2 9089   2.749   3.334  12.157 -0.0379 -0.5740 -0.1092
  610TMC3    C3 9090   2.861   3.415  12.159  0.2123  0.7393 -0.0359
  610TMC3    C4 9091   2.860   3.186  12.303  0.1992 -0.2453  0.2980
  610TMC3    C5 9092   2.966   3.269  12.300 -0.2779  0.1931 -0.0902
  610TMC3    C6 9093   2.969   3.387  12.233  0.5939 -0.2704 -0.8711
  610TMC3     C 9094   2.629   3.133  12.239  0.2522 -0.1759 -0.6085
  610TMC3     O 9095   2.663   3.018  12.273  0.4219  0.1389 -0.3286
  610TMC3     H 9096   2.654   3.367  12.117 -0.5787 -0.3018  1.3885
  610TMC3    H1 9097   2.856   3.096  12.362  1.0978 -0.6252 -0.2239
  610TMC3    H2 9098   3.059   3.447  12.222  1.7460 -1.3087  2.7882
  610TMC3    C7 9099   3.072   3.241  12.396  0.2808 -0.3008  0.3474
  610TMC3    C8 9100   2.855   3.560  12.124  0.3597  0.7602  0.0637
  610TMC3    O1 9101   3.082   3.133  12.446 -0.3219  0.2670  0.4915
  610TMC3    O2 9102   2.959   3.620  12.147 -0.7107 -0.0358 -0.5310
  611MPD2     C 9103   2.481   4.126  10.639  0.1352  0.6586  0.0381
  611MPD2    C1 9104   2.448   4.079  10.515  0.8170  0.6062  0.0886
  611MPD2    C2 9105   2.533   4.120  10.412 -0.4180  0.5276  0.5614
  611MPD2    C3 9106   2.645   4.199  10.431 -0.3481  0.4849 -0.8597
  611MPD2    C4 9107   2.671   4.244  10.558  0.5450 -0.0820  0.2658
  611MPD2    C5 9108   2.580   4.216  10.662 -0.2034 -0.5836  0.1889
  611MPD2     H 9109   2.511   4.086  10.311  2.2514  1.5859 -0.3968
  611MPD2    H1 9110   2.750   4.314  10.581  1.0021  0.0370 -1.6541
  611MPD2    H2 9111   2.413   4.105  10.721 -3.5031  0.8101 -2.9398
  611MPD2    H3 9112   2.604   4.262  10.758 -0.9581 -0.3044  0.2418
  611MPD2     N 9113   2.731   4.246  10.331 -0.3383 -0.2317 -0.1833
  611MPD2    H5 9114   2.793   4.324  10.352  2.1440 -2.0628 -0.7252
  611MPD2    N1 9115   2.347   3.988  10.502  0.3928 -0.3852 -0.2502
  611MPD2    H7 9116   2.287   3.975  10.583  2.8077 -0.3436  1.5382
  612TMC3    C1 9117   2.862   4.256  10.136 -0.5908  0.0093  0.1402
  612TMC3    C2 9118   2.979   4.287  10.205  0.1293 -0.0413  0.0907
  612TMC3    C3 9119   3.087   4.326  10.133 -0.2111 -0.0310 -0.5071
  612TMC3    C4 9120   2.859   4.278  10.001 -0.4970  0.5660  0.0593
  612TMC3    C5 9121   2.967   4.341   9.938 -0.0954 -0.4964  0.1349
  612TMC3    C6 9122   3.090   4.361  10.001  0.5742  0.0623 -0.0308
  612TMC3     C 9123   2.738   4.210  10.204 -0.2644  0.5149 -0.1607
  612TMC3     O 9124   2.669   4.138  10.135 -0.5160  0.0915 -0.4083
  612TMC3     H 9125   2.982   4.283  10.313 -1.4328  0.2728  0.1527
  612TMC3    H1 9126   2.768   4.251   9.950  0.3579 -0.3283 -0.9878
  612TMC3    H2 9127   3.177   4.407   9.956 -0.8701  0.6568 -2.1867
  612TMC3    C7 9128   2.947   4.373   9.800  0.3585 -0.6884  0.2532
  612TMC3    C8 9129   3.205   4.361  10.208  0.2528  0.1528  0.3200
  612TMC3    O1 9130   2.842   4.326   9.755  0.5377  0.1795 -0.4285
  612TMC3    O2 9131   3.287   4.442  10.164  0.1949 -0.0285  0.4141
  613MPD2     C 9132   1.288   1.898  16.357 -0.3877 -0.2217 -0.4713
  613MPD2    C1 9133   1.269   1.872  16.221 -1.1481 -0.6407 -0.1447
  613MPD2    C2 9134   1.371   1.846  16.141 -0.1777 -0.2931 -0.0358
  613MPD2    C3 9135   1.500   1.844  16.192  0.0431 -0.3874 -0.2116
  613MPD2    C4 9136   1.521   1.870  16.328  0.1999 -0.0617  0.1255
  613MPD2    C5 9137   1.416   1.901  16.411 -0.2349  0.2105  0.3044
  613MPD2     H 9138   1.364   1.831  16.034 -1.2820 -0.8271  0.1149
  613MPD2    H1 9139   1.619   1.868  16.374 -0.0081  0.4797  0.6085
  613MPD2    H2 9140   1.208   1.935  16.419 -1.0713 -1.5613 -0.5636
  613MPD2    H3 9141   1.420   1.927  16.517 -0.2499  1.4252  0.0040
  613MPD2     N 9142   1.616   1.830  16.116  0.2217 -0.3772  0.6281
  613MPD2    H5 9143   1.701   1.859  16.164 -1.0271  2.4647  1.1614
  613MPD2    N1 9144   1.139   1.877  16.169 -0.2292  0.7734  0.3212
  613MPD2    H7 9145   1.075   1.928  16.230 -1.3648 -0.9755  0.6043
  614TMC3    C1 9146   0.994   1.909  15.986  0.1356  0.2757 -0.2284
  614TMC3    C2 9147   0.981   2.043  16.014  0.2549 -0.2378  0.3187
  614TMC3    C3 9148   0.923   2.127  15.925  0.0879 -0.4697  0.4184
  614TMC3    C4 9149   0.935   1.865  15.868  0.3101  0.5047 -0.2899
  614TMC3    C5 9150   0.887   1.952  15.777  0.1580 -0.3138 -0.5310
  614TMC3    C6 9151   0.873   2.084  15.801  0.1845 -0.4257 -0.4820
  614TMC3     C 9152   1.101   1.835  16.044  0.2391 -0.6986 -0.2494
  614TMC3     O 9153   1.156   1.753  15.977 -0.2095  0.6038 -0.3194
  614TMC3     H 9154   1.024   2.080  16.107  0.5630  2.0518 -0.7524
  614TMC3    H1 9155   0.948   1.758  15.855 -2.4364  0.1894 -0.5233
  614TMC3    H2 9156   0.842   2.158  15.728 -0.7073  1.2213  1.5616
  614TMC3    C7 9157   0.852   1.915  15.642  1.2992  0.6583 -0.3798
  614TMC3    C8 9158   1.001   2.247  15.911 -0.6871  0.6914 -0.0262
  614TMC3    O1 9159   0.812   2.002  15.570 -0.2760 -0.1987  0.7430
  614TMC3    O2 9160   0.948   2.349  15.958 -0.8466 -0.0136  0.3093
  615MPD2     C 9161   1.237   2.943  16.490 -0.0108 -0.0122 -0.3690
  615MPD2    C1 9162   1.142   3.031  16.538  0.2581 -0.3168  0.5815
  615MPD2    C2 9163   1.065   3.108  16.447 -0.6671 -0.2297 -0.7038
  615MPD2    C3 9164   1.091   3.102  16.314  0.5086  0.6362  0.5735
  615MPD2    C4 9165   1.182   3.008  16.267  0.7638  0.4919  0.5209
  615MPD2    C5 9166   1.252   2.931  16.353 -0.2251  0.0018 -0.6165
  615MPD2     H 9167   1.006   3.193  16.479  2.0244  1.8973 -1.3851
  615MPD2    H1 9168   1.199   2.994  16.161  1.2247 -1.8414  0.9143
  615MPD2    H2 9169   1.286   2.875  16.559  1.2857  2.7416  1.4079
  615MPD2    H3 9170   1.314   2.852  16.311  0.0033  0.7805 -1.7480
  615MPD2     N 9171   1.033   3.186  16.218  0.0170  0.3292 -0.1489
  615MPD2    H5 9172   1.062   3.184  16.121 -1.2533  0.9131 -0.5474
  615MPD2    N1 9173   1.110   3.050  16.672 -0.0948  0.4212 -0.1499
  615MPD2    H7 9174   1.041   3.121  16.694 -1.7240 -0.8313 -1.1100
  616TMC3    C1 9175   1.111   3.050  16.909  0.5617 -0.1839  0.7843
  616TMC3    C2 9176   1.205   3.059  17.018  0.0458 -0.2958 -0.1620
  616TMC3    C3 9177   1.159   3.112  17.137 -0.0355  0.1817  0.4531
  616TMC3    C4 9178   0.988   3.100  16.920  0.1333 -0.2603  0.2114
  616TMC3    C5 9179   0.944   3.137  17.047 -0.0121  0.0583 -0.5210
  616TMC3    C6 9180   1.033   3.154  17.151  0.4627  0.0723  0.1421
  616TMC3     C 9181   1.157   2.991  16.784 -0.2451  0.6167 -0.3405
  616TMC3     O 9182   1.234   2.894  16.790  0.1172  0.8715  0.2689
  616TMC3     H 9183   1.309   3.033  17.005 -0.1769 -0.6560 -1.2008
  616TMC3    H1 9184   0.919   3.092  16.837  1.1031 -1.0118 -0.5259
  616TMC3    H2 9185   1.005   3.210  17.240 -0.7475 -0.6160  0.2011
  616TMC3    C7 9186   0.827   3.227  17.048  0.1900 -0.3286 -0.1159
  616TMC3    C8 9187   1.245   3.202  17.208  0.0638 -0.2162 -0.1010
  616TMC3    O1 9188   0.769   3.234  16.945 -0.3428 -0.0464 -0.2103
  616TMC3    O2 9189   1.207   3.222  17.322 -0.2024  0.4559 -0.3631
  617MPD2     C 9190   3.749   0.677  13.700 -0.5234 -0.6636 -0.9879
  617MPD2    C1 9191   3.744   0.631  13.827 -0.2348  0.0690  0.1895
  617MPD2    C2 9192   3.627   0.603  13.881 -0.2832  0.5056 -0.7834
  617MPD2    C3 9193   3.508   0.628  13.806 -0.6243  0.2316 -0.2585
  617MPD2    C4 9194   3.513   0.667  13.680  0.0459 -0.1247 -0.6958
  617MPD2    C5 9195   3.638   0.700  13.628  0.2881 -0.1132 -1.0083
  617MPD2     H 9196   3.628   0.580  13.987  1.1212 -1.2104 -1.1693
  617MPD2    H1 9197   3.424   0.666  13.618 -0.3669  0.0425 -0.1057
  617MPD2    H2 9198   3.852   0.691  13.669  0.2500 -2.1646  0.8958
  617MPD2    H3 9199   3.657   0.717  13.523 -0.9611  2.9913 -0.7267
  617MPD2     N 9200   3.378   0.618  13.864 -0.0808 -0.2394 -0.2501
  617MPD2    H5 9201   3.297   0.657  13.817 -1.4177 -2.8092 -0.0888
  617MPD2    N1 9202   3.865   0.605  13.891 -0.4716  0.3952  0.9239
  617MPD2    H7 9203   3.949   0.607  13.834 -1.0656 -0.6610  0.0223
  618TMC3    C1 9204   4.022   0.552  14.056  0.2002  0.7890 -0.7333
  618TMC3    C2 9205   4.086   0.459  13.977  0.6754 -0.5908  0.0285
  618TMC3    C3 9206   4.225   0.476  13.964  1.0409  0.8645 -0.0909
  618TMC3    C4 9207   4.079   0.668  14.103 -0.0679 -0.2107  0.1046
  618TMC3    C5 9208   4.209   0.681  14.073  0.4746  0.7178 -0.6051
  618TMC3    C6 9209   4.280   0.587  14.014 -0.4336 -0.1805  0.5370
  618TMC3     C 9210   3.886   0.566  14.021 -0.2452 -0.0923 -0.3079
  618TMC3     O 9211   3.809   0.549  14.115  0.6027 -0.3006  0.4008
  618TMC3     H 9212   4.037   0.373  13.932  2.4859 -0.5587 -1.9973
  618TMC3    H1 9213   4.022   0.749  14.149 -1.0821 -0.8095 -0.1061
  618TMC3    H2 9214   4.388   0.595  14.008 -0.4875 -0.1997 -0.4922
  618TMC3    C7 9215   4.262   0.821  14.093  0.5311 -0.2747 -0.3615
  618TMC3    C8 9216   4.282   0.422  13.845  0.2100 -0.2006  0.6130
  618TMC3    O1 9217   4.204   0.887  14.184 -0.5687 -0.2848  0.2889
  618TMC3    O2 9218   4.215   0.342  13.785  0.4279 -0.5961  0.5588
  619MPD2     C 9219   0.605   2.248  13.504 -0.3702 -0.0737  0.5212
  619MPD2    C1 9220   0.473   2.287  13.524 -0.4826  1.1555 -0.2954
  619MPD2    C2 9221   0.405   2.227  13.623  0.2307 -0.2117  0.0215
  619MPD2    C3 9222   0.463   2.138  13.708 -0.3201  0.6484 -0.4687
  619MPD2    C4 9223   0.603   2.102  13.692 -0.6981 -0.1334  0.1687
  619MPD2    C5 9224   0.665   2.150  13.584 -0.3052 -0.1343 -0.2106
  619MPD2     H 9225   0.300   2.251  13.632  0.0639 -0.6965 -0.6123
  619MPD2    H1 9226   0.650   2.029  13.757  2.7424  2.6740  0.8007
  619MPD2    H2 9227   0.668   2.289  13.426  0.2363 -1.1132  0.4718
  619MPD2    H3 9228   0.768   2.126  13.559  0.4902  1.9337  1.0839
  619MPD2     N 9229   0.380   2.082  13.811 -0.1192 -0.7702  0.2778
  619MPD2    H5 9230   0.284   2.112  13.798  0.5215  1.2929  0.3318
  619MPD2    N1 9231   0.396   2.378  13.443 -0.7611 -0.1521 -0.1085
  619MPD2    H7 9232   0.299   2.395  13.469 -1.3377 -0.5890 -1.9454
  620TMC3    C1 9233   0.333   2.506  13.261  0.1131 -0.2022 -0.3196
  620TMC3    C2 9234   0.215   2.457  13.295 -0.0043 -0.3617  1.1101
  620TMC3    C3 9235   0.111   2.548  13.308 -1.2267 -0.1993  0.1521
  620TMC3    C4 9236   0.356   2.637  13.234 -0.0715  0.5055  0.3752
  620TMC3    C5 9237   0.250   2.726  13.242  0.0399  0.6808 -0.2796
  620TMC3    C6 9238   0.129   2.680  13.274 -0.0570  0.3559  0.0149
  620TMC3     C 9239   0.442   2.428  13.325  0.3297  1.0826  0.2843
  620TMC3     O 9240   0.558   2.443  13.289 -0.1744  0.2364  0.7111
  620TMC3     H 9241   0.192   2.352  13.309  0.2747 -0.3984  1.2960
  620TMC3    H1 9242   0.458   2.665  13.208 -0.9883 -0.1189 -3.8056
  620TMC3    H2 9243   0.048   2.750  13.289  0.5572  1.4220 -1.6332
  620TMC3    C7 9244   0.255   2.865  13.196 -0.5402  0.0869  0.8155
  620TMC3    C8 9245   0.030   2.526  13.426 -0.2329  0.0850  0.4611
  620TMC3    O1 9246   0.151   2.919  13.164  0.3993  0.0112  0.5055
  620TMC3    O2 9247   0.081   2.447  13.506 -0.1318 -0.0202 -0.2912
  621MPD2     C 9248   0.933   2.926   9.206 -0.3116  0.2261 -0.0673
  621MPD2    C1 9249   1.002   2.840   9.288  0.4543 -0.5706 -0.0613
  621MPD2    C2 9250   1.079   2.891   9.388  0.3443  0.0341  0.3107
  621MPD2    C3 9251   1.100   3.030   9.399  0.8708  0.0059 -0.3055
  621MPD2    C4 9252   1.021   3.116   9.321  0.3070  0.0682 -0.2178
  621MPD2    C5 9253   0.935   3.062   9.229 -0.0346  0.0780 -0.6457
  621MPD2     H 9254   1.129   2.820   9.453 -0.2001 -0.9671 -0.3745
  621MPD2    H1 9255   1.016   3.224   9.321  1.5773  0.1304 -0.3049
  621MPD2    H2 9256   0.856   2.890   9.138 -1.9377  1.1443  1.2960
  621MPD2    H3 9257   0.869   3.132   9.179  0.2501  0.8881  0.1125
  621MPD2     N 9258   1.189   3.085   9.496 -0.5728  0.1680  0.0161
  621MPD2    H5 9259   1.232   3.014   9.555 -0.7427  1.5169  1.7779
  621MPD2    N1 9260   0.993   2.697   9.274  0.3571 -0.5792 -0.1144
  621MPD2    H7 9261   1.042   2.640   9.343 -0.1191 -0.7933  0.0450
  622TMC3    C1 9262   0.940   2.485   9.186 -0.0288  0.0924 -0.3322
  622TMC3    C2 9263   0.967   2.424   9.308 -0.3547  0.8071 -0.1157
  622TMC3    C3 9264   0.987   2.291   9.310 -1.0158  0.3814  0.4090
  622TMC3    C4 9265   0.922   2.408   9.073  0.3038 -0.1529  0.2195
  622TMC3    C5 9266   0.924   2.267   9.088  0.7658 -0.5286  0.2049
  622TMC3    C6 9267   0.967   2.208   9.205  0.5928 -0.5573 -0.6336
  622TMC3     C 9268   0.936   2.624   9.168  0.1768  0.1097 -0.2848
  622TMC3     O 9269   0.875   2.661   9.070 -0.1104 -0.3703 -0.0387
  622TMC3     H 9270   0.982   2.479   9.399 -1.9979 -1.3576  1.4654
  622TMC3    H1 9271   0.874   2.441   8.982 -1.7731 -1.3417  0.8856
  622TMC3    H2 9272   1.005   2.106   9.207  2.1423  0.0429  1.6607
  622TMC3    C7 9273   0.916   2.187   8.964 -0.1740 -0.3737  0.4809
  622TMC3    C8 9274   0.994   2.202   9.431 -0.7762 -0.2290  0.4148
  622TMC3    O1 9275   0.928   2.245   8.856 -0.0894 -0.2071 -0.3972
  622TMC3    O2 9276   1.045   2.093   9.408  0.3638 -0.2109  0.0284
  623MPD2     C 9277   4.267   2.663  15.685  0.9788 -0.7033 -0.5272
  623MPD2    C1 9278   4.179   2.634  15.792 -0.3475  0.2113  0.5935
  623MPD2    C2 9279   4.223   2.668  15.915 -0.1604  0.1982  0.0233
  623MPD2    C3 9280   4.334   2.740  15.934 -0.5761  0.2668 -0.3305
  623MPD2    C4 9281   4.426   2.768  15.830 -0.0905  0.0511  0.0663
  623MPD2    C5 9282   4.384   2.730  15.704 -0.4647 -0.3497  0.5815
  623MPD2     H 9283   4.155   2.649  15.998  2.1672  1.4262  2.1944
  623MPD2    H1 9284   4.526   2.809  15.836 -0.1902  0.1246  1.2126
  623MPD2    H2 9285   4.247   2.647  15.580  1.1843 -0.6670 -0.5717
  623MPD2    H3 9286   4.447   2.763  15.622 -0.3789 -1.2859  0.2677
  623MPD2     N 9287   4.351   2.801  16.060 -0.4548  0.3930  0.0085
  623MPD2    H5 9288   4.280   2.770  16.126  0.5997 -2.8649 -0.3715
  623MPD2    N1 9289   4.044   2.589  15.778 -0.0236  0.7823 -0.2119
  623MPD2    H7 9290   3.988   2.611  15.860  0.5623 -1.2486  0.7319
  624TMC3    C1 9291   4.519   3.094  16.396 -0.4815 -0.4594 -0.3985
  624TMC3    C2 9292   4.406   3.077  16.471 -0.3265  0.6062  0.3599
  624TMC3    C3 9293   4.304   2.998  16.417  0.2823 -0.1879 -1.0694
  624TMC3    C4 9294   4.536   3.024  16.277  0.2438  0.2484  0.1381
  624TMC3    C5 9295   4.435   2.940  16.235  0.3013  0.8573  0.2538
  624TMC3    C6 9296   4.320   2.929  16.299 -0.4496 -0.8108  0.2189
  624TMC3     C 9297   4.630   3.146  16.481  0.1974 -0.0777  0.6315
  624TMC3     O 9298   4.612   3.223  16.576 -0.0819  0.0208  0.0212
  624TMC3     H 9299   4.389   3.149  16.551  2.6348  1.1609  0.5062
  624TMC3    H1 9300   4.622   3.038  16.212  0.5625  1.1832  0.7650
  624TMC3    H2 9301   4.240   2.867  16.260 -1.5930  1.1598 -0.5317
  624TMC3    C7 9302   4.449   2.894  16.096 -0.4626  0.2269 -0.1156
  624TMC3    C8 9303   4.185   2.974  16.497 -0.5648  0.4531 -0.2005
  624TMC3    O1 9304   4.529   2.947  16.022  0.0093  0.3229 -0.5513
  624TMC3    O2 9305   4.128   2.866  16.467 -0.2812 -0.4671  0.0358
  625MPD2     C 9306   4.512   3.667   0.763 -0.0245  0.5306  0.1157
  625MPD2    C1 9307   4.450   3.792   0.771  0.3049  0.0071  0.1734
  625MPD2    C2 9308   4.520   3.900   0.813 -0.3093 -0.0377  0.4679
  625MPD2    C3 9309   4.663   3.891   0.839  0.2337 -0.2097 -0.4648
  625MPD2    C4 9310   4.719   3.769   0.836  0.8473 -0.8770 -0.2463
  625MPD2    C5 9311   4.648   3.659   0.798  0.1955  0.4412  0.1175
  625MPD2     H 9312   4.467   3.994   0.807 -0.3130 -0.1826 -1.8336
  625MPD2    H1 9313   0.090   3.761   0.849  0.9030  0.1963 -0.0057
  625MPD2    H2 9314   4.469   3.578   0.721  0.9230 -0.0631  0.3909
  625MPD2    H3 9315   4.709   3.570   0.790 -2.4033 -1.1658 -1.6787
  625MPD2     N 9316   0.008   4.006   0.862  0.1785 -0.5288 -0.2658
  625MPD2    H5 9317   4.693   4.092   0.878 -2.3813 -1.6331 -2.6139
  625MPD2    N1 9318   4.314   3.804   0.747 -0.2558  0.1151 -0.0390
  625MPD2    H7 9319   4.283   3.901   0.751  2.1563  0.8441  1.3299
  626TMC3    C1 9320   4.092   3.736   0.701  0.6800  0.6255 -0.4699
  626TMC3    C2 9321   4.076   3.830   0.602 -0.5821 -0.3188 -0.1834
  626TMC3    C3 9322   3.957   3.824   0.542 -0.2246  1.2594  0.8244
  626TMC3    C4 9323   4.000   3.638   0.725  0.5635  0.2421 -0.4530
  626TMC3    C5 9324   3.882   3.629   0.658  0.0093 -0.1391  0.2141
  626TMC3    C6 9325   3.859   3.730   0.565 -0.4620 -0.2201 -0.6380
  626TMC3     C 9326   4.228   3.699   0.743  0.0509 -0.5634 -0.0439
  626TMC3     O 9327   4.246   3.584   0.786  0.2250 -0.5830 -0.3621
  626TMC3     H 9328   4.154   3.902   0.580  1.1194 -2.6332 -1.6736
  626TMC3    H1 9329   4.018   3.570   0.807 -1.4070  1.1942  0.7678
  626TMC3    H2 9330   3.756   3.755   0.541 -0.3443  1.9899  1.1794
  626TMC3    C7 9331   3.767   3.612   0.743 -0.2407  0.7788 -0.0929
  626TMC3    C8 9332   3.931   3.920   0.434 -0.8854 -0.0523  0.4511
  626TMC3    O1 9333   3.709   3.507   0.752  0.6275  0.0672 -0.7098
  626TMC3    O2 9334   3.984   4.028   0.448 -0.1923  0.2574  0.6225
  627MPD2     C 9335   3.128   4.201  14.227  0.1154 -0.7989 -0.1490
  627MPD2    C1 9336   3.154   4.149  14.354  0.2889  0.1260  0.5175
  627MPD2    C2 9337   3.128   4.013  14.368  0.2961 -0.3264 -0.4264
  627MPD2    C3 9338   3.071   3.937  14.262 -0.1866  0.2339 -0.9867
  627MPD2    C4 9339   3.049   3.990  14.140  0.7693  0.0073  0.0566
  627MPD2    C5 9340   3.074   4.127  14.125 -0.5961  0.6497  0.2711
  627MPD2     H 9341   3.150   3.961  14.460  3.9213 -1.2445 -1.7874
  627MPD2    H1 9342   3.013   3.942  14.050  0.1261  0.2927  0.1564
  627MPD2    H2 9343   3.157   4.301  14.197 -1.1392 -0.7843 -1.3295
  627MPD2    H3 9344   3.066   4.173  14.027 -0.6141 -1.5795 -0.7903
  627MPD2     N 9345   3.045   3.797  14.283 -0.4433  0.5193  0.1596
  627MPD2    H5 9346   3.093   3.758  14.364 -2.6187 -0.3728  1.0111
  627MPD2    N1 9347   3.208   4.222  14.466 -0.2388  0.1186 -0.2255
  627MPD2    H7 9348   3.230   4.172  14.551  0.3312 -1.3271 -1.2183
  628TMC3    C1 9349   3.274   4.408  14.596  0.0123 -0.3216  0.2017
  628TMC3    C2 9350   3.367   4.338  14.668 -0.4203 -0.2847  0.0314
  628TMC3    C3 9351   3.407   4.389  14.792 -0.0776 -0.3798  0.4204
  628TMC3    C4 9352   3.243   4.540  14.633  0.8357  0.3507  0.6025
  628TMC3    C5 9353   3.276   4.586  14.757 -0.7093  0.4882  0.2573
  628TMC3    C6 9354   3.347   4.506  14.845 -0.6136  0.0959  0.2219
  628TMC3     C 9355   3.240   4.355  14.466  0.0092 -0.6599  0.2486
  628TMC3     O 9356   3.195   4.435  14.380  0.4661  0.1199  0.2053
  628TMC3     H 9357   3.414   4.253  14.619  1.4467  0.5973  0.2962
  628TMC3    H1 9358   3.202   4.607  14.557  0.9222  0.6061  0.7827
  628TMC3    H2 9359   3.391   4.548  14.935  0.0334  0.5408 -0.3088
  628TMC3    C7 9360   3.281   4.733  14.776 -0.2772 -0.0127 -0.0506
  628TMC3    C8 9361   3.545   4.430  14.814  0.2351 -1.4605  0.8721
  628TMC3    O1 9362   3.355   0.039  14.860 -0.9511 -0.0087  0.0474
  628TMC3    O2 9363   3.578   4.534  14.756 -0.1473  0.2026 -0.2932
  629MPD2     C 9364   1.667   3.500  17.191 -0.5057  0.0034  0.4907
  629MPD2    C1 9365   1.646   3.440  17.073 -0.1730  0.0549 -0.5032
  629MPD2    C2 9366   1.529   3.359  17.052  0.6972  0.2223 -0.0554
  629MPD2    C3 9367   1.441   3.342  17.150  0.1135  0.2214 -0.5360
  629MPD2    C4 9368   1.463   3.404  17.271  0.2807  0.3680 -0.2146
  629MPD2    C5 9369   1.566   3.487  17.287 -0.3678 -0.4329 -0.1121
  629MPD2     H 9370   1.527   3.298  16.963  0.3330  0.0387  0.0811
  629MPD2    H1 9371   1.384   3.397  17.345  0.2656  1.9018 -0.0849
  629MPD2    H2 9372   1.753   3.565  17.209  0.1899 -0.2376 -1.8859
  629MPD2    H3 9373   1.579   3.537  17.383 -1.0300  0.3054 -0.4135
  629MPD2     N 9374   1.332   3.256  17.125 -0.0570 -0.3714  0.7743
  629MPD2    H5 9375   1.337   3.222  17.030 -0.1638 -0.7380  0.8984
  629MPD2    N1 9376   1.750   3.462  16.981  0.0930  0.0801 -0.2375
  629MPD2    H7 9377   1.826   3.522  17.011 -0.5241  0.5568  0.3713
  630TMC3    C1 9378   1.903   3.400  16.839  0.1921  0.4364 -1.0874
  630TMC3    C2 9379   1.938   3.464  16.725 -0.3459 -0.6644  0.2958
  630TMC3    C3 9380   2.063   3.423  16.673 -0.0310 -0.8958  0.3205
  630TMC3    C4 9381   1.976   3.300  16.900  0.0251 -0.4505 -0.1736
  630TMC3    C5 9382   2.109   3.304  16.862 -0.6321  0.5883  0.5795
  630TMC3    C6 9383   2.157   3.360  16.751  0.0467  0.1638  0.4465
  630TMC3     C 9384   1.767   3.390  16.871  0.0947 -0.5348  0.1233
  630TMC3     O 9385   1.701   3.328  16.794 -0.0294  0.3382  0.3405
  630TMC3     H 9386   1.861   3.513  16.666 -0.3986 -0.9967  0.0885
  630TMC3    H1 9387   1.933   3.246  16.984  0.0249 -1.2365 -0.6808
  630TMC3    H2 9388   2.260   3.340  16.726 -0.1130 -0.6017  0.3841
  630TMC3    C7 9389   2.205   3.251  16.960  0.1453 -0.7782  0.1451
  630TMC3    C8 9390   2.127   3.517  16.580  0.6512 -1.0538 -0.7950
  630TMC3    O1 9391   2.165   3.155  17.021  0.4037  0.1393  0.4580
  630TMC3    O2 9392   2.247   3.487  16.570  1.0149 -0.1998  0.0648
  631MPD2     C 9393   0.675   3.212  15.396  0.5759 -0.4669  0.2820
  631MPD2    C1 9394   0.611   3.309  15.466  0.0990 -0.0947 -0.6201
  631MPD2    C2 9395   0.683   3.376  15.566 -0.1175 -0.0576 -0.1070
  631MPD2    C3 9396   0.809   3.333  15.605  1.1612  0.2818 -0.0191
  631MPD2    C4 9397   0.868   3.225  15.544  0.7891 -0.0664  0.1767
  631MPD2    C5 9398   0.799   3.170  15.445 -0.4058  1.1313  0.1699
  631MPD2     H 9399   0.637   3.463  15.611  1.8841  0.4829  0.8933
  631MPD2    H1 9400   0.962   3.178  15.569  1.5353  2.0843  1.4358
  631MPD2    H2 9401   0.631   3.162  15.310 -0.8250  0.2096  0.5949
  631MPD2    H3 9402   0.852   3.088  15.399  1.2116  1.1959  1.9169
  631MPD2     N 9403   0.871   3.402  15.715  0.2517  0.2517 -0.2741
  631MPD2    H5 9404   0.812   3.472  15.757 -0.9359  0.4389 -2.2634
  631MPD2    N1 9405   0.484   3.349  15.422  0.1169 -0.4822  0.1269
  631MPD2    H7 9406   0.449   3.281  15.356 -1.6539  0.9845 -0.4613
  632TMC3    C1 9407   0.272   3.451  15.414 -0.9405 -0.4594 -0.0650
  632TMC3    C2 9408   0.182   3.539  15.472 -0.8974 -0.2548  0.0609
  632TMC3    C3 9409   0.050   3.524  15.453  0.1583 -0.6806 -0.2627
  632TMC3    C4 9410   0.236   3.377  15.310 -0.2135 -0.3356 -0.0500
  632TMC3    C5 9411   0.103   3.375  15.271 -0.9326 -0.4223 -0.1807
  632TMC3    C6 9412   0.008   3.441  15.348  0.1590 -0.0955  0.2735
  632TMC3     C 9413   0.404   3.455  15.467 -0.0176 -0.1270 -0.9029
  632TMC3     O 9414   0.423   3.543  15.552 -0.1884 -0.3856 -0.3574
  632TMC3     H 9415   0.218   3.601  15.553 -1.3617  0.5594 -0.3562
  632TMC3    H1 9416   0.314   3.332  15.249 -0.8108 -0.6295 -0.5869
  632TMC3    H2 9417   4.639   3.437  15.326  0.4452 -1.0152 -0.9017
  632TMC3    C7 9418   0.085   3.376  15.128 -0.0796  0.7484  0.6114
  632TMC3    C8 9419   4.693   3.555  15.563 -0.5723  0.3825 -0.6660
  632TMC3    O1 9420   0.168   3.319  15.055  0.0930  0.0442  0.3927
  632TMC3    O2 9421   4.585   3.497  15.562  0.2936 -0.3718 -0.3415
  633MPD2     C 9422   4.282   0.919  17.384  0.4494 -0.1919 -0.4792
  633MPD2    C1 9423   4.223   0.865  17.271  0.5065  0.4403 -0.1490
  633MPD2    C2 9424   4.197   0.729  17.266 -0.3958 -0.5595 -0.3388
  633MPD2    C3 9425   4.243   0.641  17.351 -0.2406 -0.0979 -0.0664
  633MPD2    C4 9426   4.292   0.697  17.464 -0.4594  0.0802 -0.7127
  633MPD2    C5 9427   4.300   0.832  17.490  0.2658  0.0316  0.7901
  633MPD2     H 9428   4.155   0.689  17.174  0.5044 -2.0399 -0.1141
  633MPD2    H1 9429   4.323   0.626  17.539 -0.1514  0.2488 -0.6797
  633MPD2    H2 9430   4.290   1.026  17.399 -1.5760 -0.0687 -0.2477
  633MPD2    H3 9431   4.326   0.867  17.590 -0.1071  0.7117  0.6465
  633MPD2     N 9432   4.261   0.503  17.326 -0.2043  0.1289 -0.1490
  633MPD2    H5 9433   4.313   0.448  17.394 -0.5305  0.3380  0.2663
  633MPD2    N1 9434   4.202   0.944  17.155  0.1734  0.1334  0.1822
  633MPD2    H7 9435   4.155   0.898  17.077  1.7985  0.8500 -1.2470
  634TMC3    C1 9436   4.245   1.113  16.999  0.5081 -0.2722  0.1540
  634TMC3    C2 9437   4.297   1.019  16.911  0.2073  0.1925  0.1305
  634TMC3    C3 9438   4.323   1.057  16.783  0.3214  0.6159 -0.0041
  634TMC3    C4 9439   4.228   1.245  16.971 -0.1076  0.0215 -0.1322
  634TMC3    C5 9440   4.262   1.280  16.841 -0.4407  0.0814 -0.3500
  634TMC3    C6 9441   4.301   1.188  16.743 -0.4697 -0.4555  0.5032
  634TMC3     C 9442   4.247   1.075  17.132 -0.2815 -0.1490  0.1206
  634TMC3     O 9443   4.308   1.151  17.208 -0.3102  0.2309  0.2423
  634TMC3     H 9444   4.320   0.917  16.940  1.4526 -0.0248 -1.5933
  634TMC3    H1 9445   4.206   1.317  17.049 -1.0907 -1.5759  1.0531
  634TMC3    H2 9446   4.331   1.217  16.643 -0.6219  2.0050  1.1590
  634TMC3    C7 9447   4.223   1.409  16.789  0.1699  0.4061  0.0490
  634TMC3    C8 9448   4.381   0.958  16.692  0.0954 -0.1529 -0.8773
  634TMC3    O1 9449   4.279   1.436  16.685  0.1273  0.0968  0.3699
  634TMC3    O2 9450   4.393   0.842  16.725 -0.4356 -0.6213  0.5244
  635TMC3    C1 9451   4.336   2.119  17.583  0.0300  0.2015  0.2394
  635TMC3    C2 9452   4.354   2.168  17.455  0.1706  0.2784  0.8497
  635TMC3    C3 9453   4.369   2.084  17.349 -0.2291  0.5404  0.0549
  635TMC3    C4 9454   4.351   1.984  17.601 -0.1049 -0.1785 -0.4934
  635TMC3    C5 9455   4.368   1.903  17.491 -0.7545 -0.2538  0.6916
  635TMC3    C6 9456   4.368   1.948  17.368  0.2871  0.2577 -0.0944
  635TMC3     C 9457   4.357   2.206  17.697 -0.3357 -0.0194  0.8126
  635TMC3     O 9458   4.412   2.311  17.681 -0.0480  0.2487 -0.1729
  635TMC3     H 9459   4.371   2.274  17.441 -0.2087  0.0249 -1.5500
  635TMC3    H1 9460   4.356   1.932  17.696 -3.6273 -2.1073 -1.3657
  635TMC3    H2 9461   4.380   1.874  17.290  3.1301  0.1387  0.4475
  635TMC3    C7 9462   4.360   1.759  17.522 -0.1313 -0.4518 -0.4663
  635TMC3    C8 9463   4.352   2.140  17.216  0.7020  0.1663 -0.2405
  635TMC3    O1 9464   4.300   1.728  17.623 -0.0037  0.1987 -0.2319
  635TMC3    O2 9465   4.278   2.237  17.207  0.6073  0.0075 -0.1942
  636MPD2     C 9466   1.247   1.457  15.525 -0.6654  0.2209 -0.0468
  636MPD2    C1 9467   1.238   1.508  15.650  0.1546 -0.8444 -0.4107
  636MPD2    C2 9468   1.338   1.598  15.693  0.3023 -0.3014  0.0692
  636MPD2    C3 9469   1.431   1.647  15.602 -0.8033 -0.6318  0.1427
  636MPD2    C4 9470   1.434   1.597  15.473 -0.8190 -0.3335 -0.4663
  636MPD2    C5 9471   1.348   1.502  15.441  0.4364 -0.4492 -0.6847
  636MPD2     H 9472   1.349   1.631  15.795 -0.7598  1.3281 -0.3394
  636MPD2    H1 9473   1.506   1.620  15.395  0.3127  0.0937  0.7125
  636MPD2    H2 9474   1.191   1.379  15.475 -0.8174 -0.7597  1.6309
  636MPD2    H3 9475   1.349   1.457  15.342 -2.3778  1.7163 -1.6896
  636MPD2     N 9476   1.539   1.727  15.649 -0.2356 -0.1045  0.3822
  636MPD2    H5 9477   1.534   1.752  15.748  0.4223 -0.0327  0.4019
  636MPD2    N1 9478   1.153   1.463  15.747  0.0604  0.2559  0.2740
  636MPD2    H7 9479   1.144   1.516  15.833 -1.0354 -1.9970  1.5488
  637TMC3    C1 9480   1.731   1.844  15.660 -0.6030 -0.1192  0.5670
  637TMC3    C2 9481   1.720   1.782  15.776  0.1434  0.1126  0.6097
  637TMC3    C3 9482   1.723   1.854  15.892  0.8229 -0.5971  0.4222
  637TMC3    C4 9483   1.733   1.974  15.643 -0.1853  0.2419  0.6178
  637TMC3    C5 9484   1.712   2.048  15.761  0.2856  0.9389 -0.0678
  637TMC3    C6 9485   1.704   1.990  15.883  0.3080  0.2142 -0.2669
  637TMC3     C 9486   1.647   1.772  15.574  0.1330  0.6074 -0.4686
  637TMC3     O 9487   1.663   1.772  15.454 -0.5416 -0.2331 -0.1623
  637TMC3     H 9488   1.710   1.675  15.789 -0.4606  0.1449  0.3889
  637TMC3    H1 9489   1.740   2.015  15.543  2.0815 -1.6785  0.0096
  637TMC3    H2 9490   1.691   2.053  15.971 -1.5886 -0.7282  0.1298
  637TMC3    C7 9491   1.624   2.157  15.732 -0.8579  0.1043  0.1995
  637TMC3    C8 9492   1.614   1.800  15.979 -0.3603 -0.0096 -0.4871
  637TMC3    O1 9493   1.568   2.154  15.628 -0.3428  0.2156  0.0254
  637TMC3    O2 9494   1.531   1.737  15.919  0.1467 -0.0399 -0.4827
  638MPD2     C 9495   0.542   0.308  14.925  0.6736  0.0582 -0.6323
  638MPD2    C1 9496   0.484   0.213  14.845 -0.2461  0.3830  0.1477
  638MPD2    C2 9497   0.455   0.089  14.896  0.0662  0.5810  0.1817
  638MPD2    C3 9498   0.482   0.064  15.030 -0.0558 -0.3975  1.2125
  638MPD2    C4 9499   0.557   0.156  15.103  0.1555  0.3634  0.1135
  638MPD2    C5 9500   0.583   0.279  15.050 -0.4958  0.8733 -0.2057
  638MPD2     H 9501   0.397   0.020  14.837  1.6290  0.9827 -1.8160
  638MPD2    H1 9502   0.588   0.136  15.205 -0.8687  1.5754  0.6621
  638MPD2    H2 9503   0.572   0.401  14.879  1.8455  0.2651  0.5525
  638MPD2    H3 9504   0.630   0.346  15.121 -0.0094 -1.6824  1.8435
  638MPD2     N 9505   0.441   4.669  15.079  0.1947  0.6794 -0.0369
  638MPD2    H5 9506   0.394   4.607  15.014 -1.0594  0.6800  0.8759
  638MPD2    N1 9507   0.448   0.252  14.707 -0.0987  0.5873  0.0460
  638MPD2    H7 9508   0.460   0.351  14.686 -1.6503  0.7552 -0.0897
  639TMC3    C1 9509   0.435   4.470  15.212  0.2500 -0.7838  0.3424
  639TMC3    C2 9510   0.348   4.415  15.117 -0.4316  0.4448  0.4115
  639TMC3    C3 9511   0.343   4.276  15.111 -0.1521  0.4556  0.7310
  639TMC3    C4 9512   0.513   4.389  15.286  0.2069  0.2152  0.1045
  639TMC3    C5 9513   0.521   4.251  15.262 -0.7737 -0.2180 -0.4797
  639TMC3    C6 9514   0.432   4.193  15.175 -0.4313 -0.5382  0.1684
  639TMC3     C 9515   0.467   4.617  15.199  0.3056 -0.2998  0.2807
  639TMC3     O 9516   0.512   4.671  15.302 -0.2551  0.7293  0.1075
  639TMC3     H 9517   0.279   4.481  15.065 -0.4225 -0.7965 -1.1728
  639TMC3    H1 9518   0.559   4.432  15.375 -0.4659 -1.7406  1.3987
  639TMC3    H2 9519   0.450   4.090  15.146 -0.3413 -0.8662  1.3914
  639TMC3    C7 9520   0.615   4.162  15.334 -0.4846  0.4015  0.1633
  639TMC3    C8 9521   0.259   4.221  15.005 -0.7572  0.4744  0.6481
  639TMC3    O1 9522   0.594   4.040  15.344 -0.3499 -0.1348 -1.0521
  639TMC3    O2 9523   0.284   4.261  14.891  0.2518 -0.6143 -0.4096
  640MPD2     C 9524   1.455   3.928  10.310  0.1883 -0.2996  1.4294
  640MPD2    C1 9525   1.481   4.007  10.202  0.1675  0.2946 -0.7126
  640MPD2    C2 9526   1.440   4.139  10.201 -0.6808  0.0932  0.3909
  640MPD2    C3 9527   1.379   4.190  10.317  0.2293  0.8538  0.8213
  640MPD2    C4 9528   1.369   4.109  10.430 -0.0414 -0.4752 -0.5048
  640MPD2    C5 9529   1.415   3.984  10.427 -0.5745  0.1542  0.7053
  640MPD2     H 9530   1.445   4.202  10.113 -1.0856  1.3232  1.2489
  640MPD2    H1 9531   1.326   4.148  10.522  1.7403  2.8188 -1.0687
  640MPD2    H2 9532   1.476   3.822  10.318 -0.0221 -0.3386  1.4881
  640MPD2    H3 9533   1.411   3.923  10.516  3.1277  0.7365  1.3136
  640MPD2     N 9534   1.320   4.320  10.316  0.3825  0.0763 -0.1100
  640MPD2    H5 9535   1.270   4.347  10.400  0.5980  2.0248 -0.6128
  640MPD2    N1 9536   1.538   3.936  10.096  0.1290 -0.4445 -0.2202
  640MPD2    H7 9537   1.544   3.835  10.102  0.3341 -0.3027  2.0269
  641TMC3    C1 9538   1.595   3.920   9.866  0.4021  0.2073  0.2936
  641TMC3    C2 9539   1.651   3.801   9.878 -0.0966 -0.0225 -0.2893
  641TMC3    C3 9540   1.692   3.744   9.751  0.1707 -0.5598  0.0218
  641TMC3    C4 9541   1.573   3.991   9.748  0.1616  0.2713  0.5990
  641TMC3    C5 9542   1.627   3.944   9.633  0.3356 -0.5364  0.0529
  641TMC3    C6 9543   1.682   3.815   9.636  0.0843 -0.2235  0.6264
  641TMC3     C 9544   1.571   4.004   9.982 -0.3720  0.2630  0.3361
  641TMC3     O 9545   1.596   4.125   9.968 -0.6740  0.4989 -0.4068
  641TMC3     H 9546   1.672   3.756   9.975  0.3946 -0.5604 -0.6473
  641TMC3    H1 9547   1.519   4.085   9.751 -0.0439  0.0920  2.4014
  641TMC3    H2 9548   1.711   3.763   9.546  0.6216 -0.6364  1.0441
  641TMC3    C7 9549   1.596   3.994   9.498  0.1408  0.1202 -0.2692
  641TMC3    C8 9550   1.774   3.625   9.745  0.6927 -0.2463  0.1844
  641TMC3    O1 9551   1.627   3.927   9.402 -0.0144  0.8145 -0.1137
  641TMC3    O2 9552   1.821   3.602   9.634 -0.0501  0.2529  0.8496
  642TMC3    C1 9553   2.098   4.464  12.490  0.7320 -0.5149  0.0470
  642TMC3    C2 9554   2.229   4.509  12.450  0.4617 -0.4379 -0.7774
  642TMC3    C3 9555   2.304   4.428  12.378 -0.0101  0.3869  0.0578
  642TMC3    C4 9556   2.048   4.341  12.448  0.5900 -0.6719  0.3759
  642TMC3    C5 9557   2.128   4.269  12.365  0.0785  0.0532  0.2956
  642TMC3    C6 9558   2.259   4.306  12.330  0.1236 -1.0248 -0.1762
  642TMC3     C 9559   2.015   4.574  12.535 -0.1440 -0.7198  0.3915
  642TMC3     O 9560   2.055   4.689  12.534 -0.1440 -0.1328  0.0479
  642TMC3     H 9561   2.263   4.611  12.464 -2.4832  0.7046 -1.8520
  642TMC3    H1 9562   1.945   4.315  12.473 -0.1163  0.0056 -1.8365
  642TMC3    H2 9563   2.322   4.238  12.274 -0.5185 -0.6097 -1.4134
  642TMC3    C7 9564   2.086   4.138  12.317 -0.6123  0.1166 -0.0217
  642TMC3    C8 9565   2.426   4.483  12.320 -0.4264  0.1804 -0.0174
  642TMC3    O1 9566   2.135   4.092  12.212  0.2713 -0.2154  0.1648
  642TMC3    O2 9567   2.495   4.556  12.390 -0.0796 -0.0217 -0.0561
  643TMC3    C1 9568   0.982   3.393   0.056  0.5698 -0.0103  0.4320
  643TMC3    C2 9569   0.943   3.402  17.671  0.3692  0.8963 -0.2677
  643TMC3    C3 9570   1.039   3.401  17.573  0.6203 -0.4985  0.6436
  643TMC3    C4 9571   1.115   3.396   0.090 -0.2104 -0.6476 -0.6517
  643TMC3    C5 9572   1.208   3.391  17.728 -0.1626  0.0689 -0.4192
  643TMC3    C6 9573   1.169   3.396  17.606  0.0739  0.6611 -0.2440
  643TMC3     C 9574   0.903   3.487   0.138 -0.0126  0.4591  0.5429
  643TMC3     O 9575   0.838   3.567   0.075 -0.1603 -0.0668 -0.1285
  643TMC3     H 9576   0.836   3.395  17.656  0.1983  0.3706  1.1371
  643TMC3    H1 9577   1.134   3.398   0.197  0.4087  1.8433 -0.8166
  643TMC3    H2 9578   1.238   3.413  17.524 -0.2007  0.6717 -0.4761
  643TMC3    C7 9579   1.336   3.442   0.023 -0.2205  0.2689  0.1360
  643TMC3    C8 9580   0.999   3.499  17.471  0.3336 -0.3613  0.2129
  643TMC3    O1 9581   1.332   3.493   0.135 -0.1468 -0.2276 -0.4895
  643TMC3    O2 9582   1.009   3.480  17.351  0.3777 -0.1774 -0.3975
  644MPD2     C 9583   1.667   4.646   9.727  0.2019 -0.6552  0.3615
  644MPD2    C1 9584   1.674   4.638   9.587 -0.3277  0.3019 -0.9861
  644MPD2    C2 9585   1.647   0.023   9.520 -0.0918 -0.1613 -0.1135
  644MPD2    C3 9586   1.618   0.141   9.581 -0.3229  0.3052  0.1980
  644MPD2    C4 9587   1.614   0.142   9.717  0.1854  0.0309  0.4678
  644MPD2    C5 9588   1.638   0.029   9.788  0.0656  0.4435  0.7351
  644MPD2     H 9589   1.653   0.025   9.412 -1.9018  1.2917 -0.2030
  644MPD2    H1 9590   1.586   0.225   9.781 -0.8085  0.4041 -0.4554
  644MPD2    H2 9591   1.683   4.569   9.801 -1.0730 -2.4852 -1.2660
  644MPD2    H3 9592   1.628   0.029   9.896  1.6910 -1.9531  0.8713
  644MPD2     N 9593   1.612   0.253   9.499  0.3247 -0.1954  0.3923
  644MPD2    H5 9594   1.626   0.242   9.399 -0.1875 -0.4648  0.3525
  644MPD2    N1 9595   1.731   4.521   9.531 -0.2720 -0.2028 -0.0317
  644MPD2    H7 9596   1.755   4.454   9.604 -1.1534 -1.0374 -0.5133
  645TMC3    C1 9597   1.573   0.471   9.424  0.2781 -0.6137 -0.2206
  645TMC3    C2 9598   1.565   0.604   9.448  0.1223  0.3060 -0.5847
  645TMC3    C3 9599   1.536   0.696   9.352  0.1154 -0.7654 -0.4268
  645TMC3    C4 9600   1.541   0.422   9.296  0.0014  0.3584  0.6659
  645TMC3    C5 9601   1.507   0.519   9.203 -0.1322  0.4867 -0.6480
  645TMC3    C6 9602   1.503   0.650   9.229 -0.3298  0.0043  1.0568
  645TMC3     C 9603   1.591   0.385   9.542  0.4738  0.2496 -0.2894
  645TMC3     O 9604   1.559   0.418   9.653 -0.2964 -0.2478  0.1484
  645TMC3     H 9605   1.590   0.637   9.547 -0.6295 -0.8531 -0.0035
  645TMC3    H1 9606   1.529   0.317   9.276  0.6404  0.1208  1.5167
  645TMC3    H2 9607   1.485   0.721   9.149  0.0011  1.2071  2.0278
  645TMC3    C7 9608   1.477   0.477   9.066 -0.7210  0.3342 -0.4037
  645TMC3    C8 9609   1.528   0.831   9.379 -0.2760 -0.2998  0.7419
  645TMC3    O1 9610   1.429   0.555   8.985  0.0521 -0.0767 -0.6973
  645TMC3    O2 9611   1.518   0.857   9.501 -0.1369 -0.6228  0.2726
  646MPD2     C 9612   0.825   3.581  14.407 -0.8505 -0.5588  0.2787
  646MPD2    C1 9613   0.755   3.585  14.521 -0.0067  0.3345  0.6464
  646MPD2    C2 9614   0.625   3.627  14.508  0.3490  0.3377 -0.3988
  646MPD2    C3 9615   0.571   3.669  14.386  0.7209 -0.2408  0.4216
  646MPD2    C4 9616   0.658   3.682  14.277 -0.3101 -0.7592 -0.0311
  646MPD2    C5 9617   0.783   3.625  14.282 -0.2664 -0.2284  0.5841
  646MPD2     H 9618   0.558   3.624  14.593 -0.0819  1.1193 -0.7102
  646MPD2    H1 9619   0.622   3.729  14.186  1.1961  1.0439  0.3219
  646MPD2    H2 9620   0.929   3.553  14.413 -1.0769 -1.3667  0.3868
  646MPD2    H3 9621   0.846   3.616  14.195  0.6847 -0.6887  1.3213
  646MPD2     N 9622   0.439   3.705  14.369  0.2962 -0.3618 -0.0797
  646MPD2    H5 9623   0.408   3.735  14.277  1.0974  0.3389 -0.1188
  646MPD2    N1 9624   0.819   3.540  14.643  0.0781  0.3841 -0.1350
  646MPD2    H7 9625   0.912   3.498  14.640 -0.5044 -0.8570 -1.0120
  647TMC3    C1 9626   0.817   3.436  14.855  0.2900  0.9385 -0.1828
  647TMC3    C2 9627   0.735   3.345  14.929  0.2544 -0.0436  0.6440
  647TMC3    C3 9628   0.797   3.239  14.991 -0.0127  0.4788 -0.3789
  647TMC3    C4 9629   0.951   3.433  14.862  0.4151 -0.1590  0.1909
  647TMC3    C5 9630   1.005   3.334  14.943 -0.3260  0.5696  0.0436
  647TMC3    C6 9631   0.932   3.231  14.995 -0.4237 -0.9233 -0.1880
  647TMC3     C 9632   0.748   3.526  14.759 -0.2346  0.1656 -0.1585
  647TMC3     O 9633   0.636   3.569  14.791  0.1121 -0.1537  0.4919
  647TMC3     H 9634   0.627   3.349  14.930  0.2507 -0.0170 -0.9871
  647TMC3    H1 9635   1.015   3.509  14.819 -0.3656  0.6879  0.5263
  647TMC3    H2 9636   0.985   3.142  15.028  1.4897 -0.1093 -1.0508
  647TMC3    C7 9637   1.154   3.315  14.941  0.4467  0.2438 -0.9969
  647TMC3    C8 9638   0.727   3.138  15.060  0.5118 -0.2965  0.4287
  647TMC3    O1 9639   1.206   3.203  14.964  0.2533 -0.3226  0.4092
  647TMC3    O2 9640   0.792   3.054  15.117 -0.5599 -0.6659  0.0534
  648TMC3    C1 9641   0.216   1.091  16.171  0.4398  0.0663  0.0040
  648TMC3    C2 9642   0.248   0.971  16.114 -0.7788  0.3842 -0.4655
  648TMC3    C3 9643   0.260   0.976  15.975  0.0357  0.2252 -0.2029
  648TMC3    C4 9644   0.184   1.198  16.093 -0.4110 -0.6172 -0.6349
  648TMC3    C5 9645   0.181   1.190  15.955 -0.6090  0.1784  0.3083
  648TMC3    C6 9646   0.218   1.078  15.895  0.6022  0.0311  0.4262
  648TMC3     C 9647   0.172   1.100  16.305  0.1372 -0.4324  0.1518
  648TMC3     O 9648   0.110   1.204  16.328  0.4509 -0.6795 -0.0412
  648TMC3     H 9649   0.285   0.882  16.164 -1.1167  1.4118  1.5650
  648TMC3    H1 9650   0.181   1.295  16.142  1.4665 -0.3608 -1.0321
  648TMC3    H2 9651   0.232   1.079  15.787 -1.7196 -0.9294  0.1111
  648TMC3    C7 9652   0.113   1.286  15.872  0.1104 -1.0507  0.5178
  648TMC3    C8 9653   0.283   0.848  15.903  0.3254  0.1924 -0.3457
  648TMC3    O1 9654   0.127   1.284  15.751 -0.2697 -0.5120 -0.1670
  648TMC3    O2 9655   0.343   0.765  15.969  0.3913 -0.3834  1.1121
  649TMC3    C1 9656   4.009   2.089  13.107 -0.2308  0.5976  0.0523
  649TMC3    C2 9657   4.134   2.144  13.089 -0.1643  0.0936  0.7706
  649TMC3    C3 9658   4.217   2.122  13.201  0.0996 -0.3755  0.1581
  649TMC3    C4 9659   3.968   2.018  13.211 -0.6634  0.3458  0.4311
  649TMC3    C5 9660   4.065   1.990  13.306 -0.8308  0.1220 -0.3043
  649TMC3    C6 9661   4.192   2.035  13.304  0.4125  0.5007 -0.2773
  649TMC3     C 9662   3.910   2.131  13.014  0.1912 -0.5908 -0.3098
  649TMC3     O 9663   3.793   2.146  13.044  0.3570 -0.1607  0.1851
  649TMC3     H 9664   4.161   2.217  13.014 -1.3275 -0.0289  0.2369
  649TMC3    H1 9665   3.872   1.969  13.214 -1.0108  0.9530 -1.0685
  649TMC3    H2 9666   4.269   2.002  13.373 -0.9160  0.3354  1.1264
  649TMC3    C7 9667   4.013   1.953  13.435 -0.2912  0.5088  0.0092
  649TMC3    C8 9668   4.359   2.147  13.175 -0.3376  0.0357  0.4609
  649TMC3    O1 9669   3.892   1.962  13.448  0.4226  0.1437 -0.7617
  649TMC3    O2 9670   4.439   2.077  13.235 -0.0031  0.0696  0.0043
  650TMC3    C1 9671   1.599   3.559  12.718 -0.3384 -0.2769 -0.4910
  650TMC3    C2 9672   1.511   3.651  12.764 -0.0859 -0.3595  0.2392
  650TMC3    C3 9673   1.396   3.672  12.694 -0.0183 -0.1968  0.2177
  650TMC3    C4 9674   1.568   3.488  12.604 -0.3719 -0.5244 -0.0379
  650TMC3    C5 9675   1.454   3.521  12.532 -0.1476  0.4173 -0.4106
  650TMC3    C6 9676   1.360   3.610  12.576 -0.7676  0.0714  0.0112
  650TMC3     C 9677   1.715   3.515  12.793  0.4931  0.1726 -0.5490
  650TMC3     O 9678   1.773   3.589  12.871 -0.0729  0.2544  0.8394
  650TMC3     H 9679   1.539   3.717  12.845  1.4053  0.1994 -0.7582
  650TMC3    H1 9680   1.653   3.432  12.568 -0.7235 -1.1091  0.0345
  650TMC3    H2 9681   1.268   3.642  12.528 -0.8827 -0.7834 -0.3312
  650TMC3    C7 9682   1.458   3.483  12.391  0.0908  0.3548 -0.0395
  650TMC3    C8 9683   1.331   3.794  12.726  0.4897  0.3828  0.0579
  650TMC3    O1 9684   1.505   3.373  12.370  0.4659  0.9225  0.7685
  650TMC3    O2 9685   1.403   3.895  12.742  0.0824  0.2854  0.1860
  651MPD2     C 9686   0.661   0.935  10.669 -0.4996 -0.3207 -0.0247
  651MPD2    C1 9687   0.627   1.048  10.735 -0.0162 -0.1621 -0.4256
  651MPD2    C2 9688   0.722   1.148  10.750 -0.1446 -0.3943  0.0460
  651MPD2    C3 9689   0.852   1.124  10.713 -0.6793  0.8914 -0.9072
  651MPD2    C4 9690   0.886   1.003  10.660  0.0290 -0.3429 -0.1191
  651MPD2    C5 9691   0.789   0.907  10.643  0.1009  1.0508  0.3881
  651MPD2     H 9692   0.690   1.240  10.797  0.1962  0.1247 -0.7584
  651MPD2    H1 9693   0.987   0.969  10.640  0.1093 -1.5032  2.2206
  651MPD2    H2 9694   0.595   0.854  10.640 -2.1175  0.5536  1.1746
  651MPD2    H3 9695   0.822   0.810  10.607 -1.4596 -0.2484  2.4808
  651MPD2     N 9696   0.945   1.222  10.742 -0.7064  0.4076 -0.2744
  651MPD2    H5 9697   0.916   1.300  10.801  1.7200  0.7146  0.5117
  651MPD2    N1 9698   0.493   1.074  10.775 -0.2884 -0.1640  0.4317
  651MPD2    H7 9699   0.472   1.165  10.814 -1.7599  0.5641 -2.0354
  652TMC3    C1 9700   1.344   1.436  10.857  0.3242  0.1852 -0.3235
  652TMC3    C2 9701   1.278   1.318  10.829  0.0487 -0.5972 -0.1858
  652TMC3    C3 9702   1.154   1.335  10.775 -0.9025  0.4010  0.3360
  652TMC3    C4 9703   1.291   1.562  10.832  0.2144  0.9256  0.2862
  652TMC3    C5 9704   1.163   1.569  10.778 -0.2952  0.6063 -0.2974
  652TMC3    C6 9705   1.094   1.455  10.757  0.2836 -0.0097 -0.4663
  652TMC3     C 9706   1.486   1.422  10.862 -0.6147 -0.4864  0.8949
  652TMC3     O 9707   1.525   1.331  10.932  0.0641  0.8245  0.1974
  652TMC3     H 9708   1.328   1.222  10.835 -0.3791 -0.9566 -2.4037
  652TMC3    H1 9709   1.361   1.646  10.834  3.1110 -1.4917  0.9038
  652TMC3    H2 9710   1.002   1.456  10.701  1.1672  2.9437 -1.8935
  652TMC3    C7 9711   1.103   1.685  10.716 -0.5210 -0.0435 -0.2643
  652TMC3    C8 9712   1.080   1.219  10.721  0.2848  0.2346  0.2978
  652TMC3    O1 9713   0.979   1.676  10.715 -0.0402  0.1002 -0.0119
  652TMC3    O2 9714   1.155   1.123  10.696 -0.4067  0.4073 -0.0861
  653MPD2     C 9715   3.956   1.158  17.541  0.0338 -0.1450  0.0301
  653MPD2    C1 9716   3.841   1.191  17.476  0.3251  0.3750  0.1007
  653MPD2    C2 9717   3.780   1.091  17.413 -0.8199 -0.3866  0.0036
  653MPD2    C3 9718   3.826   0.959  17.410  0.4276 -0.0618  0.1192
  653MPD2    C4 9719   3.942   0.929  17.477  0.4269  0.4258 -0.1322
  653MPD2    C5 9720   4.002   1.032  17.539  0.6429 -1.1886 -1.0187
  653MPD2     H 9721   3.691   1.118  17.357  0.5758  1.2428 -1.4273
  653MPD2    H1 9722   3.978   0.827  17.473 -0.9669 -0.0908  0.7841
  653MPD2    H2 9723   4.026   1.228  17.586 -0.4638  0.3372  0.0616
  653MPD2    H3 9724   4.096   1.010  17.588 -0.2882  3.2394  2.6792
  653MPD2     N 9725   3.761   0.870  17.324  0.7657 -0.2251  0.3237
  653MPD2    H5 9726   3.686   0.902  17.264  2.3884  1.4085 -0.8209
  653MPD2    N1 9727   3.801   1.325  17.476  0.0533  0.0164  0.3343
  653MPD2    H7 9728   3.726   1.354  17.414  0.9684  0.9041 -0.3642
  654TMC3    C1 9729   3.685   0.668  17.222  0.2510  0.2504  0.2237
  654TMC3    C2 9730   3.579   0.738  17.180 -0.7889  0.0144 -0.1096
  654TMC3    C3 9731   3.530   0.692  17.059 -0.7321  0.4526 -0.8714
  654TMC3    C4 9732   3.734   0.548  17.172  0.1771 -0.3865 -0.7506
  654TMC3    C5 9733   3.673   0.505  17.058 -0.2114  0.4975  0.0823
  654TMC3    C6 9734   3.583   0.582  16.991 -0.4837 -0.1975  0.0026
  654TMC3     C 9735   3.774   0.730  17.323 -0.4326 -0.2732 -0.4540
  654TMC3     O 9736   3.854   0.664  17.386 -0.1944 -0.5173  0.2250
  654TMC3     H 9737   3.520   0.797  17.249  1.5346  1.6456  0.4721
  654TMC3    H1 9738   3.828   0.513  17.213  0.4741  2.3161  0.8766
  654TMC3    H2 9739   3.534   0.553  16.898  0.7279 -1.4883 -0.2330
  654TMC3    C7 9740   3.698   0.372  17.007  0.5459 -0.3746  0.3837
  654TMC3    C8 9741   3.411   0.758  17.008  0.4892 -0.2543 -0.5547
  654TMC3    O1 9742   3.660   0.346  16.897 -0.0691 -0.7360  0.1353
  654TMC3    O2 9743   3.374   0.855  17.079  0.2172 -0.2002 -0.2289
  655MPD2     C 9744   0.619   1.204  15.859 -0.2980  0.5523  0.2812
  655MPD2    C1 9745   0.582   1.321  15.786  0.1410  0.1024 -0.1209
  655MPD2    C2 9746   0.592   1.320  15.650 -0.2470  0.4787  0.5588
  655MPD2    C3 9747   0.627   1.205  15.582 -0.5503  0.3924  0.0270
  655MPD2    C4 9748   0.666   1.096  15.653 -0.0313  0.3221 -0.7824
  655MPD2    C5 9749   0.667   1.097  15.790 -0.0181  0.1054 -0.5667
  655MPD2     H 9750   0.551   1.403  15.595 -0.2597 -0.4588 -0.8619
  655MPD2    H1 9751   0.687   1.010  15.591 -3.5677 -1.3261  0.2795
  655MPD2    H2 9752   0.610   1.203  15.967  0.3871 -1.0845  0.3250
  655MPD2    H3 9753   0.701   1.011  15.847  2.6832  1.5521 -0.0048
  655MPD2     N 9754   0.608   1.197  15.446  1.0296 -0.4896  0.4466
  655MPD2    H5 9755   0.610   1.107  15.398 -1.0624 -1.2856  1.8508
  655MPD2    N1 9756   0.511   1.426  15.838  0.5098  0.2190  0.2145
  655MPD2    H7 9757   0.491   1.504  15.775 -0.0601 -0.0375  0.0786
  656TMC3    C1 9758   0.364   1.533  15.974 -0.0496  0.0477 -0.4796
  656TMC3    C2 9759   0.313   1.560  16.102  0.3429 -0.0040 -0.6639
  656TMC3    C3 9760   0.231   1.666  16.122 -0.5426 -0.9135  0.5015
  656TMC3    C4 9761   0.337   1.614  15.871 -0.4352  0.1742 -0.4632
  656TMC3    C5 9762   0.247   1.714  15.894  0.1382  0.4500  0.1731
  656TMC3    C6 9763   0.187   1.734  16.019 -0.2260  0.3141 -0.0987
  656TMC3     C 9764   0.465   1.435  15.965 -0.1387 -0.4963 -0.2235
  656TMC3     O 9765   0.462   1.353  16.057  0.2625  0.1682 -0.2928
  656TMC3     H 9766   0.344   1.494  16.182  1.8110  3.0086  1.2703
  656TMC3    H1 9767   0.377   1.610  15.770 -2.1305  2.3840 -1.2358
  656TMC3    H2 9768   0.103   1.801  16.032  0.2375  0.5679  1.5573
  656TMC3    C7 9769   0.197   1.779  15.773  0.4104 -1.0065 -0.5422
  656TMC3    C8 9770   0.137   1.635  16.222 -0.3064  0.1835 -0.1660
  656TMC3    O1 9771   0.266   1.764  15.677  0.0359 -0.0136 -0.1300
  656TMC3    O2 9772   0.117   1.512  16.233  0.5779 -0.5213  0.5609
  657TMC3    C1 9773   4.022   0.484  14.890 -0.5332  0.6032  0.2811
  657TMC3    C2 9774   3.976   0.556  14.999 -0.3527 -0.2918 -0.7392
  657TMC3    C3 9775   3.869   0.636  14.978 -0.4510  0.1442  0.2145
  657TMC3    C4 9776   3.981   0.503  14.766  0.3263 -0.0681  0.5307
  657TMC3    C5 9777   3.884   0.599  14.744 -0.1197  0.3927  0.0103
  657TMC3    C6 9778   3.830   0.671  14.849  0.0050 -0.6234 -0.4489
  657TMC3     C 9779   4.129   0.387  14.910  0.6819  0.8749  0.4971
  657TMC3     O 9780   4.140   0.296  14.828  0.2021 -0.4658  0.7526
  657TMC3     H 9781   3.997   0.537  15.104  0.5112  0.9567 -0.6837
  657TMC3    H1 9782   4.010   0.436  14.686 -4.1050  0.5075 -1.5127
  657TMC3    H2 9783   3.750   0.740  14.825  1.4988  1.1554 -0.2963
  657TMC3    C7 9784   3.857   0.637  14.610  0.2424 -0.7311  0.5152
  657TMC3    C8 9785   3.792   0.688  15.094 -0.9749  0.2605 -0.0620
  657TMC3    O1 9786   3.868   0.556  14.520  0.4142 -0.8918  0.0021
  657TMC3    O2 9787   3.786   0.610  15.183 -0.1399  0.3346  0.0270
  658MPD2     C 9788   0.995   0.846  15.087 -0.7988  0.0542 -0.3387
  658MPD2    C1 9789   0.920   0.925  14.997  0.8950  0.1012  0.1191
  658MPD2    C2 9790   0.960   0.924  14.865  0.2837  0.0073  0.3653
  658MPD2    C3 9791   1.076   0.868  14.812 -0.2227  0.1818  0.2932
  658MPD2    C4 9792   1.153   0.801  14.906  0.1850 -0.3656  0.1072
  658MPD2    C5 9793   1.104   0.778  15.032  0.6145  0.5512 -0.0645
  658MPD2     H 9794   0.894   0.970  14.793  1.5951 -0.9271 -1.4582
  658MPD2    H1 9795   1.244   0.748  14.879  1.0591 -0.0829  2.4348
  658MPD2    H2 9796   0.969   0.837  15.192 -0.1452 -1.6490 -0.3202
  658MPD2    H3 9797   1.164   0.726  15.106 -0.9742  0.2593  1.0238
  658MPD2     N 9798   1.110   0.895  14.678  0.0769 -0.4952 -0.3077
  658MPD2    H5 9799   1.052   0.950  14.616 -0.0702  1.4160  1.4835
  658MPD2    N1 9800   0.801   0.982  15.048  0.3109 -0.2929  0.6629
  658MPD2    H7 9801   0.782   0.979  15.147 -0.1970  0.0527  0.5747
  659TMC3    C1 9802   0.618   1.123  15.044 -0.3845  0.3996 -0.3921
  659TMC3    C2 9803   0.648   1.163  15.173  0.3061 -0.8386 -0.6552
  659TMC3    C3 9804   0.561   1.241  15.231  0.4967 -0.4091  1.1955
  659TMC3    C4 9805   0.502   1.160  14.981  0.2488 -0.1151 -0.4403
  659TMC3    C5 9806   0.410   1.230  15.058 -0.0581  0.4981  0.0874
  659TMC3    C6 9807   0.434   1.272  15.182  0.3035  0.4839  0.1870
  659TMC3     C 9808   0.711   1.042  14.967  0.2263  0.2326 -0.3843
  659TMC3     O 9809   0.690   1.032  14.849  0.0464 -0.4294  0.0006
  659TMC3     H 9810   0.745   1.141  15.217 -1.3553 -2.4659  2.1344
  659TMC3    H1 9811   0.497   1.142  14.874  0.1358  1.2312 -0.6699
  659TMC3    H2 9812   0.362   1.331  15.237  1.0773  0.4100  1.2731
  659TMC3    C7 9813   0.279   1.244  15.001 -0.0873 -0.1321  0.1206
  659TMC3    C8 9814   0.570   1.296  15.361 -0.6864 -0.4584 -0.3160
  659TMC3    O1 9815   0.222   1.336  15.051 -0.5046  0.1834 -0.3097
  659TMC3    O2 9816   0.535   1.415  15.377 -0.8672 -0.0333 -0.3398
  660MPD2     C 9817   3.323   0.081  12.697 -0.0178 -0.4358  0.1457
  660MPD2    C1 9818   3.292   0.010  12.589 -0.0075  1.1223  0.3804
  660MPD2    C2 9819   3.252   4.614  12.607 -0.2881  0.5287 -0.2189
  660MPD2    C3 9820   3.239   4.564  12.735 -0.1104  0.2736  0.1372
  660MPD2    C4 9821   3.281   4.641  12.843 -0.2609 -0.0078  0.2025
  660MPD2    C5 9822   3.307   0.034  12.823 -0.2855 -0.0563 -0.1281
  660MPD2     H 9823   3.219   4.552  12.524  1.3432  0.6161 -0.9266
  660MPD2    H1 9824   3.271   4.605  12.945 -0.0897 -1.6075 -0.3455
  660MPD2    H2 9825   3.347   0.187  12.693  2.7506 -1.0386  0.9052
  660MPD2    H3 9826   3.325   0.105  12.904  0.0084  0.7860 -0.9297
  660MPD2     N 9827   3.205   4.431  12.763  0.0231 -0.0975  0.6815
  660MPD2    H5 9828   3.234   4.393  12.852  1.2827 -1.9424 -0.5070
  660MPD2    N1 9829   3.294   0.077  12.466 -0.0887 -0.0100  0.3590
  660MPD2    H7 9830   3.314   0.176  12.459  0.2795 -0.0757  0.5042
  661TMC3    C1 9831   3.236   0.123  12.242 -0.6109  0.3479  0.0527
  661TMC3    C2 9832   3.320   0.142  12.132 -0.3831 -0.0690 -0.0787
  661TMC3    C3 9833   3.280   0.242  12.044 -0.8305 -1.0282  0.2243
  661TMC3    C4 9834   3.124   0.190  12.263  0.1200 -0.6108  0.5686
  661TMC3    C5 9835   3.089   0.286  12.170  0.1758  0.6509  0.2040
  661TMC3    C6 9836   3.167   0.317  12.062  0.0009 -0.2594  0.6736
  661TMC3     C 9837   3.277   0.025  12.336  0.4113  0.6607 -0.5595
  661TMC3     O 9838   3.278   4.645  12.299 -0.0770 -0.3174 -0.0312
  661TMC3     H 9839   3.403   0.074  12.112 -0.9325 -1.1555  1.3217
  661TMC3    H1 9840   3.061   0.173  12.350  0.4518  0.7358  1.0659
  661TMC3    H2 9841   3.143   0.389  11.984 -0.3691  0.0211  1.0471
  661TMC3    C7 9842   2.948   0.298  12.136 -0.0974 -0.0905  0.1097
  661TMC3    C8 9843   3.373   0.272  11.934 -0.6667 -0.4057 -0.3318
  661TMC3    O1 9844   2.912   0.322  12.019  0.0823  0.3727 -0.8022
  661TMC3    O2 9845   3.362   0.379  11.876  0.6136 -0.6581  0.1517
  662MPD2     C 9846   3.445   4.682  17.515 -1.0757 -0.0538  0.2158
  662MPD2    C1 9847   3.372   4.604  17.597 -0.3331 -0.3714  0.0933
  662MPD2    C2 9848   3.276   4.669  17.669 -0.5083  0.4180  0.4992
  662MPD2    C3 9849   3.242   0.072  17.656  0.3193 -0.0032 -0.1104
  662MPD2    C4 9850   3.325   0.148  17.575  0.0283  0.7489  0.3596
  662MPD2    C5 9851   3.423   0.084  17.506  0.4802 -0.9265  0.3147
  662MPD2     H 9852   3.218   4.608  17.737  0.4435 -2.9114 -1.6901
  662MPD2    H1 9853   3.319   0.256  17.565  3.1846  0.8435 -0.5940
  662MPD2    H2 9854   3.526   4.633  17.461  1.1805  2.1194  1.6251
  662MPD2    H3 9855   3.481   0.149  17.442 -0.6930 -0.6109 -0.4421
  662MPD2     N 9856   3.150   0.124   0.001 -0.2793  0.0634 -0.2196
  662MPD2    H5 9857   3.157   0.222   0.028  0.8680  0.4891 -1.9877
  662MPD2    N1 9858   3.381   4.464  17.602  0.0542  0.4655  0.2862
  662MPD2    H7 9859   3.330   4.414  17.674  2.9678 -1.5061  0.9582
  663TMC3    C1 9860   3.440   4.251  17.547 -0.5335 -0.7656 -0.4987
  663TMC3    C2 9861   3.325   4.201  17.613 -0.3300 -0.6043 -0.1320
  663TMC3    C3 9862   3.293   4.069  17.583 -0.3699 -0.2013 -0.5277
  663TMC3    C4 9863   3.517   4.164  17.468  0.5920 -0.2302  0.3635
  663TMC3    C5 9864   3.493   4.029  17.463 -0.0517 -0.4318 -0.4254
  663TMC3    C6 9865   3.375   3.986  17.511 -0.2178  0.1790 -0.5507
  663TMC3     C 9866   3.444   4.387  17.510  0.0757  0.1049  0.6475
  663TMC3     O 9867   3.497   4.411  17.405 -0.2435  0.1974  0.1014
  663TMC3     H 9868   3.238   4.260  17.640 -0.8194 -1.8757  1.0020
  663TMC3    H1 9869   3.602   4.202  17.412  0.5898  0.7401  1.0060
  663TMC3    H2 9870   3.330   3.897  17.469  1.0715 -0.2503 -1.0195
  663TMC3    C7 9871   3.557   3.959  17.350  0.4496  0.2101 -0.2535
  663TMC3    C8 9872   3.236   3.996  17.691 -0.2351 -0.3228 -0.6365
  663TMC3    O1 9873   3.645   4.020  17.293  0.5962  0.1156 -0.0049
  663TMC3    O2 9874   3.243   3.872  17.674  0.1707  0.1371  0.8039
  664MPD2     C 9875   1.973   2.464  17.696 -0.4034  0.7290 -0.4244
  664MPD2    C1 9876   2.019   2.564   0.035  1.2408  0.2075 -0.6816
  664MPD2    C2 9877   1.968   2.562   0.164  0.1858  0.2379  0.0976
  664MPD2    C3 9878   1.864   2.484   0.199  0.6200  0.7212 -0.4875
  664MPD2    C4 9879   1.808   2.388   0.110 -0.6717  0.4157  0.2453
  664MPD2    C5 9880   1.867   2.386  17.734 -1.0961  0.2700 -0.1158
  664MPD2     H 9881   2.010   2.626   0.241  1.2203 -0.7684  0.3464
  664MPD2    H1 9882   1.729   2.322   0.145 -1.3794  0.1534 -1.8434
  664MPD2    H2 9883   2.014   2.447  17.597  0.1017 -1.1105  0.1063
  664MPD2    H3 9884   1.832   2.314  17.661  0.8586 -3.0897  2.2128
  664MPD2     N 9885   1.819   2.509   0.332 -0.5443 -0.1541  0.0199
  664MPD2    H5 9886   1.857   2.588   0.383 -1.1730 -0.7089  1.3342
  664MPD2    N1 9887   2.117   2.654   0.007 -0.2992  0.8566  0.7263
  664MPD2    H7 9888   2.154   2.714   0.080 -1.6883  0.9448  1.3670
  665TMC3    C1 9889   1.674   2.493   0.515 -0.1629  0.3252 -0.7610
  665TMC3    C2 9890   1.654   2.408   0.618 -0.5040 -0.1984 -0.1275
  665TMC3    C3 9891   1.646   2.469   0.736 -0.4473 -0.2371 -0.5115
  665TMC3    C4 9892   1.680   2.631   0.524 -0.5054 -0.9882 -0.6737
  665TMC3    C5 9893   1.666   2.688   0.650  0.4996 -0.1509 -0.1566
  665TMC3    C6 9894   1.638   2.604   0.758  0.4848  0.2523  0.8316
  665TMC3     C 9895   1.726   2.434   0.395 -0.2904  0.9151 -0.1036
  665TMC3     O 9896   1.684   2.321   0.359 -0.3277 -0.2297  0.0859
  665TMC3     H 9897   1.658   2.299   0.614  2.4279 -0.1156  0.3190
  665TMC3    H1 9898   1.706   2.685   0.434  0.4438 -0.9791 -0.3922
  665TMC3    H2 9899   1.646   2.639   0.860  1.6976 -0.7225  1.0810
  665TMC3    C7 9900   1.728   2.818   0.679  0.2255 -0.1122  0.0233
  665TMC3    C8 9901   1.647   2.399   0.862 -0.3881  0.1879  0.0991
  665TMC3    O1 9902   1.793   2.873   0.594  0.5916  0.0895 -0.0936
  665TMC3    O2 9903   1.679   2.454   0.963 -0.4145  0.0825 -0.2523
  666TMC3    C1 9904   1.348   3.244   9.570 -0.3780 -0.5631  0.0912
  666TMC3    C2 9905   1.379   3.155   9.667  0.7907 -0.0734 -0.8662
  666TMC3    C3 9906   1.451   3.206   9.770  0.3551 -0.6940  0.1799
  666TMC3    C4 9907   1.387   3.377   9.578  0.2663  0.1436 -0.1011
  666TMC3    C5 9908   1.460   3.422   9.686  0.1892 -0.4965 -0.5753
  666TMC3    C6 9909   1.498   3.335   9.783  0.4696 -0.2092 -0.5949
  666TMC3     C 9910   1.234   3.213   9.488 -0.0865  0.0801  0.0991
  666TMC3     O 9911   1.184   3.305   9.427  0.2547  0.3524  0.3679
  666TMC3     H 9912   1.323   3.063   9.683  0.8857 -0.1768 -1.1208
  666TMC3    H1 9913   1.338   3.449   9.514  0.8955 -0.4377 -1.2302
  666TMC3    H2 9914   1.561   3.380   9.858  0.0672 -0.8848  0.1415
  666TMC3    C7 9915   1.411   3.546   9.746  0.0109  0.4665  0.6600
  666TMC3    C8 9916   1.454   3.123   9.894 -0.5859  0.2460  0.5998
  666TMC3    O1 9917   1.416   3.556   9.870 -0.1580 -0.5891 -0.3094
  666TMC3    O2 9918   1.430   3.005   9.881 -0.5196 -0.1914 -0.5407
  667MPD2     C 9919   2.781   2.934  15.027 -0.5990  0.0843 -0.2280
  667MPD2    C1 9920   2.663   2.986  15.081  0.3328  0.0616 -0.4483
  667MPD2    C2 9921   2.554   2.905  15.088 -0.1531 -0.0564 -0.3658
  667MPD2    C3 9922   2.553   2.781  15.037 -0.1465 -0.0961 -0.2361
  667MPD2    C4 9923   2.670   2.732  14.982  0.3964  0.4266  0.4263
  667MPD2    C5 9924   2.781   2.807  14.983  0.6174 -0.4510 -0.5890
  667MPD2     H 9925   2.468   2.945  15.140  1.5926  3.6758 -0.3848
  667MPD2    H1 9926   2.669   2.634  14.937 -4.7893 -0.1273  1.7792
  667MPD2    H2 9927   2.873   2.991  15.032 -1.1134  1.0306 -1.5199
  667MPD2    H3 9928   2.876   2.762  14.956  0.3741 -0.6217 -1.1473
  667MPD2     N 9929   2.443   2.688  15.034  0.7801  0.6130 -0.4143
  667MPD2    H5 9930   2.463   2.589  15.037 -3.1204 -0.1560  1.0648
  667MPD2    N1 9931   2.653   3.113  15.146 -0.2748 -0.1489  0.4868
  667MPD2    H7 9932   2.572   3.135  15.203 -0.1756  1.5913 -0.0586
  668TMC3    C1 9933   2.707   3.331  15.201  0.1632  0.2280 -0.8165
  668TMC3    C2 9934   2.745   3.454  15.145 -0.3011  0.4477 -0.4271
  668TMC3    C3 9935   2.764   3.558  15.235  0.2783 -0.7889 -0.0028
  668TMC3    C4 9936   2.673   3.314  15.328  0.7418  0.5282 -0.0813
  668TMC3    C5 9937   2.694   3.422  15.411  0.1746 -0.0799 -0.1501
  668TMC3    C6 9938   2.737   3.548  15.368  0.1836 -0.4036 -0.0237
  668TMC3     C 9939   2.742   3.217  15.126  0.4925 -1.0791 -0.2300
  668TMC3     O 9940   2.841   3.227  15.058  0.3483 -0.1212 -0.4625
  668TMC3     H 9941   2.758   3.462  15.038  0.6549 -2.8096 -0.5702
  668TMC3    H1 9942   2.676   3.223  15.387  0.6431  1.8174  1.8724
  668TMC3    H2 9943   2.739   3.630  15.439 -0.8669  0.2769 -0.7767
  668TMC3    C7 9944   2.671   3.398  15.551  0.0010 -0.2058  0.1059
  668TMC3    C8 9945   2.782   3.688  15.179  0.3757 -0.0562 -0.2793
  668TMC3    O1 9946   2.740   3.461  15.629  0.0564 -0.6044 -0.1945
  668TMC3    O2 9947   2.738   3.790  15.235  0.8874 -0.2262  0.6667
  669TMC3    C1 9948   0.542   2.662  14.967  0.3034  0.4216  0.2525
  669TMC3    C2 9949   0.435   2.718  14.913 -0.3148 -0.4106 -0.1290
  669TMC3    C3 9950   0.455   2.838  14.847 -0.5340  0.3780  0.2669
  669TMC3    C4 9951   0.665   2.717  14.976  0.2488  0.2682 -0.2288
  669TMC3    C5 9952   0.683   2.834  14.908  0.0328 -1.4462  0.4552
  669TMC3    C6 9953   0.578   2.898  14.842 -1.0333 -0.0400  0.5030
  669TMC3     C 9954   0.514   2.552  15.057 -0.1312 -1.1206  0.7782
  669TMC3     O 9955   0.399   2.533  15.098 -0.0224 -0.4754 -0.2876
  669TMC3     H 9956   0.342   2.664  14.927 -0.7453  0.8153  1.7030
  669TMC3    H1 9957   0.751   2.675  15.029 -1.5008 -1.9081  0.8778
  669TMC3    H2 9958   0.600   2.994  14.797 -2.5214  0.2474  0.3781
  669TMC3    C7 9959   0.814   2.873  14.870  0.0446  0.5607 -0.5067
  669TMC3    C8 9960   0.345   2.901  14.789 -0.5177  0.6915 -0.0785
  669TMC3    O1 9961   0.823   2.973  14.794  0.1094 -0.5133 -0.3443
  669TMC3    O2 9962   0.351   3.017  14.751 -0.2659  0.4541  0.3244
  670MPD2     C 9963   3.525   0.380  13.483 -0.4909 -0.4646 -0.2420
  670MPD2    C1 9964   3.627   0.359  13.580 -0.2170  0.6837 -0.6127
  670MPD2    C2 9965   3.598   0.329  13.709 -0.3311  0.3280 -0.0432
  670MPD2    C3 9966   3.472   0.285  13.743 -0.4036 -1.0629 -0.1551
  670MPD2    C4 9967   3.369   0.298  13.648  0.2721 -0.1523  0.0013
  670MPD2    C5 9968   3.397   0.343  13.523  0.1394  0.0236  0.6108
  670MPD2     H 9969   3.681   0.323  13.779 -1.4097 -3.4676  0.8839
  670MPD2    H1 9970   3.278   0.244  13.671  0.3386 -0.6165 -0.8252
  670MPD2    H2 9971   3.554   0.411  13.383 -0.6986  1.8047  0.4049
  670MPD2    H3 9972   3.321   0.342  13.445 -0.2482  0.5936  0.9820
  670MPD2     N 9973   3.452   0.246  13.878 -0.0649  0.0668  0.5968
  670MPD2    H5 9974   3.538   0.228  13.929 -0.4072 -2.3923  0.2675
  670MPD2    N1 9975   3.764   0.379  13.535 -0.3434  0.0903 -0.6541
  670MPD2    H7 9976   3.826   0.366  13.615 -0.5917 -2.1381 -0.8140
  671TMC3    C1 9977   3.356   0.159  14.069 -0.2657 -0.7459 -0.5227
  671TMC3    C2 9978   3.486   0.146  14.107 -0.5106  0.8580  0.8869
  671TMC3    C3 9979   3.520   0.053  14.202  0.2934 -0.0161  0.6492
  671TMC3    C4 9980   3.258   0.071  14.117 -0.3403 -0.2481  0.0842
  671TMC3    C5 9981   3.294   4.704  14.191  0.0019 -0.0384 -0.0565
  671TMC3    C6 9982   3.426   4.694  14.225 -0.2064 -0.0125 -0.5261
  671TMC3     C 9983   3.334   0.214  13.935 -0.4913  0.3438 -0.1895
  671TMC3     O 9984   3.223   0.215  13.885 -0.7696  0.8847 -0.1626
  671TMC3     H 9985   3.548   0.233  14.092  0.5433  0.4396  2.8196
  671TMC3    H1 9986   3.164   0.077  14.063 -0.2659  2.2871  0.2515
  671TMC3    H2 9987   3.460   4.599  14.264 -0.9470  0.6777  1.7854
  671TMC3    C7 9988   3.238   4.586  14.126  0.5444  0.0723 -0.2544
  671TMC3    C8 9989   3.662   0.012  14.199  0.0862  0.9330  0.1996
  671TMC3    O1 9990   3.323   4.540  14.050  0.1408  0.1824 -0.0737
  671TMC3    O2 9991   3.721   0.040  14.093 -0.5274  0.3483  0.3563
  672MPD2     C 9992   4.346   1.000   0.082  0.2792 -0.6811  0.0530
  672MPD2    C1 9993   4.232   1.068   0.113 -0.3366  0.1337 -0.8278
  672MPD2    C2 9994   4.241   1.198   0.157 -0.7005 -0.1696 -0.0551
  672MPD2    C3 9995   4.369   1.252   0.179  0.1663 -0.0366 -0.1703
  672MPD2    C4 9996   4.485   1.185   0.146 -0.3556 -0.2075 -0.2605
  672MPD2    C5 9997   4.466   1.059   0.094  0.2853 -0.0272 -0.0116
  672MPD2     H 9998   4.149   1.252   0.174 -0.4086  0.1215  0.5739
  672MPD2    H1 9999   4.583   1.229   0.152 -0.5623  0.1726  0.3689
  672MPD2    H210000   4.347   0.898   0.046 -2.1554 -1.4084  2.0475
  672MPD2    H310001   4.559   1.007   0.073 -0.5774 -0.7794 -2.0152
  672MPD2     N10002   4.380   1.379   0.240  0.4654 -0.1291  0.3359
  672MPD2    H510003   4.475   1.406   0.261 -0.2190  0.7062  2.4069
  672MPD2    N110004   4.095   1.022   0.105  0.0729  0.1708  1.0559
  672MPD2    H710005   4.029   1.091   0.140 -0.6398  0.4810 -0.8944
  673TMC3    C110006   3.933   0.852   0.152 -0.3968  0.3954 -0.2698
  673TMC3    C210007   3.929   0.718   0.186 -0.5673 -0.2929 -0.1154
  673TMC3    C310008   3.853   0.680   0.291  0.3250  0.3180  0.1223
  673TMC3    C410009   3.855   0.948   0.219  0.1007  0.2504 -0.0851
  673TMC3    C510010   3.773   0.903   0.318 -0.4252 -0.1983  0.0612
  673TMC3    C610011   3.780   0.773   0.362  0.0178  0.2244  0.3199
  673TMC3     C10012   4.055   0.888   0.085 -0.0026 -0.5137  0.6646
  673TMC3     O10013   4.112   0.805   0.019 -0.4620  0.3364 -0.0890
  673TMC3     H10014   3.987   0.646   0.129 -1.6483  0.7620 -2.5426
  673TMC3    H110015   3.854   1.051   0.187  1.8797 -0.0875 -1.2090
  673TMC3    H210016   3.718   0.739   0.444 -2.3208  0.5674 -1.2720
  673TMC3    C710017   3.694   0.991   0.394  0.2014 -0.5837  0.0828
  673TMC3    C810018   3.897   0.566   0.367  0.2686 -0.6057 -0.2502
  673TMC3    O110019   3.683   0.947   0.511  0.4867  0.6211  0.1249
  673TMC3    O210020   3.913   0.459   0.313  0.4638 -0.0976  0.1898
  674MPD2     C10021   3.680   0.686  17.717 -0.9628  0.2992  0.0808
  674MPD2    C110022   3.644   0.584   0.061  0.3527  0.2165 -0.2830
  674MPD2    C210023   3.558   0.613   0.158 -0.7172 -0.5439 -0.3445
  674MPD2    C310024   3.505   0.737   0.176 -0.7745 -0.1544 -0.9214
  674MPD2    C410025   3.545   0.834   0.085 -0.1621 -0.3357 -0.0652
  674MPD2    C510026   3.635   0.813  17.733 -0.2835  0.2032  0.0207
  674MPD2     H10027   3.535   0.539   0.234  0.4536 -0.9282 -0.3554
  674MPD2    H110028   3.506   0.935   0.094 -1.3540 -0.7504 -0.5304
  674MPD2    H210029   3.742   0.674  17.628 -2.4321 -1.8307 -0.6435
  674MPD2    H310030   3.653   0.892  17.661  1.0892  0.6650  0.8634
  674MPD2     N10031   3.404   0.754   0.280 -0.4659  0.2288  0.0092
  674MPD2    H510032   3.391   0.680   0.348  2.9104 -0.7307 -0.3878
  674MPD2    N110033   3.688   0.453   0.039 -0.0021 -0.1445 -0.3301
  674MPD2    H710034   3.751   0.437  17.706  0.7469 -0.3725  0.3258
  675TMC3    C110035   3.705   0.216   0.040 -0.7016 -0.0757 -0.2651
  675TMC3    C210036   3.643   0.092   0.061  0.4981  0.7318  0.3415
  675TMC3    C310037   3.695   4.724  17.739  0.2366  0.1461 -0.0671
  675TMC3    C410038   3.819   0.234  17.719 -0.3489 -0.1652  0.4534
  675TMC3    C510039   3.866   0.123  17.656  0.4171 -0.6505  0.2013
  675TMC3    C610040   3.802   4.736  17.660 -0.1985 -0.1520  0.0458
  675TMC3     C10041   3.637   0.338   0.100  0.9935  0.4876 -0.3432
  675TMC3     O10042   3.554   0.313   0.188  0.3149 -0.2327 -0.1016
  675TMC3     H10043   3.551   0.089   0.117  0.2646  1.0474 -0.0310
  675TMC3    H110044   3.861   0.334  17.710  0.3256 -0.4893 -0.0086
  675TMC3    H210045   3.853   4.650  17.617 -2.0910 -1.0796 -0.3464
  675TMC3    C710046   3.992   0.120  17.589 -0.2529 -1.0451 -0.4478
  675TMC3    C810047   3.659   4.587   0.034  0.5063  0.4970 -0.0078
  675TMC3    O110048   4.013   0.018  17.523 -0.1846 -0.5139 -0.4184
  675TMC3    O210049   3.698   4.501  17.704 -0.2235  0.0353 -0.3716
  676MPD2     C10050   1.883   3.767  10.975 -0.4484  0.4708 -0.5868
  676MPD2    C110051   1.818   3.672  11.046 -0.1135 -0.5651 -0.2961
  676MPD2    C210052   1.881   3.547  11.052  0.0383 -0.3531  1.3899
  676MPD2    C310053   2.012   3.518  11.017  1.0601  0.2424 -0.1410
  676MPD2    C410054   2.080   3.624  10.963 -0.2215  0.1257  0.0132
  676MPD2    C510055   2.014   3.746  10.952 -0.3503 -0.1894  0.5488
  676MPD2     H10056   1.822   3.467  11.095 -2.5409 -0.1991 -1.9092
  676MPD2    H110057   2.176   3.608  10.916 -0.7129 -1.0707 -0.5914
  676MPD2    H210058   1.833   3.859  10.947 -1.5238 -0.3389 -1.3109
  676MPD2    H310059   2.062   3.837  10.918  1.5894 -1.0224  1.0982
  676MPD2     N10060   2.079   3.400  11.031 -0.0570  0.0844 -0.1676
  676MPD2    H510061   2.171   3.404  10.989 -0.8565  0.0394 -1.9182
  676MPD2    N110062   1.686   3.682  11.100 -0.6279  0.1997 -0.5987
  676MPD2    H710063   1.636   3.599  11.130 -0.5126  0.4997  0.4102
  677TMC3    C110064   1.507   3.793  11.210  0.8135 -0.2693 -0.3285
  677TMC3    C210065   1.412   3.699  11.181  0.1706  0.1308  0.0449
  677TMC3    C310066   1.326   3.657  11.275  0.4086  0.5292 -0.2460
  677TMC3    C410067   1.515   3.844  11.334  0.0337  0.0346 -0.0514
  677TMC3    C510068   1.421   3.802  11.425 -0.0179  0.7679  0.1669
  677TMC3    C610069   1.322   3.718  11.398  0.1819 -0.1521 -0.6211
  677TMC3     C10070   1.630   3.806  11.129  0.8657  0.0865  0.3728
  677TMC3     O10071   1.677   3.920  11.122  0.0108  0.2762  0.0281
  677TMC3     H10072   1.405   3.646  11.087  2.1753 -1.3343  0.7348
  677TMC3    H110073   1.604   3.898  11.364  1.0646 -1.4041 -0.5215
  677TMC3    H210074   1.257   3.690  11.479 -0.8870  0.8081 -1.1468
  677TMC3    C710075   1.433   3.841  11.563  0.5319  0.0690  0.0096
  677TMC3    C810076   1.219   3.569  11.234 -0.3070  0.6699 -0.4564
  677TMC3    O110077   1.390   3.780  11.660  0.3881  0.4869  0.0583
  677TMC3    O210078   1.168   3.612  11.134 -0.3101  0.0295  0.3399
  678MPD2     C10079   2.804   3.553   1.927 -0.1210 -0.3659 -0.1500
  678MPD2    C110080   2.791   3.596   1.797 -0.4594 -0.2142 -0.4694
  678MPD2    C210081   2.662   3.637   1.752  0.2712 -0.5076  0.6698
  678MPD2    C310082   2.550   3.632   1.830  0.3370 -0.4418  0.5552
  678MPD2    C410083   2.561   3.586   1.958 -0.1046 -0.2018 -0.4902
  678MPD2    C510084   2.688   3.556   2.006  0.2134 -0.1744  0.1809
  678MPD2     H10085   2.658   3.663   1.647 -1.3312 -0.6153  0.7060
  678MPD2    H110086   2.480   3.579   2.030 -0.7665  2.3036 -0.9886
  678MPD2    H210087   2.893   3.506   1.968  0.1094 -0.2484 -0.5215
  678MPD2    H310088   2.700   3.504   2.100 -0.4589 -1.2188 -0.3117
  678MPD2     N10089   2.431   3.674   1.765 -0.0844  0.4394  0.1570
  678MPD2    H510090   2.440   3.701   1.668 -0.0016  0.0864  0.0652
  678MPD2    N110091   2.897   3.615   1.705 -0.6951  0.0909  0.3194
  678MPD2    H710092   2.871   3.652   1.615  0.5902  2.8266  1.0879
  679TMC3    C110093   3.285   3.626   1.459 -0.1053 -0.0185  0.3996
  679TMC3    C210094   3.199   3.567   1.552  0.3119 -0.0181 -0.3612
  679TMC3    C310095   3.096   3.640   1.601 -0.3718  1.0856  0.1272
  679TMC3    C410096   3.255   3.754   1.410 -0.2226  0.2654 -0.3479
  679TMC3    C510097   3.140   3.817   1.453 -0.9335  0.5341 -0.0902
  679TMC3    C610098   3.056   3.763   1.550 -0.2168  0.2171  0.0585
  679TMC3     C10099   3.380   3.535   1.403  0.0390 -0.1444  0.0578
  679TMC3     O10100   3.381   3.423   1.448 -0.5403 -0.2871 -0.3803
  679TMC3     H10101   3.219   3.472   1.600 -0.5073  0.0459  0.1080
  679TMC3    H110102   3.311   3.804   1.332  1.1555  0.5168  0.8040
  679TMC3    H210103   2.973   3.817   1.594  1.2721  2.8035 -0.3716
  679TMC3    C710104   3.072   3.914   1.359 -0.4103  0.8443 -0.6045
  679TMC3    C810105   3.023   3.583   1.714  0.5115 -0.2248  0.2708
  679TMC3    O110106   3.111   3.914   1.242  0.1037 -1.4148  0.3864
  679TMC3    O210107   3.090   3.526   1.800  0.2080  0.0169 -0.3621
  680MPD2     C10108   3.293   2.299  13.630  0.3376 -0.2750  0.6802
  680MPD2    C110109   3.396   2.263  13.719 -0.9212 -0.2831  0.5976
  680MPD2    C210110   3.484   2.362  13.761 -0.1807  0.1849 -0.3786
  680MPD2    C310111   3.472   2.492  13.724 -0.3150 -0.1849  1.0259
  680MPD2    C410112   3.366   2.521  13.636  0.0927  0.0602  0.4036
  680MPD2    C510113   3.280   2.421  13.590  0.7649 -0.0453 -0.8311
  680MPD2     H10114   3.564   2.329  13.826  0.7772 -0.8374 -2.0910
  680MPD2    H110115   3.352   2.621  13.597 -0.7901 -0.5130 -0.7620
  680MPD2    H210116   3.218   2.223  13.609  0.7811 -0.4621 -0.2489
  680MPD2    H310117   3.204   2.435  13.514 -0.8888 -0.0405  0.8425
  680MPD2     N10118   3.562   2.592  13.757 -0.3893  0.4628  0.0174
  680MPD2    H510119   3.531   2.686  13.733 -0.6635  0.5559  0.7596
  680MPD2    N110120   3.419   2.133  13.764  0.6087  0.3451 -0.1738
  680MPD2    H710121   3.501   2.123  13.823  0.1879 -1.1141  0.1621
  681TMC3    C110122   3.386   1.927  13.847  0.2849 -0.3033  0.1291
  681TMC3    C210123   3.315   1.956  13.960 -0.3295  0.1913  0.0468
  681TMC3    C310124   3.372   1.923  14.077 -0.7086 -0.7114 -0.2965
  681TMC3    C410125   3.519   1.896  13.860  0.4404 -0.3319  0.5594
  681TMC3    C510126   3.571   1.850  13.982 -0.3078  0.6078 -0.7084
  681TMC3    C610127   3.489   1.848  14.092  0.1993 -0.3874  0.6566
  681TMC3     C10128   3.346   2.019  13.744  0.0149 -0.4973 -0.0388
  681TMC3     O10129   3.231   2.005  13.707  0.4204  0.7332 -0.1675
  681TMC3     H10130   3.238   2.031  13.955 -1.0733 -0.5948 -0.3321
  681TMC3    H110131   3.579   1.887  13.771  0.3430 -2.1003  0.6864
  681TMC3    H210132   3.533   1.822  14.188 -0.7770 -0.4897  1.0821
  681TMC3    C710133   3.715   1.828  13.991 -0.2176 -0.2678  0.0198
  681TMC3    C810134   3.315   1.995  14.191 -0.6113  0.2443  0.3686
  681TMC3    O110135   3.757   1.788  14.097 -0.2307 -0.0715 -0.2767
  681TMC3    O210136   3.199   2.037  14.183 -0.7877  0.1575 -0.2373
  682MPD2     C10137   0.815   4.450  10.610  0.6895  0.1857 -0.2120
  682MPD2    C110138   0.790   4.317  10.594  0.0999 -0.6610  0.1146
  682MPD2    C210139   0.743   4.254  10.703  0.0247  0.3820 -0.7874
  682MPD2    C310140   0.706   4.325  10.818 -0.3312  0.4341  0.7131
  682MPD2    C410141   0.733   4.460  10.827  0.8135 -0.1398  0.3390
  682MPD2    C510142   0.789   4.518  10.721  0.7812 -0.5605  0.2563
  682MPD2     H10143   0.733   4.147  10.690 -0.0433  0.4334 -1.1712
  682MPD2    H110144   0.705   4.520  10.913 -0.4504 -0.8014  0.3926
  682MPD2    H210145   0.860   4.508  10.530  0.6233 -1.3878 -1.3865
  682MPD2    H310146   0.803   4.625  10.712  3.2403 -0.9444 -0.3414
  682MPD2     N10147   0.656   4.264  10.939 -0.4239 -0.4692 -0.1900
  682MPD2    H510148   0.646   4.323  11.020 -0.2373 -0.2651 -0.3152
  682MPD2    N110149   0.822   4.235  10.484 -0.3372 -0.4785 -0.3446
  682MPD2    H710150   0.805   4.136  10.496  3.4368 -1.1617 -0.6350
  683TMC3    C110151   0.535   4.080  11.306  0.2837  0.6766 -0.6999
  683TMC3    C210152   0.417   4.010  11.304 -0.3780  1.1150  0.7705
  683TMC3    C310153   0.361   3.988  11.178  0.1335  0.1341 -0.3804
  683TMC3    C410154   0.597   4.128  11.193 -0.8054 -0.0322  0.0475
  683TMC3    C510155   0.530   4.116  11.072 -0.4109 -0.2467 -0.2867
  683TMC3    C610156   0.414   4.040  11.064  0.3690  0.2987  0.1108
  683TMC3     C10157   0.601   4.088  11.434 -0.9426  1.4563  0.1289
  683TMC3     O10158   0.670   4.185  11.463 -0.0942  0.1538  0.7348
  683TMC3     H10159   0.363   3.971  11.389 -0.2304  2.8443  1.6705
  683TMC3    H110160   0.697   4.169  11.197 -0.7746  0.2376 -3.1929
  683TMC3    H210161   0.355   4.020  10.975  0.6723  1.7449 -0.4132
  683TMC3    C710162   0.599   4.140  10.946  0.1907 -0.2159  0.0546
  683TMC3    C810163   0.241   3.909  11.171 -1.0190  0.7358  0.3143
  683TMC3    O110164   0.575   4.065  10.855 -0.1994 -0.3290  0.0849
  683TMC3    O210165   0.156   3.928  11.258  0.2647  0.3819 -0.0290
  684MPD2     C10166   3.643   2.764  16.195  0.7653 -0.7751  0.0573
  684MPD2    C110167   3.577   2.802  16.077  0.3372  0.2740 -0.3711
  684MPD2    C210168   3.530   2.933  16.076  0.4224  0.4921 -0.0012
  684MPD2    C310169   3.541   3.023  16.182  0.4278  0.2344 -0.0769
  684MPD2    C410170   3.603   2.978  16.294 -0.1307 -0.3387 -0.4497
  684MPD2    C510171   3.666   2.856  16.295  0.4371 -0.0180  0.5235
  684MPD2     H10172   3.462   2.958  15.995  0.4140  1.3569  0.2667
  684MPD2    H110173   3.608   3.050  16.375 -1.4802 -1.0310  0.2460
  684MPD2    H210174   3.695   2.671  16.213 -0.1382 -1.5257 -1.2758
  684MPD2    H310175   3.724   2.828  16.383  0.9345 -1.6895 -0.3327
  684MPD2     N10176   3.500   3.159  16.172  0.0661  0.1171  0.4828
  684MPD2    H510177   3.561   3.225  16.221  0.2098  0.6995 -0.4735
  684MPD2    N110178   3.582   2.721  15.962 -0.6657  0.0344 -0.0659
  684MPD2    H710179   3.535   2.757  15.880 -2.2105  0.2412  0.8950
  685TMC3    C110180   3.641   2.551  15.825  0.2720 -0.7310 -0.0099
  685TMC3    C210181   3.561   2.616  15.739 -0.2945  0.1722  0.7988
  685TMC3    C310182   3.614   2.648  15.619  0.8291  0.1570  0.6399
  685TMC3    C410183   3.772   2.515  15.800  0.3784 -0.2819 -0.5714
  685TMC3    C510184   3.832   2.548  15.685 -0.2606 -0.0508 -0.2216
  685TMC3    C610185   3.743   2.609  15.596 -0.3705  0.5675  0.3238
  685TMC3     C10186   3.625   2.591  15.957 -0.7998  0.3422 -0.6289
  685TMC3     O10187   3.689   2.524  16.039 -0.7089  0.4326 -0.1064
  685TMC3     H10188   3.456   2.628  15.766  0.3693  2.6588  2.1903
  685TMC3    H110189   3.834   2.467  15.876  0.0962 -0.7730 -0.6492
  685TMC3    H210190   3.796   2.640  15.506 -1.4604 -0.2072 -0.5800
  685TMC3    C710191   3.977   2.556  15.663  0.1692 -0.2699  0.1748
  685TMC3    C810192   3.576   2.779  15.564 -0.1600  0.2914 -0.1771
  685TMC3    O110193   4.021   2.540  15.549 -0.5117 -0.3557  0.7114
  685TMC3    O210194   3.650   2.842  15.487  0.0079  0.1066 -0.2758
  686MPD2     C10195   0.228   3.461  15.848 -0.0772  0.1250  0.0209
  686MPD2    C110196   0.294   3.343  15.895 -0.1010 -0.7547  0.2609
  686MPD2    C210197   0.421   3.361  15.951  0.2475 -0.2330  0.1259
  686MPD2    C310198   0.486   3.483  15.950 -0.5790 -0.5743  0.7462
  686MPD2    C410199   0.425   3.588  15.890 -0.3165  0.2611 -0.3150
  686MPD2    C510200   0.297   3.581  15.853 -1.0202 -0.2239 -0.1295
  686MPD2     H10201   0.473   3.272  15.987 -1.4522 -0.7129  1.3893
  686MPD2    H110202   0.475   3.684  15.894  1.2402 -0.6139  1.4515
  686MPD2    H210203   0.125   3.449  15.815  0.2497  0.6229 -1.1870
  686MPD2    H310204   0.245   3.670  15.819 -0.4861 -0.5323 -1.7520
  686MPD2     N10205   0.618   3.487  15.999  0.0225  0.1185 -0.1936
  686MPD2    H510206   0.667   3.401  16.021  1.3568  0.3514 -2.3035
  686MPD2    N110207   0.222   3.224  15.888 -0.0010 -0.9680 -0.0032
  686MPD2    H710208   0.140   3.227  15.828 -0.7076 -1.1421  0.9484
  687TMC3    C110209   0.830   3.559  16.039 -0.0376  0.6509  0.3330
  687TMC3    C210210   0.906   3.554  15.925 -0.7493  0.4122 -0.0919
  687TMC3    C310211   0.990   3.450  15.907  0.5032 -0.2842 -0.0830
  687TMC3    C410212   0.836   3.468  16.141 -0.0326  0.0729 -0.4981
  687TMC3    C510213   0.944   3.383  16.132  0.2162  0.4603 -0.0866
  687TMC3    C610214   1.018   3.364  16.015  0.0712  0.5464  0.7683
  687TMC3     C10215   0.697   3.602  16.014 -0.4084 -0.4522  0.2865
  687TMC3     O10216   0.691   3.711  15.959  0.6684  0.5553  0.0226
  687TMC3     H10217   0.890   3.624  15.844 -1.3584  0.7545  0.3208
  687TMC3    H110218   0.774   3.478  16.229 -0.5160  0.7032 -0.9119
  687TMC3    H210219   1.103   3.297  16.002  0.0805  0.8454 -0.6849
  687TMC3    C710220   0.952   3.290  16.244  0.2162  1.1654 -0.2071
  687TMC3    C810221   0.986   3.374  15.786  0.0816  1.1002  0.8216
  687TMC3    O110222   0.882   3.316  16.339 -0.2502 -0.3719  0.0418
  687TMC3    O210223   1.066   3.280  15.771 -0.8417 -0.8220 -0.4641
  688MPD2     C10224   4.018   1.952  17.142  0.5509 -1.3232  0.7478
  688MPD2    C110225   4.039   1.832  17.213  0.2461 -0.6536 -0.4078
  688MPD2    C210226   4.145   1.755  17.180  0.4397  0.1712  0.4667
  688MPD2    C310227   4.235   1.791  17.076  0.8614 -0.4374 -0.0262
  688MPD2    C410228   4.210   1.914  17.010  0.1947 -0.0385 -0.4032
  688MPD2    C510229   4.105   1.997  17.046  0.8995  0.2682 -0.1072
  688MPD2     H10230   4.148   1.669  17.246 -1.4643  1.7397  2.5839
  688MPD2    H110231   4.265   1.936  16.919  1.7077 -0.0908  0.5015
  688MPD2    H210232   3.941   2.024  17.166  1.2590  0.1115 -1.2263
  688MPD2    H310233   4.105   2.100  17.011 -0.6585  1.0207  2.1307
  688MPD2     N10234   4.349   1.725  17.031 -0.2988  0.4996 -0.3906
  688MPD2    H510235   4.410   1.767  16.962  0.8920 -2.7450 -1.3042
  688MPD2    N110236   3.944   1.774  17.306 -0.1248 -0.3579 -0.4371
  688MPD2    H710237   3.977   1.697  17.362  0.4726 -1.0088 -1.6930
  689TMC3    C110238   3.752   1.726  17.421  0.0090 -0.0024 -0.0245
  689TMC3    C210239   3.671   1.792  17.517 -0.4101 -0.0882  0.1361
  689TMC3    C310240   3.651   1.730  17.637 -0.4135 -1.3981  0.2205
  689TMC3    C410241   3.806   1.603  17.442  1.2028 -0.3401  0.3052
  689TMC3    C510242   3.769   1.534  17.557 -0.0880  0.2085 -0.6382
  689TMC3    C610243   3.697   1.599  17.658  0.5006  0.2060 -0.0215
  689TMC3     C10244   3.815   1.812  17.330 -0.9592  0.4118  0.6348
  689TMC3     O10245   3.751   1.901  17.277 -0.5197 -0.3073  0.0208
  689TMC3     H10246   3.646   1.897  17.505  1.4444  0.2686 -0.6282
  689TMC3    H110247   3.874   1.557  17.371  0.8499  1.9724 -1.5327
  689TMC3    H210248   3.671   1.558   0.009  0.7765 -1.2854 -0.5863
  689TMC3    C710249   3.837   1.415  17.575 -0.3285 -0.3280  1.3308
  689TMC3    C810250   3.571   1.793  17.745  0.1691  0.1398  1.3285
  689TMC3    O110251   3.904   1.397  17.679 -0.0027 -0.0850 -0.5091
  689TMC3    O210252   3.574   1.743   0.113 -0.1198 -0.0536  0.4858
  690MPD2     C10253   1.603   3.687  15.834 -0.0355  0.2383  0.0221
  690MPD2    C110254   1.557   3.698  15.704  0.3230 -0.1780  1.5699
  690MPD2    C210255   1.601   3.799  15.623  0.6154  0.3292  0.5883
  690MPD2    C310256   1.702   3.876  15.663  0.9779 -0.7641  0.2099
  690MPD2    C410257   1.754   3.859  15.788 -0.3340  0.2178 -0.2924
  690MPD2    C510258   1.698   3.773  15.876  0.2398  0.6401 -0.4507
  690MPD2     H10259   1.563   3.792  15.521  2.4214 -0.1834 -0.0463
  690MPD2    H110260   1.834   3.914  15.837 -0.0493 -0.0972 -0.4022
  690MPD2    H210261   1.578   3.608  15.904 -0.1350 -1.2361 -1.6688
  690MPD2    H310262   1.748   3.751  15.970 -0.8367  0.6780  0.1257
  690MPD2     N10263   1.754   3.968  15.572  0.1261  0.1881  0.2733
  690MPD2    H510264   1.708   3.984  15.483 -1.1543  1.3964  1.1594
  690MPD2    N110265   1.465   3.603  15.653 -0.0142 -0.1758 -0.0776
  690MPD2    H710266   1.451   3.600  15.552  0.9436 -1.5493 -0.1635
  691TMC3    C110267   1.343   3.402  15.627 -0.4163 -0.1080 -0.1179
  691TMC3    C210268   1.290   3.446  15.512 -0.7507  0.4634  0.1355
  691TMC3    C310269   1.238   3.349  15.425 -0.5868 -0.7015  0.1474
  691TMC3    C410270   1.363   3.268  15.653 -0.2884  0.0032 -0.4693
  691TMC3    C510271   1.325   3.178  15.558  1.2317 -0.0706  0.5153
  691TMC3    C610272   1.258   3.215  15.438  0.0767 -0.2723  0.7717
  691TMC3     C10273   1.418   3.493  15.714 -0.6405  0.7728  0.4409
  691TMC3     O10274   1.433   3.446  15.828  0.5423 -0.7994 -0.5114
  691TMC3     H10275   1.271   3.553  15.509 -2.6356  0.0967 -1.2085
  691TMC3    H110276   1.414   3.229  15.741 -0.7476 -0.7858 -0.5521
  691TMC3    H210277   1.223   3.145  15.364 -0.0115  3.0268 -2.3063
  691TMC3    C710278   1.336   3.040  15.598  0.3468  0.4243 -0.7962
  691TMC3    C810279   1.118   3.393  15.346  0.3155 -0.3115 -0.4876
  691TMC3    O110280   1.408   3.011  15.692  0.9109 -0.2979  0.0998
  691TMC3    O210281   1.082   3.321  15.253 -0.4523 -0.4609  0.4750
  692TMC3    C110282   3.138   4.604  15.894  0.0003  0.0585 -0.3941
  692TMC3    C210283   3.269   4.625  15.881  0.1171  0.6160 -0.4913
  692TMC3    C310284   3.354   4.515  15.877 -0.4852  0.3505  1.0836
  692TMC3    C410285   3.088   4.480  15.890 -0.3007 -0.2510  0.0912
  692TMC3    C510286   3.162   4.367  15.872  0.7435  0.4041  0.5529
  692TMC3    C610287   3.299   4.386  15.859 -0.6694  0.2519  0.4925
  692TMC3     C10288   3.048   4.705  15.940 -0.0529  0.2766 -0.3655
  692TMC3     O10289   2.960   4.672  16.017  0.1127 -0.5162 -0.1729
  692TMC3     H10290   3.308   4.721  15.912  0.8582  0.9700 -2.4749
  692TMC3    H110291   2.981   4.472  15.905 -0.3888  1.0361  0.1273
  692TMC3    H210292   3.367   4.306  15.886 -0.1694  1.6963  3.5540
  692TMC3    C710293   3.097   4.253  15.931  0.8034  0.2492  0.4107
  692TMC3    C810294   3.453   4.505  15.983  0.3286  0.2359  0.6416
  692TMC3    O110295   3.004   4.273  16.007  0.3594  0.3057  0.9794
  692TMC3    O210296   3.554   4.437  15.968  0.1919 -0.3652 -0.1815
  693MPD2     C10297   3.278   2.769  10.936 -0.4168 -0.3447  0.3504
  693MPD2    C110298   3.188   2.701  11.013  0.6365  0.0433  0.5843
  693MPD2    C210299   3.237   2.621  11.120  0.0743  0.5131  0.2094
  693MPD2    C310300   3.380   2.598  11.129  0.3402 -0.6960 -0.3184
  693MPD2    C410301   3.464   2.654  11.041 -0.1836 -0.4532 -0.4810
  693MPD2    C510302   3.410   2.737  10.945 -0.0745  0.2599 -0.2440
  693MPD2     H10303   3.166   2.561  11.176  0.0220  0.5935  0.2291
  693MPD2    H110304   3.571   2.637  11.041 -0.6406 -3.3355  0.1122
  693MPD2    H210305   3.245   2.813  10.843  1.6748  1.3434  0.4110
  693MPD2    H310306   3.475   2.788  10.875  0.5477  0.3762  0.4180
  693MPD2     N10307   3.442   2.502  11.213  0.0088 -0.4057 -0.1415
  693MPD2    H510308   3.543   2.490  11.202 -0.3178 -4.2686  1.2180
  693MPD2    N110309   3.051   2.712  10.986 -0.0991  0.3202 -0.0458
  693MPD2    H710310   3.027   2.753  10.896  2.7517  0.8483 -0.5792
  694TMC3    C110311   2.827   2.725  11.016  0.3033  0.3861 -0.0879
  694TMC3    C210312   2.765   2.646  10.927  0.4284  0.5076  0.8714
  694TMC3    C310313   2.628   2.664  10.922  0.2797  0.1561  1.0087
  694TMC3    C410314   2.759   2.826  11.090 -0.3339  0.1650 -0.1571
  694TMC3    C510315   2.624   2.839  11.078  1.0422 -0.4792 -0.4911
  694TMC3    C610316   2.554   2.755  10.988  0.0484  0.1144  0.2328
  694TMC3     C10317   2.950   2.681  11.078 -0.3138  0.1697 -0.3944
  694TMC3     O10318   2.950   2.654  11.196  0.3577  0.2901  0.0682
  694TMC3     H10319   2.819   2.574  10.868 -3.2855 -0.2971 -1.5164
  694TMC3    H110320   2.814   2.886  11.162  2.0496  0.2373 -2.0441
  694TMC3    H210321   2.447   2.760  10.972  0.0864  1.7004  0.4635
  694TMC3    C710322   2.552   2.862  11.195  0.1383 -0.2327  0.0372
  694TMC3    C810323   2.544   2.572  10.848  0.3963 -0.4899 -0.3367
  694TMC3    O110324   2.582   2.968  11.249  0.7836  0.2146 -0.4646
  694TMC3    O210325   2.429   2.552  10.891 -0.4006 -0.3553 -0.4311
  695MPD2     C10326   3.968   4.470  13.305  0.2609 -0.2310 -0.7807
  695MPD2    C110327   3.907   4.464  13.433 -0.3703 -0.0118  0.4283
  695MPD2    C210328   3.769   4.479  13.443 -0.3352 -0.9184 -0.5081
  695MPD2    C310329   3.695   4.484  13.332  0.6716  0.0837 -0.6007
  695MPD2    C410330   3.756   4.482  13.203  0.5011 -0.5237 -0.6859
  695MPD2    C510331   3.895   4.484  13.191 -0.5631 -0.2262  0.2763
  695MPD2     H10332   3.726   4.494  13.541  0.7413  1.4466 -0.3851
  695MPD2    H110333   3.693   4.495  13.117 -0.3397 -2.3611 -0.3550
  695MPD2    H210334   4.075   4.456  13.298  0.3680  0.8292 -1.1853
  695MPD2    H310335   3.950   4.491  13.098  1.5262  2.1050  1.6929
  695MPD2     N10336   3.561   4.481  13.356  0.3055  0.2242  0.3683
  695MPD2    H510337   3.534   4.487  13.453  0.3151  2.5130  0.2310
  695MPD2    N110338   3.981   4.451  13.553 -0.2572  0.1811 -0.3037
  695MPD2    H710339   3.925   4.470  13.635 -0.5821  1.5587 -0.8416
  696TMC3    C110340   3.317   4.479  13.337 -0.6820  0.7575 -0.0259
  696TMC3    C210341   3.303   4.394  13.447 -0.5633 -0.2182  0.0293
  696TMC3    C310342   3.176   4.395  13.501  0.3450  0.2851 -0.0438
  696TMC3    C410343   3.210   4.545  13.281 -0.0311  0.7701 -0.0299
  696TMC3    C510344   3.089   4.531  13.330 -0.0817 -0.6306 -0.9401
  696TMC3    C610345   3.069   4.454  13.436  1.1744  0.0228  0.2781
  696TMC3     C10346   3.453   4.489  13.268 -0.5339 -0.5281  0.3606
  696TMC3     O10347   3.443   4.509  13.150 -0.1414 -0.1405  0.7620
  696TMC3     H10348   3.396   4.344  13.474 -0.3510  0.4959  0.6301
  696TMC3    H110349   3.227   4.609  13.195 -0.5524  1.1418  0.1396
  696TMC3    H210350   2.971   4.466  13.481  2.2376 -2.6018  3.2747
  696TMC3    C710351   2.996   4.639  13.331 -0.0275  0.6505  0.2240
  696TMC3    C810352   3.159   4.372  13.645  0.3395  1.2005 -0.8444
  696TMC3    O110353   2.903   4.638  13.253 -0.2317 -0.7677 -0.8803
  696TMC3    O210354   3.264   4.338  13.704 -0.0577  0.2591 -0.0955
  697MPD2     C10355   2.737   1.667  15.675  0.0326  0.1322 -0.3144
  697MPD2    C110356   2.797   1.617  15.559 -0.0196 -0.2080 -0.1580
  697MPD2    C210357   2.835   1.705  15.465 -0.2465  0.3886 -0.3621
  697MPD2    C310358   2.830   1.846  15.477  0.3168 -0.0660  0.6863
  697MPD2    C410359   2.776   1.897  15.592 -0.3949  0.4302  0.7431
  697MPD2    C510360   2.717   1.806  15.681 -0.4791 -0.0605  0.3044
  697MPD2     H10361   2.883   1.674  15.373  2.4627 -0.8845  1.4466
  697MPD2    H110362   2.762   2.004  15.607 -2.5332  0.1306  0.8574
  697MPD2    H210363   2.697   1.608  15.757  0.5909 -0.2822 -0.3393
  697MPD2    H310364   2.649   1.846  15.755 -0.0526  0.7052  0.2722
  697MPD2     N10365   2.884   1.922  15.368  0.4758 -0.2987  0.2420
  697MPD2    H510366   2.932   1.870  15.296 -2.0935 -0.2282 -1.5052
  697MPD2    N110367   2.810   1.475  15.541 -0.2134 -0.0467  0.3923
  697MPD2    H710368   2.860   1.440  15.460 -0.5517  3.2908 -1.2663
  698TMC3    C110369   2.964   2.101  15.255 -0.3429 -0.3742  0.4280
  698TMC3    C210370   2.995   2.236  15.249  0.7052  1.1707 -0.1215
  698TMC3    C310371   3.091   2.283  15.168  0.5156  0.0470 -0.0690
  698TMC3    C410372   3.034   2.015  15.176  0.6245 -0.0312 -0.1200
  698TMC3    C510373   3.127   2.070  15.096  0.4711  0.9728  0.0580
  698TMC3    C610374   3.160   2.202  15.083 -0.0711  0.7556 -0.2697
  698TMC3     C10375   2.894   2.058  15.370  0.2401 -0.9780  0.8447
  698TMC3     O10376   2.858   2.146  15.446 -0.3341  0.0520 -0.2670
  698TMC3     H10377   2.952   2.298  15.327 -1.0379  2.0130 -1.7434
  698TMC3    H110378   3.021   1.909  15.194  1.0154  0.0190  0.4585
  698TMC3    H210379   3.216   2.243  15.000 -1.0320  0.5683 -1.0110
  698TMC3    C710380   3.192   1.980  15.006  0.0080 -0.3968  0.2580
  698TMC3    C810381   3.106   2.425  15.159  0.6741  0.0229 -0.2352
  698TMC3    O110382   3.129   1.878  14.975 -0.1147  0.1329 -0.4664
  698TMC3    O210383   3.027   2.497  15.210  0.0850 -0.4990 -0.3757
  699TMC3    C110384   3.107   4.221  12.724 -0.2526 -0.2028  0.2230
  699TMC3    C210385   3.205   4.165  12.796  0.0235  0.1757 -0.1660
  699TMC3    C310386   3.188   4.040  12.845 -0.4848  0.1724 -0.1440
  699TMC3    C410387   2.985   4.161  12.702  0.4621 -0.7006 -0.4355
  699TMC3    C510388   2.971   4.035  12.750 -0.7201  0.6034 -0.2290
  699TMC3    C610389   3.067   3.979  12.831 -0.1068  0.5445 -0.3239
  699TMC3     C10390   3.120   4.357  12.689 -0.3536 -0.8930  0.3994
  699TMC3     O10391   3.045   4.404  12.605  0.9020 -0.6060 -1.1765
  699TMC3     H10392   3.306   4.203  12.805 -0.0225  0.8946 -2.8961
  699TMC3    H110393   2.907   4.210  12.645 -0.8729 -0.6697  1.4168
  699TMC3    H210394   3.045   3.878  12.864  1.4321  0.5236  0.6541
  699TMC3    C710395   2.837   3.989  12.756 -0.3016  0.3871  1.1343
  699TMC3    C810396   3.243   4.001  12.976 -0.7321  0.0926  0.0899
  699TMC3    O110397   2.797   3.958  12.866 -0.8222  0.5254  0.1571
  699TMC3    O210398   3.186   3.918  13.039 -0.5720 -0.6512 -0.0840
  700TMC3    C110399   2.107   2.219  17.332 -0.4949 -0.1670 -0.3228
  700TMC3    C210400   2.131   2.085  17.305 -0.9461 -0.2600  0.4288
  700TMC3    C310401   2.229   2.012  17.373 -0.0210 -0.3724 -0.0924
  700TMC3    C410402   2.182   2.289  17.427 -0.7608 -0.5268 -0.1616
  700TMC3    C510403   2.282   2.223  17.493  0.4430  0.8857  0.2993
  700TMC3    C610404   2.308   2.089  17.463  0.3593  0.3049  0.3158
  700TMC3     C10405   2.034   2.295  17.235 -0.6922 -0.0774  0.1264
  700TMC3     O10406   1.930   2.259  17.180  0.3716 -0.3575 -0.7979
  700TMC3     H10407   2.080   2.040  17.220 -0.2402  0.1263 -0.1979
  700TMC3    H110408   2.163   2.391  17.457 -1.0252 -0.3018 -1.1044
  700TMC3    H210409   2.394   2.041  17.508 -0.0919 -2.0466 -1.3148
  700TMC3    C710410   2.378   2.308  17.562 -0.0157 -0.6701 -0.3666
  700TMC3    C810411   2.262   1.868  17.351  0.6318  0.3071 -0.1360
  700TMC3    O110412   2.359   2.428  17.544 -0.0793 -0.0090  1.0200
  700TMC3    O210413   2.374   1.826  17.385  0.1752 -0.4718 -0.0372
  701TMC3    C110414   2.072   0.738  15.355 -0.7860 -0.5592  0.3273
  701TMC3    C210415   2.103   0.678  15.238  0.5287 -0.8071  0.9052
  701TMC3    C310416   2.201   0.732  15.167  0.0025  0.3140 -0.3473
  701TMC3    C410417   2.133   0.847  15.405  0.3781  0.9801 -0.6462
  701TMC3    C510418   2.245   0.883  15.334 -0.0414 -0.1240 -1.1717
  701TMC3    C610419   2.279   0.837  15.211  0.7914  0.0180  0.5852
  701TMC3     C10420   1.945   0.692  15.410 -0.1537 -0.2742 -0.0259
  701TMC3     O10421   1.920   0.574  15.393 -0.3818 -0.4338 -0.2169
  701TMC3     H10422   2.057   0.585  15.205 -3.0701  1.8459 -1.5185
  701TMC3    H110423   2.094   0.907  15.487 -0.3716 -2.4320  1.4680
  701TMC3    H210424   2.357   0.882  15.151  0.8566 -1.0524 -0.1506
  701TMC3    C710425   2.304   1.019  15.356  0.6831  0.4054  0.1760
  701TMC3    C810426   2.202   0.711  15.022  0.1910 -0.0848  0.1521
  701TMC3    O110427   2.349   1.086  15.262 -0.4536 -0.1788  0.8407
  701TMC3    O210428   2.301   0.754  14.963  0.1296  0.0838  0.1084
  702MPD2     C10429   2.189   3.077  10.481 -0.0446 -0.5968 -0.2570
  702MPD2    C110430   2.162   3.166  10.580  0.0929 -0.1984 -0.3180
  702MPD2    C210431   2.129   3.296  10.550  0.0421  0.0980 -0.4100
  702MPD2    C310432   2.132   3.337  10.413  0.3277 -0.1690 -0.2315
  702MPD2    C410433   2.189   3.249  10.322  0.2913 -0.4119  0.5561
  702MPD2    C510434   2.222   3.120  10.355  0.1969  0.3707  0.0747
  702MPD2     H10435   2.118   3.378  10.621  0.1120 -2.8252  2.9360
  702MPD2    H110436   2.200   3.276  10.217  0.8806 -1.3269  0.3793
  702MPD2    H210437   2.211   2.972  10.497  1.4678 -0.1509  0.6357
  702MPD2    H310438   2.269   3.054  10.282  1.6016  1.7529 -0.2703
  702MPD2     N10439   2.097   3.463  10.367 -0.3409 -0.1821  1.1176
  702MPD2    H510440   2.113   3.484  10.269  0.1594 -2.2334  0.7557
  702MPD2    N110441   2.159   3.131  10.720  0.2353  0.0590  0.3191
  702MPD2    H710442   2.133   3.208  10.781 -0.3515 -0.4635  0.7257
  703TMC3    C110443   2.020   3.691  10.393 -0.5364  0.2104 -0.6746
  703TMC3    C210444   1.929   3.758  10.464 -0.1504  0.0007  0.5253
  703TMC3    C310445   1.950   3.887  10.510  0.0074  0.4017 -0.1577
  703TMC3    C410446   2.143   3.738  10.374 -0.3595  0.0929 -0.0791
  703TMC3    C510447   2.164   3.865  10.425  0.3004 -0.1650 -0.2242
  703TMC3    C610448   2.070   3.948  10.484  0.0925  0.5738 -0.8549
  703TMC3     C10449   2.018   3.550  10.433 -0.5230  0.1324  0.2035
  703TMC3     O10450   1.949   3.525  10.532  0.0558 -0.0327  0.4117
  703TMC3     H10451   1.833   3.712  10.485 -0.1039 -0.2984  0.0874
  703TMC3    H110452   2.230   3.679  10.346  1.8811  2.6106  1.5407
  703TMC3    H210453   2.103   4.046  10.518  3.0416  0.1302 -2.4444
  703TMC3    C710454   2.294   3.927  10.392 -0.1008 -0.4825  1.1005
  703TMC3    C810455   1.869   3.941  10.615  0.0194 -0.7751  1.4102
  703TMC3    O110456   2.340   3.915  10.279 -0.2125 -0.3317 -0.0600
  703TMC3    O210457   1.914   4.049  10.662  0.2299 -0.0785  0.4654
  704TMC3    C110458   4.443   1.521  12.921 -0.5457 -0.2493  0.2406
  704TMC3    C210459   4.570   1.517  12.873 -0.5420  0.3036  0.2361
  704TMC3    C310460   4.675   1.498  12.951  0.0887 -0.3392 -0.5019
  704TMC3    C410461   4.415   1.516  13.059  0.1959  0.1715  0.7628
  704TMC3    C510462   4.529   1.508  13.138  0.4565  0.1658 -0.0692
  704TMC3    C610463   4.655   1.488  13.085  0.9505 -0.3451  0.1047
  704TMC3     C10464   4.324   1.510  12.833  0.9068 -0.1687 -0.0787
  704TMC3     O10465   4.225   1.452  12.871 -0.6771  0.1382 -0.3448
  704TMC3     H10466   4.580   1.503  12.766 -0.7093  0.0030  0.2571
  704TMC3    H110467   4.315   1.527  13.099  0.3572  0.2152  1.1451
  704TMC3    H210468   0.003   1.474  13.151 -1.3493 -0.9093  2.9325
  704TMC3    C710469   4.514   1.419  13.247  0.1286 -0.4090 -0.1859
  704TMC3    C810470   0.063   1.462  12.882  0.2232  1.0517 -0.0528
  704TMC3    O110471   4.611   1.354  13.276  0.4528 -0.1879 -0.0291
  704TMC3    O210472   0.050   1.461  12.764  0.2100 -0.0011 -0.3609
  705MPD2     C10473   3.863   4.289  16.978 -0.1585  0.5398 -0.0854
  705MPD2    C110474   3.773   4.357  16.894  0.1557 -0.2448 -0.5015
  705MPD2    C210475   3.660   4.415  16.946  0.7517  0.2147  0.3126
  705MPD2    C310476   3.637   4.399  17.081  0.1403 -0.4188  1.1941
  705MPD2    C410477   3.727   4.337  17.163 -0.1536 -0.3027 -0.1634
  705MPD2    C510478   3.841   4.282  17.113 -0.2103 -0.1560  0.3361
  705MPD2     H10479   3.594   4.471  16.882  0.2496 -0.6241  0.0900
  705MPD2    H110480   3.707   4.318  17.267 -2.1029 -1.8854 -0.8313
  705MPD2    H210481   3.954   4.241  16.944 -0.5478 -0.6734  0.5961
  705MPD2    H310482   3.899   4.228  17.187 -0.5470 -0.5496  0.3146
  705MPD2     N10483   3.518   4.442  17.143  0.2076 -0.5603  0.1334
  705MPD2    H510484   3.501   4.427  17.242 -1.9593  0.7174 -0.0479
  705MPD2    N110485   3.790   4.360  16.755  1.0070 -0.8602  0.7600
  705MPD2    H710486   3.726   4.418  16.703  1.7105 -2.9830 -2.4910
  706TMC3    C110487   3.937   4.273  16.324  0.0058  0.4204  0.4607
  706TMC3    C210488   3.916   4.403  16.286  0.3035  0.1628 -0.3143
  706TMC3    C310489   3.885   4.499  16.382  0.5784  0.6181 -0.1201
  706TMC3    C410490   3.934   4.230  16.455 -0.9851  0.0058  0.2708
  706TMC3    C510491   3.889   4.324  16.544  0.4802 -0.2620  0.0110
  706TMC3    C610492   3.867   4.460  16.513  0.2134 -0.1679  0.0571
  706TMC3     C10493   4.048   4.206  16.254 -0.0185 -0.3734 -0.1662
  706TMC3     O10494   4.141   4.169  16.325  0.3797 -0.5780  0.1663
  706TMC3     H10495   3.914   4.422  16.179 -1.6997 -0.0143 -0.2928
  706TMC3    H110496   3.962   4.129  16.481 -1.5589 -0.1235  0.3869
  706TMC3    H210497   3.856   4.531  16.594  4.2286  0.1144  0.3484
  706TMC3    C710498   3.871   4.284  16.679  0.3773 -0.4606 -0.3515
  706TMC3    C810499   3.834   4.632  16.352 -0.4595 -0.3800  0.4518
  706TMC3    O110500   3.937   4.191  16.718 -0.5839 -0.7098  0.4224
  706TMC3    O210501   3.775   4.651  16.247  0.2419 -0.7179 -0.6102
  707TMC3    C110502   1.335   1.476   1.621 -0.1287  0.2414  0.0340
  707TMC3    C210503   1.452   1.460   1.685 -0.4409  0.0510  0.6883
  707TMC3    C310504   1.461   1.403   1.808 -0.1712  0.0869 -0.6335
  707TMC3    C410505   1.221   1.446   1.682 -0.3334  0.0841  0.2216
  707TMC3    C510506   1.228   1.379   1.804 -0.1753  0.9780 -0.2352
  707TMC3    C610507   1.350   1.355   1.867  0.5178 -0.0776 -0.5214
  707TMC3     C10508   1.339   1.581   1.527  0.0034 -0.5417 -0.7114
  707TMC3     O10509   1.425   1.669   1.534  0.2855  0.2308  0.0840
  707TMC3     H10510   1.537   1.499   1.630  0.3063 -0.5076  1.4346
  707TMC3    H110511   1.130   1.489   1.640  0.0679 -1.8188 -2.6658
  707TMC3    H210512   1.356   1.307   1.964  0.8234  0.9181 -0.0507
  707TMC3    C710513   1.106   1.358   1.876  0.2389  0.4000 -0.9514
  707TMC3    C810514   1.590   1.416   1.882 -0.8462  0.3876  0.0396
  707TMC3    O110515   1.003   1.385   1.817 -1.0771  0.7263  0.9692
  707TMC3    O210516   1.611   1.357   1.988 -0.5127 -0.0442 -0.3490
  708MPD2     C10517   2.767   2.740  14.075  0.8159  0.0966 -0.0027
  708MPD2    C110518   2.641   2.796  14.101 -0.1720 -0.2779 -0.4670
  708MPD2    C210519   2.629   2.834  14.231 -0.5013 -0.8340  0.3975
  708MPD2    C310520   2.723   2.823  14.331  0.0631  0.3863 -0.6659
  708MPD2    C410521   2.847   2.776  14.299 -0.3092 -0.2403  0.1479
  708MPD2    C510522   2.865   2.735  14.171  0.1866 -0.2193  0.0902
  708MPD2     H10523   2.542   2.888  14.266 -0.8276 -0.1752 -1.4583
  708MPD2    H110524   2.934   2.764  14.363 -0.1674  1.7388  0.3436
  708MPD2    H210525   2.794   2.700  13.978 -2.6135  1.9727 -1.7369
  708MPD2    H310526   2.964   2.699  14.144  0.9204  2.0905 -0.3390
  708MPD2     N10527   2.699   2.857  14.464  0.1342 -0.0524 -0.2155
  708MPD2    H510528   2.776   2.864  14.529 -0.0198  2.2611 -0.2677
  708MPD2    N110529   2.545   2.807  13.998 -0.1310 -0.2229  0.0390
  708MPD2    H710530   2.559   2.764  13.907  1.2071  0.2756  0.0112
  709TMC3    C110531   2.336   2.861  13.891 -0.6139  0.3746  0.0149
  709TMC3    C210532   2.361   2.756  13.798  0.1773 -0.7894  0.0042
  709TMC3    C310533   2.254   2.685  13.761 -0.1049  0.5436 -0.2651
  709TMC3    C410534   2.212   2.895  13.934 -0.7079 -0.5282 -0.2411
  709TMC3    C510535   2.102   2.820  13.891 -0.3701 -0.3666 -0.3071
  709TMC3    C610536   2.126   2.728  13.794  0.7827  0.0215 -0.7115
  709TMC3     C10537   2.428   2.871  14.011 -0.8020 -0.5307 -0.1089
  709TMC3     O10538   2.389   2.928  14.110 -0.2553  0.0187  0.3268
  709TMC3     H10539   2.462   2.728  13.772  0.2042 -0.6716 -0.0211
  709TMC3    H110540   2.200   2.982  13.998 -1.7803 -0.7261 -0.1696
  709TMC3    H210541   2.037   2.675  13.760  0.6241 -0.1691 -0.0013
  709TMC3    C710542   2.016   2.793  14.004  0.2399 -0.3436 -0.0909
  709TMC3    C810543   2.277   2.590  13.656  0.7476  0.2358 -0.4400
  709TMC3    O110544   1.898   2.759  13.983  0.0797 -0.2395 -0.5124
  709TMC3    O210545   2.393   2.556  13.644 -0.2220 -0.6150  0.1222
  710TMC3    C110546   2.945   4.563   0.741  0.8712 -0.1565 -0.7238
  710TMC3    C210547   2.965   4.499   0.620  0.8154 -0.5826 -0.9283
  710TMC3    C310548   2.959   4.360   0.616  0.4184  0.4908 -0.6088
  710TMC3    C410549   2.921   4.494   0.860 -0.0787  0.5965 -0.1915
  710TMC3    C510550   2.908   4.361   0.847  0.1358 -0.8645 -0.6976
  710TMC3    C610551   2.927   4.293   0.735  0.4934  0.0421  0.2293
  710TMC3     C10552   2.884   4.693   0.724  0.1184 -0.0706  0.7010
  710TMC3     O10553   2.823   4.718   0.623 -0.1227 -0.0227 -0.3049
  710TMC3     H10554   2.997   4.560   0.537  0.6354  0.2513 -0.3794
  710TMC3    H110555   2.900   4.548   0.952 -0.2752  1.5177 -0.7750
  710TMC3    H210556   2.909   4.187   0.724 -0.3829 -0.0282  2.3966
  710TMC3    C710557   2.918   4.274   0.969 -0.1749 -0.1659  0.7943
  710TMC3    C810558   2.996   4.294   0.488 -0.7376 -0.3760 -0.9364
  710TMC3    O110559   2.963   4.166   0.955  0.0799 -0.0124  0.2427
  710TMC3    O210560   3.036   4.375   0.407  0.7592  0.3064 -0.3573
  711TMC3    C110561   2.902   0.514  15.022 -0.2649 -0.7815 -0.0320
  711TMC3    C210562   2.880   0.584  15.136 -0.7841  0.7022  0.1902
  711TMC3    C310563   2.941   0.541  15.252 -0.1308  0.1758  0.0321
  711TMC3    C410564   2.989   0.407  15.008 -0.0797 -0.3329 -0.1588
  711TMC3    C510565   3.043   0.360  15.130  0.0515  0.3547  0.0615
  711TMC3    C610566   3.024   0.426  15.247  0.2184 -0.0623 -0.1886
  711TMC3     C10567   2.798   0.522  14.925  0.2148  0.1947  0.3264
  711TMC3     O10568   2.687   0.563  14.964 -0.2884 -0.2145 -0.1846
  711TMC3     H10569   2.811   0.666  15.147  0.0445  1.7798 -2.6939
  711TMC3    H110570   3.009   0.359  14.913  0.7482 -1.2064  0.4585
  711TMC3    H210571   3.078   0.400  15.338 -0.3421 -0.7802 -0.0624
  711TMC3    C710572   3.132   0.249  15.130  0.2699 -0.4824 -0.0959
  711TMC3    C810573   2.925   0.610  15.377 -0.2151  0.1082  0.0241
  711TMC3    O110574   3.228   0.263  15.205 -0.3974 -0.1837  0.1343
  711TMC3    O210575   2.820   0.666  15.397 -0.2721 -0.3238  0.3115
  712MPD2     C10576   0.100   1.176  13.694 -0.4130  0.0456  0.0205
  712MPD2    C110577   4.736   1.240  13.768  0.4554  0.1408 -0.0514
  712MPD2    C210578   0.031   1.355  13.826 -0.2048  0.0525  0.0187
  712MPD2    C310579   0.155   1.413  13.817 -0.3476 -0.1282  0.3049
  712MPD2    C410580   0.254   1.352  13.746 -0.2756 -0.4036  0.9366
  712MPD2    C510581   0.221   1.234  13.679 -0.2368  0.2030 -0.1184
  712MPD2     H10582   4.692   1.406  13.884 -1.8618 -1.4644 -0.8008
  712MPD2    H110583   0.356   1.388  13.741  0.4182 -2.3082  1.3414
  712MPD2    H210584   0.083   1.084  13.640  1.5308 -0.1564 -0.2433
  712MPD2    H310585   0.295   1.183  13.619 -0.6037 -1.9621  1.2598
  712MPD2     N10586   0.188   1.542  13.875  0.4611 -0.0215 -0.4028
  712MPD2    H510587   0.283   1.575  13.868  0.0622  0.9387 -1.3440
  712MPD2    N110588   4.606   1.190  13.772 -0.3780  0.8380 -0.4517
  712MPD2    H710589   4.574   1.139  13.691  1.2621 -0.6923 -0.1226
  713TMC3    C110590   0.134   1.766  13.917  0.7662 -0.3148 -0.1864
  713TMC3    C210591   0.260   1.807  13.959  0.0539 -0.3693 -0.4124
  713TMC3    C310592   0.281   1.943  13.961  0.2729  0.0764 -0.0123
  713TMC3    C410593   0.030   1.853  13.895  0.0764  0.1956 -0.2819
  713TMC3    C510594   0.054   1.988  13.906 -0.3368 -0.1473  0.1872
  713TMC3    C610595   0.180   2.032  13.945  0.4503  0.1718  0.1866
  713TMC3     C10596   0.096   1.623  13.924 -0.1084  0.3286  0.0205
  713TMC3     O10597   4.719   1.605  13.965  0.9122 -0.2213 -0.3480
  713TMC3     H10598   0.339   1.735  13.978 -0.1838 -1.1525 -2.3850
  713TMC3    H110599   4.669   1.811  13.875  0.5342  0.3413 -2.8914
  713TMC3    H210600   0.187   2.138  13.966 -0.3696  0.6286 -1.8038
  713TMC3    C710601   0.009   2.071  13.802 -0.0841  0.0911 -0.7542
  713TMC3    C810602   0.404   1.973  13.888  0.4459  0.2648  0.8437
  713TMC3    O110603   0.097   2.150  13.761  0.3058  0.1184 -0.0498
  713TMC3    O210604   0.500   1.902  13.890  0.0480 -0.4116  0.1735
  714MPD2     C10605   1.131   4.696   1.045 -0.1319 -0.5671 -0.1163
  714MPD2    C110606   1.048   4.654   1.154  0.8888 -0.1156  0.2423
  714MPD2    C210607   0.920   4.711   1.165  0.5265 -0.1824 -0.2373
  714MPD2    C310608   0.873   0.060   1.067  0.8252  0.5434  0.2846
  714MPD2    C410609   0.954   0.097   0.963  0.1771  0.0804 -0.0728
  714MPD2    C510610   1.082   0.050   0.961 -0.0090 -0.2922 -0.4005
  714MPD2     H10611   0.851   4.684   1.244  0.9714 -3.0651 -0.8367
  714MPD2    H110612   0.924   0.157   0.878  1.1616  1.6340  0.6729
  714MPD2    H210613   1.229   4.654   1.025  0.2269 -1.2062  3.0909
  714MPD2    H310614   1.137   0.074   0.871 -1.0684  0.4674 -0.8397
  714MPD2     N10615   0.739   0.104   1.089 -0.1612 -1.1963 -0.3333
  714MPD2    H510616   0.694   0.062   1.170  0.6977  0.9568  1.2478
  714MPD2    N110617   1.100   4.565   1.251 -0.5593  0.5399 -0.2623
  714MPD2    H710618   1.199   4.546   1.238 -0.8130  0.0896 -1.5818
  715TMC3    C110619   1.121   4.405   1.409 -0.5126 -0.9162 -0.4713
  715TMC3    C210620   1.107   4.268   1.397  0.0100 -0.4114 -0.3287
  715TMC3    C310621   1.216   4.185   1.400  0.0696 -0.2008  0.0438
  715TMC3    C410622   1.241   4.454   1.454 -0.3538  0.0035 -0.5380
  715TMC3    C510623   1.345   4.363   1.487  0.4474 -0.1729 -0.1285
  715TMC3    C610624   1.330   4.229   1.451 -0.0130  0.2015 -0.7979
  715TMC3     C10625   1.029   4.487   1.340 -0.5761  0.0564 -0.7375
  715TMC3     O10626   0.910   4.464   1.356  0.3914  0.2841 -0.2834
  715TMC3     H10627   1.020   4.241   1.337 -0.3029 -1.4665  0.5946
  715TMC3    H110628   1.264   4.558   1.475 -0.3343  0.0280 -0.6766
  715TMC3    H210629   1.414   4.160   1.452  0.0384  0.2711 -0.3668
  715TMC3    C710630   1.481   4.408   1.520 -0.2520 -0.1564 -0.1169
  715TMC3    C810631   1.186   4.034   1.393 -0.2477  0.6251 -0.0547
  715TMC3    O110632   1.578   4.341   1.496  0.2528 -0.4090 -0.3149
  715TMC3    O210633   1.078   3.998   1.349 -0.3259  0.3294  0.3367
  716MPD2     C10634   1.792   3.379  10.014  0.0272  0.1529  0.2694
  716MPD2    C110635   1.813   3.427   9.888  0.1864  0.1487  0.2749
  716MPD2    C210636   1.869   3.343   9.784  0.5388 -0.1030 -0.2483
  716MPD2    C310637   1.883   3.213   9.806  1.0184 -0.9493  0.5562
  716MPD2    C410638   1.858   3.161   9.929 -0.1300  0.3785 -0.9530
  716MPD2    C510639   1.811   3.246  10.037  0.5159  0.6778 -0.4276
  716MPD2     H10640   1.907   3.388   9.692  2.9809 -2.0371 -0.1846
  716MPD2    H110641   1.871   3.055   9.950 -1.0658  0.5518  0.5505
  716MPD2    H210642   1.744   3.438  10.091 -0.6949 -1.2354  0.8805
  716MPD2    H310643   1.774   3.208  10.131 -1.3764  1.4524 -0.8744
  716MPD2     N10644   1.919   3.125   9.697  0.3671  0.3342 -0.3892
  716MPD2    H510645   1.939   3.165   9.605  2.0995  1.2319  0.3574
  716MPD2    N110646   1.783   3.561   9.869 -0.0589 -0.4283  0.1517
  716MPD2    H710647   1.743   3.609   9.948  0.9954  0.5590  0.0956
  717TMC3    C110648   1.929   2.922   9.570  0.2099 -0.0499  0.1286
  717TMC3    C210649   1.901   3.005   9.462 -0.2897 -0.2311  0.8212
  717TMC3    C310650   1.879   2.933   9.345 -0.4956 -0.0382 -0.0168
  717TMC3    C410651   1.917   2.787   9.573  0.2035 -0.1588 -0.2159
  717TMC3    C510652   1.906   2.728   9.452  0.2818  0.0045 -0.6544
  717TMC3    C610653   1.887   2.799   9.335 -0.8005  0.0746  0.5288
  717TMC3     C10654   1.920   2.986   9.700  0.0933  0.2193 -0.4509
  717TMC3     O10655   1.907   2.910   9.794 -0.1523  0.2003  0.5096
  717TMC3     H10656   1.904   3.113   9.469  0.4546 -0.1616 -0.6096
  717TMC3    H110657   1.950   2.731   9.660  0.0058  0.6353  0.3775
  717TMC3    H210658   1.857   2.754   9.242 -0.7079 -1.1203  1.0847
  717TMC3    C710659   1.936   2.588   9.430  0.2354 -0.9451 -0.6586
  717TMC3    C810660   1.816   3.004   9.229 -0.4763  0.2684 -0.5588
  717TMC3    O110661   1.929   2.553   9.315  0.7374  0.0276  0.5993
  717TMC3    O210662   1.826   3.127   9.232  0.3385  0.3158  0.0585
  718MPD2     C10663   1.625   1.894  13.040  0.3806  0.1480  0.3611
  718MPD2    C110664   1.518   1.881  12.958  0.3679 -0.2614  1.0055
  718MPD2    C210665   1.411   1.813  12.993 -0.0058  0.6919 -0.0191
  718MPD2    C310666   1.415   1.744  13.121 -0.0097 -0.1091 -0.4063
  718MPD2    C410667   1.527   1.754  13.202  0.2825  0.7177 -0.4365
  718MPD2    C510668   1.636   1.823  13.163  0.2157 -0.1915  0.2567
  718MPD2     H10669   1.324   1.806  12.929 -0.6775  0.3602  0.9279
  718MPD2    H110670   1.535   1.684  13.284 -2.2360  0.5933 -0.3123
  718MPD2    H210671   1.704   1.966  13.024 -1.0630  0.6755 -4.3427
  718MPD2    H310672   1.725   1.840  13.222 -0.2423  0.6225  0.7013
  718MPD2     N10673   1.315   1.650  13.143 -0.0761  0.3693 -0.0414
  718MPD2    H510674   1.233   1.645  13.083 -0.4343 -0.3401  0.5166
  718MPD2    N110675   1.529   1.935  12.824 -0.2295 -0.3634  0.8166
  718MPD2    H710676   1.624   1.959  12.798  0.0555 -0.9795  1.2885
  719TMC3    C110677   1.477   1.959  12.591  0.3116  0.1769  0.3149
  719TMC3    C210678   1.401   1.891  12.497 -0.6392  0.3236  0.5624
  719TMC3    C310679   1.464   1.790  12.428  0.8537  0.0242 -0.1308
  719TMC3    C410680   1.613   1.966  12.565  0.3042  0.2236 -0.1860
  719TMC3    C510681   1.671   1.889  12.466  0.0794 -0.7581  0.7217
  719TMC3    C610682   1.599   1.794  12.401 -0.2132  0.2902  0.4094
  719TMC3     C10683   1.429   1.950  12.730 -0.3169 -0.4573 -0.4151
  719TMC3     O10684   1.308   1.936  12.745  0.0969 -0.1480 -0.2216
  719TMC3     H10685   1.293   1.893  12.508 -0.8373  0.8201 -1.4977
  719TMC3    H110686   1.674   2.034  12.624  3.0562 -1.2585 -1.2949
  719TMC3    H210687   1.640   1.725  12.328  1.8879 -1.2745  3.0767
  719TMC3    C710688   1.780   1.950  12.391 -0.0452  0.5534  1.0878
  719TMC3    C810689   1.411   1.657  12.458 -0.6275  0.0836 -0.3514
  719TMC3    O110690   1.790   2.072  12.416  0.2893 -0.1895  0.2310
  719TMC3    O210691   1.485   1.588  12.527  0.5736 -0.4104 -0.1880
  720MPD2     C10692   4.417   3.033  13.647  0.1985  0.8254  0.5121
  720MPD2    C110693   4.377   3.156  13.695 -0.1597  0.3329 -0.3524
  720MPD2    C210694   4.441   3.211  13.807  0.8134 -0.0504 -0.4796
  720MPD2    C310695   4.539   3.137  13.869  0.3489  0.2007  0.2879
  720MPD2    C410696   4.578   3.014  13.822  0.0754 -0.0262  0.8753
  720MPD2    C510697   4.513   2.966  13.711  0.6463  0.7215 -0.0215
  720MPD2     H10698   4.409   3.306  13.849  0.0143 -1.7001  2.6733
  720MPD2    H110699   4.656   2.961  13.875  0.7014  0.5413  0.5281
  720MPD2    H210700   4.366   2.991  13.561  0.7484 -1.1326  1.1341
  720MPD2    H310701   4.532   2.863  13.681  1.3528  0.2567  1.9802
  720MPD2     N10702   4.609   3.191  13.982 -0.5035 -0.3287 -0.7398
  720MPD2    H510703   4.578   3.284  14.008  1.3075  1.0254 -3.3331
  720MPD2    N110704   4.287   3.236  13.628 -0.1600 -0.1372  0.1068
  720MPD2    H710705   4.281   3.330  13.665  0.2684 -0.2721  0.5249
  721TMC3    C110706   0.029   3.223  14.152 -0.1586 -0.3549  0.1341
  721TMC3    C210707   4.685   3.245  14.260  0.1425  0.0312  0.3133
  721TMC3    C310708   0.006   3.291  14.372 -0.0579 -0.8304  0.7180
  721TMC3    C410709   0.166   3.242  14.150  0.4163 -0.3417 -0.4379
  721TMC3    C510710   0.218   3.310  14.251  0.1997 -0.0659  0.3909
  721TMC3    C610711   0.140   3.335  14.364 -0.7326  0.4246  0.5188
  721TMC3     C10712   4.720   3.140  14.044  0.1518 -0.6302 -0.5760
  721TMC3     O10713   0.051   3.052  14.011 -0.1756  0.0855  0.4617
  721TMC3     H10714   4.580   3.217  14.259  0.5503 -1.4503 -0.4028
  721TMC3    H110715   0.218   3.225  14.056 -1.4146  0.4710 -1.5947
  721TMC3    H210716   0.180   3.367  14.459 -0.1738  3.0138 -0.5892
  721TMC3    C710717   0.367   3.315  14.260  0.2084  0.3603 -0.2604
  721TMC3    C810718   4.654   3.355  14.473 -0.1090 -0.9873 -0.1984
  721TMC3    O110719   0.433   3.338  14.162 -0.6499  0.4908 -0.0427
  721TMC3    O210720   4.540   3.379  14.431  0.2259  0.0818 -0.0911
  722MPD2     C10721   3.566   1.910  13.496  0.4088  0.2086 -0.4785
  722MPD2    C110722   3.548   2.035  13.442 -0.3396 -0.1257  0.2423
  722MPD2    C210723   3.454   2.052  13.345  0.4266  0.0172 -0.0891
  722MPD2    C310724   3.379   1.943  13.300  0.2071  0.1235 -0.1146
  722MPD2    C410725   3.402   1.816  13.351 -0.0549 -0.1244 -0.2938
  722MPD2    C510726   3.494   1.803  13.454  0.0084  0.1333 -0.3740
  722MPD2     H10727   3.444   2.145  13.290  1.8073  0.4544  0.4038
  722MPD2    H110728   3.352   1.729  13.311  2.3613 -1.4674 -0.4481
  722MPD2    H210729   3.645   1.880  13.564 -0.6653 -1.1197  0.1876
  722MPD2    H310730   3.516   1.705  13.494  0.4810 -0.8482 -3.0312
  722MPD2     N10731   3.282   1.963  13.199 -0.0680  0.1211 -0.0566
  722MPD2    H510732   3.271   2.061  13.175 -1.3215 -0.5650 -2.2889
  722MPD2    N110733   3.630   2.146  13.480  0.2726  1.0074 -0.3483
  722MPD2    H710734   3.632   2.229  13.421 -2.3694  2.0423  1.0093
  723TMC3    C110735   3.123   1.948  13.030  0.3578  0.3104 -0.7462
  723TMC3    C210736   3.034   1.874  12.961  0.5828  0.0139 -0.5244
  723TMC3    C310737   2.940   1.930  12.876  0.3853  0.6818 -0.0849
  723TMC3    C410738   3.128   2.085  13.020 -0.3662 -0.1904 -0.1322
  723TMC3    C510739   3.026   2.140  12.942 -0.0446 -0.6513  1.0073
  723TMC3    C610740   2.928   2.070  12.878 -0.4160  0.5870  0.2357
  723TMC3     C10741   3.215   1.874  13.116 -0.6261 -0.4132  0.4877
  723TMC3     O10742   3.220   1.751  13.113  0.2526 -0.1689  0.4273
  723TMC3     H10743   3.041   1.767  12.970  1.3711  0.1510  0.4343
  723TMC3    H110744   3.205   2.150  13.060  1.3480 -1.8596 -0.7237
  723TMC3    H210745   2.841   2.114  12.830  0.6887  1.0710 -1.3119
  723TMC3    C710746   3.020   2.285  12.943  0.7821  0.6104 -0.1958
  723TMC3    C810747   2.829   1.842  12.827 -0.7802  0.4078 -0.5944
  723TMC3    O110748   3.068   2.329  13.044  0.9206  0.1235  0.7831
  723TMC3    O210749   2.745   1.888  12.755  0.2039 -0.6646  0.5573
  724TMC3    C110750   3.589   0.051  10.851 -0.4056 -0.3727 -0.8195
  724TMC3    C210751   3.554   0.018  10.718 -0.0556  0.0734  0.5624
  724TMC3    C310752   3.584   0.108  10.622  0.0600 -0.2617 -0.4395
  724TMC3    C410753   3.631   0.175  10.888 -0.5633  0.4272  0.7973
  724TMC3    C510754   3.640   0.268  10.790  1.3355 -0.3235 -0.0246
  724TMC3    C610755   3.629   0.236  10.654 -0.8362  0.4785  0.5782
  724TMC3     C10756   3.604   4.681  10.947  0.3717  0.6104  0.4680
  724TMC3     O10757   3.621   4.570  10.905  0.3429  0.0154 -0.2502
  724TMC3     H10758   3.561   4.650  10.690  1.5213 -0.2902  2.2670
  724TMC3    H110759   3.664   0.191  10.989  0.8876  0.0856  0.3756
  724TMC3    H210760   3.639   0.310  10.576 -0.3594 -0.2271 -0.0427
  724TMC3    C710761   3.701   0.397  10.812 -0.6218 -0.2838  0.3774
  724TMC3    C810762   3.600   0.071  10.485  0.2443  0.0725 -0.3420
  724TMC3    O110763   3.767   0.434  10.721 -0.4001 -0.5366  0.4976
  724TMC3    O210764   3.527   4.716  10.443 -0.0213  1.0144  0.1580
  725TMC3    C110765   0.246   3.577  12.733 -0.1162  0.6082 -0.4035
  725TMC3    C210766   0.212   3.666  12.628  0.1523 -0.0808  0.2632
  725TMC3    C310767   0.156   3.611  12.518 -0.2451 -0.6141  0.9059
  725TMC3    C410768   0.231   3.444  12.722 -0.0986 -0.2319  0.5231
  725TMC3    C510769   0.171   3.395  12.607 -0.1704 -0.8517 -0.5824
  725TMC3    C610770   0.137   3.481  12.504 -0.5430  0.0100 -0.1354
  725TMC3     C10771   0.366   3.624  12.804  0.4454  0.7851  0.0044
  725TMC3     O10772   0.364   3.745  12.823  0.4195  0.1631 -0.0432
  725TMC3     H10773   0.229   3.773  12.631  0.5012 -0.0389 -3.5455
  725TMC3    H110774   0.256   3.384  12.809 -2.1988  1.4946  2.3207
  725TMC3    H210775   0.087   3.440  12.417  1.4799  1.7101 -2.0939
  725TMC3    C710776   0.181   3.252  12.579  0.1123  0.6473 -0.5529
  725TMC3    C810777   0.126   3.683  12.394  0.1717 -0.3484  0.1867
  725TMC3    O110778   0.185   3.169  12.667 -0.3343  0.2679 -0.3451
  725TMC3    O210779   0.069   3.615  12.309  0.0362 -0.7284  0.0156
  726MPD2     C10780   3.043   0.724  10.988 -0.3775  0.1377 -0.2835
  726MPD2    C110781   2.953   0.785  10.897 -0.1849 -0.1746 -0.3890
  726MPD2    C210782   2.822   0.757  10.921 -0.7890  0.9536  0.2595
  726MPD2    C310783   2.787   0.656  11.007  0.5496  0.5161 -0.2795
  726MPD2    C410784   2.874   0.592  11.086  0.0931  0.4624 -0.1843
  726MPD2    C510785   2.999   0.628  11.078 -0.1722 -0.0806  0.1322
  726MPD2     H10786   2.749   0.807  10.858  0.9045 -0.1760 -2.5357
  726MPD2    H110787   2.839   0.516  11.156  1.6115  0.8761  1.0165
  726MPD2    H210788   3.148   0.750  10.996  0.3089 -2.9408  0.5248
  726MPD2    H310789   3.071   0.585  11.147  0.3623 -0.1119 -0.4409
  726MPD2     N10790   2.662   0.601  11.003  0.2489 -0.2542  0.2405
  726MPD2    H510791   2.664   0.519  11.064 -0.0482 -2.3297 -2.5252
  726MPD2    N110792   2.992   0.894  10.813 -0.2652 -0.3561  0.6094
  726MPD2    H710793   2.920   0.941  10.760  0.7937 -0.7853 -1.2351
  727TMC3    C110794   3.130   1.043  10.701 -0.6309 -0.2856 -0.4136
  727TMC3    C210795   3.226   1.141  10.710  0.0021 -0.6158 -0.1718
  727TMC3    C310796   3.239   1.226  10.609 -0.6091 -0.4978 -0.7446
  727TMC3    C410797   3.039   1.041  10.599  0.2894  0.1156 -0.7220
  727TMC3    C510798   3.046   1.147  10.510  0.0050  0.6949 -0.0679
  727TMC3    C610799   3.145   1.237  10.516  0.5394 -0.2102  0.3005
  727TMC3     C10800   3.117   0.950  10.812  1.4211  0.1702 -0.6351
  727TMC3     O10801   3.226   0.920  10.864 -0.6086 -0.3378  0.1132
  727TMC3     H10802   3.305   1.120  10.781 -0.7264 -3.3195 -0.1825
  727TMC3    H110803   2.979   0.956  10.570 -1.9941  1.5119 -0.0244
  727TMC3    H210804   3.150   1.318  10.444 -0.4963  2.9277  3.7123
  727TMC3    C710805   2.943   1.177  10.408  0.1978 -0.6293 -0.2944
  727TMC3    C810806   3.334   1.335  10.638  0.3262 -0.3597 -0.3471
  727TMC3    O110807   2.975   1.256  10.319 -0.0750  0.1144  0.3027
  727TMC3    O210808   3.447   1.303  10.675 -0.5735 -0.4165  0.4758
  728TMC3    C110809   1.889   4.148  15.493 -0.6201  0.1686 -0.2078
  728TMC3    C210810   2.019   4.167  15.485  0.3234  0.1057  0.4512
  728TMC3    C310811   2.053   4.228  15.370  0.1162 -0.5686 -0.5524
  728TMC3    C410812   1.802   4.170  15.393  0.1572 -0.0945 -0.7326
  728TMC3    C510813   1.842   4.247  15.290  0.0722 -0.6473  0.3170
  728TMC3    C610814   1.974   4.276  15.270 -0.6936 -0.0191 -0.5412
  728TMC3     C10815   1.863   4.050  15.598  0.2312 -0.0614 -0.7261
  728TMC3     O10816   1.945   4.049  15.687 -0.1811  1.0042  0.0059
  728TMC3     H10817   2.093   4.137  15.559 -0.7667  0.5165  1.7193
  728TMC3    H110818   1.698   4.140  15.397  0.1671 -0.0759 -0.3493
  728TMC3    H210819   2.010   4.331  15.183 -2.6229  1.4534 -0.4038
  728TMC3    C710820   1.743   4.291  15.196 -0.5391 -0.3266  0.3851
  728TMC3    C810821   2.195   4.239  15.328 -0.2112 -0.2618 -0.7822
  728TMC3    O110822   1.640   4.231  15.192 -0.8712 -0.3166 -0.5117
  728TMC3    O210823   2.229   4.315  15.238  0.2485 -0.0127 -0.0863
  729MPD2     C10824   4.205   4.521  16.544  0.6590  0.1070  0.5709
  729MPD2    C110825   4.193   4.654  16.559  0.2832 -0.5382 -0.0868
  729MPD2    C210826   4.188   4.710  16.682 -0.3240  0.0899 -0.3523
  729MPD2    C310827   4.189   4.629  16.795 -0.2050 -0.4997 -0.1790
  729MPD2    C410828   4.188   4.492  16.778  0.4506  0.8667 -0.2401
  729MPD2    C510829   4.207   4.446  16.654  0.6199 -0.3988 -0.1011
  729MPD2     H10830   4.186   0.080  16.701  0.0776  0.5131 -2.6516
  729MPD2    H110831   4.186   4.419  16.858 -0.1011  1.3222  0.1716
  729MPD2    H210832   4.218   4.475  16.447  0.3312  1.5782 -0.1582
  729MPD2    H310833   4.203   4.339  16.634 -0.5973  0.2304 -3.1337
  729MPD2     N10834   4.211   4.671  16.928  0.5058  0.5667 -0.2269
  729MPD2    H510835   4.201   4.609  17.007 -0.5818  0.7870 -0.1845
  729MPD2    N110836   4.206   4.730  16.441 -0.3215  0.3692  0.2990
  729MPD2    H710837   4.222   4.682  16.354 -3.0246 -0.1230  0.0669
  730TMC3    C110838   4.239   0.092  17.107 -0.3457 -0.2584  0.1599
  730TMC3    C210839   4.366   0.053  17.138 -0.7418 -0.5555 -0.1460
  730TMC3    C310840   4.444   0.140  17.216  0.6924 -0.5333 -0.1222
  730TMC3    C410841   4.196   0.220  17.131  0.1443 -0.0441  0.1083
  730TMC3    C510842   4.270   0.298  17.211 -0.2158  0.1314 -0.1794
  730TMC3    C610843   4.393   0.264  17.257  0.0151  0.2057 -0.5506
  730TMC3     C10844   4.224   0.064  16.964  0.5604  0.0797  0.0751
  730TMC3     O10845   4.241   0.162  16.897 -0.8249 -0.0179  0.0783
  730TMC3     H10846   4.400   4.700  17.086 -1.0175 -0.2376 -0.8740
  730TMC3    H110847   4.106   0.265  17.090  1.7036  2.0492 -0.9970
  730TMC3    H210848   4.443   0.341  17.314  1.6974 -0.4144 -1.1812
  730TMC3    C710849   4.231   0.439  17.210  0.8626 -0.6682 -0.6140
  730TMC3    C810850   4.581   0.142  17.158  0.0386 -0.6407  0.1416
  730TMC3    O110851   4.171   0.480  17.109 -0.3139  0.1782  0.5224
  730TMC3    O210852   4.626   0.034  17.126  0.0472  0.1316  0.3142
  731MPD2     C10853   4.708   4.101  11.548  0.1912 -0.1209  0.0564
  731MPD2    C110854   4.720   3.980  11.601  0.1086 -0.8366 -0.0654
  731MPD2    C210855   4.691   3.957  11.735 -0.3803 -0.2674 -0.4528
  731MPD2    C310856   4.658   4.059  11.827 -0.8129 -0.7369  0.0615
  731MPD2    C410857   4.648   4.182  11.773 -0.5695  1.1209  0.7258
  731MPD2    C510858   4.660   4.200  11.635  0.0380 -0.0981  0.0070
  731MPD2     H10859   4.710   3.858  11.776  0.6719 -0.6551 -1.8564
  731MPD2    H110860   4.614   4.265  11.835 -0.8543 -0.0169  2.0897
  731MPD2    H210861   4.725   4.123  11.443  1.6265 -0.8723  0.1398
  731MPD2    H310862   4.645   4.299  11.594 -1.6713  0.6785  2.5188
  731MPD2     N10863   4.638   4.018  11.960 -0.1289  0.8179  0.3433
  731MPD2    H510864   4.649   3.918  11.975 -2.0985 -0.1228 -4.3981
  731MPD2    N110865   0.021   3.881  11.507 -0.1532 -0.1343  0.4251
  731MPD2    H710866   0.054   3.910  11.415  0.1535  0.4213  0.7101
  732TMC3    C110867   0.078   3.675  11.427 -0.8245 -0.3971 -1.0950
  732TMC3    C210868   0.033   3.549  11.426  0.4806  0.0865 -0.0711
  732TMC3    C310869   0.125   3.449  11.413  0.1071 -0.3129 -0.5833
  732TMC3    C410870   0.211   3.706  11.420 -0.2488  0.0549 -0.7001
  732TMC3    C510871   0.302   3.602  11.422  0.2811  0.2964  0.1585
  732TMC3    C610872   0.266   3.476  11.412 -0.7211 -0.2100 -0.2602
  732TMC3     C10873   0.007   3.748  11.528  0.3210 -0.2719  0.9044
  732TMC3     O10874   4.705   3.682  11.625 -0.2648  0.1884  0.5109
  732TMC3     H10875   4.664   3.522  11.434  0.3387  0.7982  0.4474
  732TMC3    H110876   0.250   3.805  11.437 -3.1086  0.4992  3.2121
  732TMC3    H210877   0.342   3.402  11.388 -0.6409 -0.5404  0.9934
  732TMC3    C710878   0.440   3.631  11.463  0.1627  1.0030 -0.0563
  732TMC3    C810879   0.070   3.314  11.421  0.1056  0.4402  0.3637
  732TMC3    O110880   0.485   3.744  11.440 -0.4489  0.2450 -0.4803
  732TMC3    O210881   0.143   3.229  11.374 -0.3113  0.4800  0.2469
  733TMC3    C110882   0.995   1.401  13.271  0.1169  0.1226  0.0859
  733TMC3    C210883   1.101   1.477  13.305 -0.0338 -0.1276  0.5718
  733TMC3    C310884   1.201   1.477  13.218  0.0781  0.7182 -0.1972
  733TMC3    C410885   0.989   1.335  13.148 -0.3792  0.3823  0.3028
  733TMC3    C510886   1.091   1.352  13.057 -0.3657 -0.1450 -0.3278
  733TMC3    C610887   1.200   1.423  13.095  1.0593 -0.3377 -0.1597
  733TMC3     C10888   0.875   1.427  13.340 -0.1489 -0.4028  0.2432
  733TMC3     O10889   0.868   1.534  13.404  0.3413 -0.2236  0.3436
  733TMC3     H10890   1.105   1.529  13.400 -0.3166  2.4948 -0.8621
  733TMC3    H110891   0.902   1.275  13.122 -0.7745  1.1385 -0.1337
  733TMC3    H210892   1.288   1.426  13.031  0.9306 -2.4181 -0.4376
  733TMC3    C710893   1.052   1.332  12.919  0.5484  0.3969  0.5688
  733TMC3    C810894   1.307   1.562  13.244 -0.0630  0.9447  0.0777
  733TMC3    O110895   0.936   1.296  12.894  0.0210 -0.2949  0.0437
  733TMC3    O210896   1.377   1.533  13.341  0.0893  0.1656 -0.5990
  734MPD2     C10897   2.238   3.907  11.915 -0.8450 -0.5015 -0.4802
  734MPD2    C110898   2.212   3.830  11.803  0.2914 -0.2307 -0.7713
  734MPD2    C210899   2.233   3.887  11.678  0.3068  0.1985 -0.1894
  734MPD2    C310900   2.285   4.012  11.665 -0.0338  0.3040 -0.1844
  734MPD2    C410901   2.313   4.087  11.777 -0.1239 -0.4244 -0.0046
  734MPD2    C510902   2.291   4.033  11.899 -0.8379  0.3175 -0.1067
  734MPD2     H10903   2.216   3.832  11.586  1.7957 -1.0516  0.2842
  734MPD2    H110904   2.338   4.192  11.773 -0.7796 -0.2960 -0.7413
  734MPD2    H210905   2.207   3.874  12.013  1.6057 -1.0162  0.1245
  734MPD2    H310906   2.322   4.093  11.984  0.0134  0.7440 -0.7125
  734MPD2     N10907   2.290   4.066  11.533  0.2511  0.2313 -0.6286
  734MPD2    H510908   2.252   4.009  11.458  1.3852 -2.0779  0.5618
  734MPD2    N110909   2.174   3.690  11.821 -0.4902 -0.2136  0.1192
  734MPD2    H710910   2.167   3.649  11.914 -1.7136 -0.7757 -0.2229
  735TMC3    C110911   2.172   3.463  11.746  1.1586 -0.0458 -0.0734
  735TMC3    C210912   2.141   3.398  11.632 -0.4254 -0.4684 -0.3860
  735TMC3    C310913   2.215   3.286  11.592  0.1101 -0.8626  0.1432
  735TMC3    C410914   2.285   3.431  11.819  0.8000 -0.2292 -0.0296
  735TMC3    C510915   2.356   3.316  11.780  0.1795  0.6343 -0.4991
  735TMC3    C610916   2.323   3.243  11.668 -0.5818  0.0478  0.4639
  735TMC3     C10917   2.147   3.599  11.717 -0.8595  0.5322 -0.3236
  735TMC3     O10918   2.143   3.624  11.596  0.1548  0.6044  0.3413
  735TMC3     H10919   2.045   3.419  11.587  0.5764 -0.0476 -2.2976
  735TMC3    H110920   2.327   3.490  11.900 -0.2562  0.3029  0.1296
  735TMC3    H210921   2.397   3.173  11.631 -2.6273 -1.1052 -1.4026
  735TMC3    C710922   2.488   3.292  11.843 -0.1269 -1.1211  0.4825
  735TMC3    C810923   2.255   3.299  11.452 -0.2154 -0.7391 -0.3810
  735TMC3    O110924   2.547   3.388  11.902 -0.2993  0.3641 -0.1272
  735TMC3    O210925   2.333   3.213  11.414  0.0446  0.0046 -0.5599
  736MPD2     C10926   2.658   2.960  11.871 -0.6346 -0.2036  0.2327
  736MPD2    C110927   2.640   3.097  11.858  0.4873 -0.0297  0.6814
  736MPD2    C210928   2.757   3.170  11.863  0.0427  0.1596  0.1371
  736MPD2    C310929   2.881   3.112  11.884  0.1200 -0.1669 -0.0284
  736MPD2    C410930   2.894   2.976  11.882  0.3012 -0.1027  0.0114
  736MPD2    C510931   2.779   2.896  11.874  1.2613  0.0023  0.4962
  736MPD2     H10932   2.762   3.278  11.853  0.7990 -0.0950 -2.0829
  736MPD2    H110933   2.991   2.928  11.885 -0.1998 -1.0445  1.2377
  736MPD2    H210934   2.574   2.895  11.850 -0.4099 -1.2339  2.4515
  736MPD2    H310935   2.780   2.788  11.875  0.9958 -0.0086 -1.1356
  736MPD2     N10936   3.006   3.177  11.907  0.4584  0.5443 -0.2466
  736MPD2    H510937   3.083   3.118  11.935 -0.9119  0.4701  3.3422
  736MPD2    N110938   2.515   3.152  11.844  0.0086 -0.6066 -1.2788
  736MPD2    H710939   2.439   3.094  11.810  0.3095 -2.6234  1.5138
  737TMC3    C110940   3.178   3.331  11.891  1.0386 -0.1587  0.1858
  737TMC3    C210941   3.221   3.467  11.896  0.3191  0.9281 -0.0291
  737TMC3    C310942   3.337   3.503  11.844 -0.1337  0.3435  0.6896
  737TMC3    C410943   3.265   3.242  11.845  0.0988  0.1882 -0.2835
  737TMC3    C510944   3.395   3.279  11.809 -0.2744 -0.1648  0.0054
  737TMC3    C610945   3.430   3.405  11.806  0.0967  0.4178  0.7749
  737TMC3     C10946   3.038   3.312  11.883  0.1807 -0.5519 -0.1640
  737TMC3     O10947   2.967   3.413  11.869  0.4980  0.2826 -0.1684
  737TMC3     H10948   3.153   3.545  11.927  0.7230  1.4514 -0.4665
  737TMC3    H110949   3.227   3.150  11.801  2.7371 -0.2849 -1.5934
  737TMC3    H210950   3.533   3.434  11.789  0.1898 -0.1987  0.2953
  737TMC3    C710951   3.481   3.170  11.772 -0.0564  0.4525 -0.0857
  737TMC3    C810952   3.365   3.648  11.823  0.1961 -0.0839 -0.4531
  737TMC3    O110953   3.441   3.061  11.815  0.3741 -0.3171 -0.6897
  737TMC3    O210954   3.310   3.728  11.897 -0.6587 -0.0514 -0.5537
  738MPD2     C10955   3.146   2.687  15.025  0.1042  0.3277 -0.5984
  738MPD2    C110956   3.246   2.590  15.035 -0.1676 -0.5992  0.4606
  738MPD2    C210957   3.371   2.612  14.984 -0.1547  0.0091 -0.1018
  738MPD2    C310958   3.407   2.740  14.935 -0.2424  0.5587 -0.3032
  738MPD2    C410959   3.304   2.840  14.926 -0.0205 -0.5852 -0.7167
  738MPD2    C510960   3.175   2.809  14.969 -0.0396 -0.3955  0.3593
  738MPD2     H10961   3.443   2.530  14.990  1.1979  1.3262  1.5730
  738MPD2    H110962   3.323   2.946  14.912  0.8565 -1.0791 -3.3888
  738MPD2    H210963   3.042   2.664  15.046  0.1976  0.5360  0.1039
  738MPD2    H310964   3.094   2.880  14.963 -0.8089 -0.9464  4.4140
  738MPD2     N10965   3.538   2.782  14.925  0.4217 -0.5028  0.7216
  738MPD2    H510966   3.560   2.855  14.857 -1.4597  0.8920  1.6176
  738MPD2    N110967   3.218   2.459  15.083 -0.2667 -0.2338 -0.5141
  738MPD2    H710968   3.296   2.394  15.083  0.4595  0.6321  1.5767
  739TMC3    C110969   3.771   2.781  14.977 -0.4526  0.2794  0.0147
  739TMC3    C210970   3.815   2.767  14.852 -0.3678  0.5874  0.1487
  739TMC3    C310971   3.949   2.791  14.824  0.1898  0.3322  0.2123
  739TMC3    C410972   3.848   2.803  15.082 -0.1401  0.8140  0.3818
  739TMC3    C510973   3.981   2.829  15.055 -0.5193  0.0934 -0.3081
  739TMC3    C610974   4.034   2.827  14.926 -0.0170  0.5766  0.0826
  739TMC3     C10975   3.637   2.727  15.004 -0.3908  0.1992  0.7283
  739TMC3     O10976   3.625   2.652  15.102 -0.1500 -0.3250  0.1346
  739TMC3     H10977   3.735   2.756  14.781  0.0718  0.5260 -0.3345
  739TMC3    H110978   3.810   2.787  15.182  1.8645  1.5304  1.2824
  739TMC3    H210979   4.138   2.845  14.903 -0.2208  1.1269 -0.4425
  739TMC3    C710980   4.066   2.893  15.150 -0.0631 -0.2452 -0.0126
  739TMC3    C810981   3.980   2.789  14.688 -0.3857 -0.2499  0.0325
  739TMC3    O110982   4.156   2.955  15.103  0.2871  0.3313  0.5012
  739TMC3    O210983   3.904   2.733  14.609 -0.1679 -0.2561 -0.2858
  740TMC3    C110984   4.256   3.962  14.191  0.3959 -0.4096  0.5714
  740TMC3    C210985   4.311   3.890  14.292  0.8432 -0.5654  0.4988
  740TMC3    C310986   4.340   3.755  14.286 -0.7254 -0.4940 -0.5169
  740TMC3    C410987   4.252   3.904  14.072 -0.0666  0.5274 -0.2916
  740TMC3    C510988   4.280   3.763  14.067  0.7010  0.6742 -0.3642
  740TMC3    C610989   4.324   3.685  14.175 -0.3343  0.6528  0.0940
  740TMC3     C10990   4.145   4.046  14.223  0.2929  0.3362 -0.3818
  740TMC3     O10991   4.119   4.136  14.143 -0.4336  0.2015 -0.2201
  740TMC3     H10992   4.334   3.954  14.376  0.4378  3.0367 -2.1336
  740TMC3    H110993   4.195   3.947  13.991  0.1040 -2.0930 -1.8301
  740TMC3    H210994   4.326   3.577  14.167 -0.0752  0.5963  0.9957
  740TMC3    C710995   4.329   3.720  13.939  1.0304 -0.5985  0.9020
  740TMC3    C810996   4.303   3.674  14.402 -0.1408  0.2850 -0.5927
  740TMC3    O110997   4.383   3.611  13.941  0.0682  0.0145  0.4093
  740TMC3    O210998   4.236   3.578  14.378  0.2292 -0.1232 -0.6009
  741TMC3    C110999   3.701   3.252  14.101  1.4401 -0.3155  0.0561
  741TMC3    C211000   3.626   3.139  14.070  0.0026  0.4103  0.4175
  741TMC3    C311001   3.625   3.025  14.151  1.1490  0.2889 -0.1265
  741TMC3    C411002   3.746   3.263  14.230 -1.0135 -0.1601  0.3199
  741TMC3    C511003   3.733   3.150  14.304  0.4258 -0.5848  0.0318
  741TMC3    C611004   3.676   3.031  14.274 -0.3638  1.0184  0.3355
  741TMC3     C11005   3.683   3.375  14.023  0.5107 -0.6585  0.4697
  741TMC3     O11006   3.698   3.477  14.086 -0.2143  0.7582  0.1533
  741TMC3     H11007   3.591   3.136  13.967  1.3002  0.0740 -0.0170
  741TMC3    H111008   3.798   3.347  14.274 -1.3706  0.7849 -1.0855
  741TMC3    H211009   3.673   2.947  14.343  1.2784 -1.7523 -2.9291
  741TMC3    C711010   3.788   3.150  14.445  0.2980 -0.1235 -0.2202
  741TMC3    C811011   3.535   2.921  14.104 -0.4370 -0.0021  0.9620
  741TMC3    O111012   3.725   3.072  14.515 -0.1409  0.8016 -0.6424
  741TMC3    O211013   3.479   2.935  13.993 -0.0486 -0.0497  0.3254
  742TMC3    C111014   3.329   1.718  15.196 -0.4619 -1.1692 -0.0391
  742TMC3    C211015   3.256   1.641  15.103 -0.9436 -0.5229  0.0598
  742TMC3    C311016   3.326   1.603  14.991 -0.5326  0.1333 -0.5031
  742TMC3    C411017   3.467   1.736  15.193 -0.6090  0.1185  0.0855
  742TMC3    C511018   3.527   1.686  15.079 -0.2828  0.5836 -1.1024
  742TMC3    C611019   3.461   1.612  14.984 -0.0489 -0.3691 -0.1054
  742TMC3     C11020   3.261   1.767  15.315 -0.3331 -0.5521 -0.1846
  742TMC3     O11021   3.152   1.719  15.341 -0.8345 -0.0731 -0.6772
  742TMC3     H11022   3.148   1.642  15.113 -0.7332 -1.2509  2.5599
  742TMC3    H111023   3.512   1.798  15.269  0.0684  0.5143 -0.6446
  742TMC3    H211024   3.516   1.575  14.898 -0.0338 -1.3585  0.3269
  742TMC3    C711025   3.671   1.683  15.079 -0.4807 -0.1128 -0.4873
  742TMC3    C811026   3.261   1.550  14.878 -0.3018 -0.0533  0.7480
  742TMC3    O111027   3.727   1.598  15.011 -0.1217 -0.3849 -0.2693
  742TMC3    O211028   3.324   1.470  14.806  0.1493 -0.5352  0.1245
  743MPD2     C11029   2.636   1.939   1.634  0.4036  0.0146  0.2264
  743MPD2    C111030   2.577   2.030   1.548  0.2974 -0.3624 -0.6864
  743MPD2    C211031   2.647   2.138   1.497  0.0114 -0.1691 -0.2600
  743MPD2    C311032   2.786   2.140   1.505  0.8494  0.1973 -0.8007
  743MPD2    C411033   2.850   2.039   1.575 -0.0355 -0.5692 -0.1099
  743MPD2    C511034   2.774   1.953   1.652  0.5765 -0.1912  0.1343
  743MPD2     H11035   2.593   2.214   1.442 -0.2566  0.0619  0.3254
  743MPD2    H111036   2.957   2.034   1.593  0.1579 -0.3176 -1.1726
  743MPD2    H211037   2.592   1.851   1.679 -0.4605  1.2696  1.8140
  743MPD2    H311038   2.829   1.879   1.710 -0.3681  0.5070  1.9113
  743MPD2     N11039   2.848   2.244   1.431 -0.0533 -0.1218 -0.5188
  743MPD2    H511040   2.788   2.317   1.394 -1.7209 -2.2540 -2.0410
  743MPD2    N111041   2.434   2.009   1.537  0.4896 -0.2707 -1.0949
  743MPD2    H711042   2.392   1.923   1.571  0.1507  0.2606 -0.1727
  744TMC3    C111043   2.213   2.064   1.471  0.6430 -0.0920 -0.4000
  744TMC3    C211044   2.162   1.983   1.566 -0.6327 -0.3555 -0.1906
  744TMC3    C311045   2.033   1.951   1.563  0.0655  0.1227 -0.3200
  744TMC3    C411046   2.136   2.109   1.372  0.2053 -0.8055  0.2353
  744TMC3    C511047   1.999   2.075   1.367 -0.9205  0.2083 -0.4849
  744TMC3    C611048   1.947   1.990   1.465 -0.0956 -0.4097 -0.1937
  744TMC3     C11049   2.346   2.097   1.477 -0.8682  0.0293 -0.3654
  744TMC3     O11050   2.379   2.196   1.409 -0.7390 -0.4441  0.2987
  744TMC3     H11051   2.220   1.965   1.655  0.1769  1.8713 -0.2771
  744TMC3    H111052   2.167   2.190   1.307  1.7229 -0.6822  1.1067
  744TMC3    H211053   1.843   1.964   1.473  0.0343 -0.8053  0.1918
  744TMC3    C711054   1.922   2.114   1.255 -0.6314 -0.6232  0.5953
  744TMC3    C811055   1.966   1.875   1.665 -0.0033  0.0893  0.2963
  744TMC3    O111056   1.970   2.181   1.164  0.3145  0.5934  0.1345
  744TMC3    O211057   1.853   1.900   1.700 -0.1524  0.0252 -0.1537
  745TMC3    C111058   4.381   1.172  13.841 -1.3638 -0.6429 -0.4328
  745TMC3    C211059   4.316   1.145  13.954  0.0062  0.2074  0.3428
  745TMC3    C311060   4.201   1.211  13.981  0.3807  0.7315  0.1528
  745TMC3    C411061   4.332   1.244  13.740  0.2761 -0.0729  1.6325
  745TMC3    C511062   4.212   1.306  13.765 -0.1161 -0.1129 -0.6752
  745TMC3    C611063   4.147   1.285  13.881 -0.3822  0.4041 -0.2793
  745TMC3     C11064   4.518   1.213  13.878 -0.5364 -0.1600  0.0302
  745TMC3     O11065   4.548   1.247  13.997 -0.2587  0.4816 -0.1831
  745TMC3     H11066   4.369   1.091  14.032 -0.3869  0.2034  0.6088
  745TMC3    H111067   4.388   1.251  13.648 -0.5470 -1.0158  1.0591
  745TMC3    H211068   4.057   1.345  13.891 -0.2686  0.8096 -1.8050
  745TMC3    C711069   4.167   1.409  13.673  0.2074  0.7052  0.1370
  745TMC3    C811070   4.205   1.275  14.112  0.5666 -0.3599 -0.0252
  745TMC3    O111071   4.049   1.419  13.646  0.5011 -0.1864 -0.2284
  745TMC3    O211072   4.184   1.396  14.116 -0.0413 -0.3406 -0.0668
  746TMC3    C111073   2.118   3.169  11.098  0.2369 -0.2687 -0.1751
  746TMC3    C211074   2.184   3.148  10.981 -0.3897  0.2768  0.2863
  746TMC3    C311075   2.161   3.025  10.924 -0.7989  0.3774  0.5522
  746TMC3    C411076   2.063   3.068  11.173  0.0903 -0.1241 -0.6356
  746TMC3    C511077   2.038   2.944  11.109 -0.6917 -1.0162 -0.1412
  746TMC3    C611078   2.092   2.921  10.983 -0.1729 -0.1869  0.1913
  746TMC3     C11079   2.036   3.291  11.105  1.0608 -0.5959  0.4495
  746TMC3     O11080   1.937   3.270  11.173 -0.1873  0.7966  0.2342
  746TMC3     H11081   2.249   3.219  10.932  0.3679 -0.1403  0.6881
  746TMC3    H111082   2.020   3.096  11.268 -0.7545  0.7542 -1.2794
  746TMC3    H211083   2.066   2.834  10.924 -0.4898  0.8290 -1.1632
  746TMC3    C711084   1.897   2.919  11.103 -0.5444 -0.1720  0.0183
  746TMC3    C811085   2.180   3.013  10.780  0.9717 -0.0856 -0.0590
  746TMC3    O111086   1.860   2.861  11.001  0.7307  1.1920  0.4996
  746TMC3    O211087   2.196   2.902  10.735  0.1508 -0.3255  0.4598
  747TMC3    C111088   4.376   3.164  11.211 -0.3165  0.7433 -0.5255
  747TMC3    C211089   4.270   3.098  11.262  0.7928  0.8636 -0.5902
  747TMC3    C311090   4.198   3.163  11.356 -0.0714 -0.4010 -1.0426
  747TMC3    C411091   4.419   3.280  11.270  0.6725 -0.8817 -1.1173
  747TMC3    C511092   4.346   3.339  11.368 -0.2561  0.8245 -0.3003
  747TMC3    C611093   4.227   3.280  11.413 -0.0327 -0.3200 -0.1093
  747TMC3     C11094   4.453   3.127  11.094 -0.1504  0.1448 -0.3455
  747TMC3     O11095   4.564   3.174  11.082  0.1433  0.3060 -0.5736
  747TMC3     H11096   4.236   3.004  11.221 -0.1643  0.1874  1.7096
  747TMC3    H111097   4.514   3.324  11.241  1.0572 -0.6562  0.4706
  747TMC3    H211098   4.163   3.332  11.483  0.3014  2.1457 -1.6406
  747TMC3    C711099   4.378   3.471  11.405 -0.3832 -0.7814 -0.4620
  747TMC3    C811100   4.110   3.071  11.426  0.1766  0.0546  0.5925
  747TMC3    O111101   4.444   3.548  11.338 -0.0017 -0.0234 -0.3150
  747TMC3    O211102   4.127   2.952  11.407  0.0387  0.1130 -0.0181
  748MPD2     C11103   4.621   3.325   1.046  0.5818  0.2018  0.0155
  748MPD2    C111104   4.637   3.445   1.112 -0.5804 -0.1844  0.0326
  748MPD2    C211105   0.005   3.462   1.195 -1.2189  0.2051  0.2798
  748MPD2    C311106   0.093   3.363   1.223  0.1780 -0.0825  0.5299
  748MPD2    C411107   0.073   3.241   1.161  0.4011 -0.6666 -0.6861
  748MPD2    C511108   4.700   3.220   1.079 -0.3796 -0.2001 -0.3680
  748MPD2     H11109   0.035   3.551   1.250 -0.1265  0.5187 -0.8253
  748MPD2    H111110   0.134   3.152   1.162  3.8293  1.7577  3.3170
  748MPD2    H211111   4.534   3.311   0.983  0.2151 -1.3288  0.8659
  748MPD2    H311112   4.699   3.131   1.018 -0.1331 -0.3839 -0.1077
  748MPD2     N11113   0.201   3.399   1.310 -0.3624 -0.0778 -0.3225
  748MPD2    H511114   0.196   3.492   1.351  2.5880  0.6483 -1.6048
  748MPD2    N111115   4.530   3.538   1.102  0.8425  0.0615 -0.5666
  748MPD2    H711116   4.450   3.502   1.050  0.8866  1.9333 -1.9140
  749TMC3    C111117   0.402   3.385   1.410  0.0960  0.4913 -0.2528
  749TMC3    C211118   0.470   3.303   1.495  0.1325  0.0302  0.0430
  749TMC3    C311119   0.602   3.335   1.525 -0.0199 -1.3068 -0.9695
  749TMC3    C411120   0.457   3.497   1.352 -0.1214  0.0620 -0.5644
  749TMC3    C511121   0.591   3.517   1.385  0.4228 -0.3969  1.1059
  749TMC3    C611122   0.664   3.438   1.464  0.5148  0.1893  0.0744
  749TMC3     C11123   0.300   3.317   1.344  0.3241  0.0687  0.2291
  749TMC3     O11124   0.319   3.196   1.326  0.0875  0.4844 -0.4034
  749TMC3     H11125   0.422   3.226   1.555  1.0191 -0.4133  0.1851
  749TMC3    H111126   0.405   3.574   1.297  2.7783  2.1225 -0.3625
  749TMC3    H211127   0.764   3.476   1.482  0.2525  1.6679 -1.6230
  749TMC3    C711128   0.666   3.622   1.314 -0.6609  0.0397 -0.6765
  749TMC3    C811129   0.667   3.282   1.638  0.0494  0.3747  0.1792
  749TMC3    O111130   0.787   3.622   1.314 -0.6086  0.3927  0.1625
  749TMC3    O211131   0.608   3.214   1.725 -0.5354  0.2323  0.5509
  750MPD2     C11132   1.815   0.241  11.354 -0.1775 -0.3442 -0.4872
  750MPD2    C111133   1.693   0.174  11.370  0.1906  0.2034 -0.8770
  750MPD2    C211134   1.634   0.109  11.262 -0.1270  0.1668 -0.3111
  750MPD2    C311135   1.705   0.095  11.139  0.2812  0.1949  0.0568
  750MPD2    C411136   1.833   0.145  11.143 -0.7633 -0.0279  0.8105
  750MPD2    C511137   1.885   0.209  11.251  0.3141 -0.3969  0.1214
  750MPD2     H11138   1.540   0.056  11.275 -0.7047  1.0517 -0.8758
  750MPD2    H111139   1.911   0.126  11.069 -2.2615 -0.3831 -0.6787
  750MPD2    H211140   1.854   0.305  11.432  0.6445 -0.9466 -0.4110
  750MPD2    H311141   1.992   0.230  11.247  0.5984 -1.7115  0.7329
  750MPD2     N11142   1.659   0.031  11.020 -0.2017 -0.5953 -0.1674
  750MPD2    H511143   1.733   0.011  10.954  0.3225  0.5864  0.0564
  750MPD2    N111144   1.616   0.204  11.490  0.3288  0.5612 -0.4573
  750MPD2    H711145   1.661   0.266  11.557  1.5693  0.3118 -1.0456
  751TMC3    C111146   1.518   4.638  10.883 -0.2456 -0.1094  0.4287
  751TMC3    C211147   1.406   4.558  10.894 -1.1507 -0.9477  0.8076
  751TMC3    C311148   1.421   4.435  10.843  0.3521  0.5154  0.6505
  751TMC3    C411149   1.633   4.597  10.805 -0.6581  0.0256 -0.7662
  751TMC3    C511150   1.618   4.483  10.736 -0.1381  0.0939  0.4709
  751TMC3    C611151   1.517   4.394  10.752 -0.9102 -0.2654  0.3517
  751TMC3     C11152   1.531   4.724  11.001 -0.0038  0.4441  0.7006
  751TMC3     O11153   1.438   4.729  11.081 -0.3784 -0.0710 -0.3431
  751TMC3     H11154   1.312   4.591  10.936 -0.8001  0.5999  0.3760
  751TMC3    H111155   1.706   4.670  10.773 -0.1576 -0.8473 -1.6276
  751TMC3    H211156   1.521   4.290  10.723  0.0465  0.0553 -0.6733
  751TMC3    C711157   1.712   4.466  10.635  0.8457  0.2976  0.2028
  751TMC3    C811158   1.317   4.342  10.859  0.2325  0.1187  0.3826
  751TMC3    O111159   1.814   4.537  10.629 -0.1437  0.3301 -0.0712
  751TMC3    O211160   1.306   4.268  10.765 -0.3531  0.2460  0.2747
  752TMC3    C111161   0.504   0.323  16.749 -0.8194 -0.0599 -0.1446
  752TMC3    C211162   0.546   0.285  16.875  0.4971  0.0052 -0.1518
  752TMC3    C311163   0.609   0.378  16.948  0.6122 -0.7660 -0.1223
  752TMC3    C411164   0.515   0.455  16.704  0.1510 -0.7137  0.1986
  752TMC3    C511165   0.582   0.539  16.785  0.0047 -0.2495 -0.1129
  752TMC3    C611166   0.627   0.506  16.912 -0.7583 -0.2238  0.3439
  752TMC3     C11167   0.454   0.213  16.674 -0.5051 -0.8533 -0.0621
  752TMC3     O11168   0.499   0.107  16.707  0.4073  0.4135 -0.0949
  752TMC3     H11169   0.550   0.185  16.915  0.9539 -0.3641 -1.1462
  752TMC3    H111170   0.500   0.490  16.603  0.6536  1.5115  0.8965
  752TMC3    H211171   0.685   0.569  16.978 -1.7571 -1.4621  2.3807
  752TMC3    C711172   0.606   0.675  16.738 -0.3771 -0.2518  0.5862
  752TMC3    C811173   0.610   0.366  17.083 -0.3081  0.3176 -0.4820
  752TMC3    O111174   0.590   0.696  16.618 -0.5936 -0.2932 -0.4690
  752TMC3    O211175   0.711   0.405  17.141  0.2871 -0.7881  0.4895
  753TMC3    C111176   2.935   1.683  13.309  0.6966 -0.3815  0.0897
  753TMC3    C211177   3.057   1.667  13.356 -0.2943 -0.8835  0.4472
  753TMC3    C311178   3.108   1.539  13.333  0.5128 -0.3223 -0.5120
  753TMC3    C411179   2.866   1.584  13.260  0.7342  0.1553 -0.3422
  753TMC3    C511180   2.921   1.464  13.230  0.2378 -0.3746  0.0458
  753TMC3    C611181   3.055   1.448  13.248  1.0142 -0.1721  0.0241
  753TMC3     C11182   2.895   1.819  13.281 -0.5438  0.4375 -0.4237
  753TMC3     O11183   2.792   1.842  13.217 -0.5124  0.2978 -0.2466
  753TMC3     H11184   3.132   1.738  13.389  0.6338 -1.8742  0.4773
  753TMC3    H111185   2.758   1.598  13.254  0.3047 -2.3042  1.7035
  753TMC3    H211186   3.110   1.356  13.231 -2.3926 -2.1121 -0.6281
  753TMC3    C711187   2.830   1.365  13.185 -0.1455  0.3245  0.2312
  753TMC3    C811188   3.229   1.502  13.402  0.0769 -0.6260 -0.2444
  753TMC3    O111189   2.719   1.402  13.147  0.1746 -0.4915 -0.2798
  753TMC3    O211190   3.303   1.425  13.343 -0.4858  0.0304 -0.1826
  754MPD2     C11191   1.507   4.417  12.988 -0.0953  0.2859 -0.0387
  754MPD2    C111192   1.480   4.285  13.013  0.5585  0.0326 -1.0755
  754MPD2    C211193   1.361   4.254  13.063 -0.2917  0.0188 -0.2400
  754MPD2    C311194   1.266   4.352  13.092  0.1059 -0.6296 -0.1327
  754MPD2    C411195   1.297   4.486  13.080  0.3522 -0.1772  0.0916
  754MPD2    C511196   1.420   4.513  13.029 -0.0696 -0.0082  0.3710
  754MPD2     H11197   1.351   4.148  13.083 -0.2688  0.0138 -0.2553
  754MPD2    H111198   1.236   4.571  13.109  0.1558 -0.1339 -0.4319
  754MPD2    H211199   1.604   4.450  12.953 -0.2759  1.5513  0.6635
  754MPD2    H311200   1.428   4.619  13.012 -0.3207 -0.1959 -0.8593
  754MPD2     N11201   1.129   4.317  13.130 -0.0261  0.1185 -0.3954
  754MPD2    H511202   1.067   4.391  13.162  0.2509  0.5864 -0.9220
  754MPD2    N111203   1.584   4.189  12.988 -0.3271  0.1345 -0.4645
  754MPD2    H711204   1.658   4.227  12.931  1.3156 -0.5348  1.2363
  755MPD2     C11205   0.268   4.638  13.378  0.5725  0.4900  0.1139
  755MPD2    C111206   0.393   4.662  13.421  0.2352 -0.1388  0.0504
  755MPD2    C211207   0.486   4.558  13.391  0.1028  0.1821  0.1639
  755MPD2    C311208   0.455   4.445  13.317  0.8625 -0.1984  1.2757
  755MPD2    C411209   0.328   4.433  13.264  0.8284  0.2017 -0.0539
  755MPD2    C511210   0.230   4.524  13.303 -0.2505 -0.2607 -0.3020
  755MPD2     H11211   0.586   4.576  13.426 -0.0889  0.8332  0.3682
  755MPD2    H111212   0.294   4.344  13.211 -1.8299  2.1713 -1.6780
  755MPD2    H211213   0.190   4.712  13.391 -0.7321 -0.7290 -0.6828
  755MPD2    H311214   0.127   4.515  13.270 -0.7649 -0.9832  1.5051
  755MPD2     N11215   0.551   4.341  13.291 -0.6197  0.3547 -0.8430
  755MPD2    H511216   0.508   4.259  13.251 -0.5186  0.3022 -0.8431
  755MPD2    N111217   0.437   0.048  13.483 -0.2151 -0.7240  0.3844
  755MPD2    H711218   0.537   0.062  13.494  0.0240 -1.2431 -1.1545
  756MPD2     C11219   1.615   1.056  10.022 -0.1164  0.0082  0.1289
  756MPD2    C111220   1.536   0.954   9.978 -0.1761  0.3480 -1.0370
  756MPD2    C211221   1.457   0.977   9.869  0.0795 -0.4332  0.6408
  756MPD2    C311222   1.452   1.102   9.803 -0.9780 -0.4224  0.4639
  756MPD2    C411223   1.531   1.201   9.850 -1.0413 -0.0953 -0.5988
  756MPD2    C511224   1.609   1.177   9.962 -1.0030 -0.0694 -0.0749
  756MPD2     H11225   1.401   0.895   9.824  1.0491 -0.8980  0.2704
  756MPD2    H111226   1.542   1.299   9.805 -0.6666 -0.4164 -1.2061
  756MPD2    H211227   1.688   1.055  10.103  0.3607 -1.6452 -0.3322
  756MPD2    H311228   1.675   1.254  10.000 -0.3622 -0.9199  0.5397
  756MPD2     N11229   1.364   1.121   9.690 -0.4174  0.3126  0.5722
  756MPD2    H511230   1.314   1.043   9.649 -0.4631  0.4519  0.3618
  756MPD2    N111231   1.528   0.830  10.039  0.2758  0.0585  0.1788
  756MPD2    H711232   1.461   0.760  10.007  2.2159 -1.7777  0.1005
  757MPD2     C11233   1.165   0.472   9.197  0.7059 -0.7470 -0.1764
  757MPD2    C111234   1.179   0.508   9.327 -0.0983  0.3746  0.3042
  757MPD2    C211235   1.175   0.650   9.365 -0.5408 -0.1705 -0.8565
  757MPD2    C311236   1.161   0.747   9.267 -0.3524 -0.1710 -0.8428
  757MPD2    C411237   1.153   0.707   9.138  0.3057  0.3854 -0.1770
  757MPD2    C511238   1.146   0.570   9.111  0.3394 -0.1218 -0.1260
  757MPD2     H11239   1.203   0.687   9.462 -1.1966 -2.1576  0.0868
  757MPD2    H111240   1.144   0.777   9.056  0.8888 -0.6015 -1.0758
  757MPD2    H211241   1.166   0.370   9.161  0.9913 -0.2392 -1.6204
  757MPD2    H311242   1.129   0.529   9.012 -1.1351  0.7002 -0.2054
  757MPD2     N11243   1.172   0.879   9.311 -0.3080  0.2065  0.0531
  757MPD2    H511244   1.168   0.880   9.412 -1.4081  0.4156  0.0072
  757MPD2    N111245   1.199   0.407   9.416 -0.0808  0.3067 -0.3334
  757MPD2    H711246   1.211   0.314   9.378 -1.5086 -0.5440  1.2862
  758MPD2     C11247   1.149   4.058  16.243 -0.0067 -0.1050  0.0642
  758MPD2    C111248   1.260   4.067  16.327  0.1126 -0.3398 -0.2947
  758MPD2    C211249   1.242   4.121  16.452  0.2209 -0.2333  0.3173
  758MPD2    C311250   1.118   4.181  16.487  0.3205 -0.4813 -0.2324
  758MPD2    C411251   1.013   4.179  16.400  0.3924 -0.2550 -0.5633
  758MPD2    C511252   1.030   4.109  16.279 -0.4275  0.4399 -0.5895
  758MPD2     H11253   1.325   4.132  16.521  1.6888  0.8631 -1.6563
  758MPD2    H111254   0.916   4.221  16.425 -1.3258 -2.3654 -3.5748
  758MPD2    H211255   1.157   4.006  16.149  0.7089 -0.4150  0.2947
  758MPD2    H311256   0.942   4.102  16.216 -0.8994  0.1960  0.0950
  758MPD2     N11257   1.084   4.259  16.602  0.3167  0.3728  0.0456
  758MPD2    H511258   0.989   4.296  16.595 -0.5273 -1.9465 -0.6475
  758MPD2    N111259   1.382   4.012  16.279 -0.7243  0.3487  0.4313
  758MPD2    H711260   1.386   3.973  16.186  0.8372 -0.1765  0.7121
  759MPD2     C11261   0.274   2.959   9.984 -0.7454  0.2974 -0.2165
  759MPD2    C111262   0.393   2.889   9.969  0.0648  0.0446 -1.0749
  759MPD2    C211263   0.511   2.957   9.941  0.7696 -0.2614  0.0254
  759MPD2    C311264   0.497   3.087   9.892 -0.8742 -0.0112  0.3176
  759MPD2    C411265   0.372   3.142   9.887  0.2891  0.4894  0.0113
  759MPD2    C511266   0.260   3.085   9.937 -0.3597 -0.6339  0.1703
  759MPD2     H11267   0.607   2.907   9.950  0.2601 -1.0991  0.7344
  759MPD2    H111268   0.367   3.243   9.847 -0.1711  0.8680  1.0042
  759MPD2    H211269   0.186   2.907  10.019 -1.0868  0.2738 -1.0929
  759MPD2    H311270   0.164   3.134   9.942  2.2188  4.4057  0.1784
  759MPD2     N11271   0.611   3.150   9.848  0.3350  0.1092  0.3698
  759MPD2    H511272   0.689   3.085   9.848 -0.2243 -0.5696  2.4097
  759MPD2    N111273   0.414   2.750  10.004  0.4381 -0.3923 -0.3060
  759MPD2    H711274   0.495   2.704   9.964 -0.3524 -1.8045 -0.2631
  760MPD2     C11275   4.275   0.349  12.119  0.7754  0.5615  0.1741
  760MPD2    C111276   4.307   0.283  12.234  0.7669 -0.0841  0.9083
  760MPD2    C211277   4.416   0.209  12.241 -0.5379 -0.1081  1.0729
  760MPD2    C311278   4.483   0.177  12.126  0.1633  0.3132 -0.0158
  760MPD2    C411279   4.448   0.231  12.004  0.7366  0.1860 -0.3722
  760MPD2    C511280   4.345   0.329  12.004 -0.0152 -0.5982 -0.0216
  760MPD2     H11281   4.435   0.157  12.335 -1.6420  1.4637  2.1461
  760MPD2    H111282   4.494   0.213  11.907  3.3626 -0.8673  1.0840
  760MPD2    H211283   4.192   0.419  12.118  1.4419  1.3583  0.9942
  760MPD2    H311284   4.304   0.388  11.924 -0.5469 -1.5130 -0.4268
  760MPD2     N11285   4.594   0.089  12.120  0.3894 -0.2223  0.6225
  760MPD2    H511286   4.642   0.078  12.032 -0.0845  0.2129  0.3097
  760MPD2    N111287   4.238   0.295  12.359  0.7642 -0.0497 -0.1643
  760MPD2    H711288   4.278   0.250  12.441  0.9656 -0.3905 -0.4446
  761MPD2     C11289   0.931   4.101  11.095 -0.0720  0.4596 -0.9240
  761MPD2    C111290   0.984   4.080  10.967  0.1276  0.2648  0.6172
  761MPD2    C211291   1.071   4.176  10.915  0.0345  0.6050 -0.2507
  761MPD2    C311292   1.127   4.269  11.006 -0.1587 -0.2083 -0.0352
  761MPD2    C411293   1.083   4.280  11.134 -0.6207  0.6060  0.2312
  761MPD2    C511294   0.980   4.197  11.178  1.1394 -0.0022  0.3263
  761MPD2     H11295   1.101   4.172  10.811  1.4951 -2.9826  0.3378
  761MPD2    H111296   1.123   4.345  11.210  2.0033 -0.5117 -0.2145
  761MPD2    H211297   0.866   4.022  11.131 -0.0913  1.1611  0.5818
  761MPD2    H311298   0.947   4.196  11.281 -0.2316  1.7508 -0.0839
  761MPD2     N11299   1.230   4.361  10.965  0.2570  0.3916 -1.6084
  761MPD2    H511300   1.258   4.434  11.030 -1.3001 -1.0408  0.6608
  761MPD2    N111301   0.942   3.967  10.897 -0.8118 -0.8291  0.2819
  761MPD2    H711302   0.891   3.900  10.953 -2.3099  0.5833  0.5987
  762MPD2     C11303   1.444   3.997  10.899  0.2099 -0.0667  0.3660
  762MPD2    C111304   1.434   3.885  10.825  0.2235 -0.1877 -0.0707
  762MPD2    C211305   1.532   3.856  10.733 -0.3438 -0.1788  0.0492
  762MPD2    C311306   1.646   3.929  10.728 -0.2496  0.7976 -0.5177
  762MPD2    C411307   1.665   4.039  10.808  0.3987  0.5342  0.4102
  762MPD2    C511308   1.560   4.074  10.892  0.3248 -0.1486  0.1979
  762MPD2     H11309   1.511   3.789  10.650 -2.7320 -1.4030  1.6241
  762MPD2    H111310   1.752   4.102  10.819  1.9775 -1.1345 -2.4240
  762MPD2    H211311   1.372   4.031  10.972 -0.4746  0.6997 -0.6521
  762MPD2    H311312   1.569   4.162  10.955  1.6447 -0.8200  0.9509
  762MPD2     N11313   1.746   3.877  10.641  0.1215  0.4363 -0.1801
  762MPD2    H511314   1.719   3.805  10.575  0.6610  0.5600 -0.5411
  762MPD2    N111315   1.328   3.801  10.834 -0.1324  0.2666  0.0141
  762MPD2    H711316   1.253   3.834  10.894  0.1712  0.5694  0.2284
  763MPD2     C11317   2.497   4.392  16.096 -0.0685 -0.4452  0.5513
  763MPD2    C111318   2.623   4.340  16.083  0.1462  0.5080  0.5504
  763MPD2    C211319   2.708   4.363  16.188 -0.4189 -0.1061 -0.2041
  763MPD2    C311320   2.665   4.443  16.294  0.5232 -0.2581  0.0863
  763MPD2    C411321   2.538   4.499  16.303 -0.2008 -0.0649 -1.0599
  763MPD2    C511322   2.450   4.452  16.211 -0.0902  0.4699  0.6488
  763MPD2     H11323   2.814   4.353  16.171 -0.4976  2.5335 -2.3431
  763MPD2    H111324   2.506   4.565  16.382  2.6870 -0.6143  0.5338
  763MPD2    H211325   2.422   4.386  16.017  0.1116 -1.3752  0.4460
  763MPD2    H311326   2.352   4.498  16.211 -0.1542  0.3302  0.3369
  763MPD2     N11327   2.763   4.463  16.397  0.4312 -0.6325  0.2529
  763MPD2    H511328   2.854   4.419  16.390 -0.1505 -1.7414 -0.3699
  763MPD2    N111329   2.679   4.284  15.961  0.4600  0.4515 -0.1955
  763MPD2    H711330   2.780   4.270  15.959  0.4018  0.0380 -0.1532
  764MPD2     C11331   1.185   1.134  17.717  0.0357 -0.2989  0.8209
  764MPD2    C111332   1.071   1.191  17.663  0.2928 -0.0195  0.4184
  764MPD2    C211333   0.948   1.168  17.726 -0.1083  0.1115  1.4172
  764MPD2    C311334   0.943   1.083   0.094  0.1475  0.4421 -0.5083
  764MPD2    C411335   1.062   1.025   0.140 -0.3766 -0.5217 -0.2340
  764MPD2    C511336   1.182   1.052   0.084 -0.5468  0.1675  0.7735
  764MPD2     H11337   0.858   1.216  17.689  0.1494 -1.5066 -1.3403
  764MPD2    H111338   1.066   0.975   0.236 -0.9393  0.9582  0.5702
  764MPD2    H211339   1.283   1.150  17.673  0.1311 -0.3104  1.0295
  764MPD2    H311340   1.270   1.018   0.138 -0.1952 -1.9070 -1.1158
  764MPD2     N11341   0.813   1.065   0.160  0.4710  0.5105 -0.0475
  764MPD2    H511342   0.741   1.130   0.131  1.5874  0.4397 -3.0040
  764MPD2    N111343   1.079   1.235  17.532 -0.0274 -0.4044 -0.0433
  764MPD2    H711344   1.166   1.218  17.484 -0.7682 -1.7870 -0.9102
  765MPD2     C11345   0.686   3.663  15.311 -0.2800 -0.2322 -0.3005
  765MPD2    C111346   0.748   3.689  15.429  0.0920  0.6665  0.1397
  765MPD2    C211347   0.876   3.647  15.458  0.0339 -0.3650 -0.0570
  765MPD2    C311348   0.936   3.561  15.373 -0.2002 -0.6902 -0.2420
  765MPD2    C411349   0.876   3.532  15.252  0.0066 -0.4440 -0.2387
  765MPD2    C511350   0.751   3.585  15.219  0.1964  0.0995  0.3804
  765MPD2     H11351   0.911   3.674  15.556  0.4044  0.7221 -0.4893
  765MPD2    H111352   0.928   3.475  15.176  0.5207 -0.3466  0.0330
  765MPD2    H211353   0.587   3.703  15.291  0.3423  1.7649  0.5907
  765MPD2    H311354   0.707   3.565  15.122  1.8095 -0.8914 -0.1505
  765MPD2     N11355   1.052   3.501  15.410  0.2438  0.2734 -0.1468
  765MPD2    H511356   1.085   3.528  15.502 -0.7676  1.7242 -0.2197
  765MPD2    N111357   0.664   3.765  15.513 -0.1474  0.4120 -0.3026
  765MPD2    H711358   0.570   3.786  15.484  0.0257  1.5404 -0.0559
  766MPD2     C11359   0.177   3.795  15.233 -0.7837  0.4250  0.4680
  766MPD2    C111360   0.306   3.845  15.245  0.2306  0.1261  0.4691
  766MPD2    C211361   0.384   3.846  15.132  0.2229 -0.2454  0.5787
  766MPD2    C311362   0.340   3.810  15.013 -0.3034 -0.6327 -0.0853
  766MPD2    C411363   0.215   3.763  15.003  0.7701 -0.5410 -0.4046
  766MPD2    C511364   0.138   3.744  15.112  0.5428 -0.1489  0.6175
  766MPD2     H11365   0.485   3.884  15.138 -0.0925  0.8354 -1.1282
  766MPD2    H111366   0.173   3.725  14.911  0.2557 -2.6422  0.6986
  766MPD2    H211367   0.100   3.799  15.309 -0.4895 -0.6646  0.8170
  766MPD2    H311368   0.035   3.710  15.100  0.6304  0.9259 -3.1659
  766MPD2     N11369   0.416   3.819  14.895 -0.7271  0.3139  0.3964
  766MPD2    H511370   0.373   3.798  14.806 -1.4304 -2.7314  1.4683
  766MPD2    N111371   0.363   3.893  15.364 -0.1306  0.2792  0.5872
  766MPD2    H711372   0.451   3.941  15.355  0.6162 -0.9111  1.5248
  767MPD2     C11373   4.687   4.020  15.053  0.5532 -0.2324  0.0971
  767MPD2    C111374   0.057   4.077  14.985  0.6101  0.2609 -0.3635
  767MPD2    C211375   0.061   4.068  14.852 -0.0455 -0.1217  0.4372
  767MPD2    C311376   4.701   3.998  14.781  0.3162 -0.0351  0.4379
  767MPD2    C411377   4.595   3.936  14.851 -0.4711 -0.0540 -0.2108
  767MPD2    C511378   4.590   3.951  14.988  0.3065 -0.0542 -0.7275
  767MPD2     H11379   0.135   4.114  14.788 -1.9950 -0.5069 -2.0872
  767MPD2    H111380   4.540   3.856  14.802 -4.0410  3.1018 -1.3534
  767MPD2    H211381   4.693   4.021  15.162  2.6443 -0.9332 -0.0100
  767MPD2    H311382   4.518   3.898  15.049 -0.2773  1.0036 -0.4987
  767MPD2     N11383   4.731   3.978  14.648  0.3073  0.2085  0.1686
  767MPD2    H511384   0.093   3.988  14.626  0.3096 -0.0358  0.0672
  767MPD2    N111385   0.160   4.140  15.056 -0.2323 -0.4574 -0.0146
  767MPD2    H711386   0.158   4.135  15.158 -0.0047  2.4201  0.1404
  768MPD2     C11387   0.998   2.578  10.649  0.6211  0.0397  0.5213
  768MPD2    C111388   1.057   2.647  10.748 -1.2620 -0.2069  0.4921
  768MPD2    C211389   1.086   2.588  10.869  0.2669  0.4218 -0.2854
  768MPD2    C311390   1.082   2.452  10.888 -0.3343  0.4338 -0.0838
  768MPD2    C411391   1.042   2.379  10.776 -0.1465  0.2517 -0.9703
  768MPD2    C511392   0.989   2.442  10.664  0.1560  0.8149  0.6853
  768MPD2     H11393   1.137   2.655  10.937  1.6823 -0.7488 -0.2030
  768MPD2    H111394   1.044   2.270  10.780 -1.5203  0.2852  0.5315
  768MPD2    H211395   0.972   2.622  10.553  1.2357  1.0160  0.7982
  768MPD2    H311396   0.967   2.377  10.580  0.9356 -0.6270  1.5915
  768MPD2     N11397   1.138   2.387  11.005  0.5642 -0.0594  0.3070
  768MPD2    H511398   1.156   2.288  10.992  1.2220  0.0629  0.3140
  768MPD2    N111399   1.098   2.776  10.735  0.6448  0.3080  0.0903
  768MPD2    H711400   1.117   2.827  10.821 -0.2530  1.2345 -0.2589
  769MPD2     C11401   1.960   0.633  14.568  0.2398  0.8586 -0.7570
  769MPD2    C111402   1.872   0.617  14.670 -0.1476  0.1550  0.6752
  769MPD2    C211403   1.914   0.627  14.800 -1.2428  0.2036  0.7746
  769MPD2    C311404   2.046   0.659  14.831  0.1465 -1.3143  0.2966
  769MPD2    C411405   2.132   0.680  14.726  0.5184  0.6373 -1.0870
  769MPD2    C511406   2.085   0.669  14.601  0.2048 -0.3259 -0.4368
  769MPD2     H11407   1.844   0.622  14.882 -0.2980 -4.0291  1.3151
  769MPD2    H111408   2.237   0.700  14.747  0.7089 -1.1903 -0.2425
  769MPD2    H211409   1.935   0.616  14.464  0.4094 -1.5486 -0.4104
  769MPD2    H311410   2.152   0.674  14.516 -0.0539  0.5161 -0.5973
  769MPD2     N11411   2.080   0.675  14.967 -0.0488  0.3977 -0.0966
  769MPD2    H511412   2.000   0.663  15.029 -0.0683  0.4379 -0.1140
  769MPD2    N111413   1.736   0.581  14.639  0.2990 -0.4823  0.5179
  769MPD2    H711414   1.698   0.599  14.547 -2.8916 -2.0435  1.5295
  770MPD2     C11415   1.032   0.153  15.230  0.2095 -0.0671 -0.2775
  770MPD2    C111416   1.153   0.107  15.176 -0.3136 -0.5534  0.9117
  770MPD2    C211417   1.202   0.184  15.069 -0.4322  0.3601 -0.0305
  770MPD2    C311418   1.144   0.301  15.020 -0.3321 -0.2883 -0.4653
  770MPD2    C411419   1.018   0.333  15.067 -0.4718  0.3315 -0.4003
  770MPD2    C511420   0.961   0.260  15.171  0.5689  0.0808 -0.3671
  770MPD2     H11421   1.297   0.167  15.020 -1.0931 -1.9614 -0.4902
  770MPD2    H111422   0.962   0.420  15.033  0.0284  0.9092  0.2513
  770MPD2    H211423   0.998   0.110  15.324 -0.3193  1.3990  0.2113
  770MPD2    H311424   0.870   0.300  15.215  0.1102 -2.4883  1.0666
  770MPD2     N11425   1.220   0.368  14.922 -0.0659 -0.1142 -0.2549
  770MPD2    H511426   1.307   0.325  14.893 -0.2328 -1.1217  0.7399
  770MPD2    N111427   1.225   4.736  15.234  0.0208 -0.3376 -0.3825
  770MPD2    H711428   1.166   4.678  15.292 -1.4928 -0.4490 -2.0112
  771MPD2     C11429   3.188   3.298  13.841  0.2360 -0.6663  0.2974
  771MPD2    C111430   3.099   3.383  13.776 -0.3622  0.6885 -1.0719
  771MPD2    C211431   3.015   3.337  13.678  0.5920 -0.3062  0.0628
  771MPD2    C311432   3.034   3.201  13.633  0.0754 -0.3372 -0.0685
  771MPD2    C411433   3.131   3.120  13.694 -0.0898  0.1017 -0.5733
  771MPD2    C511434   3.206   3.168  13.799  0.6374 -0.0148  0.6268
  771MPD2     H11435   2.958   3.407  13.617  0.4000 -0.7337 -0.2505
  771MPD2    H111436   3.153   3.024  13.648 -2.1377 -0.5493 -0.2156
  771MPD2    H211437   3.252   3.333  13.921 -0.8239 -0.1178  0.9002
  771MPD2    H311438   3.293   3.119  13.840  0.9281  0.2001  0.2708
  771MPD2     N11439   2.955   3.159  13.521 -0.0988 -0.0965 -0.2747
  771MPD2    H511440   2.888   3.222  13.478  0.7138  0.5435 -0.6087
  771MPD2    N111441   3.094   3.523  13.798 -0.0457 -0.3933 -0.5030
  771MPD2    H711442   3.035   3.575  13.733 -3.1209 -1.4778  1.4252
  772MPD2     C11443   2.671   4.104  13.905  0.1969 -0.4220  0.3464
  772MPD2    C111444   2.701   3.970  13.924  0.7697  0.1318 -0.3808
  772MPD2    C211445   2.617   3.901  14.005  0.0828  0.8906 -0.2941
  772MPD2    C311446   2.504   3.954  14.070  0.2729  0.2254  0.1855
  772MPD2    C411447   2.487   4.097  14.053 -0.3483 -0.7508 -0.3159
  772MPD2    C511448   2.568   4.162  13.968 -0.4707  0.4797  0.2076
  772MPD2     H11449   2.633   3.795  14.016  2.6613  1.5489  2.3502
  772MPD2    H111450   2.401   4.149  14.093 -1.7548 -1.5839 -2.2915
  772MPD2    H211451   2.720   4.174  13.837  0.9142 -1.7794 -0.5435
  772MPD2    H311452   2.556   4.268  13.947  1.1186  0.6598  0.2383
  772MPD2     N11453   2.412   3.882  14.149 -0.3245 -0.6196  0.0586
  772MPD2    H511454   2.344   3.945  14.190 -0.5767  0.4408 -1.9689
  772MPD2    N111455   2.799   3.891  13.859 -0.4177 -0.2653  0.0412
  772MPD2    H711456   2.817   3.800  13.901  0.3167 -0.3972 -0.5634
  773MPD2     C11457   0.890   4.178   0.583 -0.0358 -0.1757  0.0813
  773MPD2    C111458   0.943   4.129   0.469 -0.6220 -0.5413  0.3157
  773MPD2    C211459   1.033   4.022   0.476 -0.8476  0.5608 -0.2988
  773MPD2    C311460   1.072   3.966   0.592 -0.0890 -0.2102  0.2711
  773MPD2    C411461   1.025   4.027   0.705 -0.1578 -0.9686 -0.3134
  773MPD2    C511462   0.930   4.123   0.702 -0.0099  0.0042 -0.0329
  773MPD2     H11463   1.081   3.988   0.385 -2.5635 -1.7781 -0.2964
  773MPD2    H111464   1.038   3.989   0.806  3.2438  1.5888  0.2333
  773MPD2    H211465   0.815   4.256   0.591 -0.6203 -0.6433 -0.8842
  773MPD2    H311466   0.889   4.148   0.799 -0.4905 -0.0633 -0.2223
  773MPD2     N11467   1.160   3.854   0.590 -0.2862 -0.1705  0.4244
  773MPD2    H511468   1.195   3.838   0.496  0.7558 -0.1615  0.8136
  773MPD2    N111469   0.903   4.175   0.340 -0.3888 -0.0246 -0.2676
  773MPD2    H711470   0.922   4.118   0.257  0.4662  0.2515 -0.2598
  774MPD2     C11471   1.101   3.390  13.562 -0.1891  0.1391  0.3991
  774MPD2    C111472   1.197   3.445  13.652 -0.0597  0.6036 -0.2606
  774MPD2    C211473   1.290   3.533  13.599  0.2383 -0.6478 -0.3094
  774MPD2    C311474   1.279   3.583  13.469 -0.1425 -0.2621  0.0735
  774MPD2    C411475   1.180   3.533  13.383 -0.2641  0.0955  0.2535
  774MPD2    C511476   1.097   3.431  13.432 -0.1378  0.2595 -0.4861
  774MPD2     H11477   1.376   3.567  13.656  0.5940 -1.1710 -0.5327
  774MPD2    H111478   1.181   3.544  13.276 -1.9058 -2.0781  0.0161
  774MPD2    H211479   1.018   3.327  13.590 -0.7057  1.2845  1.4501
  774MPD2    H311480   1.038   3.377  13.359 -0.5930  1.9973 -1.4240
  774MPD2     N11481   1.368   3.682  13.422 -0.3789  0.1429  0.0620
  774MPD2    H511482   1.442   3.711  13.485  0.3823 -0.1682 -0.6865
  774MPD2    N111483   1.197   3.432  13.793  0.2913  0.0459  0.1123
  774MPD2    H711484   1.271   3.484  13.838  0.9101 -1.9203  1.3786
  775MPD2     C11485   2.307   0.507  15.539 -0.1750 -0.0217  0.1543
  775MPD2    C111486   2.276   0.618  15.617 -0.0407 -0.3544 -0.8174
  775MPD2    C211487   2.369   0.724  15.613 -0.1226  0.0842 -0.3345
  775MPD2    C311488   2.479   0.728  15.520  0.4219 -0.1433  1.0374
  775MPD2    C411489   2.493   0.631  15.429  0.0141  0.0327 -0.1153
  775MPD2    C511490   2.406   0.526  15.446  0.2099  0.3898 -0.0671
  775MPD2     H11491   2.345   0.807  15.678 -0.3897 -2.1334  2.3526
  775MPD2    H111492   2.570   0.623  15.354 -2.0083 -2.6337 -1.9096
  775MPD2    H211493   2.245   0.419  15.527 -0.6974  0.4905 -0.9678
  775MPD2    H311494   2.417   0.445  15.375 -0.0950 -0.4582  0.8509
  775MPD2     N11495   2.586   0.822  15.521 -0.3448  0.3727 -0.0828
  775MPD2    H511496   2.657   0.810  15.449  1.3305 -1.4814  1.8593
  775MPD2    N111497   2.162   0.619  15.701  0.5290 -0.6367 -0.0932
  775MPD2    H711498   2.102   0.537  15.704 -0.1919 -0.1055 -0.0393
  776MPD2     C11499   1.632   0.690  12.083 -0.0994  0.0346 -0.5592
  776MPD2    C111500   1.541   0.677  11.978  0.4009 -0.0090  0.2507
  776MPD2    C211501   1.489   0.791  11.917 -0.2035  0.1483 -1.0146
  776MPD2    C311502   1.521   0.921  11.969  0.4431 -0.0252  0.3970
  776MPD2    C411503   1.623   0.933  12.055  0.2277 -0.3170  0.0474
  776MPD2    C511504   1.677   0.816  12.110  0.0330  0.5825 -0.6061
  776MPD2     H11505   1.426   0.792  11.829 -0.2658 -2.9625 -1.0026
  776MPD2    H111506   1.647   1.028  12.101  2.1274  0.2212 -2.0790
  776MPD2    H211507   1.682   0.600  12.117 -0.9452 -0.9358 -1.8842
  776MPD2    H311508   1.752   0.828  12.187 -0.5748  1.4010 -0.1474
  776MPD2     N11509   1.465   1.043  11.918 -1.0596  0.6579 -0.1107
  776MPD2    H511510   1.503   1.129  11.956  0.3640 -0.8164  1.7388
  776MPD2    N111511   1.519   0.543  11.932  0.2944 -0.2597 -0.1927
  776MPD2    H711512   1.538   0.463  11.991  2.2684 -0.9489 -1.7833
  777MPD2     C11513   1.817   3.238   0.976  0.4899  0.1641 -0.3504
  777MPD2    C111514   1.725   3.150   1.040 -0.2773 -0.0185  0.1172
  777MPD2    C211515   1.703   3.023   0.982 -0.8907  0.0648 -0.2613
  777MPD2    C311516   1.754   2.990   0.859  0.0198  0.5489  0.2298
  777MPD2    C411517   1.838   3.083   0.794 -0.7201 -0.5717  0.0890
  777MPD2    C511518   1.879   3.196   0.851  0.0422  0.0304  0.0291
  777MPD2     H11519   1.642   2.950   1.034  0.6713 -1.0091  0.0618
  777MPD2    H111520   1.875   3.055   0.695  1.4260  0.4447  0.5962
  777MPD2    H211521   1.837   3.339   1.007 -0.3519  0.1046  0.4034
  777MPD2    H311522   1.953   3.256   0.800  0.1883 -0.0906  0.1010
  777MPD2     N11523   1.711   2.863   0.801 -0.0678  0.0800  0.3972
  777MPD2    H511524   1.638   2.816   0.853 -0.4905 -1.8085 -1.8694
  777MPD2    N111525   1.679   3.197   1.168 -0.1924  0.0961  0.0389
  777MPD2    H711526   1.708   3.291   1.193 -1.1548  0.4286 -0.0930
  778MPD2     C11527   2.910   3.936  15.047 -0.3103 -1.2377 -0.2623
  778MPD2    C111528   2.945   3.802  15.027  0.7953 -0.2378  0.2946
  778MPD2    C211529   3.056   3.772  14.946  0.0019 -0.0761  0.2961
  778MPD2    C311530   3.130   3.872  14.881 -0.2974  0.2548  0.2531
  778MPD2    C411531   3.088   4.000  14.897  0.3944 -0.0136  0.4184
  778MPD2    C511532   2.982   4.033  14.981 -0.4162  0.0722 -0.7265
  778MPD2     H11533   3.086   3.669  14.938 -1.4394 -0.6487  2.2598
  778MPD2    H111534   3.129   4.081  14.837 -0.8934 -1.1053 -1.9378
  778MPD2    H211535   2.829   3.958  15.116 -1.1191 -2.2888 -0.8827
  778MPD2    H311536   2.959   4.138  14.997 -0.8030 -0.0393 -0.5356
  778MPD2     N11537   3.233   3.830  14.800 -0.3777 -0.1453  1.0828
  778MPD2    H511538   3.253   3.730  14.790  1.1043  0.3804 -1.1364
  778MPD2    N111539   2.878   3.688  15.085 -0.3995  0.0297 -0.0573
  778MPD2    H711540   2.917   3.595  15.069 -1.1313 -0.6943  2.3926
  779MPD2     C11541   2.733   2.022  14.303 -0.0258 -1.0192 -0.1511
  779MPD2    C111542   2.837   1.993  14.226  0.0111  0.5166 -0.1202
  779MPD2    C211543   2.865   2.068  14.116  0.9728  0.0122  0.6965
  779MPD2    C311544   2.777   2.164  14.074  0.1061 -0.3651  0.1057
  779MPD2    C411545   2.662   2.195  14.154 -0.2297  0.0980  0.4489
  779MPD2    C511546   2.639   2.119  14.268 -0.7948  0.2844  0.3499
  779MPD2     H11547   2.961   2.050  14.069  0.9037  2.8515 -0.5254
  779MPD2    H111548   2.592   2.272  14.126 -0.9725 -0.2700  1.2768
  779MPD2    H211549   2.710   1.954  14.385  1.9739 -0.3047  1.0165
  779MPD2    H311550   2.545   2.128  14.320 -1.0636 -1.2985  0.1474
  779MPD2     N11551   2.816   2.237  13.971  0.3323 -0.4130 -0.0776
  779MPD2    H511552   2.904   2.207  13.929 -0.5854 -3.0501 -0.0811
  779MPD2    N111553   2.920   1.884  14.243  0.6893  0.1661 -0.7366
  779MPD2    H711554   2.991   1.869  14.173 -1.4100  0.9088 -3.0431
  780MPD2     C11555   1.848   1.928   0.813 -0.5426  0.2983 -0.2447
  780MPD2    C111556   1.815   1.898   0.681 -0.4100  0.0389 -0.5202
  780MPD2    C211557   1.857   1.975   0.573  0.2027 -0.9166  0.3940
  780MPD2    C311558   1.925   2.092   0.602  0.5664 -0.3630 -0.6497
  780MPD2    C411559   1.956   2.120   0.734 -0.2615 -0.1093  0.4977
  780MPD2    C511560   1.916   2.041   0.836  0.1030  0.4065  0.5076
  780MPD2     H11561   1.832   1.946   0.472  1.5229  1.4441 -0.6169
  780MPD2    H111562   2.002   2.213   0.766 -0.5731 -0.6438  2.5379
  780MPD2    H211563   1.799   1.874   0.894 -0.3876  1.9384  0.9287
  780MPD2    H311564   1.928   2.069   0.941 -0.1515 -0.4619  0.7668
  780MPD2     N11565   1.956   2.171   0.491  0.2942 -0.4025 -0.0618
  780MPD2    H511566   1.923   2.145   0.398  0.9861 -1.6125  0.0252
  780MPD2    N111567   1.728   1.785   0.673  0.1771 -0.2954  0.1326
  780MPD2    H711568   1.723   1.724   0.754  1.2715 -1.3133 -0.5470
  781MPD2     C11569   3.562   4.315  11.860 -0.2149  0.1171 -0.2261
  781MPD2    C111570   3.664   4.234  11.898 -0.0055  0.2361  0.3776
  781MPD2    C211571   3.781   4.228  11.827 -0.2216 -0.1550 -0.3951
  781MPD2    C311572   3.790   4.286  11.701  0.2393 -0.1709 -0.5752
  781MPD2    C411573   3.680   4.351  11.652 -0.2797  0.4439 -0.9966
  781MPD2    C511574   3.570   4.359  11.734 -0.4626  0.3347  0.0849
  781MPD2     H11575   3.863   4.169  11.866 -0.4953 -0.7983 -0.7835
  781MPD2    H111576   3.681   4.416  11.565  2.1957 -1.9723 -2.7464
  781MPD2    H211577   3.474   4.334  11.921 -0.6234 -2.4338 -0.0179
  781MPD2    H311578   3.479   4.405  11.697 -1.2153  0.2401  1.8008
  781MPD2     N11579   3.915   4.292  11.641 -0.0192 -0.3059 -0.7571
  781MPD2    H511580   3.991   4.249  11.694  1.4591  2.5927 -0.5173
  781MPD2    N111581   3.657   4.167  12.025 -0.2636 -0.8558  0.2324
  781MPD2    H711582   3.738   4.112  12.055  1.1847  0.7275 -0.7883
  782MPD2     C11583   2.154   0.364  10.193 -0.7059  0.1208  0.2593
  782MPD2    C111584   2.198   0.257  10.264  0.7030 -0.1326  0.5375
  782MPD2    C211585   2.231   0.267  10.397  0.3782 -0.5232  0.6475
  782MPD2    C311586   2.218   0.388  10.460 -0.4095 -0.2165  0.4189
  782MPD2    C411587   2.162   0.493  10.387 -0.3707 -0.2178 -0.1707
  782MPD2    C511588   2.126   0.481  10.256 -0.4023  0.0704 -0.4961
  782MPD2     H11589   2.275   0.180  10.444 -1.6352 -1.3138  1.0705
  782MPD2    H111590   2.136   0.585  10.437  1.6157  0.4819 -0.4187
  782MPD2    H211591   2.144   0.366  10.085 -0.7443  1.6176  0.2877
  782MPD2    H311592   2.080   0.565  10.205  1.1201  0.9095 -0.4691
  782MPD2     N11593   2.260   0.408  10.595  0.4842  0.5696 -0.4216
  782MPD2    H511594   2.238   0.501  10.630 -2.6681 -1.1845  2.2836
  782MPD2    N111595   2.232   0.136  10.207 -0.2931 -0.1769  0.0062
  782MPD2    H711596   2.247   0.060  10.273  2.4547 -0.1346 -0.5880
  783MPD2     C11597   1.746   4.178  10.414 -0.0349  0.7850 -0.2458
  783MPD2    C111598   1.771   4.306  10.460 -0.0141  1.0650 -0.2317
  783MPD2    C211599   1.868   4.383  10.400  0.3492  0.0847 -0.2741
  783MPD2    C311600   1.947   4.336  10.301 -0.0882  0.5372  1.4318
  783MPD2    C411601   1.921   4.211  10.248  0.4842  0.6502  0.2681
  783MPD2    C511602   1.825   4.131  10.309 -0.6674 -0.0426 -0.1854
  783MPD2     H11603   1.884   4.489  10.416 -1.2628  0.4227 -0.8583
  783MPD2    H111604   1.975   4.165  10.166 -0.1610 -0.0301  0.2210
  783MPD2    H211605   1.658   4.127  10.452  1.5895 -0.8342  1.2930
  783MPD2    H311606   1.813   4.031  10.270  1.2428 -0.6441  0.7691
  783MPD2     N11607   2.046   4.421  10.250 -0.4660  0.5323 -0.0143
  783MPD2    H511608   2.056   4.515  10.285 -0.3272 -0.1080  1.6674
  783MPD2    N111609   1.679   4.357  10.558 -0.3091 -0.2875 -0.0600
  783MPD2    H711610   1.597   4.302  10.580  0.2070 -0.3100  1.8271
  784MPD2     C11611   4.202   0.394   0.733  0.3590  0.0284  0.4753
  784MPD2    C111612   4.199   0.537   0.744  0.1399 -0.3678  0.1549
  784MPD2    C211613   4.104   0.604   0.669 -0.1622  0.4218 -0.0739
  784MPD2    C311614   4.033   0.538   0.569  0.5377  0.4761 -0.3926
  784MPD2    C411615   4.051   0.399   0.546 -0.5606 -0.2571  0.0320
  784MPD2    C511616   4.131   0.335   0.637 -1.1023 -0.3105  0.5328
  784MPD2     H11617   4.089   0.710   0.684  2.1521  0.4807  1.8700
  784MPD2    H111618   4.009   0.339   0.466 -0.1112  1.9184 -1.8465
  784MPD2    H211619   4.275   0.339   0.790  1.6559  2.5924  1.2769
  784MPD2    H311620   4.150   0.230   0.617  0.7196  0.3114 -0.9656
  784MPD2     N11621   3.948   0.614   0.485 -0.1311  0.4946  0.1017
  784MPD2    H511622   3.927   0.709   0.516 -0.1875  0.7205 -0.6396
  784MPD2    N111623   4.279   0.614   0.831 -0.3443 -0.4865 -0.5448
  784MPD2    H711624   4.270   0.715   0.826 -1.6933 -0.5994 -0.4030
  785MPD2     C11625   0.558   3.479  10.818 -0.7215 -0.0411  0.1505
  785MPD2    C111626   0.432   3.474  10.768 -0.3098  0.3624 -0.1324
  785MPD2    C211627   0.388   3.359  10.721 -0.6357 -0.0600  0.0746
  785MPD2    C311628   0.465   3.246  10.717 -0.0528 -0.6506 -0.4831
  785MPD2    C411629   0.593   3.256  10.772  0.3779  0.0328 -0.8523
  785MPD2    C511630   0.640   3.369  10.833  0.2674  0.3132  0.3159
  785MPD2     H11631   0.282   3.353  10.697 -0.5343 -2.4263  0.1795
  785MPD2    H111632   0.660   3.170  10.772 -0.5092 -0.6568  1.2355
  785MPD2    H211633   0.595   3.571  10.861  1.7261  0.9874 -4.1826
  785MPD2    H311634   0.744   3.387  10.858  0.7338  0.7787 -1.9591
  785MPD2     N11635   0.424   3.133  10.649  0.1580 -0.1982  0.1007
  785MPD2    H511636   0.484   3.064  10.604 -0.1690 -0.6536  0.3636
  785MPD2    N111637   0.356   3.592  10.783  0.0383 -0.1621  0.4016
  785MPD2    H711638   0.404   3.670  10.827 -1.2075  0.7285  0.1756
  786MPD2     C11639   2.873   1.406  14.589  0.7462  0.4565  0.0155
  786MPD2    C111640   2.998   1.357  14.594  0.3230  0.1370  0.3952
  786MPD2    C211641   3.087   1.415  14.685 -0.0372  0.7620  0.5040
  786MPD2    C311642   3.046   1.521  14.772  0.0992 -0.4309 -0.1759
  786MPD2    C411643   2.917   1.567  14.760  0.4437  0.3202  0.1784
  786MPD2    C511644   2.838   1.519  14.659 -0.3429 -0.6957 -0.2972
  786MPD2     H11645   3.183   1.365  14.695 -0.8280 -0.8384  0.1045
  786MPD2    H111646   2.870   1.626  14.838  1.4253  2.6496 -1.0035
  786MPD2    H211647   2.808   1.377  14.508  3.2136 -1.5675 -1.2748
  786MPD2    H311648   2.736   1.557  14.666  0.0631  0.0656  1.6140
  786MPD2     N11649   3.130   1.580  14.867  0.6126 -0.0751 -0.0326
  786MPD2    H511650   3.089   1.654  14.924  1.6040  0.9827 -0.7018
  786MPD2    N111651   3.043   1.256  14.513 -0.4496  0.0189 -0.2158
  786MPD2    H711652   3.139   1.227  14.528 -0.4646 -0.9417 -2.0924
  787MPD2     C11653   3.429   0.902  14.747  1.0998 -0.2371 -0.1785
  787MPD2    C111654   3.402   0.821  14.636 -0.4835  0.1560  0.1554
  787MPD2    C211655   3.434   0.687  14.646 -0.2023  1.0885  0.3647
  787MPD2    C311656   3.485   0.636  14.764  0.3420  0.1788  0.5313
  787MPD2    C411657   3.507   0.717  14.875 -0.1376  0.1140 -0.0530
  787MPD2    C511658   3.475   0.848  14.866  0.1925  1.0842 -0.2955
  787MPD2     H11659   3.416   0.612  14.569  1.3860  0.8374  0.2379
  787MPD2    H111660   3.542   0.675  14.969 -0.4575 -0.6664 -0.2789
  787MPD2    H211661   3.399   1.006  14.749  0.1882 -0.4899 -0.5680
  787MPD2    H311662   3.490   0.920  14.946 -0.6639  0.7283  0.1967
  787MPD2     N11663   3.526   0.499  14.762 -0.5274 -0.6690 -0.0812
  787MPD2    H511664   3.513   0.448  14.675  0.8152  1.3191 -1.4558
  787MPD2    N111665   3.324   0.877  14.537  0.1759 -0.2216  0.7348
  787MPD2    H711666   3.317   0.979  14.541 -0.9588 -0.1931 -2.0213
  788MPD2     C11667   4.679   4.710   1.141  0.1252  0.0984 -0.5607
  788MPD2    C111668   0.008   4.693   1.018 -0.0554  0.1723 -0.0949
  788MPD2    C211669   4.734   0.050   0.918 -0.1442 -0.3460 -0.6769
  788MPD2    C311670   4.649   0.162   0.938  0.3267 -0.4475  0.6588
  788MPD2    C411671   4.577   0.170   1.061  0.4714 -0.0122 -0.1668
  788MPD2    C511672   4.587   0.075   1.162 -0.9740 -0.4153  0.1692
  788MPD2     H11673   0.054   0.043   0.827  2.0446  0.0704  0.6593
  788MPD2    H111674   4.502   0.247   1.075  0.6037  0.3961 -1.6591
  788MPD2    H211675   4.689   4.629   1.212 -2.7585 -0.3122 -0.6214
  788MPD2    H311676   4.524   0.077   1.250  1.4606 -1.5331  1.9370
  788MPD2     N11677   4.613   0.255   0.833  0.5349 -0.1534  0.2296
  788MPD2    H511678   4.540   0.322   0.855 -2.5659 -3.2746 -0.5301
  788MPD2    N111679   0.089   4.583   0.979  0.5877 -0.4451 -0.5929
  788MPD2    H711680   0.141   4.603   0.895  0.8481  3.0123  0.3598
  789MPD2     C11681   1.135   4.061  16.998  0.3879  0.3865 -0.4473
  789MPD2    C111682   1.040   4.027  16.906 -0.0199  1.0739 -0.6982
  789MPD2    C211683   0.907   4.073  16.930  0.4681  0.1302  0.7591
  789MPD2    C311684   0.868   4.142  17.040 -0.3088  0.6847 -0.5296
  789MPD2    C411685   0.958   4.153  17.146 -0.2747  0.1867 -0.3313
  789MPD2    C511686   1.094   4.113  17.119 -0.5379  0.0236 -0.8809
  789MPD2     H11687   0.840   4.052  16.848  3.1086 -0.7669 -1.1831
  789MPD2    H111688   0.945   4.196  17.244 -2.3011 -0.8938 -0.1200
  789MPD2    H211689   1.240   4.043  16.977 -0.3823 -1.6702 -2.4526
  789MPD2    H311690   1.169   4.127  17.196 -1.4694 -1.4010  0.2947
  789MPD2     N11691   0.734   4.185  17.057 -0.0724 -0.6565 -0.5950
  789MPD2    H511692   0.721   4.238  17.142 -1.7196  1.8357 -2.4217
  789MPD2    N111693   1.066   3.962  16.783 -0.3674 -0.2368  0.6808
  789MPD2    H711694   0.986   3.946  16.722  0.9885 -0.4917 -1.0127
  790MPD2     C11695   2.324   1.350  13.047  0.4052 -0.0310 -0.1924
  790MPD2    C111696   2.221   1.301  13.129 -0.5438  0.0833  0.7323
  790MPD2    C211697   2.106   1.260  13.066  0.4650  0.0893 -0.3398
  790MPD2    C311698   2.086   1.269  12.929 -0.4869  1.0886  0.6700
  790MPD2    C411699   2.187   1.323  12.850  0.1317  0.3276  0.5468
  790MPD2    C511700   2.299   1.366  12.913  0.0914  0.1187 -0.1538
  790MPD2     H11701   2.034   1.204  13.125 -1.0209  1.2413 -1.0548
  790MPD2    H111702   2.172   1.342  12.745 -0.4490  1.6665  0.8710
  790MPD2    H211703   2.413   1.393  13.091  0.8338 -0.1497 -0.9457
  790MPD2    H311704   2.370   1.416  12.848  1.1649 -1.9964 -0.6301
  790MPD2     N11705   1.977   1.198  12.877  0.6361 -0.0565  0.2319
  790MPD2    H511706   1.917   1.152  12.945 -0.1816  1.6376  0.6676
  790MPD2    N111707   2.211   1.304  13.260 -0.3394  0.0326 -0.5339
  790MPD2    H711708   2.125   1.285  13.310  0.2775 -0.2614  0.4355
  791MPD2     C11709   1.403   0.849  12.355  0.1316 -0.2211  0.1322
  791MPD2    C111710   1.453   0.785  12.470 -0.1052 -0.1019  0.0719
  791MPD2    C211711   1.385   0.688  12.536 -0.0210  0.0505  0.0897
  791MPD2    C311712   1.250   0.669  12.496  0.0932 -1.0842  0.2037
  791MPD2    C411713   1.203   0.722  12.378  0.2679  0.2489 -0.0692
  791MPD2    C511714   1.279   0.812  12.309 -0.3340  0.5294 -0.2024
  791MPD2     H11715   1.421   0.648  12.630  0.8627 -2.0518 -1.1521
  791MPD2    H111716   1.104   0.706  12.336  0.6167  0.0278 -0.8044
  791MPD2    H211717   1.463   0.920  12.300  0.6494  0.9914  2.2716
  791MPD2    H311718   1.235   0.861  12.223  0.1928 -0.0350 -0.7988
  791MPD2     N11719   1.170   0.582  12.576 -0.2842 -0.1438 -0.3976
  791MPD2    H511720   1.223   0.536  12.649 -0.0303 -0.2360 -0.6433
  791MPD2    N111721   1.569   0.811  12.536  0.4621 -0.0311  0.6874
  791MPD2    H711722   1.573   0.754  12.620 -1.4768  0.7215  1.2929
  792MPD2     C11723   1.970   0.930  11.653 -0.4438  0.2824  0.3609
  792MPD2    C111724   1.911   0.982  11.542  0.0270 -0.1046 -0.7188
  792MPD2    C211725   1.783   0.941  11.500 -0.1349 -0.5027  0.0592
  792MPD2    C311726   1.711   0.845  11.576  0.0094  0.1503 -0.2086
  792MPD2    C411727   1.767   0.799  11.692  0.4308  0.4896 -0.4004
  792MPD2    C511728   1.896   0.837  11.720  0.2748  0.0213  0.4493
  792MPD2     H11729   1.736   0.977  11.410 -0.7673 -0.2501  0.4880
  792MPD2    H111730   1.721   0.728  11.759  1.9929  0.3426  0.5296
  792MPD2    H211731   2.067   0.956  11.695 -0.5557  2.1396 -0.5291
  792MPD2    H311732   1.943   0.790  11.805  0.2442 -0.5136  0.1728
  792MPD2     N11733   1.577   0.802  11.540 -0.2132  0.4545  0.0420
  792MPD2    H511734   1.520   0.738  11.594 -0.5677 -0.2056 -1.1123
  792MPD2    N111735   1.996   1.067  11.469  0.8914  0.4396  0.9965
  792MPD2    H711736   2.092   1.074  11.500  0.6043  1.5664  1.6643
  793MPD2     C11737   1.134   0.650  10.654  0.3964  0.0172  0.2210
  793MPD2    C111738   1.265   0.658  10.689 -0.1887  0.5733  0.0554
  793MPD2    C211739   1.285   0.673  10.831 -0.0543  0.1339 -0.1433
  793MPD2    C311740   1.185   0.670  10.922 -0.5431 -0.5787  0.2109
  793MPD2    C411741   1.058   0.636  10.878  0.3517 -0.3282  0.0327
  793MPD2    C511742   1.032   0.630  10.746  0.1630  0.5629 -0.1727
  793MPD2     H11743   1.388   0.681  10.864 -0.4266  0.8930  0.8267
  793MPD2    H111744   0.982   0.612  10.953  1.5194 -0.4455  1.1720
  793MPD2    H211745   1.099   0.621  10.555  2.5660 -0.6767 -0.3467
  793MPD2    H311746   0.941   0.594  10.699 -0.6696  1.0324  1.0802
  793MPD2     N11747   1.217   0.676  11.063 -0.5755 -0.0859 -0.0716
  793MPD2    H511748   1.311   0.699  11.094 -1.0325  2.5933 -0.6805
  793MPD2    N111749   1.372   0.645  10.593 -0.1156  0.2526 -0.1682
  793MPD2    H711750   1.468   0.650  10.626 -0.3430 -0.2195  0.5715
  794MPD2     C11751   0.887   0.173  17.667  1.1705 -0.2919 -0.2584
  794MPD2    C111752   0.855   0.067  17.578 -0.2588 -0.3537 -0.1296
  794MPD2    C211753   0.856   0.083  17.440 -0.1965  0.1988 -0.0044
  794MPD2    C311754   0.898   0.205  17.396  0.0475 -0.4861  0.4272
  794MPD2    C411755   0.928   0.308  17.479  0.0179 -0.5013 -0.1588
  794MPD2    C511756   0.921   0.294  17.617  0.1544 -0.6238  0.7733
  794MPD2     H11757   0.839   4.735  17.374  0.1431  0.8416 -0.9201
  794MPD2    H111758   0.961   0.406  17.447 -2.5761 -0.5330 -2.9187
  794MPD2    H211759   0.883   0.169   0.030  1.3504 -1.3046 -0.2921
  794MPD2    H311760   0.938   0.377  17.684  1.5502  0.9022 -1.4678
  794MPD2     N11761   0.925   0.236  17.258 -0.2981  0.3861  0.0486
  794MPD2    H511762   0.924   0.334  17.231 -1.9529  0.4793  0.4425
  794MPD2    N111763   0.812   4.681  17.625 -0.2281 -0.4030 -0.4864
  794MPD2    H711764   0.785   4.607  17.562  3.5952 -2.6358  0.4930
  795MPD2     C11765   4.407   2.271  13.489  0.2392  0.1835 -0.4531
  795MPD2    C111766   4.341   2.234  13.606 -0.6269 -0.5434 -0.5482
  795MPD2    C211767   4.413   2.164  13.696 -0.9134  0.5620 -0.4307
  795MPD2    C311768   4.545   2.134  13.678 -0.0312 -0.0493 -0.8732
  795MPD2    C411769   4.609   2.173  13.566  0.0495  0.1043  0.1396
  795MPD2    C511770   4.538   2.238  13.469  0.9359  0.6074 -0.6026
  795MPD2     H11771   4.367   2.122  13.785 -0.2815 -0.6829 -0.6948
  795MPD2    H111772   4.715   2.158  13.549  0.1245 -1.4751  1.9858
  795MPD2    H211773   4.375   2.333  13.407 -1.7981 -0.5292 -0.1935
  795MPD2    H311774   4.573   2.265  13.370  0.9363  0.9405 -0.5137
  795MPD2     N11775   4.608   2.071  13.788  0.0263  1.0799  0.0545
  795MPD2    H511776   4.545   2.028  13.855  1.1711 -0.4899  0.1159
  795MPD2    N111777   4.206   2.269  13.628  0.1284  0.3956  0.6467
  795MPD2    H711778   4.163   2.234  13.713  1.6834  1.5758  1.9160
  796MPD2     C11779   3.049   3.757  16.026  0.6210  0.4331  0.2212
  796MPD2    C111780   3.171   3.778  15.971 -0.0348  0.7430  0.3010
  796MPD2    C211781   3.206   3.904  15.926  0.1097  0.6152  0.0541
  796MPD2    C311782   3.118   4.009  15.939  0.0598 -0.1218  0.6784
  796MPD2    C411783   2.988   3.985  15.987 -0.8238  0.0701  0.3515
  796MPD2    C511784   2.958   3.860  16.025 -0.4717 -0.5622  0.0336
  796MPD2     H11785   3.304   3.934  15.890  0.6833  1.2330  2.1213
  796MPD2    H111786   2.917   4.067  15.982 -1.5383 -0.6504 -1.3090
  796MPD2    H211787   3.018   3.666  16.075  2.7356 -0.3357  0.1057
  796MPD2    H311788   2.858   3.839  16.060  0.1651 -0.6444  1.7912
  796MPD2     N11789   3.163   4.138  15.896  0.1612 -0.6575  0.0713
  796MPD2    H511790   3.239   4.157  15.832  0.1204  0.9673  0.5159
  796MPD2    N111791   3.254   3.664  15.967 -0.5085  0.6624  0.0124
  796MPD2    H711792   3.217   3.582  16.014  1.1739  0.5067  1.0840
  797MPD2     C11793   4.082   3.497  17.053  0.3847  0.1866 -0.1180
  797MPD2    C111794   4.078   3.631  17.086  0.1702  0.4109 -0.4457
  797MPD2    C211795   4.052   3.727  16.985 -0.1450  0.2491  0.1691
  797MPD2    C311796   4.024   3.689  16.854 -0.6662 -0.0266 -0.0498
  797MPD2    C411797   4.016   3.555  16.826  0.1145  0.0928 -0.3298
  797MPD2    C511798   4.041   3.463  16.926 -0.2162 -0.1065 -1.0314
  797MPD2     H11799   4.074   3.828  17.017  0.7785 -0.3459  1.4428
  797MPD2    H111800   3.996   3.530  16.722  1.0104 -0.1406 -0.4421
  797MPD2    H211801   4.094   3.418  17.126 -1.2516 -2.3864 -2.6401
  797MPD2    H311802   4.017   3.360  16.899  0.2966 -0.4138 -0.3247
  797MPD2     N11803   4.033   3.773  16.735  0.1187 -0.0590  0.4166
  797MPD2    H511804   4.008   3.732  16.646 -0.9925 -0.3336  0.8499
  797MPD2    N111805   4.133   3.689  17.199  0.5089  0.1718  0.2422
  797MPD2    H711806   4.125   3.790  17.205  0.5952  0.2280 -0.6823
  798MPD2     C11807   4.482   4.346  16.944  0.0299 -0.4677  0.5709
  798MPD2    C111808   4.473   4.220  16.886  0.1598 -0.7602 -0.1366
  798MPD2    C211809   4.480   4.114  16.969  0.1999 -1.0900  0.1215
  798MPD2    C311810   4.494   4.127  17.104 -0.2488  0.2957 -0.4855
  798MPD2    C411811   4.506   4.255  17.156 -0.1625  0.0843 -0.2454
  798MPD2    C511812   4.502   4.369  17.074 -0.0994 -0.0994 -0.2068
  798MPD2     H11813   4.480   4.018  16.920  0.5256 -0.2648 -1.4828
  798MPD2    H111814   4.522   4.272  17.261 -2.9352 -2.0121  0.5172
  798MPD2    H211815   4.484   4.426  16.871 -1.2470 -0.2983  0.7282
  798MPD2    H311816   4.511   4.466  17.122 -1.2970 -0.4549  0.7411
  798MPD2     N11817   4.490   4.012  17.184 -0.1173  0.1518 -0.0134
  798MPD2    H511818   4.479   3.921  17.139 -0.8626 -0.5039  1.4686
  798MPD2    N111819   4.443   4.198  16.745 -0.2633  0.7788  0.4807
  798MPD2    H711820   4.414   4.281  16.695  1.5201 -0.2648 -2.2566
  799MPD2     C11821   3.229   0.300  14.779  1.1076 -0.6530  0.4251
  799MPD2    C111822   3.189   0.208  14.681 -0.0921 -0.8193  0.7174
  799MPD2    C211823   3.135   0.252  14.561 -0.2454  0.2842  0.1411
  799MPD2    C311824   3.139   0.392  14.533 -0.2658  0.3459  0.4145
  799MPD2    C411825   3.175   0.478  14.627  0.1530 -0.4014  0.2487
  799MPD2    C511826   3.213   0.429  14.751 -0.4423  0.8655 -0.0606
  799MPD2     H11827   3.090   0.177  14.498 -0.8881  0.3898  0.4760
  799MPD2    H111828   3.167   0.583  14.598  1.5005  0.0374  1.4558
  799MPD2    H211829   3.255   0.262  14.877 -1.9093 -0.3457  1.3278
  799MPD2    H311830   3.238   0.501  14.828 -3.2951  1.6498  0.1112
  799MPD2     N11831   3.099   0.446  14.406  0.9225  0.8608 -0.8229
  799MPD2    H511832   3.147   0.533  14.382 -0.0559  1.0710 -2.0245
  799MPD2    N111833   3.201   0.072  14.690  0.2207  0.3262 -0.3539
  799MPD2    H711834   3.142   0.021  14.625  0.8825  1.4650 -1.8573
  800MPD2     C11835   4.420   1.272  14.578 -0.1582  0.4484 -0.2840
  800MPD2    C111836   4.388   1.374  14.497  0.3046  0.0641 -1.4143
  800MPD2    C211837   4.311   1.354  14.381  0.1103  0.4273  0.5960
  800MPD2    C311838   4.273   1.224  14.346  0.4475  0.6924  0.9063
  800MPD2    C411839   4.291   1.122  14.436 -0.2854 -0.6282 -0.4845
  800MPD2    C511840   4.361   1.147  14.552 -0.2701 -0.0871  0.1054
  800MPD2     H11841   4.301   1.434  14.308  0.8256  1.4113  1.5756
  800MPD2    H111842   4.277   1.015  14.421 -1.2449 -0.6672  0.6548
  800MPD2    H211843   4.484   1.273  14.666 -0.1580  0.4109 -0.2838
  800MPD2    H311844   4.392   1.056  14.602 -0.9935  0.8347  2.2271
  800MPD2     N11845   4.242   1.186  14.213 -0.1181 -0.0422 -0.0202
  800MPD2    H511846   4.245   1.086  14.199  1.3597  0.0516 -0.3961
  800MPD2    N111847   4.462   1.488  14.508  0.5628  0.3789  0.3429
  800MPD2    H711848   4.543   1.494  14.569  2.0586  0.6023 -1.6617
  801MPD2     C11849   4.349   2.175  14.164 -0.2969 -0.1864  0.2397
  801MPD2    C111850   4.365   2.136  14.295 -0.6206  0.2236 -0.3218
  801MPD2    C211851   4.279   2.183  14.389 -0.2293 -0.6149 -0.6444
  801MPD2    C311852   4.179   2.273  14.355 -0.1698 -0.1493 -0.1687
  801MPD2    C411853   4.163   2.314  14.226  0.1068  0.8436  0.3673
  801MPD2    C511854   4.251   2.270  14.137 -0.3665  0.3545 -0.1280
  801MPD2     H11855   4.285   2.136  14.486 -0.2666 -1.3572 -0.9961
  801MPD2    H111856   4.097   2.395  14.198 -0.5700 -0.3925 -1.6129
  801MPD2    H211857   4.423   2.147  14.090  1.9696 -0.0303  2.4440
  801MPD2    H311858   4.247   2.319  14.040  3.2677  1.2242  0.1535
  801MPD2     N11859   4.093   2.321  14.455 -0.6324  0.5249  0.3849
  801MPD2    H511860   4.028   2.394  14.427  1.1894  1.8875 -0.3030
  801MPD2    N111861   4.471   2.052  14.351 -0.5579  0.0337 -0.0476
  801MPD2    H711862   4.475   2.031  14.450  1.9171 -0.4123 -0.2385
  802MPD2     C11863   3.631   2.375   0.302 -0.9475 -0.0164 -0.5154
  802MPD2    C111864   3.509   2.427   0.257  0.0984 -0.1106 -0.3921
  802MPD2    C211865   3.481   2.415   0.126 -0.3562 -0.0693 -1.0710
  802MPD2    C311866   3.561   2.358   0.036 -0.6840 -0.2235  0.4965
  802MPD2    C411867   3.690   2.318   0.079 -0.4006  0.3304 -0.4719
  802MPD2    C511868   3.725   2.334   0.210  0.4588 -0.5711  0.0366
  802MPD2     H11869   3.382   2.451   0.097 -0.8984  0.4404  1.4352
  802MPD2    H111870   3.760   2.273   0.009  0.6972 -1.5943  1.8961
  802MPD2    H211871   3.677   2.383   0.400 -1.8643  0.9056 -0.1608
  802MPD2    H311872   3.818   2.294   0.248  0.6845 -0.6097 -0.5512
  802MPD2     N11873   3.505   2.341  17.650  0.4723  0.3275 -0.0685
  802MPD2    H511874   3.407   2.360  17.633 -0.1733 -1.7108  1.3838
  802MPD2    N111875   3.404   2.482   0.343  0.1270 -0.2687  0.3144
  802MPD2    H711876   3.325   2.528   0.298 -0.3286 -1.1169  0.2564
  803MPD2     C11877   4.714   0.977  12.337  0.0639 -0.2319  0.1792
  803MPD2    C111878   0.096   0.971  12.408 -0.3509 -0.2533 -0.6134
  803MPD2    C211879   0.098   0.922  12.538 -0.7943  0.0512  0.5879
  803MPD2    C311880   4.717   0.878  12.596  0.6669  0.7903 -0.1379
  803MPD2    C411881   4.601   0.887  12.519 -0.0783  0.0271  0.3416
  803MPD2    C511882   4.601   0.933  12.393  0.2817  0.4339  0.3373
  803MPD2     H11883   0.194   0.905  12.585 -1.9548 -0.8873  2.6448
  803MPD2    H111884   4.504   0.850  12.552 -0.6151  1.6900  0.6678
  803MPD2    H211885   4.721   0.996  12.231 -1.0324  0.7187  0.2739
  803MPD2    H311886   4.518   0.927  12.324 -0.5165 -0.3153  1.3635
  803MPD2     N11887   4.699   0.827  12.727 -0.1655  0.1112 -0.4074
  803MPD2    H511888   4.608   0.791  12.753 -0.2579  0.2545 -0.5426
  803MPD2    N111889   0.220   1.013  12.350 -0.5607  0.1963 -0.1795
  803MPD2    H711890   0.304   0.993  12.403 -0.3520  0.0095 -0.5777
  804MPD2     C11891   3.822   2.267  16.760  0.0192  0.3576 -0.6767
  804MPD2    C111892   3.765   2.231  16.881  0.2263 -0.5242 -0.1389
  804MPD2    C211893   3.825   2.275  16.993  0.4104 -0.3015 -0.0610
  804MPD2    C311894   3.929   2.363  16.989 -0.0121 -0.5657 -0.4979
  804MPD2    C411895   3.977   2.403  16.870 -0.2250 -0.4530  0.5137
  804MPD2    C511896   3.930   2.351  16.752 -0.2301 -0.0109  0.0467
  804MPD2     H11897   3.794   2.236  17.090  1.8487  0.6946  0.7908
  804MPD2    H111898   4.066   2.464  16.858 -0.1368 -0.9788 -1.5922
  804MPD2    H211899   3.794   2.228  16.663  5.0066 -1.6394 -1.3056
  804MPD2    H311900   3.972   2.382  16.657  1.7795  1.3790  1.3941
  804MPD2     N11901   3.989   2.406  17.111  0.3226  0.4158 -0.3423
  804MPD2    H511902   3.946   2.373  17.196  0.7886  1.7036  0.3950
  804MPD2    N111903   3.660   2.136  16.888 -0.8960 -0.4514  0.5243
  804MPD2    H711904   3.614   2.120  16.977 -0.5784 -1.9265  0.4171
  805MPD2     C11905   2.949   0.726  15.652  0.6218  0.2422 -0.0163
  805MPD2    C111906   3.054   0.660  15.583 -0.2418 -0.0340  0.1923
  805MPD2    C211907   3.176   0.649  15.651 -0.3152  0.5479 -0.0944
  805MPD2    C311908   3.193   0.723  15.766  0.3106 -0.3437 -0.9281
  805MPD2    C411909   3.097   0.798  15.828 -0.3032  0.3436  0.0491
  805MPD2    C511910   2.980   0.800  15.768  0.5099  0.2306 -0.2065
  805MPD2     H11911   3.258   0.587  15.615  0.0290  1.2374 -0.4927
  805MPD2    H111912   3.110   0.870  15.908  1.8442 -1.0394  0.9421
  805MPD2    H211913   2.851   0.749  15.611  0.3357 -0.7018  0.1553
  805MPD2    H311914   2.894   0.860  15.797  0.5957  0.4397 -0.3858
  805MPD2     N11915   3.320   0.708  15.827 -0.2241 -0.2651  0.6463
  805MPD2    H511916   3.398   0.672  15.773  1.2474  1.1601  1.8372
  805MPD2    N111917   3.037   0.604  15.454  0.1222  0.2751 -0.0011
  805MPD2    H711918   3.112   0.550  15.413  1.3029  3.1286 -1.5754
  806MPD2     C11919   3.465   4.225   0.340 -0.1783 -0.1770  0.3573
  806MPD2    C111920   3.445   4.346   0.402 -0.0168  0.1424  1.4261
  806MPD2    C211921   3.491   4.461   0.341  0.0825  0.3689  0.5731
  806MPD2    C311922   3.552   4.453   0.216 -0.3075  0.1092 -0.0407
  806MPD2    C411923   3.560   4.333   0.145 -0.3365  0.2765  0.3275
  806MPD2    C511924   3.516   4.216   0.212 -0.5268  0.0228  0.0185
  806MPD2     H11925   3.477   4.558   0.386 -0.8719 -1.0304  3.2544
  806MPD2    H111926   3.604   4.319   0.047  1.2231 -0.2459  1.0984
  806MPD2    H211927   3.447   4.137   0.399  0.8753  1.4094  3.0174
  806MPD2    H311928   3.540   4.122   0.165  0.6325 -0.4664  1.5830
  806MPD2     N11929   3.583   4.576   0.150  0.6195  0.0229 -0.0327
  806MPD2    H511930   3.562   4.661   0.202 -2.4092  0.7154 -2.3761
  806MPD2    N111931   3.383   4.341   0.529  0.0807 -0.0999 -0.3040
  806MPD2    H711932   3.370   4.250   0.571 -0.1162 -0.0486 -0.2516
  807MPD2     C11933   3.005   4.683   1.271 -0.4967 -0.2017 -0.1275
  807MPD2    C111934   3.107   4.588   1.284  0.7626  0.0324  0.0806
  807MPD2    C211935   3.125   4.523   1.407 -0.1806 -0.1230 -0.9764
  807MPD2    C311936   3.039   4.553   1.509  0.1668 -0.3596 -0.5397
  807MPD2    C411937   2.953   4.658   1.497 -0.3177 -0.1267 -0.5168
  807MPD2    C511938   2.937   4.721   1.382 -0.6270  0.4217  0.2696
  807MPD2     H11939   3.201   4.446   1.416  0.1214  0.0870 -1.7095
  807MPD2    H111940   2.884   4.694   1.573 -1.0735 -0.3663 -1.0889
  807MPD2    H211941   2.987   4.728   1.174  0.2927 -2.9497 -1.5565
  807MPD2    H311942   2.868   0.069   1.384 -0.8103  0.3662 -3.2089
  807MPD2     N11943   3.052   4.488   1.636  0.2115  0.4033 -0.3901
  807MPD2    H511944   3.123   4.416   1.650 -1.1136 -0.8178  0.0958
  807MPD2    N111945   3.202   4.560   1.178 -0.9419 -1.0411  0.3626
  807MPD2    H711946   3.272   4.491   1.206 -1.3457 -0.9057  1.7450
  808MPD2     C11947   4.061   1.178   9.924  0.3153  0.1351 -0.2633
  808MPD2    C111948   4.165   1.101   9.870  0.1987  0.0906 -0.1253
  808MPD2    C211949   4.266   1.171   9.804 -0.2822  0.0070  0.1911
  808MPD2    C311950   4.287   1.310   9.815  0.7482 -0.5509  0.2292
  808MPD2    C411951   4.179   1.381   9.865  0.3808 -0.5336  0.2221
  808MPD2    C511952   4.073   1.316   9.921  0.7558  0.0199 -0.1032
  808MPD2     H11953   4.344   1.123   9.746 -1.1536 -1.2026  0.0166
  808MPD2    H111954   4.191   1.488   9.882 -1.2200 -0.2955 -0.1603
  808MPD2    H211955   3.971   1.147   9.976  0.2636  0.3335 -0.2355
  808MPD2    H311956   3.992   1.375   9.963  3.0769  1.8038  1.8502
  808MPD2     N11957   4.399   1.380   9.769 -0.1047  0.0005 -0.6722
  808MPD2    H511958   4.420   1.471   9.810  1.4732 -0.4654 -0.4524
  808MPD2    N111959   4.161   0.960   9.874 -0.0919  0.1268 -0.5568
  808MPD2    H711960   4.226   0.897   9.828  0.0215 -0.1746  0.0105
  809MPD2     C11961   0.590   1.056   9.550 -0.0792  0.4008  0.2478
  809MPD2    C111962   0.567   1.171   9.483 -0.9344  1.0434 -0.4508
  809MPD2    C211963   0.454   1.249   9.502  0.3865 -0.0557  0.1416
  809MPD2    C311964   0.350   1.199   9.582  0.1276  0.0421 -0.5709
  809MPD2    C411965   0.368   1.074   9.640  0.4013 -0.2642  0.3557
  809MPD2    C511966   0.484   1.013   9.629 -0.5268  0.1040  0.9217
  809MPD2     H11967   0.440   1.343   9.450  1.0045 -0.2950 -0.4662
  809MPD2    H111968   0.302   1.038   9.718 -1.2940  0.4187 -0.7614
  809MPD2    H211969   0.684   1.002   9.549 -0.3096  0.0067 -0.3189
  809MPD2    H311970   0.495   0.927   9.694  0.3662  0.1882  0.8822
  809MPD2     N11971   0.233   1.272   9.603 -0.1168  0.3350 -1.2266
  809MPD2    H511972   0.158   1.219   9.646  0.4313  0.7544  0.2548
  809MPD2    N111973   0.657   1.223   9.387 -0.2224  0.0668  0.5450
  809MPD2    H711974   0.625   1.312   9.351  0.6637 -0.1957 -0.8820
  810MPD2     C11975   4.148   1.156  10.245 -0.3883 -0.3133 -0.1200
  810MPD2    C111976   4.043   1.140  10.334  0.6487 -0.3161  0.4278
  810MPD2    C211977   4.018   1.248  10.416  0.3608  0.0120 -0.6723
  810MPD2    C311978   4.103   1.354  10.421 -0.5555  0.8223 -0.1181
  810MPD2    C411979   4.215   1.362  10.338  0.2321  0.2781 -0.0396
  810MPD2    C511980   4.239   1.253  10.256  0.2236  0.5422 -0.2119
  810MPD2     H11981   3.932   1.240  10.481 -0.1854 -1.5894 -1.5998
  810MPD2    H111982   4.288   1.442  10.334 -1.4948  1.9186  1.0389
  810MPD2    H211983   4.171   1.073  10.180 -2.4831 -0.4194 -0.7271
  810MPD2    H311984   4.333   1.242  10.203 -0.2966  2.1371 -1.4643
  810MPD2     N11985   4.094   1.459  10.513  0.3319  0.2277  0.5694
  810MPD2    H511986   4.145   1.544  10.492 -1.5610  1.3064  0.3260
  810MPD2    N111987   3.968   1.019  10.323  0.5359 -0.2868 -0.1821
  810MPD2    H711988   3.976   0.962  10.240 -1.2518 -1.1118  0.2258
  811MPD2     C11989   3.293   0.930   9.839  0.3716  0.6667 -0.0932
  811MPD2    C111990   3.414   0.984   9.885  0.1451 -0.3035 -0.8283
  811MPD2    C211991   3.441   1.114   9.859 -0.4337 -0.8992  0.9132
  811MPD2    C311992   3.360   1.206   9.808 -0.0771 -0.7187  0.1752
  811MPD2    C411993   3.230   1.154   9.769 -0.1204  0.1085  0.2446
  811MPD2    C511994   3.203   1.018   9.782  0.2816  0.3830 -0.1128
  811MPD2     H11995   3.537   1.151   9.894 -0.3533  1.7240 -2.1246
  811MPD2    H111996   3.155   1.217   9.722  1.1648  0.8242 -0.8552
  811MPD2    H211997   3.268   0.826   9.856 -1.5479  1.0438 -0.5166
  811MPD2    H311998   3.107   0.989   9.742  1.8557 -1.8559 -2.2506
  811MPD2     N11999   3.397   1.339   9.799 -0.1656  0.4354  0.1160
  811MPD2    H512000   3.491   1.365   9.830 -0.0616 -0.1518  0.2921
  811MPD2    N112001   3.509   0.897   9.952 -0.0740  0.3203  0.4651
  811MPD2    H712002   3.465   0.822  10.005 -3.4291  0.3190 -2.3475
  812MPD2     C12003   2.709   1.197  12.295  1.0610 -0.7342  0.7223
  812MPD2    C112004   2.611   1.137  12.220 -0.6705  0.1544  0.1964
  812MPD2    C212005   2.577   1.005  12.247  0.4659 -0.6763 -0.2052
  812MPD2    C312006   2.634   0.933  12.349 -0.1131 -0.3250  0.3734
  812MPD2    C412007   2.725   1.000  12.427  0.1550  0.3568 -0.1901
  812MPD2    C512008   2.759   1.131  12.397 -0.3225 -0.1119 -0.2147
  812MPD2     H12009   2.509   0.952  12.181  0.2183  0.0981 -0.5635
  812MPD2    H112010   2.783   0.953  12.505 -1.4817 -2.5599 -0.7042
  812MPD2    H212011   2.741   1.299  12.278  1.9383 -1.4153 -1.6781
  812MPD2    H312012   2.824   1.177  12.471 -1.8194 -0.8796  1.5843
  812MPD2     N12013   2.601   0.792  12.366 -0.7867  0.5547  0.1456
  812MPD2    H512014   2.526   0.754  12.309  0.0464 -2.3014  0.9517
  812MPD2    N112015   2.558   1.215  12.120  0.5904 -0.3267  0.0259
  812MPD2    H712016   2.591   1.309  12.107  2.2258 -0.7835  0.9134
  813MPD2     C12017   1.305   2.748  12.603  1.1121 -0.4211  0.4986
  813MPD2    C112018   1.316   2.718  12.737  0.3472  0.2795  0.4098
  813MPD2    C212019   1.210   2.750  12.816 -0.4394 -0.4149 -0.9064
  813MPD2    C312020   1.116   2.845  12.783 -0.0422  0.3213  0.1059
  813MPD2    C412021   1.113   2.893  12.655 -0.1467  1.2614  0.0635
  813MPD2    C512022   1.202   2.831  12.564  0.2441  1.1359 -0.1932
  813MPD2     H12023   1.199   2.713  12.918 -0.0364  1.0398 -0.3306
  813MPD2    H112024   1.031   2.955  12.621  0.3161  0.8952 -1.7180
  813MPD2    H212025   1.374   2.708  12.530  1.8856  2.3991 -0.3236
  813MPD2    H312026   1.208   2.870  12.463 -1.7979  1.5774 -0.1570
  813MPD2     N12027   1.018   2.882  12.886 -0.2927 -0.1581  0.1198
  813MPD2    H512028   1.045   2.849  12.978 -0.0375  1.8973  0.7849
  813MPD2    N112029   1.433   2.640  12.769 -0.3787 -0.0938  1.1928
  813MPD2    H712030   1.501   2.616  12.698  0.3910  1.5674  1.3743
  814MPD2     C12031   1.723   3.773  12.256 -0.1479 -0.3752 -0.4911
  814MPD2    C112032   1.797   3.840  12.161  0.4119  0.6190 -0.6254
  814MPD2    C212033   1.885   3.940  12.199  0.1426  0.1390 -0.0601
  814MPD2    C312034   1.898   3.970  12.336 -0.3785  0.4737 -0.2923
  814MPD2    C412035   1.826   3.906  12.430 -0.1916 -0.2929 -0.4595
  814MPD2    C512036   1.737   3.809  12.386 -0.7346  0.1935 -0.4303
  814MPD2     H12037   1.942   3.996  12.126 -0.2268 -1.4033 -1.5366
  814MPD2    H112038   1.842   3.922  12.536 -1.2606  1.2222 -0.5355
  814MPD2    H212039   1.639   3.708  12.234 -0.0087 -0.2094 -1.5374
  814MPD2    H312040   1.688   3.749  12.462 -1.0093  0.8273 -0.1073
  814MPD2     N12041   1.985   4.080  12.385 -0.2189  0.1995 -0.1665
  814MPD2    H512042   1.995   4.100  12.484 -2.9283  0.9298 -0.0598
  814MPD2    N112043   1.788   3.822  12.022  0.0556 -0.0580  0.1469
  814MPD2    H712044   1.855   3.869  11.962 -0.7851 -0.4232 -1.0939
  815MPD2     C12045   2.766   2.744  11.466 -0.4886  1.1065 -0.1656
  815MPD2    C112046   2.773   2.606  11.499  0.3979  0.5119  0.5506
  815MPD2    C212047   2.689   2.557  11.599  0.2575  0.3017  0.6711
  815MPD2    C312048   2.585   2.636  11.648  0.3895 -0.4933  0.1935
  815MPD2    C412049   2.571   2.767  11.602 -0.0187 -0.1707  0.1580
  815MPD2    C512050   2.668   2.818  11.517 -0.4938 -0.8030  0.9446
  815MPD2     H12051   2.694   2.453  11.627 -0.5095  0.6813  2.2137
  815MPD2    H112052   2.483   2.826  11.624  0.5894  0.5179  0.7345
  815MPD2    H212053   2.829   2.789  11.390 -1.0828  0.5551 -0.9831
  815MPD2    H312054   2.657   2.923  11.492  0.7459 -0.9955 -0.4420
  815MPD2     N12055   2.490   2.579  11.736 -0.3687 -0.1090  0.8321
  815MPD2    H512056   2.494   2.479  11.754  2.2865 -0.1892 -0.2647
  815MPD2    N112057   2.861   2.526  11.418  0.5424 -0.4847  0.3324
  815MPD2    H712058   2.899   2.560  11.330 -1.0805  1.5761  0.4272
  816MPD2     C12059   2.064   1.592  17.222 -0.1799  0.6689  0.8230
  816MPD2    C112060   2.172   1.674  17.226 -0.3278 -0.4438 -0.2260
  816MPD2    C212061   2.295   1.625  17.179  0.3527 -0.3298  0.0205
  816MPD2    C312062   2.309   1.501  17.138  0.0583  0.0053 -0.5167
  816MPD2    C412063   2.196   1.417  17.125  0.0111  0.1926 -0.1452
  816MPD2    C512064   2.073   1.462  17.168 -0.0165  0.0963 -0.0549
  816MPD2     H12065   2.387   1.680  17.192  0.1746 -0.0977  0.2908
  816MPD2    H112066   2.194   1.319  17.080 -0.8535  0.0516  0.2062
  816MPD2    H212067   1.967   1.622  17.259 -0.5300 -0.2904  0.6895
  816MPD2    H312068   1.997   1.385  17.172 -0.4039  0.4257 -1.2921
  816MPD2     N12069   2.439   1.457  17.097  0.5362 -0.3097 -0.1211
  816MPD2    H512070   2.513   1.525  17.088  0.5866 -0.2869  0.4672
  816MPD2    N112071   2.162   1.800  17.291  0.0352 -0.5881  0.8147
  816MPD2    H712072   2.068   1.838  17.298  0.1991 -0.2589  1.1924
  817MPD2     C12073   2.059   3.778  10.031  0.2896 -0.2740 -0.2935
  817MPD2    C112074   2.108   3.733   9.907  0.2596  0.3803  0.3736
  817MPD2    C212075   2.074   3.803   9.794 -1.2868  0.8878 -0.3643
  817MPD2    C312076   2.020   3.928   9.793 -0.3416  0.1537 -0.6957
  817MPD2    C412077   1.974   3.975   9.921  0.6379  0.0459 -0.7802
  817MPD2    C512078   1.990   3.895  10.034  0.0382  0.0267 -0.1367
  817MPD2     H12079   2.112   3.758   9.703 -0.3500 -2.5204  1.7063
  817MPD2    H112080   1.933   4.075   9.926  1.1725  0.2168  0.2759
  817MPD2    H212081   2.077   3.726  10.124  1.5369  0.9598  0.1624
  817MPD2    H312082   1.953   3.919  10.133  4.2312  1.9911  0.9521
  817MPD2     N12083   2.004   3.998   9.668  0.4648 -0.1893  0.1190
  817MPD2    H512084   2.050   3.970   9.582  1.9514  0.0280  0.8460
  817MPD2    N112085   2.187   3.613   9.894 -0.4430 -0.1971  0.5635
  817MPD2    H712086   2.221   3.576   9.806  2.0018  1.1710  0.9394
  818MPD2     C12087   1.198   4.016   9.711  0.1984  0.6437 -0.0986
  818MPD2    C112088   1.216   3.937   9.819  0.1973  0.1875  0.2691
  818MPD2    C212089   1.270   3.813   9.803  0.4592 -1.0516  0.2595
  818MPD2    C312090   1.301   3.762   9.676 -0.2031 -0.2626  0.5102
  818MPD2    C412091   1.293   3.849   9.574  0.3131  0.0896 -0.5239
  818MPD2    C512092   1.258   3.974   9.595  0.5306 -1.1809  0.7424
  818MPD2     H12093   1.283   3.746   9.887  3.4543 -1.7650 -0.7843
  818MPD2    H112094   1.325   3.820   9.474  0.0669 -1.4918 -0.1361
  818MPD2    H212095   1.144   4.110   9.713 -0.9526 -0.0733  2.9333
  818MPD2    H312096   1.262   4.032   9.504 -0.6658 -1.0525  0.7666
  818MPD2     N12097   1.369   3.638   9.650  0.3008 -0.2563  0.3397
  818MPD2    H512098   1.384   3.617   9.552 -1.4439 -0.1320  0.0324
  818MPD2    N112099   1.183   3.972   9.956 -0.3969 -0.2115  0.7089
  818MPD2    H712100   1.218   3.917  10.034  0.5924 -1.8140 -0.8640
  819MPD2     C12101   3.883   4.697  15.862  0.6847  0.1251  0.3809
  819MPD2    C112102   3.900   4.579  15.798  0.5894 -0.0851  0.0872
  819MPD2    C212103   4.008   4.497  15.830  0.1207 -0.2860  0.2265
  819MPD2    C312104   4.097   4.541  15.928  0.2374  0.0732 -0.2972
  819MPD2    C412105   4.075   4.667  15.988 -0.0843  0.1862  0.4299
  819MPD2    C512106   3.968   4.736  15.957 -0.2432  0.0538  0.1977
  819MPD2     H12107   4.022   4.401  15.781 -2.1135  0.8704 -2.7168
  819MPD2    H112108   4.142   4.716  16.058 -0.1259  0.7043  0.1068
  819MPD2    H212109   3.797   0.021  15.832  0.1906  0.6652  2.9052
  819MPD2    H312110   3.954   0.096  16.005 -1.5170 -0.0302  0.0093
  819MPD2     N12111   4.207   4.466  15.975  0.0695  0.0617  0.2431
  819MPD2    H512112   4.247   4.401  15.908 -1.1640  1.9650 -2.3658
  819MPD2    N112113   3.792   4.544  15.708 -0.2244  0.8816 -0.3439
  819MPD2    H712114   3.726   4.620  15.692 -2.3649 -0.5732  1.6246
  820MPD2     C12115   3.034   4.662  15.014 -0.4015  0.5334  0.6446
  820MPD2    C112116   3.118   0.013  15.080  0.5593 -0.1749 -0.1764
  820MPD2    C212117   3.216   4.708  15.176 -0.0554  0.6268  0.0744
  820MPD2    C312118   3.228   4.569  15.197  0.4158 -0.5432 -0.2933
  820MPD2    C412119   3.152   4.483  15.128 -0.3315  0.4785  0.0864
  820MPD2    C512120   3.055   4.527  15.035  0.0319  0.6487 -0.3121
  820MPD2     H12121   3.283   0.040  15.227  0.2986  0.3561 -0.0222
  820MPD2    H112122   3.149   4.376  15.150 -0.5692  0.5448  0.3706
  820MPD2    H212123   2.960   4.702  14.945 -0.5263 -0.4054  0.2391
  820MPD2    H312124   2.999   4.457  14.975 -0.7253  1.0086 -0.0246
  820MPD2     N12125   3.326   4.507  15.283  0.8501 -0.2834  0.2444
  820MPD2    H512126   3.326   4.405  15.274  0.8757 -0.3190  0.6829
  820MPD2    N112127   3.092   0.148  15.050 -0.1960  0.8592  0.1925
  820MPD2    H712128   3.006   0.156  14.996 -0.5357 -2.0094  0.3212
  821MPD2     C12129   4.192   1.610  13.447 -0.0034 -0.1044  0.4691
  821MPD2    C112130   4.289   1.572  13.534 -0.2127 -0.5355 -0.4686
  821MPD2    C212131   4.417   1.632  13.540 -0.5331 -0.9662 -0.1801
  821MPD2    C312132   4.455   1.718  13.436  0.0083 -0.3580  0.0358
  821MPD2    C412133   4.360   1.750  13.344  0.6963  0.1220  0.1810
  821MPD2    C512134   4.230   1.701  13.348  0.0427  0.0526  0.9255
  821MPD2     H12135   4.482   1.586  13.614  0.8604 -2.2593 -2.2163
  821MPD2    H112136   4.372   1.828  13.270 -0.3341  0.1655  0.0579
  821MPD2    H212137   4.097   1.560  13.431 -0.6906  1.3924 -0.1076
  821MPD2    H312138   4.157   1.726  13.273  1.2971  2.0001  0.3686
  821MPD2     N12139   4.585   1.774  13.425  0.2002  0.7618 -0.1304
  821MPD2    H512140   4.613   1.807  13.333  0.8414  2.0379  0.5206
  821MPD2    N112141   4.278   1.479  13.629 -0.6037 -0.0942  0.1553
  821MPD2    H712142   4.361   1.462  13.685  0.4661 -2.3348 -2.0795
  822MPD2     C12143   4.678   1.535  15.762 -0.3396 -0.0772  0.3784
  822MPD2    C112144   4.690   1.492  15.898  0.2686  0.3701 -0.4682
  822MPD2    C212145   4.604   1.553  15.987 -0.5011 -0.6208 -1.2028
  822MPD2    C312146   4.518   1.655  15.950 -0.4268  0.3865  0.9456
  822MPD2    C412147   4.516   1.699  15.823  1.0637  0.0564  0.6741
  822MPD2    C512148   4.594   1.639  15.730  0.4536 -0.2309  0.3178
  822MPD2     H12149   4.610   1.520  16.090 -0.0151 -1.7888 -1.5964
  822MPD2    H112150   4.453   1.775  15.778  1.6065  0.8365  1.2485
  822MPD2    H212151   4.732   1.481  15.685 -1.4031  1.1444 -1.1887
  822MPD2    H312152   4.587   1.670  15.626  1.4535  1.6687  0.8194
  822MPD2     N12153   4.436   1.713  16.046  0.4849  0.3415  0.7401
  822MPD2    H512154   4.445   1.689  16.144  0.2772 -0.0980  0.6529
  822MPD2    N112155   0.034   1.378  15.942  0.7643  0.4162 -0.2840
  822MPD2    H712156   0.022   1.352  16.039 -0.2273 -2.4578 -1.1651
  823MPD2     C12157   3.925   1.827  16.747 -0.0267  0.4701 -1.2821
  823MPD2    C112158   4.014   1.773  16.654 -0.1334  0.0906  0.6590
  823MPD2    C212159   4.079   1.656  16.694 -0.7650 -0.2534 -0.4259
  823MPD2    C312160   4.062   1.595  16.818  0.8627  0.5425 -0.1951
  823MPD2    C412161   3.964   1.648  16.901 -0.1737  0.7079  0.4481
  823MPD2    C512162   3.906   1.762  16.867  0.2276  0.3367 -0.2502
  823MPD2     H12163   4.158   1.620  16.628  0.0044  1.5797 -0.5011
  823MPD2    H112164   3.939   1.616  17.001  1.0165  1.0118  0.8480
  823MPD2    H212165   3.868   1.917  16.731 -1.6378 -0.0025  1.9384
  823MPD2    H312166   3.830   1.811  16.928  1.9514  0.8936  1.4594
  823MPD2     N12167   4.129   1.482  16.864  0.2150 -0.4257 -0.4545
  823MPD2    H512168   4.101   1.436  16.950 -0.1858  0.8279  0.0886
  823MPD2    N112169   4.029   1.835  16.528 -0.3364  0.1266 -0.0224
  823MPD2    H712170   3.985   1.925  16.514  1.6892  1.3227  1.2130
  824MPD2     C12171   0.238   0.734  15.552  0.1914  0.2772 -0.0481
  824MPD2    C112172   0.286   0.743  15.683 -0.0885 -0.8134  0.4715
  824MPD2    C212173   0.388   0.648  15.715 -0.3751 -0.2264  0.7614
  824MPD2    C312174   0.411   0.537  15.637 -0.2622  0.1860 -0.4948
  824MPD2    C412175   0.345   0.525  15.524  0.5743 -0.0564  0.7273
  824MPD2    C512176   0.263   0.626  15.482 -0.3473  0.0667  0.1928
  824MPD2     H12177   0.447   0.655  15.806  1.8146  1.3705 -0.7875
  824MPD2    H112178   0.346   0.438  15.458  0.8367 -0.6898  1.5719
  824MPD2    H212179   0.172   0.811  15.512 -2.7255 -1.6782  0.9943
  824MPD2    H312180   0.215   0.610  15.387  1.6289 -0.0538 -0.7776
  824MPD2     N12181   0.526   0.463  15.664 -0.0370  0.3661 -0.0374
  824MPD2    H512182   0.589   0.505  15.732  0.5322  1.0540 -0.9840
  824MPD2    N112183   0.250   0.851  15.765  0.5138  0.2438  0.4685
  824MPD2    H712184   0.184   0.918  15.725  0.0897 -0.3172  0.2361
  825MPD2     C12185   1.360   0.502  15.456  0.8757  0.4050  0.3214
  825MPD2    C112186   1.242   0.568  15.490 -0.3900  0.6574  0.6697
  825MPD2    C212187   1.222   0.695  15.441  0.5577  0.6231 -0.2505
  825MPD2    C312188   1.318   0.751  15.350  0.5899  0.1255  0.3881
  825MPD2    C412189   1.434   0.685  15.324 -0.0231 -0.2860  0.3037
  825MPD2    C512190   1.449   0.565  15.378 -0.7249 -0.2160  0.0674
  825MPD2     H12191   1.124   0.736  15.460  0.1919 -0.0630 -0.6585
  825MPD2    H112192   1.519   0.723  15.269 -0.4731  0.5552  0.1976
  825MPD2    H212193   1.390   0.403  15.489 -1.2544 -0.7836 -1.3392
  825MPD2    H312194   1.541   0.511  15.361  0.2872  2.4994 -3.1347
  825MPD2     N12195   1.307   0.882  15.298  0.7391  0.2877  0.0452
  825MPD2    H512196   1.385   0.917  15.243  0.2994 -0.1348 -0.8584
  825MPD2    N112197   1.138   0.493  15.553  0.2642  0.0819 -0.3835
  825MPD2    H712198   1.155   0.393  15.561  0.6329  0.2393  0.8193
  826MPD2     C12199   1.234   0.600  13.763  0.5555 -0.4805  0.6207
  826MPD2    C112200   1.160   0.588  13.646  0.9790 -0.2239  0.3849
  826MPD2    C212201   1.058   0.675  13.625 -0.2485 -0.6551 -0.2891
  826MPD2    C312202   1.023   0.789  13.703 -0.4508  0.0521  0.6025
  826MPD2    C412203   1.112   0.814  13.804 -0.4950 -0.4264 -0.4621
  826MPD2    C512204   1.210   0.717  13.833  0.1522 -0.3238 -0.6150
  826MPD2     H12205   0.988   0.669  13.543  0.9952 -0.6039 -1.3611
  826MPD2    H112206   1.108   0.895  13.877  0.7424  2.3808 -3.4924
  826MPD2    H212207   1.315   0.533  13.784  0.3456 -0.9037  0.0848
  826MPD2    H312208   1.266   0.728  13.926  0.2283  0.8752 -0.8079
  826MPD2     N12209   0.926   0.887  13.666 -0.8416  0.5720 -0.1773
  826MPD2    H512210   0.920   0.974  13.719 -0.5612 -0.2107  1.1419
  826MPD2    N112211   1.196   0.490  13.549 -0.6043  0.0734  0.0226
  826MPD2    H712212   1.273   0.426  13.569 -0.3266  0.3479 -0.1688
  827MPD2     C12213   1.718   2.407  10.160  0.8456 -0.3788 -0.7348
  827MPD2    C112214   1.698   2.278  10.207 -0.2722  1.0069 -1.1263
  827MPD2    C212215   1.588   2.210  10.162 -0.3951 -1.1532  0.3975
  827MPD2    C312216   1.488   2.268  10.099 -0.5524  0.3366  0.4758
  827MPD2    C412217   1.500   2.395  10.051  0.9066  0.2304 -0.4768
  827MPD2    C512218   1.615   2.464  10.089  0.2785  0.0914 -0.0956
  827MPD2     H12219   1.581   2.103  10.179 -3.2425 -0.7625  1.7039
  827MPD2    H112220   1.422   2.446   9.996  0.3746 -0.7603 -0.6392
  827MPD2    H212221   1.806   2.467  10.179  2.4029 -3.2026  0.9273
  827MPD2    H312222   1.611   2.571  10.072  2.0630  0.2411  0.3650
  827MPD2     N12223   1.378   2.184  10.061 -0.1648  0.2461 -0.0438
  827MPD2    H512224   1.390   2.086  10.087 -0.8069  0.7728  2.2599
  827MPD2    N112225   1.791   2.222  10.292 -0.1771  0.2387  0.3833
  827MPD2    H712226   1.876   2.278  10.296 -0.2676  0.3741  0.3958
  828MPD2     C12227   0.240   1.736  13.113  0.7837  0.4418  0.4012
  828MPD2    C112228   0.201   1.794  12.991 -0.0053  0.2577 -0.1745
  828MPD2    C212229   0.296   1.806  12.898  0.8595 -0.2668  0.2133
  828MPD2    C312230   0.425   1.760  12.919  0.6295 -0.4488 -0.3181
  828MPD2    C412231   0.466   1.712  13.043 -0.3649 -0.2772  0.5693
  828MPD2    C512232   0.366   1.699  13.140 -0.2883  0.0352 -0.7257
  828MPD2     H12233   0.262   1.854  12.807  0.5873 -1.4184 -0.2935
  828MPD2    H112234   0.567   1.682  13.065 -0.5145 -2.6407 -1.8785
  828MPD2    H212235   0.171   1.738  13.196 -1.3669 -1.9505 -1.3601
  828MPD2    H312236   0.380   1.655  13.238  3.0376  0.4007 -1.0438
  828MPD2     N12237   0.523   1.766  12.812  0.6515  0.3727  0.1694
  828MPD2    H512238   0.620   1.751  12.839  0.7938  2.7455  0.9727
  828MPD2    N112239   0.070   1.844  12.963  0.4484 -0.1518  0.0392
  828MPD2    H712240   0.065   1.898  12.877  0.5577 -0.2182 -0.0084
  829MPD2     C12241   0.064   2.466  12.373 -0.1177 -1.0892 -0.7584
  829MPD2    C112242   4.685   2.391  12.361 -0.7402 -0.3845 -1.3946
  829MPD2    C212243   4.635   2.311  12.460 -0.3512  0.4063  0.2920
  829MPD2    C312244   4.703   2.298  12.583 -0.1682 -0.1984  0.1376
  829MPD2    C412245   0.080   2.375  12.600  1.1860  0.2115 -0.4053
  829MPD2    C512246   0.125   2.458  12.502 -1.0799 -0.6384 -0.6072
  829MPD2     H12247   4.546   2.254  12.437  0.9237 -0.6917 -1.9325
  829MPD2    H112248   0.133   2.366  12.695  1.8537  1.5893 -0.6418
  829MPD2    H212249   0.098   2.536  12.297 -0.4823 -0.4597 -0.3474
  829MPD2    H312250   0.221   2.507  12.511 -1.9467  0.9020  0.2829
  829MPD2     N12251   4.659   2.218  12.696 -0.0624  0.1579 -0.3998
  829MPD2    H512252   4.708   2.231  12.784 -0.2229  1.5194 -0.5145
  829MPD2    N112253   4.628   2.402  12.233  0.0027 -0.0687 -0.3218
  829MPD2    H712254   4.665   2.474  12.172  1.7156  0.3927  1.2513
  830MPD2     C12255   0.261   4.698  16.153 -0.1080 -0.1611 -0.4005
  830MPD2    C112256   0.167   4.674  16.054 -0.2755  0.0690  0.1938
  830MPD2    C212257   0.146   0.029  15.950 -0.5556  0.2125 -0.3872
  830MPD2    C312258   0.206   0.149  15.951  0.1031 -0.3753 -0.3960
  830MPD2    C412259   0.290   0.174  16.060 -0.3980 -0.7398  0.3336
  830MPD2    C512260   0.322   0.086  16.157 -0.2967  0.4136 -0.4629
  830MPD2     H12261   0.060   0.018  15.884 -1.8031  0.6828  1.1579
  830MPD2    H112262   0.339   0.268  16.081 -0.8086 -0.5699  0.5445
  830MPD2    H212263   0.278   4.628  16.233  0.1981  2.6126  1.9532
  830MPD2    H312264   0.386   0.114  16.241  1.1657 -2.7248 -0.5180
  830MPD2     N12265   0.182   0.249  15.862 -0.5143  0.8096  0.1199
  830MPD2    H512266   0.195   0.341  15.904 -1.2927  0.5487  0.9212
  830MPD2    N112267   0.085   4.555  16.071  0.4688 -0.1655  0.6134
  830MPD2    H712268   0.086   4.510  16.162  0.1937 -0.5809  0.4073
  831MPD2     C12269   4.635   1.829  16.415 -0.1538  0.2022  0.2349
  831MPD2    C112270   4.675   1.718  16.349  0.4143  0.1135 -0.0529
  831MPD2    C212271   4.598   1.607  16.350  0.5183 -0.1156  0.4100
  831MPD2    C312272   4.469   1.611  16.414 -0.0613 -0.6847  0.3443
  831MPD2    C412273   4.437   1.723  16.492 -0.1965 -0.4948 -0.6056
  831MPD2    C512274   4.526   1.827  16.495  0.5734 -0.0900 -0.1645
  831MPD2     H12275   4.631   1.515  16.301  1.1864 -1.0546  2.6073
  831MPD2    H112276   4.351   1.712  16.556  0.2108  1.3338  0.2591
  831MPD2    H212277   4.695   1.918  16.405 -0.0942  0.2274  0.7972
  831MPD2    H312278   4.500   1.909  16.560  1.2743 -1.8957  2.4104
  831MPD2     N12279   4.369   1.502  16.390 -0.4568  0.3221 -0.2716
  831MPD2    H512280   4.286   1.510  16.447 -0.7387 -1.5902 -0.4218
  831MPD2    N112281   0.058   1.739  16.272 -0.1482  0.2957 -0.1829
  831MPD2    H712282   0.097   1.832  16.262 -0.4393  0.3831 -0.5091
  832MPD2     C12283   3.184   2.641  17.271  0.1622  0.1219 -0.0945
  832MPD2    C112284   3.202   2.773  17.243 -0.2205 -0.0040 -0.4147
  832MPD2    C212285   3.095   2.843  17.187  0.0030 -0.3397  1.0239
  832MPD2    C312286   2.975   2.769  17.154 -0.4391  0.8668  0.9579
  832MPD2    C412287   2.953   2.646  17.209 -0.2932  0.1578  0.6695
  832MPD2    C512288   3.062   2.586  17.272 -0.3784  0.7036  0.1376
  832MPD2     H12289   3.110   2.942  17.144  1.2305 -0.4135  1.3083
  832MPD2    H112290   2.864   2.586  17.196  0.3498 -0.6668  0.0246
  832MPD2    H212291   3.266   2.583  17.311  0.1705  0.5276  0.4845
  832MPD2    H312292   3.048   2.490  17.319 -0.9218 -0.3811 -2.2616
  832MPD2     N12293   2.866   2.826  17.093 -0.3593  0.1476 -0.4959
  832MPD2    H512294   2.792   2.757  17.085  0.2140 -0.6458  0.9846
  832MPD2    N112295   3.329   2.831  17.273 -0.2738  0.3885 -0.1830
  832MPD2    H712296   3.396   2.773  17.321  0.5590  2.7691  1.5360
  833MPD2     C12297   0.363   4.501  12.867  0.4933  0.0352  0.2317
  833MPD2    C112298   0.338   4.599  12.774 -0.1003  0.3851  0.2304
  833MPD2    C212299   0.405   4.599  12.656  0.0196 -0.0371  0.6231
  833MPD2    C312300   0.495   4.495  12.627 -0.0748  0.4703 -0.5998
  833MPD2    C412301   0.521   4.403  12.727 -0.5489 -0.3968  0.5597
  833MPD2    C512302   0.466   4.407  12.850 -0.0855  0.3466 -0.1521
  833MPD2     H12303   0.373   4.679  12.590  1.4037 -1.6214 -1.9582
  833MPD2    H112304   0.588   4.322  12.701  0.4048  0.6828 -0.2963
  833MPD2    H212305   0.309   4.501  12.962  1.4919  0.2041  0.7995
  833MPD2    H312306   0.502   4.333  12.920  1.4209  0.3192 -0.9444
  833MPD2     N12307   0.569   4.495  12.509 -0.0683 -0.2879 -0.0475
  833MPD2    H512308   0.630   4.415  12.491 -0.3044 -0.6489  0.7430
  833MPD2    N112309   0.235   4.694  12.787  0.1109  1.3430  0.8155
  833MPD2    H712310   0.224   0.021  12.709 -0.3907  1.0948  0.6823
  834MPD2     C12311   0.537   3.895  11.736 -0.3101  0.4917  0.0458
  834MPD2    C112312   0.553   4.012  11.662 -0.3722  0.3484 -0.0950
  834MPD2    C212313   0.568   4.136  11.718  0.5304  0.0881 -0.0171
  834MPD2    C312314   0.563   4.152  11.855  0.1817 -0.1846  0.9028
  834MPD2    C412315   0.544   4.036  11.925 -0.5411  0.2121 -0.9147
  834MPD2    C512316   0.543   3.913  11.871 -0.3951  0.0196 -0.1013
  834MPD2     H12317   0.576   4.227  11.659 -2.2915  0.8730  0.8104
  834MPD2    H112318   0.528   4.043  12.032  0.3756  0.1689 -0.7815
  834MPD2    H212319   0.530   3.798  11.688 -0.4523  0.1881  0.6728
  834MPD2    H312320   0.539   3.826  11.935  1.6917 -0.5298 -0.7422
  834MPD2     N12321   0.569   4.286  11.911 -0.1819  0.2516  1.0339
  834MPD2    H512322   0.594   4.360  11.847 -0.9870  0.1268  0.5762
  834MPD2    N112323   0.547   3.998  11.523  0.0044  1.3141 -0.5483
  834MPD2    H712324   0.532   3.903  11.488  3.7131 -0.2343  1.9882
  835MPD2     C12325   1.106   1.984  11.016 -0.8121 -0.6855  0.2640
  835MPD2    C112326   1.005   2.025  11.106  0.4136  1.0514  0.3448
  835MPD2    C212327   1.037   2.040  11.246  0.2753  0.0779 -0.2695
  835MPD2    C312328   1.158   2.011  11.296  0.0441 -0.3551 -0.2751
  835MPD2    C412329   1.254   1.972  11.203 -0.0351 -0.4382  0.4704
  835MPD2    C512330   1.231   1.962  11.066  0.9243  0.3121 -0.4665
  835MPD2     H12331   0.956   2.060  11.316 -0.8934 -1.4864 -1.1682
  835MPD2    H112332   1.354   1.936  11.222  0.9720  0.7313 -2.6284
  835MPD2    H212333   1.081   1.972  10.912  2.2190  0.4443 -0.5902
  835MPD2    H312334   1.307   1.919  11.002 -0.4547 -0.3360 -1.6909
  835MPD2     N12335   1.193   1.986  11.432  0.1697  0.8064  0.8045
  835MPD2    H512336   1.273   1.926  11.449  0.9995  1.5393 -0.5251
  835MPD2    N112337   0.872   2.056  11.077  0.3391  0.7319 -0.3330
  835MPD2    H712338   0.811   2.084  11.153  1.5761 -0.4150  1.0816
  836MPD2     C12339   0.666   2.169  11.783 -0.3304  0.2435 -0.6147
  836MPD2    C112340   0.724   2.113  11.891  0.7999  0.0936  0.0842
  836MPD2    C212341   0.651   2.092  12.005 -0.0734  0.3825 -0.8596
  836MPD2    C312342   0.519   2.126  12.019 -0.3491  0.5265  0.1704
  836MPD2    C412343   0.464   2.175  11.902 -0.5935 -0.2467  0.0056
  836MPD2    C512344   0.527   2.182  11.780 -0.1097 -0.1794 -0.6370
  836MPD2     H12345   0.709   2.046  12.085  0.1645  2.0239 -0.0954
  836MPD2    H112346   0.361   2.207  11.915  0.0133  1.8632 -0.3949
  836MPD2    H212347   0.720   2.176  11.689 -0.8910  0.5061 -0.9167
  836MPD2    H312348   0.474   2.234  11.701 -1.7177  0.5040  0.8939
  836MPD2     N12349   0.448   2.115  12.139  0.3786  0.3468  0.0503
  836MPD2    H512350   0.348   2.134  12.129  0.5674  1.7800  0.9279
  836MPD2    N112351   0.859   2.080  11.872  0.0503  0.0591 -0.5296
  836MPD2    H712352   0.888   2.059  11.777 -0.2027 -0.5583 -0.4686
  837MPD2     C12353   3.774   1.836  10.291 -0.4918 -0.4081  0.9022
  837MPD2    C112354   3.639   1.851  10.279  0.1163 -0.2769 -0.2140
  837MPD2    C212355   3.574   1.946  10.355  0.1818  0.7441  0.1746
  837MPD2    C312356   3.643   2.028  10.436 -0.2940 -0.7730  0.5534
  837MPD2    C412357   3.777   2.002  10.463  0.3130  0.0987 -0.1990
  837MPD2    C512358   3.844   1.917  10.382 -0.0524 -0.3952  0.4783
  837MPD2     H12359   3.469   1.966  10.334  0.9000  0.2701 -3.9163
  837MPD2    H112360   3.830   2.068  10.531 -2.3268  1.6529  0.3364
  837MPD2    H212361   3.835   1.767  10.234  1.7251  1.7218  0.7173
  837MPD2    H312362   3.951   1.910  10.388  0.0116 -0.7488 -1.0951
  837MPD2     N12363   3.579   2.138  10.506 -0.5607 -0.0777 -0.0327
  837MPD2    H512364   3.633   2.190  10.575 -1.5552  2.4794 -1.1924
  837MPD2    N112365   3.559   1.785  10.184  0.1877  0.3049  0.0821
  837MPD2    H712366   3.465   1.821  10.174 -0.5303 -1.0210  1.8316
  838MPD2     C12367   1.466   4.248  11.274  0.1936  0.1927 -0.2128
  838MPD2    C112368   1.425   4.325  11.384  0.0727 -0.1604 -0.1407
  838MPD2    C212369   1.314   4.287  11.450 -0.5228 -0.6408  0.0618
  838MPD2    C312370   1.243   4.179  11.415  0.0881 -0.3119 -0.1392
  838MPD2    C412371   1.296   4.093  11.315 -0.3725 -0.4391 -0.9460
  838MPD2    C512372   1.402   4.138  11.243  0.7533  0.1698  0.0132
  838MPD2     H12373   1.278   4.340  11.537  2.0210  2.4166 -0.7379
  838MPD2    H112374   1.243   4.005  11.281 -0.6367 -1.6135  2.4817
  838MPD2    H212375   1.549   4.271  11.208 -0.0274 -0.7512 -0.8166
  838MPD2    H312376   1.426   4.081  11.154  0.5989  0.2326 -0.0690
  838MPD2     N12377   1.137   4.139  11.502 -0.2536  0.4614  0.1998
  838MPD2    H512378   1.110   4.207  11.572  3.2372  2.1039 -0.0214
  838MPD2    N112379   1.481   4.450  11.427 -0.3282  0.4229  0.4263
  838MPD2    H712380   1.448   4.490  11.514 -0.4614  3.7747 -1.1685
  839MPD2     C12381   1.533   3.990  11.803 -0.4827 -0.2167  0.6225
  839MPD2    C112382   1.550   4.029  11.672 -0.2571  0.4399  0.0818
  839MPD2    C212383   1.615   4.148  11.647 -0.5999 -0.8638 -0.0071
  839MPD2    C312384   1.664   4.230  11.747  0.0742 -0.8399  0.5528
  839MPD2    C412385   1.649   4.188  11.881  0.0515 -0.1608 -0.0482
  839MPD2    C512386   1.588   4.067  11.906  0.3129 -0.1898 -1.2417
  839MPD2     H12387   1.627   4.180  11.544  2.2494 -0.6961  0.3557
  839MPD2    H112388   1.689   4.247  11.962  3.3807 -2.4892 -0.0178
  839MPD2    H212389   1.474   3.902  11.825 -1.3070  0.4415  1.0459
  839MPD2    H312390   1.578   4.037  12.010 -0.7030  1.2586 -0.9285
  839MPD2     N12391   1.717   4.355  11.706  0.6885  0.2327 -0.0292
  839MPD2    H512392   1.718   4.370  11.605  1.5389 -1.6787 -0.3100
  839MPD2    N112393   1.494   3.966  11.565 -0.1698 -0.2591 -0.6940
  839MPD2    H712394   1.511   4.019  11.480 -0.8084 -0.9542 -1.2575
  840MPD2     C12395   2.419   2.367  10.393 -0.1702 -0.0388 -0.3732
  840MPD2    C112396   2.355   2.351  10.514 -0.5774 -0.1530 -0.7695
  840MPD2    C212397   2.409   2.417  10.623 -0.1933  0.0097 -0.1419
  840MPD2    C312398   2.528   2.487  10.614 -0.5069  0.2619  1.0069
  840MPD2    C412399   2.587   2.499  10.492 -0.1695 -0.0817 -0.0851
  840MPD2    C512400   2.541   2.439  10.384  0.4722  0.1816 -0.7854
  840MPD2     H12401   2.353   2.420  10.715 -1.1149  0.7928 -0.7242
  840MPD2    H112402   2.679   2.555  10.481 -0.5535  0.7475  0.8274
  840MPD2    H212403   2.377   2.319  10.306 -0.7436  2.3019 -1.3670
  840MPD2    H312404   2.583   2.447  10.284  0.2794 -2.0677 -1.0345
  840MPD2     N12405   2.587   2.559  10.720  0.3891 -0.0720 -0.4623
  840MPD2    H512406   2.671   2.608  10.689  1.7837 -0.7105  2.2888
  840MPD2    N112407   2.244   2.267  10.507  0.6503  0.0862 -0.0373
  840MPD2    H712408   2.218   2.231  10.415  1.1239  2.0693 -0.9530
  841MPD2     C12409   1.442   2.290  14.998  0.3245 -0.0371 -0.1256
  841MPD2    C112410   1.526   2.213  14.922 -0.2671 -0.0122 -0.0473
  841MPD2    C212411   1.655   2.274  14.894  0.2482  0.0652  0.0024
  841MPD2    C312412   1.699   2.394  14.951 -0.9337  0.2824 -0.2507
  841MPD2    C412413   1.617   2.453  15.036  0.1763 -0.0309 -0.2699
  841MPD2    C512414   1.486   2.402  15.056  0.4409 -0.5371  0.7349
  841MPD2     H12415   1.718   2.215  14.828 -0.0426 -1.9315  1.5259
  841MPD2    H112416   1.640   2.543  15.090 -1.2230 -0.5138  1.1319
  841MPD2    H212417   1.341   2.259  15.019  0.0883  1.8302  1.4512
  841MPD2    H312418   1.431   2.452  15.135 -1.8975 -0.9552 -0.6522
  841MPD2     N12419   1.822   2.443  14.910 -0.1901 -0.0218  0.1275
  841MPD2    H512420   1.863   2.385  14.837  2.8260  2.2472  0.0335
  841MPD2    N112421   1.491   2.084  14.870 -0.6386  0.0310  0.2627
  841MPD2    H712422   1.564   2.037  14.816  1.1265  3.5641 -0.4814
  842MPD2     C12423   2.533   3.376  17.084  0.2083 -0.4138 -1.0891
  842MPD2    C112424   2.421   3.299  17.076  0.8296 -0.1556 -0.0017
  842MPD2    C212425   2.405   3.193  17.163 -0.0913 -0.8144 -0.0260
  842MPD2    C312426   2.505   3.168  17.255 -0.3940 -0.1757 -0.4174
  842MPD2    C412427   2.623   3.245  17.250 -0.8595 -1.2346 -0.3013
  842MPD2    C512428   2.636   3.339  17.161  0.0551 -0.3589  0.4438
  842MPD2     H12429   2.306   3.159  17.193  0.1755  1.3739  3.3130
  842MPD2    H112430   2.702   3.208  17.315 -0.5440  1.4877  0.8787
  842MPD2    H212431   2.543   3.468  17.029 -0.5038  0.4331  0.1956
  842MPD2    H312432   2.725   3.400  17.161 -0.4884  0.4399  0.1988
  842MPD2     N12433   2.489   3.079  17.361  0.1823  0.1690  0.1515
  842MPD2    H512434   2.556   3.082  17.437 -0.9473 -1.1872  1.1902
  842MPD2    N112435   2.324   3.325  16.972 -0.1820  0.0569  0.3867
  842MPD2    H712436   2.352   3.407  16.919 -1.0069  0.7504  1.0168
  843MPD2     C12437   3.960   3.575  17.577  0.7428  0.0979  0.2726
  843MPD2    C112438   4.019   3.536  17.694 -0.1413 -0.1182  0.5932
  843MPD2    C212439   4.071   3.628   0.038 -0.1648  0.3037 -0.0570
  843MPD2    C312440   4.067   3.760   0.008  0.4435  0.1431 -0.1906
  843MPD2    C412441   4.008   3.806  17.635  0.1592  0.2124  0.4520
  843MPD2    C512442   3.946   3.712  17.553 -0.0641  0.7123  0.6128
  843MPD2     H12443   4.120   3.595   0.128 -0.3192  0.2068 -0.0081
  843MPD2    H112444   3.992   3.912  17.619 -0.1475 -0.0986 -1.3440
  843MPD2    H212445   3.916   3.512  17.501 -3.6071  2.2124  1.0247
  843MPD2    H312446   3.893   3.732  17.461 -0.3131 -2.5929  0.0333
  843MPD2     N12447   4.130   3.866   0.077 -0.0448 -0.0168  0.1067
  843MPD2    H512448   4.159   3.946   0.021 -1.3791  1.1033  0.9827
  843MPD2    N112449   4.013   3.392  17.720 -0.2678 -0.5166 -0.2345
  843MPD2    H712450   3.984   3.335  17.642  1.3302  0.0737 -1.2581
  844MPD2     C12451   2.438   2.342  16.504  0.6296  0.0942  0.0326
  844MPD2    C112452   2.569   2.306  16.478 -0.2752  0.2188  0.1180
  844MPD2    C212453   2.673   2.393  16.507 -0.4282  0.4479  0.1165
  844MPD2    C312454   2.652   2.519  16.555  0.4889 -0.9743  0.9213
  844MPD2    C412455   2.521   2.558  16.582  0.0327 -0.1368  0.2559
  844MPD2    C512456   2.419   2.469  16.558 -0.2838 -0.0362 -0.6119
  844MPD2     H12457   2.775   2.361  16.487 -0.8611  0.2779 -1.8762
  844MPD2    H112458   2.498   2.655  16.624  2.2788  0.4596  0.0891
  844MPD2    H212459   2.355   2.274  16.489  0.9822 -0.4045  0.3336
  844MPD2    H312460   2.317   2.499  16.581 -0.4805 -0.8412 -0.4346
  844MPD2     N12461   2.763   2.600  16.586  0.5940  0.8474  0.6418
  844MPD2    H512462   2.854   2.568  16.555  0.4386  1.1469 -0.1193
  844MPD2    N112463   2.604   2.180  16.419 -0.1385  0.5462  0.4391
  844MPD2    H712464   2.701   2.160  16.401 -0.3791 -1.7630  1.6659
  845MPD2     C12465   3.089   3.644  16.713 -0.0223  0.3256 -0.6708
  845MPD2    C112466   3.141   3.567  16.826  0.1510 -0.1801 -0.3443
  845MPD2    C212467   3.144   3.426  16.820 -0.2064  0.0875  0.3148
  845MPD2    C312468   3.086   3.366  16.708 -0.0721 -1.4037  0.2582
  845MPD2    C412469   3.040   3.441  16.601 -0.4920 -0.5918  0.1392
  845MPD2    C512470   3.041   3.576  16.609 -0.2786 -0.8809  0.4324
  845MPD2     H12471   3.188   3.363  16.896 -2.8885 -1.6268  0.4608
  845MPD2    H112472   3.005   3.396  16.509 -3.0574  2.5208 -0.3778
  845MPD2    H212473   3.084   3.752  16.713  4.2131  0.5258 -1.9750
  845MPD2    H312474   3.009   3.633  16.523  1.2856  0.3048  0.6253
  845MPD2     N12475   3.075   3.223  16.709 -0.5869 -0.1406 -0.1426
  845MPD2    H512476   3.100   3.172  16.793 -5.3484  1.4233  2.1717
  845MPD2    N112477   3.215   3.642  16.929  0.3173  0.5811  0.0162
  845MPD2    H712478   3.210   3.744  16.921  1.0734  0.5723 -0.5973
  846MPD2     C12479   4.396   3.739  13.413 -0.2592 -0.5404 -0.2601
  846MPD2    C112480   4.321   3.848  13.451 -0.4398 -0.6456 -0.6963
  846MPD2    C212481   4.287   3.861  13.588 -0.1225  0.3668  0.0461
  846MPD2    C312482   4.323   3.772  13.689 -1.2048  0.6643 -0.5819
  846MPD2    C412483   4.400   3.665  13.639 -0.1858  0.4830  0.1972
  846MPD2    C512484   4.434   3.641  13.503 -0.3667 -0.5818  0.9277
  846MPD2     H12485   4.230   3.947  13.623 -0.4724 -0.2155  0.9103
  846MPD2    H112486   4.464   3.606  13.703  0.0989  0.9130  0.3117
  846MPD2    H212487   4.404   3.722  13.306  0.3195  2.4621 -0.6934
  846MPD2    H312488   4.473   3.542  13.485 -1.4107 -0.8071 -0.0829
  846MPD2     N12489   4.291   3.798  13.826 -0.2401  0.3300  0.2474
  846MPD2    H512490   4.236   3.881  13.842  0.1591  0.3230  1.6583
  846MPD2    N112491   4.287   3.958  13.363 -0.1340 -0.4380 -0.2161
  846MPD2    H712492   4.238   4.033  13.411  0.2673  0.1821 -0.7934
  847MPD2     C12493   4.361   4.198  14.634 -0.0574 -0.2531 -0.7103
  847MPD2    C112494   4.484   4.254  14.661  0.0162 -0.9062 -0.3233
  847MPD2    C212495   4.514   4.267  14.797 -0.0939 -0.2355  0.1715
  847MPD2    C312496   4.427   4.227  14.900 -0.1526  0.0778 -0.3565
  847MPD2    C412497   4.306   4.168  14.868  0.5219 -0.5591  0.4044
  847MPD2    C512498   4.280   4.162  14.735  0.1003  0.3415  0.3305
  847MPD2     H12499   4.612   4.304  14.826  0.2575 -0.7710 -0.3430
  847MPD2    H112500   4.237   4.122  14.937  1.8892  0.6942  2.6240
  847MPD2    H212501   4.323   4.181  14.534 -1.9756  1.0781 -0.2041
  847MPD2    H312502   4.182   4.120  14.721  0.1429  0.1926  0.4760
  847MPD2     N12503   4.461   4.262  15.036  0.0153  0.2036 -0.0717
  847MPD2    H512504   4.542   4.319  15.053  0.3347 -0.4199  0.5189
  847MPD2    N112505   4.569   4.313  14.569 -0.4549 -0.0630  0.5564
  847MPD2    H712506   4.651   4.357  14.610  0.5566 -0.8602 -0.6213
  848MPD2     C12507   2.549   3.181  16.429  0.1305 -0.0702 -0.3480
  848MPD2    C112508   2.606   3.255  16.529 -0.8137 -0.2837 -0.4823
  848MPD2    C212509   2.665   3.385  16.500  0.2069 -0.4013 -0.1815
  848MPD2    C312510   2.641   3.438  16.373 -0.0974  0.1654  0.2335
  848MPD2    C412511   2.571   3.362  16.283 -0.2185  1.1097  0.0789
  848MPD2    C512512   2.527   3.236  16.313 -0.0998  0.0538 -0.3926
  848MPD2     H12513   2.723   3.441  16.572  0.1149 -2.7547  1.7281
  848MPD2    H112514   2.543   3.405  16.188 -2.6940  0.8305  0.6751
  848MPD2    H212515   2.517   3.077  16.434 -2.3008  0.7100  0.5896
  848MPD2    H312516   2.471   3.184  16.235 -2.5400 -0.7270  1.8791
  848MPD2     N12517   2.686   3.567  16.336 -0.0296  0.2190 -0.6997
  848MPD2    H512518   2.682   3.586  16.237  1.4762  0.3591 -0.7280
  848MPD2    N112519   2.612   3.208  16.663 -0.4609 -0.1087 -0.2697
  848MPD2    H712520   2.683   3.249  16.723 -1.8972  0.9853  0.6878
  849MPD2     C12521   1.923   2.783  14.297 -0.4880  0.6160 -0.3602
  849MPD2    C112522   2.052   2.796  14.256  0.9738 -0.9977 -0.7659
  849MPD2    C212523   2.149   2.823  14.358 -0.1157  0.4727 -0.5690
  849MPD2    C312524   2.114   2.826  14.495  0.7398 -0.1655 -0.2175
  849MPD2    C412525   1.977   2.813  14.529  0.5821 -0.4641 -0.1875
  849MPD2    C512526   1.882   2.786  14.434 -0.7635 -1.2385  0.1704
  849MPD2     H12527   2.251   2.845  14.326  0.1487  1.6627  1.0430
  849MPD2    H112528   1.948   2.800  14.632  1.1350 -0.9032 -0.0863
  849MPD2    H212529   1.842   2.770  14.226 -1.2549 -1.8385  0.9572
  849MPD2    H312530   1.779   2.781  14.468 -0.5955 -1.5157  0.6386
  849MPD2     N12531   2.223   2.853  14.585  0.3475 -0.2649  0.5026
  849MPD2    H512532   2.317   2.864  14.547  0.4083  0.7696  0.9631
  849MPD2    N112533   2.088   2.802  14.120  0.2685 -0.0925 -0.5330
  849MPD2    H712534   2.183   2.833  14.101  0.4073  0.2412  0.7465
  850MPD2     C12535   4.586   0.978  14.865 -0.0369 -0.0331  0.5388
  850MPD2    C112536   4.598   1.110  14.927  0.2943 -0.8755 -0.6282
  850MPD2    C212537   4.723   1.166  14.954  0.1401  0.2184 -0.0153
  850MPD2    C312538   0.097   1.093  14.909  0.2097  0.4277 -0.0888
  850MPD2    C412539   0.078   0.974  14.835  0.7313 -0.1295 -0.1230
  850MPD2    C512540   4.698   0.914  14.823 -0.8384  0.2490  0.7722
  850MPD2     H12541   0.000   1.258  15.010 -0.4230  1.6317 -2.2281
  850MPD2    H112542   0.164   0.920  14.798 -1.0475 -2.8845 -0.2001
  850MPD2    H212543   4.486   0.939  14.849  0.3338 -0.2519 -1.1952
  850MPD2    H312544   4.690   0.815  14.777 -0.7931  0.7748 -0.3738
  850MPD2     N12545   0.233   1.130  14.935 -0.7653 -0.8080  0.2895
  850MPD2    H512546   0.306   1.063  14.913 -1.2986 -0.8761 -1.2726
  850MPD2    N112547   4.482   1.162  14.987 -0.1647 -0.6138  0.3228
  850MPD2    H712548   4.402   1.099  14.983  0.4311 -1.3482 -0.0106
  851MPD2     C12549   4.525   1.154  15.786  0.8124 -0.2771  0.1363
  851MPD2    C112550   4.512   1.104  15.661  0.2723  0.1904 -0.1851
  851MPD2    C212551   4.541   0.968  15.639  0.3794 -0.4913 -0.4526
  851MPD2    C312552   4.596   0.894  15.738 -0.7046 -0.8526  0.3679
  851MPD2    C412553   4.618   0.950  15.864 -0.6603  0.0505 -0.2043
  851MPD2    C512554   4.582   1.080  15.888 -0.1152 -0.4301 -0.0963
  851MPD2     H12555   4.520   0.922  15.544  0.4598 -0.3609 -0.5343
  851MPD2    H112556   4.670   0.896  15.942 -0.7431 -1.0836 -0.9372
  851MPD2    H212557   4.485   1.252  15.811  0.7370 -0.2280 -0.1808
  851MPD2    H312558   4.600   1.127  15.984  0.9139 -0.9135 -0.0601
  851MPD2     N12559   4.624   0.758  15.709  0.0160 -0.0223  0.3654
  851MPD2    H512560   4.596   0.730  15.616 -0.6375 -0.8692  0.8133
  851MPD2    N112561   4.462   1.197  15.557 -0.0308 -0.0444  0.2761
  851MPD2    H712562   4.407   1.278  15.583  0.1897  0.2458 -0.1618
  852MPD2     C12563   0.775   3.191  10.201 -0.1570  0.4481 -0.1914
  852MPD2    C112564   0.659   3.254  10.180  0.0518 -0.4739  0.1556
  852MPD2    C212565   0.660   3.375  10.122  0.3764 -0.3317 -1.3031
  852MPD2    C312566   0.768   3.436  10.072 -0.4237  0.4539  0.1808
  852MPD2    C412567   0.888   3.373  10.091 -0.4553  0.7215 -0.0728
  852MPD2    C512568   0.893   3.248  10.155 -0.4717 -0.2102 -0.4462
  852MPD2     H12569   0.567   3.429  10.107 -1.0479 -2.2463  0.7001
  852MPD2    H112570   0.981   3.425  10.069 -1.3330  1.4857 -1.9881
  852MPD2    H212571   0.788   3.088  10.233 -1.5638  0.3543  0.0381
  852MPD2    H312572   0.993   3.208  10.172 -0.3997  0.5563  0.8639
  852MPD2     N12573   0.762   3.568  10.019 -0.7272  0.2384 -0.3514
  852MPD2    H512574   0.669   3.609  10.014 -1.9559 -2.4305  0.4613
  852MPD2    N112575   0.532   3.190  10.202 -0.1973 -0.2475  1.0816
  852MPD2    H712576   0.457   3.251  10.171 -0.3911 -0.1979  1.6555
  853MPD2     C12577   1.659   2.902  12.013 -0.1687 -0.0438  0.6568
  853MPD2    C112578   1.529   2.941  11.980 -0.0574 -0.0970 -0.2800
  853MPD2    C212579   1.474   2.927  11.852  0.4783 -0.8761  1.0381
  853MPD2    C312580   1.554   2.862  11.756  0.0387  0.4905  0.6755
  853MPD2    C412581   1.678   2.820  11.785  0.2805  0.2728  0.3825
  853MPD2    C512582   1.727   2.837  11.913  0.3844  0.2690 -0.1642
  853MPD2     H12583   1.384   2.977  11.821 -0.0584 -3.2435 -1.2653
  853MPD2    H112584   1.747   2.766  11.721 -0.7999 -1.2034  0.4753
  853MPD2    H212585   1.697   2.910  12.114  0.6651 -0.1953  0.3529
  853MPD2    H312586   1.826   2.801  11.941  0.3434  1.5069  1.5491
  853MPD2     N12587   1.511   2.828  11.626 -0.4806  0.2047 -0.0685
  853MPD2    H512588   1.578   2.794  11.557  0.0416 -0.5240  0.7905
  853MPD2    N112589   1.461   3.006  12.082  0.3650 -0.3148  0.2335
  853MPD2    H712590   1.525   3.013  12.161  0.4710 -0.8807  0.2033
  854MPD2     C12591   3.329   3.468  12.520 -0.1346  0.0505 -0.1456
  854MPD2    C112592   3.267   3.344  12.506  0.1452 -0.5624 -0.2410
  854MPD2    C212593   3.319   3.235  12.582  0.5257 -0.0511  0.0008
  854MPD2    C312594   3.439   3.255  12.648  0.5780 -0.1556  0.3417
  854MPD2    C412595   3.507   3.379  12.650  0.0710  0.5381 -0.2681
  854MPD2    C512596   3.446   3.484  12.594 -0.1094 -0.3565 -0.5271
  854MPD2     H12597   3.265   3.142  12.583  0.6420 -0.1054  2.5917
  854MPD2    H112598   3.606   3.381  12.693 -0.5918 -2.9953  1.4898
  854MPD2    H212599   3.282   3.556  12.478  0.9512  0.8451  0.3005
  854MPD2    H312600   3.480   3.583  12.622 -1.6362  0.2140 -0.7212
  854MPD2     N12601   3.500   3.149  12.711 -0.3545 -0.2173 -0.2379
  854MPD2    H512602   3.583   3.177  12.762 -0.4969 -0.5083  0.1579
  854MPD2    N112603   3.156   3.343  12.419 -0.1408 -1.1907 -0.1037
  854MPD2    H712604   3.148   3.434  12.374 -0.8865 -1.8610 -1.3303
  855MPD2     C12605   3.808   3.245  13.502 -0.2467 -0.5395 -0.0739
  855MPD2    C112606   3.812   3.107  13.492  0.7859 -0.0865 -0.0855
  855MPD2    C212607   3.806   3.059  13.358 -0.0651 -0.5854 -0.3896
  855MPD2    C312608   3.778   3.142  13.252  0.4980 -0.5745  0.5489
  855MPD2    C412609   3.750   3.271  13.276 -0.4768  0.0118  0.2855
  855MPD2    C512610   3.774   3.326  13.402 -0.1034 -0.6388 -0.5003
  855MPD2     H12611   3.806   2.952  13.341 -2.8269 -0.6492  0.0624
  855MPD2    H112612   3.710   3.336  13.200  1.5844 -0.1886 -0.9699
  855MPD2    H212613   3.824   3.282  13.603  1.6986 -1.2652 -0.1143
  855MPD2    H312614   3.755   3.431  13.419 -1.3880 -0.5107 -2.7982
  855MPD2     N12615   3.740   3.093  13.122 -0.2294 -0.4287  0.0622
  855MPD2    H512616   3.709   3.160  13.051 -2.9191 -1.3121  0.3960
  855MPD2    N112617   3.829   3.017  13.600 -0.8333  0.2822  0.5481
  855MPD2    H712618   3.843   2.920  13.573 -0.3150  0.5120 -0.0219
  856MPD2     C12619   0.658   4.287  13.819  0.1715 -0.2039  0.6888
  856MPD2    C112620   0.658   4.392  13.911  0.0786 -0.2485  0.2427
  856MPD2    C212621   0.566   4.491  13.898 -0.1915 -0.4260 -0.1013
  856MPD2    C312622   0.468   4.477  13.805 -0.9246  0.0090 -0.1301
  856MPD2    C412623   0.465   4.371  13.716 -0.7254  0.0655 -0.0771
  856MPD2    C512624   0.563   4.275  13.723  0.4514 -0.3707  0.1203
  856MPD2     H12625   0.562   4.564  13.978 -0.8269 -1.2536  0.6227
  856MPD2    H112626   0.396   4.360  13.633  0.6591 -1.8821 -0.9591
  856MPD2    H212627   0.736   4.212  13.815  0.7335  0.3432  1.2059
  856MPD2    H312628   0.566   4.185  13.663  3.7097 -1.2983  1.6487
  856MPD2     N12629   0.361   4.568  13.790 -0.7095  0.7124  0.9091
  856MPD2    H512630   0.287   4.537  13.728 -0.9373  1.9834  0.5462
  856MPD2    N112631   0.739   4.416  14.025  0.1438  0.3556 -0.4860
  856MPD2    H712632   0.718   4.494  14.086 -1.7215 -0.3186 -0.2743
  857MPD2     C12633   2.608   1.396  12.726  0.4488 -0.7314 -0.3926
  857MPD2    C112634   2.721   1.364  12.796 -0.2803  0.2354  0.6757
  857MPD2    C212635   2.806   1.467  12.831 -0.1245 -0.1212 -0.1794
  857MPD2    C312636   2.774   1.602  12.786  0.0762 -1.1909 -0.2093
  857MPD2    C412637   2.666   1.624  12.708  0.1595  0.4952  0.5222
  857MPD2    C512638   2.578   1.523  12.683 -0.1746  0.7263 -0.3187
  857MPD2     H12639   2.899   1.465  12.887 -0.3986 -0.7131  0.2482
  857MPD2    H112640   2.643   1.720  12.663  1.0618  1.0750  1.3233
  857MPD2    H212641   2.544   1.321  12.683  0.1272 -0.3170 -0.6371
  857MPD2    H312642   2.498   1.534  12.611 -0.6155  0.7584  0.1841
  857MPD2     N12643   2.847   1.705  12.845 -0.7231  0.1140 -0.3910
  857MPD2    H512644   2.931   1.673  12.893 -1.2810 -0.4702  0.1904
  857MPD2    N112645   2.753   1.228  12.822 -0.3217  0.4601 -0.1436
  857MPD2    H712646   2.697   1.148  12.795  0.0388  0.1098  0.1346
  858MPD2     C12647   2.669   0.109  17.085  0.2467 -0.3639  0.8074
  858MPD2    C112648   2.801   0.108  17.044 -0.0931  0.0621 -0.1852
  858MPD2    C212649   2.888   0.208  17.084  0.6651 -0.7166 -0.3636
  858MPD2    C312650   2.839   0.319  17.151  0.2105 -0.3687 -0.3473
  858MPD2    C412651   2.712   0.311  17.194 -0.2644  0.3303  0.0943
  858MPD2    C512652   2.625   0.213  17.157 -0.8987  0.2000 -0.1767
  858MPD2     H12653   2.991   0.208  17.051  0.8663 -3.5185  0.1888
  858MPD2    H112654   2.665   0.398  17.240 -1.6463 -0.5961  0.4270
  858MPD2    H212655   2.594   0.039  17.050  1.5715 -0.0826 -2.6196
  858MPD2    H312656   2.518   0.220  17.169 -0.9322 -1.1775  0.3359
  858MPD2     N12657   2.912   0.434  17.189  0.3259 -0.2067  0.3106
  858MPD2    H512658   2.872   0.492  17.262  0.3146 -0.7974  0.7775
  858MPD2    N112659   2.842   0.003  16.954  0.5359  0.1977  0.1450
  858MPD2    H712660   2.776   4.670  16.921  0.5148 -0.2685  1.1921
  859MPD2     C12661   1.691   2.795  15.629 -0.1518  1.0438 -0.3291
  859MPD2    C112662   1.743   2.789  15.500 -0.4853 -0.1191  0.4139
  859MPD2    C212663   1.734   2.673  15.431 -0.1998  0.3049 -0.4805
  859MPD2    C312664   1.670   2.561  15.485 -0.1959 -0.3342  0.2796
  859MPD2    C412665   1.628   2.562  15.614  0.0007  0.6787  0.0362
  859MPD2    C512666   1.626   2.686  15.686  0.2345 -0.1041 -0.7063
  859MPD2     H12667   1.782   2.663  15.334 -1.0054  0.3518 -0.8834
  859MPD2    H112668   1.617   2.468  15.666  2.6843  0.2375 -0.1804
  859MPD2    H212669   1.701   2.889  15.682  1.2518 -0.4467  2.0458
  859MPD2    H312670   1.597   2.695  15.790  0.2449 -0.7677 -0.6415
  859MPD2     N12671   1.660   2.431  15.426  0.2493 -0.1678  0.4202
  859MPD2    H512672   1.602   2.361  15.472  1.0245 -0.9658  0.1792
  859MPD2    N112673   1.807   2.907  15.450  0.3803 -0.3081 -0.2145
  859MPD2    H712674   1.836   2.976  15.518  0.4426 -0.5143 -0.0327
  860MPD2     C12675   4.653   3.063  11.434 -0.8982 -0.4749 -0.2154
  860MPD2    C112676   4.620   3.176  11.506  0.0029 -0.2363 -0.4098
  860MPD2    C212677   4.509   3.168  11.588  1.1035  0.0508  0.3274
  860MPD2    C312678   4.438   3.048  11.595 -0.1449 -0.6718 -0.0312
  860MPD2    C412679   4.469   2.933  11.523  0.4333 -0.0076 -0.0723
  860MPD2    C512680   4.585   2.945  11.448 -0.2601 -0.0781 -0.1255
  860MPD2     H12681   4.480   3.258  11.641 -0.2788  0.7320 -1.5970
  860MPD2    H112682   4.415   2.839  11.531  0.8285 -0.1542  0.8628
  860MPD2    H212683   4.726   3.055  11.355  0.9199 -0.7741  1.4902
  860MPD2    H312684   4.618   2.859  11.391 -0.5380 -1.2322  1.4588
  860MPD2     N12685   4.315   3.044  11.675 -0.7590 -0.3247  0.1672
  860MPD2    H512686   4.275   2.951  11.684  0.5516 -0.9942 -0.7722
  860MPD2    N112687   4.692   3.300  11.497  0.2412 -0.5019 -0.5989
  860MPD2    H712688   4.671   3.379  11.558  0.2901 -1.4010  0.5937
  861MPD2     C12689   2.956   1.029  11.220  0.1586 -1.1519  0.2305
  861MPD2    C112690   3.053   1.104  11.139 -0.4934  0.2883 -0.5106
  861MPD2    C212691   3.006   1.176  11.031 -0.3404  0.1949 -0.0581
  861MPD2    C312692   2.868   1.177  11.000 -0.1361  0.3700  0.5335
  861MPD2    C412693   2.779   1.096  11.065 -0.5481 -0.1449 -0.6466
  861MPD2    C512694   2.826   1.020  11.170  0.9735 -0.5966 -0.4021
  861MPD2     H12695   3.066   1.249  10.978  0.7124 -0.2750  0.4858
  861MPD2    H112696   2.673   1.098  11.039 -0.2626 -0.8969 -1.8945
  861MPD2    H212697   2.980   0.974  11.310  2.0076 -0.9929 -0.1595
  861MPD2    H312698   2.758   0.957  11.226 -1.6644  1.7224 -0.9955
  861MPD2     N12699   2.813   1.264  10.906 -0.5795  0.6836 -0.0926
  861MPD2    H512700   2.711   1.264  10.898 -0.6020 -1.0743  0.1546
  861MPD2    N112701   3.187   1.127  11.182 -0.2017  0.0865 -0.1078
  861MPD2    H712702   3.237   1.184  11.113  0.8272  0.3449  0.8491
  862MPD2     C12703   2.185   1.302  10.609  0.8800  0.5285 -0.3698
  862MPD2    C112704   2.291   1.264  10.690 -1.1344  0.1359  0.0032
  862MPD2    C212705   2.278   1.177  10.793 -0.4494 -0.7109 -0.1014
  862MPD2    C312706   2.160   1.116  10.818  0.0691 -0.0160 -0.0015
  862MPD2    C412707   2.057   1.151  10.731  0.1579 -0.2663 -0.2903
  862MPD2    C512708   2.066   1.244  10.631  0.7777 -0.3504 -0.1762
  862MPD2     H12709   2.373   1.158  10.841 -0.3385 -1.3572 -0.5815
  862MPD2    H112710   1.955   1.114  10.736  0.8119 -2.1593 -0.7076
  862MPD2    H212711   2.198   1.374  10.530  0.8865 -0.3176 -1.1441
  862MPD2    H312712   1.977   1.270  10.575 -1.5667 -2.4512  2.6109
  862MPD2     N12713   2.151   1.022  10.923  0.3212  0.2265  1.0666
  862MPD2    H512714   2.065   0.975  10.948  0.8194 -0.6013  1.1988
  862MPD2    N112715   2.415   1.311  10.669  0.2483 -0.2689 -0.3045
  862MPD2    H712716   2.484   1.266  10.729 -0.9849 -0.7438  0.7780
  863MPD2     C12717   1.205   4.697  17.416  0.0145 -0.3778 -0.2120
  863MPD2    C112718   1.230   4.580  17.359 -0.2158 -0.4494 -0.0105
  863MPD2    C212719   1.288   4.477  17.435 -0.3835 -0.1974  0.3223
  863MPD2    C312720   1.332   4.502  17.567  0.2592  0.6333  0.5767
  863MPD2    C412721   1.312   4.634  17.616  0.2784  0.4857 -0.7211
  863MPD2    C512722   1.240   4.727  17.545 -0.4611 -0.0475 -0.1630
  863MPD2     H12723   1.308   4.381  17.390  3.4351  0.8695 -0.2742
  863MPD2    H112724   1.339   4.660  17.718  1.0899 -0.5081 -0.6846
  863MPD2    H212725   1.153   0.040  17.364  0.5547  0.5228  0.6220
  863MPD2    H312726   1.230   0.092  17.581 -1.8373 -0.4658  0.6366
  863MPD2     N12727   1.414   4.416  17.649 -0.2655 -0.0561 -0.2684
  863MPD2    H512728   1.437   4.448  17.743 -0.2760  0.7976 -0.5555
  863MPD2    N112729   1.177   4.566  17.229 -0.3682 -0.4311  0.0830
  863MPD2    H712730   1.125   4.643  17.187  0.1737  1.8536  3.6478
  864MPD2     C12731   1.444   1.027  16.965  0.0732  0.1481 -0.4829
  864MPD2    C112732   1.454   0.947  16.854 -0.1881  0.2342 -0.3243
  864MPD2    C212733   1.520   0.995  16.741 -0.0334  0.3943 -0.6112
  864MPD2    C312734   1.555   1.127  16.731 -0.1315  0.3292  0.5992
  864MPD2    C412735   1.537   1.210  16.836  0.2342 -0.5146 -0.0303
  864MPD2    C512736   1.485   1.158  16.953 -0.1512 -0.3573 -0.7747
  864MPD2     H12737   1.544   0.921  16.665 -0.2454  0.8445 -1.1190
  864MPD2    H112738   1.576   1.311  16.831 -0.6756 -0.0324  2.6417
  864MPD2    H212739   1.395   0.989  17.054  1.4970  0.2465  0.3405
  864MPD2    H312740   1.471   1.217  17.043 -0.6452  0.8038 -1.6063
  864MPD2     N12741   1.625   1.180  16.617  0.1255  0.7416 -0.0564
  864MPD2    H512742   1.645   1.280  16.610 -2.0864  0.9856 -3.2136
  864MPD2    N112743   1.413   0.811  16.866 -0.0342 -0.9038  0.2961
  864MPD2    H712744   1.373   0.780  16.954 -3.0600  1.8284 -0.1511
  865MPD2     C12745   1.631   1.190  15.693  0.6736 -0.2124  0.3527
  865MPD2    C112746   1.652   1.131  15.817 -0.0318 -0.1860  0.3049
  865MPD2    C212747   1.626   1.202  15.933 -0.3247 -0.3408  0.4341
  865MPD2    C312748   1.593   1.339  15.928  0.6416 -0.2049 -0.6812
  865MPD2    C412749   1.577   1.402  15.809 -0.4186 -0.1489  0.6950
  865MPD2    C512750   1.594   1.326  15.695 -0.1999  0.1213 -0.1560
  865MPD2     H12751   1.653   1.154  16.026  0.8666 -1.1365 -0.3195
  865MPD2    H112752   1.552   1.507  15.807 -2.6268 -0.6629  2.0194
  865MPD2    H212753   1.639   1.141  15.596  0.4481 -0.9741  0.7242
  865MPD2    H312754   1.570   1.361  15.596 -2.2968  2.1910  1.0720
  865MPD2     N12755   1.581   1.418  16.045 -0.3083  0.3177 -0.5428
  865MPD2    H512756   1.550   1.511  16.017  3.2873  1.6543 -0.1370
  865MPD2    N112757   1.694   0.998  15.823  0.0675  1.2081  0.5569
  865MPD2    H712758   1.712   0.948  15.736 -0.9343  2.5565 -0.4311
  866MPD2     C12759   3.915   1.275  11.099 -0.1336 -0.4451  0.2004
  866MPD2    C112760   3.924   1.414  11.094 -0.4130 -0.2832 -0.7899
  866MPD2    C212761   3.808   1.495  11.063 -0.4194 -0.2158  0.1263
  866MPD2    C312762   3.685   1.434  11.054  0.4464  0.2896 -0.1965
  866MPD2    C412763   3.673   1.297  11.070  0.1328 -0.2679  0.5249
  866MPD2    C512764   3.790   1.218  11.094 -0.3776  0.2772  0.3075
  866MPD2     H12765   3.812   1.603  11.068  0.0641 -0.1957 -0.6850
  866MPD2    H112766   3.576   1.248  11.058 -0.7445  1.0071  2.3499
  866MPD2    H212767   4.002   1.219  11.133 -0.2619 -1.1799 -0.6519
  866MPD2    H312768   3.779   1.110  11.102  1.6051  0.0933  0.4132
  866MPD2     N12769   3.558   1.497  11.034 -0.4838 -0.0551  0.3189
  866MPD2    H512770   3.481   1.431  11.027 -0.7276  0.1697  0.8653
  866MPD2    N112771   4.050   1.471  11.120 -0.8466  0.0133 -0.3287
  866MPD2    H712772   4.129   1.407  11.124 -1.0928 -0.2587  0.1865
  867MPD2     C12773   1.109   0.775  16.634  0.3374  0.5280 -0.7758
  867MPD2    C112774   1.087   0.742  16.761 -0.7774 -0.6287  0.2485
  867MPD2    C212775   1.084   0.838  16.862  0.4164 -0.1768  0.3584
  867MPD2    C312776   1.118   0.969  16.828  0.6019 -0.0047  0.1112
  867MPD2    C412777   1.143   1.004  16.701 -0.1244 -0.4791 -0.5808
  867MPD2    C512778   1.131   0.904  16.608 -0.3515  0.5551  0.0812
  867MPD2     H12779   1.056   0.812  16.964  0.7691  0.8274  0.7028
  867MPD2    H112780   1.160   1.109  16.685  0.9731 -0.5971 -0.2080
  867MPD2    H212781   1.102   0.701  16.555  0.6694 -1.7008  1.2867
  867MPD2    H312782   1.142   0.939  16.506  0.8297 -0.4958 -0.1487
  867MPD2     N12783   1.106   1.079  16.919  0.4947 -0.0237 -0.1906
  867MPD2    H512784   1.095   1.171  16.877  4.2931 -0.1902 -1.5735
  867MPD2    N112785   1.056   0.606  16.791 -0.1138  0.6000 -0.0883
  867MPD2    H712786   1.051   0.542  16.713 -1.0884  0.2207  0.2877
  868MPD2     C12787   2.547   4.021  12.520 -0.2717  0.6646 -1.1000
  868MPD2    C112788   2.614   4.002  12.642 -0.0911  0.2713 -0.2970
  868MPD2    C212789   2.539   3.963  12.751 -0.1640 -0.5014  0.3128
  868MPD2    C312790   2.402   3.939  12.742  0.2179 -0.1254  0.0001
  868MPD2    C412791   2.337   3.968  12.626  0.6898  0.1119  0.2597
  868MPD2    C512792   2.407   4.009  12.516  0.6701 -0.3271 -0.6194
  868MPD2     H12793   2.573   3.928  12.848 -0.7189 -1.2958  0.2240
  868MPD2    H112794   2.230   3.956  12.614  1.1387 -1.8306 -1.7974
  868MPD2    H212795   2.600   4.056  12.433 -0.0635  0.7769 -0.9290
  868MPD2    H312796   2.355   4.013  12.421 -1.9495  4.4994  1.0573
  868MPD2     N12797   2.338   3.881  12.856 -0.1705 -0.1038  0.3896
  868MPD2    H512798   2.388   3.872  12.944 -1.1315  1.8490  1.1262
  868MPD2    N112799   2.755   4.017  12.647 -0.5102 -0.2832  0.1362
  868MPD2    H712800   2.799   4.050  12.562  0.9070  2.2184  1.8276
  869MPD2     C12801   2.864   2.445   0.774  0.2672  0.5636 -1.1525
  869MPD2    C112802   2.876   2.581   0.768  0.0434  0.0677 -0.7168
  869MPD2    C212803   3.001   2.638   0.801  0.6415 -0.1386 -0.6942
  869MPD2    C312804   3.111   2.564   0.844 -0.6116  0.5140 -0.0836
  869MPD2    C412805   3.093   2.424   0.848 -0.0047  0.2646 -0.3154
  869MPD2    C512806   2.974   2.372   0.818 -0.6484  0.3834  0.5890
  869MPD2     H12807   3.011   2.745   0.790 -4.2856  0.6392  2.4072
  869MPD2    H112808   3.164   2.348   0.879 -0.6235  0.8150  2.3968
  869MPD2    H212809   2.775   2.387   0.755  0.1618  0.2790  0.1915
  869MPD2    H312810   2.967   2.263   0.814 -0.1682  0.3991 -0.5892
  869MPD2     N12811   3.239   2.617   0.889  0.3680 -0.1374  0.0716
  869MPD2    H512812   3.307   2.547   0.916  0.2330  0.2864  1.5105
  869MPD2    N112813   2.765   2.648   0.709 -0.8416  0.4405  1.0882
  869MPD2    H712814   2.681   2.597   0.683 -2.1870  2.2708  1.7845
  870MPD2     C12815   2.351   1.508   1.074 -0.2838  0.7366  0.1973
  870MPD2    C112816   2.412   1.601   0.994 -0.0591  0.1282  0.1518
  870MPD2    C212817   2.339   1.659   0.884 -0.5494 -0.2722 -0.5560
  870MPD2    C312818   2.219   1.609   0.841  0.4068 -0.0589  0.3633
  870MPD2    C412819   2.170   1.501   0.912  0.4077 -0.6463  0.8898
  870MPD2    C512820   2.231   1.460   1.032 -0.4548 -0.7203 -0.0817
  870MPD2     H12821   2.391   1.726   0.816 -1.0722  0.0737 -0.6167
  870MPD2    H112822   2.082   1.441   0.891 -1.1102  1.4651  1.2021
  870MPD2    H212823   2.404   1.443   1.143 -0.1501 -2.0754 -2.5883
  870MPD2    H312824   2.199   1.370   1.083 -1.9944 -0.3102 -0.3007
  870MPD2     N12825   2.178   1.639   0.712 -0.0688  0.2617 -0.1418
  870MPD2    H512826   2.251   1.687   0.661  1.0253 -0.2747  0.9200
  870MPD2    N112827   2.553   1.624   1.016 -0.2147  0.6576 -0.0177
  870MPD2    H712828   2.601   1.567   1.085  1.1433  0.5954 -1.0223
  871MPD2     C12829   4.546   1.024  16.368 -0.3296  0.5179 -0.3365
  871MPD2    C112830   4.468   0.950  16.457  0.6094  1.1394 -0.2742
  871MPD2    C212831   4.435   0.818  16.428  0.0632 -0.1725 -0.0119
  871MPD2    C312832   4.486   0.754  16.313 -0.0449  0.3247 -0.3761
  871MPD2    C412833   4.569   0.823  16.236 -0.5830 -0.4723 -0.3792
  871MPD2    C512834   4.593   0.957  16.261  0.1997  0.2789 -0.2253
  871MPD2     H12835   4.375   0.766  16.501 -1.3229  2.4744  0.7093
  871MPD2    H112836   4.620   0.773  16.154 -0.8088  0.3063 -0.9905
  871MPD2    H212837   4.573   1.126  16.390  0.6176  0.1115  0.3755
  871MPD2    H312838   4.651   1.015  16.189 -0.5561 -0.3163 -1.3181
  871MPD2     N12839   4.455   0.615  16.279  0.2488 -0.1972  0.3752
  871MPD2    H512840   4.492   0.584  16.190 -1.8210  0.7241 -0.8004
  871MPD2    N112841   4.430   1.017  16.577  0.5076  0.0411 -0.4270
  871MPD2    H712842   4.444   1.117  16.578  0.9819 -0.0509  2.2932
  872MPD2     C12843   0.787   3.200  14.539 -0.5097 -0.4278 -0.0025
  872MPD2    C112844   0.763   3.236  14.409 -0.5030 -0.4609 -0.2602
  872MPD2    C212845   0.642   3.271  14.354 -0.6319  0.3587  0.3002
  872MPD2    C312846   0.537   3.255  14.437  0.3105 -0.2710  0.2398
  872MPD2    C412847   0.557   3.216  14.570  0.1401  0.4510  0.2128
  872MPD2    C512848   0.678   3.185  14.620  0.1651  0.7090  0.5053
  872MPD2     H12849   0.633   3.312  14.254  1.2167  1.6733  0.6711
  872MPD2    H112850   0.472   3.210  14.638 -0.6689  1.4326 -0.7154
  872MPD2    H212851   0.885   3.182  14.582 -1.5216  1.5682  3.1479
  872MPD2    H312852   0.685   3.163  14.726  1.1062 -2.5049 -0.2364
  872MPD2     N12853   0.399   3.284  14.389 -0.0327  1.3034 -0.9311
  872MPD2    H512854   0.327   3.274  14.461  0.8512  2.7052  0.1383
  872MPD2    N112855   0.870   3.269  14.322 -0.2014  0.1679 -0.7747
  872MPD2    H712856   0.838   3.324  14.243 -0.2790 -0.0776 -0.9146
  873MPD2     C12857   1.811   3.180   1.792  0.6035  0.3352  1.1856
  873MPD2    C112858   1.877   3.234   1.689 -0.2908 -0.2237 -0.1970
  873MPD2    C212859   1.891   3.157   1.577  0.0806 -0.3588 -0.1525
  873MPD2    C312860   1.834   3.038   1.564 -0.6372  0.1398  0.6997
  873MPD2    C412861   1.759   2.984   1.666 -0.6498 -0.0583 -0.3551
  873MPD2    C512862   1.753   3.057   1.781 -0.6354 -0.2169  0.2260
  873MPD2     H12863   1.944   3.207   1.496 -0.6160  0.1825 -0.2701
  873MPD2    H112864   1.722   2.883   1.656  1.0223 -0.4845 -2.1878
  873MPD2    H212865   1.803   3.236   1.885 -0.9792  1.0776  0.6104
  873MPD2    H312866   1.703   3.016   1.868  1.5296 -3.2752  0.0281
  873MPD2     N12867   1.844   2.957   1.444  0.1068 -0.0756  0.5364
  873MPD2    H512868   1.793   2.869   1.448  1.6537 -1.0790 -1.6629
  873MPD2    N112869   1.933   3.361   1.694  0.8566 -0.1147 -0.5627
  873MPD2    H712870   1.931   3.410   1.783 -1.2588  1.1434 -1.3075
  874MPD2     C12871   1.991   3.717  16.302  0.3519  0.5578  0.2401
  874MPD2    C112872   2.079   3.674  16.396  0.4948 -0.6763 -0.2553
  874MPD2    C212873   2.201   3.724  16.400  0.4647  0.8342 -0.2012
  874MPD2    C312874   2.250   3.810  16.306  0.1744 -0.0101  0.1161
  874MPD2    C412875   2.165   3.838  16.197  0.4087  0.1430 -0.2243
  874MPD2    C512876   2.036   3.790  16.196  0.4628 -0.5283  0.4471
  874MPD2     H12877   2.265   3.686  16.479  0.1962 -0.5140 -0.6329
  874MPD2    H112878   2.191   3.899  16.110 -0.5426  1.2226  0.2410
  874MPD2    H212879   1.888   3.682  16.304  0.0432  1.3778 -1.1113
  874MPD2    H312880   1.980   3.815  16.106 -0.4987 -1.3428  0.8343
  874MPD2     N12881   2.383   3.852  16.307  0.5487 -0.6677  0.6319
  874MPD2    H512882   2.434   3.823  16.390  0.5780  0.9093  1.1728
  874MPD2    N112883   2.042   3.577  16.492  0.1465  0.3026 -0.6159
  874MPD2    H712884   1.945   3.545  16.492  0.7063 -1.4216 -0.9578
  875MPD2     C12885   3.512   1.849  14.638 -0.1933 -0.0867 -0.3735
  875MPD2    C112886   3.373   1.842  14.651  0.6229 -0.1352  0.1347
  875MPD2    C212887   3.309   1.909  14.754  0.2434  0.1501 -0.1936
  875MPD2    C312888   3.382   1.960  14.856  0.2178 -0.0379  0.1604
  875MPD2    C412889   3.515   1.974  14.842 -0.0570  0.4306  0.2084
  875MPD2    C512890   3.578   1.924  14.735 -0.0170 -0.1392  0.1824
  875MPD2     H12891   3.201   1.910  14.763  0.3919  1.9217  1.4608
  875MPD2    H112892   3.576   2.012  14.924  0.6865  0.9637 -0.5875
  875MPD2    H212893   3.577   1.807  14.563  0.8622 -0.8543  0.9867
  875MPD2    H312894   3.686   1.917  14.740 -0.1644 -3.1683 -0.7350
  875MPD2     N12895   3.317   2.019  14.967  0.5933  0.1942 -0.4472
  875MPD2    H512896   3.361   2.087  15.028  4.5105  0.1611 -3.2162
  875MPD2    N112897   3.288   1.765  14.570  0.1466 -0.8612 -0.3028
  875MPD2    H712898   3.192   1.783  14.597  0.5240 -0.7590  0.9932
  876MPD2     C12899   2.162   3.113  16.430 -0.6064  0.0016  0.1225
  876MPD2    C112900   2.124   3.083  16.301 -0.0708  0.7349  0.6508
  876MPD2    C212901   2.090   2.956  16.267 -0.3666 -0.3151  0.4270
  876MPD2    C312902   2.103   2.856  16.360 -0.7651 -0.6579 -0.5473
  876MPD2    C412903   2.139   2.886  16.488  0.2136 -0.2187 -0.3915
  876MPD2    C512904   2.165   3.015  16.524 -0.1613 -0.1944  0.1953
  876MPD2     H12905   2.074   2.932  16.163  2.1680 -0.4509  0.0841
  876MPD2    H112906   2.144   2.803  16.557 -1.9879 -0.3753 -0.4222
  876MPD2    H212907   2.192   3.211  16.465 -0.0158 -0.2147  0.2232
  876MPD2    H312908   2.184   3.051  16.624  1.9592  0.6321 -0.5000
  876MPD2     N12909   2.074   2.723  16.328  0.0141  0.3525 -0.1144
  876MPD2    H512910   2.065   2.695  16.231  0.9240  0.8390 -0.3430
  876MPD2    N112911   2.128   3.186  16.210 -0.5884 -0.2984 -0.4401
  876MPD2    H712912   2.168   3.274  16.239  0.9627 -1.2805  0.3938
  877MPD2     C12913   1.752   3.550  15.485  0.5761  0.5208 -0.2067
  877MPD2    C112914   1.876   3.598  15.530  0.2153  0.4306 -0.3456
  877MPD2    C212915   1.944   3.700  15.460  0.1064 -0.0301 -0.0590
  877MPD2    C312916   1.906   3.730  15.335 -0.4002  0.9064  0.1204
  877MPD2    C412917   1.787   3.682  15.289 -0.2630 -0.1414  0.5811
  877MPD2    C512918   1.712   3.590  15.362  0.5311 -0.5613  0.5932
  877MPD2     H12919   2.032   3.748  15.501 -2.2864  2.1248  2.6296
  877MPD2    H112920   1.747   3.706  15.191 -0.4646 -1.7912  0.2606
  877MPD2    H212921   1.687   3.481  15.539  0.1844  1.0727  0.0348
  877MPD2    H312922   1.622   3.553  15.315 -0.9523  1.6237  1.6904
  877MPD2     N12923   1.985   3.805  15.245 -0.4886  0.5301 -0.4926
  877MPD2    H512924   1.960   3.806  15.147 -0.2323 -1.1707 -0.5817
  877MPD2    N112925   1.928   3.567  15.651 -0.2156 -0.1258 -0.0506
  877MPD2    H712926   2.002   3.630  15.679 -2.0094  0.3730  3.6088
  878MPD2     C12927   2.190   2.393  13.197 -0.0326 -0.0905 -0.1664
  878MPD2    C112928   2.095   2.480  13.234  0.5281 -0.5294 -0.2202
  878MPD2    C212929   2.087   2.546  13.356 -0.3755 -0.2812  0.0858
  878MPD2    C312930   2.183   2.516  13.447 -0.6017  0.8138 -0.2225
  878MPD2    C412931   2.287   2.423  13.412 -0.8618  0.0152  0.6692
  878MPD2    C512932   2.288   2.358  13.288 -0.1326  0.0760 -0.1463
  878MPD2     H12933   2.019   2.624  13.386  0.6190  0.2354  0.9980
  878MPD2    H112934   2.360   2.391  13.485  0.4569 -0.1415 -0.7035
  878MPD2    H212935   2.192   2.353  13.096 -0.0665 -0.8753  0.1454
  878MPD2    H312936   2.363   2.280  13.282  0.5490  0.7426 -0.3186
  878MPD2     N12937   2.177   2.593  13.566 -0.3029 -0.6107 -0.6741
  878MPD2    H512938   2.099   2.657  13.578 -0.3929 -0.7692 -0.3977
  878MPD2    N112939   2.009   2.519  13.129 -0.3286 -0.2543 -0.4666
  878MPD2    H712940   2.041   2.498  13.035 -0.8646 -2.3980 -0.1631
  879MPD2     C12941   2.614   4.276  17.519  0.0765  0.2159 -0.3382
  879MPD2    C112942   2.537   4.173  17.567 -0.7409 -0.6296 -0.0242
  879MPD2    C212943   2.508   4.067  17.486  0.5353 -0.2435  0.5456
  879MPD2    C312944   2.563   4.053  17.359 -0.0507  0.4590  0.7661
  879MPD2    C412945   2.643   4.152  17.316 -0.4332  0.3589  0.2918
  879MPD2    C512946   2.671   4.267  17.393  1.6183  0.0364  0.7273
  879MPD2     H12947   2.428   4.001  17.514 -0.1740  0.5596  0.4105
  879MPD2    H112948   2.685   4.154  17.216  0.4996  0.3691  0.6847
  879MPD2    H212949   2.639   4.359  17.584  0.7258 -0.4768  0.2913
  879MPD2    H312950   2.741   4.341  17.358  0.0365  0.5827 -1.3146
  879MPD2     N12951   2.529   3.944  17.278 -0.3163 -0.1527  0.1181
  879MPD2    H512952   2.541   3.950  17.178  1.2394 -0.4002  0.2859
  879MPD2    N112953   2.494   4.190  17.701 -0.1846 -0.7635  0.5614
  879MPD2    H712954   2.519   4.278  17.744 -2.9059 -0.5482  1.7105
  880MPD2     C12955   3.378   1.372   0.485  0.7037  0.9512 -0.0949
  880MPD2    C112956   3.405   1.378   0.356  0.1877 -0.0497 -0.1313
  880MPD2    C212957   3.495   1.285   0.312 -0.4034 -0.4810 -0.1005
  880MPD2    C312958   3.552   1.190   0.386  0.2379  0.4290 -0.0930
  880MPD2    C412959   3.532   1.192   0.517 -0.0409 -0.6525  0.0082
  880MPD2    C512960   3.449   1.290   0.565  0.1494 -0.2741  0.3388
  880MPD2     H12961   3.521   1.290   0.206 -0.1238 -2.6031 -0.1292
  880MPD2    H112962   3.587   1.129   0.587  0.8431  0.8155  0.6151
  880MPD2    H212963   3.309   1.439   0.535 -2.4780 -1.8826 -0.6968
  880MPD2    H312964   3.413   1.277   0.667 -0.3689 -3.9675 -0.3014
  880MPD2     N12965   3.638   1.093   0.330  0.3681  0.0545  0.5498
  880MPD2    H512966   3.663   1.102   0.232  1.0207 -2.0152  0.5330
  880MPD2    N112967   3.332   1.472   0.282 -0.4024  0.0583 -0.8162
  880MPD2    H712968   3.266   1.520   0.341  0.0412  2.4769 -2.3023
  881MPD2     C12969   2.888   1.773  17.079 -0.4887  0.3538  0.8342
  881MPD2    C112970   3.013   1.815  17.125  0.4351 -0.0661 -0.6090
  881MPD2    C212971   3.039   1.803  17.260 -0.6502 -0.0996 -0.0204
  881MPD2    C312972   2.945   1.754  17.344  0.2067  0.7242 -0.0120
  881MPD2    C412973   2.812   1.751  17.301  0.0578  0.1936 -0.6738
  881MPD2    C512974   2.787   1.761  17.167 -0.0171  0.5873 -0.7218
  881MPD2     H12975   3.138   1.826  17.298  0.7016 -3.3509 -1.5995
  881MPD2    H112976   2.737   1.719  17.373 -0.3430  1.2465 -0.6274
  881MPD2    H212977   2.867   1.786  16.974  1.1131 -1.6277  0.2740
  881MPD2    H312978   2.688   1.745  17.125 -0.4199  0.6587  0.1985
  881MPD2     N12979   2.974   1.714  17.476  0.1573 -0.2945  0.7336
  881MPD2    H512980   2.900   1.725  17.545  0.6208 -0.0457  1.1929
  881MPD2    N112981   3.109   1.843  17.022  0.2966 -0.0441 -0.2314
  881MPD2    H712982   3.083   1.823  16.926 -0.4562 -2.9341  0.5920
  882MPD2     C12983   2.236   3.499  14.689  0.4934  0.1185  0.3076
  882MPD2    C112984   2.132   3.594  14.716 -0.9266 -0.2714 -0.3934
  882MPD2    C212985   2.000   3.550  14.702 -0.6363  0.3874  0.8015
  882MPD2    C312986   1.968   3.420  14.662  0.7901  0.0077 -0.5238
  882MPD2    C412987   2.074   3.333  14.653 -0.1898 -0.2851 -0.1441
  882MPD2    C512988   2.204   3.368  14.667 -0.3111  0.3159  1.0544
  882MPD2     H12989   1.917   3.616  14.725 -0.6091  1.0839 -1.1448
  882MPD2    H112990   2.042   3.230  14.650  1.7812 -0.9114  0.6675
  882MPD2    H212991   2.341   3.522  14.697  0.7540 -1.2012  0.6442
  882MPD2    H312992   2.276   3.287  14.668  0.5117  1.0553  2.3334
  882MPD2     N12993   1.833   3.376  14.639 -0.7174  0.1604  0.9594
  882MPD2    H512994   1.805   3.279  14.627  2.1076 -0.4827 -0.4133
  882MPD2    N112995   2.171   3.727  14.763  0.5867  0.4698 -0.2166
  882MPD2    H712996   2.271   3.732  14.775  0.5145  3.8142 -0.9152
  883MPD2     C12997   4.337   3.507  16.771  0.6756 -0.4421 -0.0708
  883MPD2    C112998   4.391   3.583  16.679 -0.1909 -0.0005 -0.0528
  883MPD2    C212999   4.486   3.674  16.715 -0.2678  0.5696  0.1575
  883MPD2    C313000   4.525   3.684  16.847 -0.2580 -0.1304  0.0075
  883MPD2    C413001   4.471   3.604  16.943  0.2747 -0.6291 -0.2015
  883MPD2    C513002   4.371   3.520  16.904 -0.0207  0.7079 -0.2404
  883MPD2     H13003   4.535   3.733  16.638 -1.6050  1.9640  0.3695
  883MPD2    H113004   4.488   3.618  17.049  1.5195 -1.1503 -0.3382
  883MPD2    H213005   4.269   3.426  16.747  0.8975 -1.8215  4.0419
  883MPD2    H313006   4.321   3.454  16.975  1.8774 -1.0922 -0.5889
  883MPD2     N13007   4.621   3.784  16.878 -0.1633  0.3420  0.5320
  883MPD2    H513008   4.654   3.844  16.803  0.2899  0.8386  1.1303
  883MPD2    N113009   4.360   3.567  16.541  0.1892 -0.0792 -0.3090
  883MPD2    H713010   4.401   3.634  16.477 -2.0259  5.1667  3.7269
  884MPD2     C13011   1.113   4.086  15.484  0.1651 -0.2330 -0.0881
  884MPD2    C113012   1.092   4.216  15.441 -0.1131  0.2725 -0.1701
  884MPD2    C213013   0.962   4.261  15.420 -0.3976  0.2044  0.7926
  884MPD2    C313014   0.854   4.183  15.422  0.4350 -0.5133 -0.0570
  884MPD2    C413015   0.875   4.050  15.462  0.3034  0.5658  0.0069
  884MPD2    C513016   1.003   4.003  15.491  0.0350 -0.9914  0.0353
  884MPD2     H13017   0.949   4.366  15.395  0.7513  0.1695  0.0841
  884MPD2    H113018   0.791   3.981  15.458  0.3186  0.6165 -1.0963
  884MPD2    H213019   1.204   4.038  15.518 -0.7646 -1.6680  0.4120
  884MPD2    H313020   1.006   3.904  15.534  0.7882 -0.7867  0.4621
  884MPD2     N13021   0.730   4.240  15.373  0.4774 -0.8039 -0.2753
  884MPD2    H513022   0.723   4.341  15.368 -1.6317 -0.7186  4.6416
  884MPD2    N113023   1.189   4.320  15.438  0.2820  0.1753 -0.5278
  884MPD2    H713024   1.156   4.413  15.416  0.4520  0.3562 -0.0213
  885MPD2     C13025   3.728   3.883   0.127 -0.1014  0.0758 -0.0128
  885MPD2    C113026   3.820   3.943   0.209 -0.1503 -0.3839 -0.1095
  885MPD2    C213027   3.879   4.058   0.161 -0.5545  0.1951 -0.0916
  885MPD2    C313028   3.851   4.103   0.031 -0.0675 -0.4966 -0.3956
  885MPD2    C413029   3.750   4.044  17.703 -0.0233 -0.7598  0.2921
  885MPD2    C513030   3.695   3.924   0.001 -0.3037  0.1576  0.2711
  885MPD2     H13031   3.955   4.101   0.226 -1.7309 -0.8658  1.9628
  885MPD2    H113032   3.720   4.085  17.607  1.9443  0.7675  0.3196
  885MPD2    H213033   3.683   3.788   0.156  0.1386  0.5379  1.9037
  885MPD2    H313034   3.616   3.874  17.692  1.2842 -0.0908 -1.8033
  885MPD2     N13035   3.926   4.215  17.731 -0.2160 -0.4741 -0.4817
  885MPD2    H513036   3.994   4.251   0.052 -2.0030  1.1509  0.4670
  885MPD2    N113037   3.848   3.878   0.339 -0.1323 -0.2723 -0.4420
  885MPD2    H713038   3.814   3.784   0.357  0.1937 -0.5158 -1.1092
  886MPD2     C13039   0.308   2.895  15.219  0.3460  0.4614  0.0646
  886MPD2    C113040   0.436   2.879  15.255 -0.5422  0.1367  0.0048
  886MPD2    C213041   0.536   2.961  15.201  0.3283  0.0907  0.5714
  886MPD2    C313042   0.495   3.065  15.116  0.0381 -0.1148  0.3520
  886MPD2    C413043   0.361   3.075  15.078  0.3328  0.6510 -0.5792
  886MPD2    C513044   0.267   3.002  15.140  0.3290  0.7157 -0.6675
  886MPD2     H13045   0.637   2.939  15.232  0.5785  1.2503  0.5700
  886MPD2    H113046   0.326   3.148  15.006  1.2726  0.1615 -1.5425
  886MPD2    H213047   0.223   2.849  15.268 -0.0444  0.2333 -0.8405
  886MPD2    H313048   0.163   3.026  15.123  0.1354  1.3627  1.4420
  886MPD2     N13049   0.590   3.153  15.055 -0.5067 -0.2720  0.1031
  886MPD2    H513050   0.551   3.234  15.009  0.8676  0.7690  0.7562
  886MPD2    N113051   0.480   2.775  15.342  0.5790  0.2155 -0.3270
  886MPD2    H713052   0.577   2.783  15.371  0.2483  1.7814  0.3819
  887MPD2     C13053   1.124   2.573  15.606  0.1043 -0.4496 -0.4106
  887MPD2    C113054   1.029   2.661  15.549  0.2186  0.0784 -0.4474
  887MPD2    C213055   1.077   2.787  15.519  0.7847 -0.6353  0.1632
  887MPD2    C313056   1.199   2.831  15.557  0.0007  0.0219  0.2096
  887MPD2    C413057   1.282   2.753  15.622 -0.0710  0.5113 -1.5400
  887MPD2    C513058   1.247   2.618  15.639 -0.7956 -0.4132 -0.4001
  887MPD2     H13059   1.002   2.848  15.469  2.1216 -1.0693 -2.3800
  887MPD2    H113060   1.376   2.789  15.662  0.1271 -2.9508  1.1796
  887MPD2    H213061   1.107   2.468  15.630  0.2006 -0.6205 -1.0847
  887MPD2    H313062   1.319   2.552  15.685 -0.9853 -1.6804 -1.9284
  887MPD2     N13063   1.232   2.973  15.543  0.5585 -0.1820 -0.4496
  887MPD2    H513064   1.181   3.027  15.474 -2.3760  0.3049  2.1179
  887MPD2    N113065   0.894   2.625  15.525 -0.0152  0.1691  0.0542
  887MPD2    H713066   0.841   2.704  15.490  0.8090  0.1647 -1.2011
  888MPD2     C13067   3.738   3.087  15.281  0.0528 -0.4189 -0.0500
  888MPD2    C113068   3.613   3.112  15.230 -0.0399  0.4256  0.6141
  888MPD2    C213069   3.583   3.233  15.165 -0.1644 -0.0751  0.2647
  888MPD2    C313070   3.681   3.328  15.128 -0.4154  0.2242 -0.3650
  888MPD2    C413071   3.816   3.291  15.169 -0.7144  0.3249 -0.0079
  888MPD2    C513072   3.836   3.172  15.237 -0.1280  0.0714 -0.2602
  888MPD2     H13073   3.481   3.253  15.136  0.1259 -0.4407 -1.0111
  888MPD2    H113074   3.900   3.357  15.151  1.8461 -2.5990  1.3628
  888MPD2    H213075   3.772   2.992  15.320  0.7755  0.3438  1.1825
  888MPD2    H313076   3.938   3.146  15.261  0.1889  1.6403  0.0575
  888MPD2     N13077   3.644   3.461  15.086 -0.2151  0.3374 -0.1631
  888MPD2    H513078   3.545   3.473  15.069 -0.3862 -0.1288  0.4933
  888MPD2    N113079   3.524   3.004  15.259  0.1876  0.0586 -0.3298
  888MPD2    H713080   3.558   2.935  15.325  0.4759  0.0801 -0.4565
  889MPD2     C13081   2.819   2.501  12.726 -0.4214  0.1945 -0.2513
  889MPD2    C113082   2.890   2.469  12.843 -0.0191 -0.3594 -0.1310
  889MPD2    C213083   2.881   2.557  12.949 -0.3319  0.2389  0.4797
  889MPD2    C313084   2.829   2.677  12.928  0.2066  0.2469  0.1182
  889MPD2    C413085   2.755   2.704  12.814  0.5539 -0.1227  0.3086
  889MPD2    C513086   2.745   2.616  12.716 -0.5353 -0.5052 -0.3830
  889MPD2     H13087   2.924   2.520  13.042 -0.6104 -1.7384 -0.1682
  889MPD2    H113088   2.720   2.799  12.775 -1.9074 -2.4379 -3.1243
  889MPD2    H213089   2.813   2.426  12.648  2.1397  0.6526 -0.8801
  889MPD2    H313090   2.691   2.638  12.625 -0.7438 -2.0235 -0.6312
  889MPD2     N13091   2.827   2.765  13.041 -0.1710 -0.0901  0.3362
  889MPD2    H513092   2.865   2.727  13.127 -1.5481 -1.1300  0.4780
  889MPD2    N113093   2.936   2.333  12.852 -0.1098  0.0536  0.0919
  889MPD2    H713094   2.899   2.271  12.781  0.9620 -4.1917  3.2298
  890MPD2     C13095   1.629   4.658  14.845 -0.7673 -0.1202  0.3212
  890MPD2    C113096   1.755   4.684  14.896 -0.4860  0.2421  0.6167
  890MPD2    C213097   1.806   4.608  15.000  0.1375  0.3659 -0.6718
  890MPD2    C313098   1.741   4.492  15.042 -0.0403 -0.5518  0.3657
  890MPD2    C413099   1.622   4.461  14.982  0.6852 -0.2112  0.4383
  890MPD2    C513100   1.561   4.548  14.892 -0.1567  0.4823 -0.4166
  890MPD2     H13101   1.901   4.638  15.043  1.1736 -1.5316 -1.6287
  890MPD2    H113102   1.574   4.367  15.004 -1.8575  1.1476  0.7231
  890MPD2    H213103   1.590   4.713  14.760  3.0782  0.4959 -1.0509
  890MPD2    H313104   1.466   4.512  14.853  0.1091  0.1795 -0.7848
  890MPD2     N13105   1.794   4.405  15.144 -0.2556 -0.6822  0.2213
  890MPD2    H513106   1.889   4.433  15.165  0.4104 -0.2727 -3.3392
  890MPD2    N113107   1.832   0.043  14.835 -0.1913  0.1604  0.1096
  890MPD2    H713108   1.794   0.082  14.749  0.1011  2.9837  1.2439
  891MPD2     C13109   0.227   2.988  16.469 -0.2456  0.6939  0.2813
  891MPD2    C113110   0.123   3.058  16.526  0.3065 -0.0235  0.4913
  891MPD2    C213111   0.130   3.106  16.657 -0.1626  0.5714  0.5390
  891MPD2    C313112   0.241   3.081  16.728  0.9014 -0.0934 -0.5705
  891MPD2    C413113   0.349   3.014  16.675 -0.5264  0.0649  0.3890
  891MPD2    C513114   0.341   2.968  16.544  0.1212  0.9476 -0.0327
  891MPD2     H13115   0.050   3.162  16.703  0.2750  0.4242  1.4796
  891MPD2    H113116   0.438   2.992  16.732 -0.1748  0.1616 -0.1318
  891MPD2    H213117   0.235   2.954  16.366 -0.1263 -2.7460  1.4210
  891MPD2    H313118   0.426   2.926  16.493 -0.0097  0.4805  0.1279
  891MPD2     N13119   0.238   3.115  16.867 -0.1202 -0.8916 -0.8806
  891MPD2    H513120   0.161   3.172  16.902  0.7106  0.6300 -1.5524
  891MPD2    N113121   0.004   3.070  16.450 -0.2216  0.6044  0.1594
  891MPD2    H713122   4.730   3.000  16.378 -2.1937  0.1503  0.8824
  892MPD2     C13123   1.042   3.896  14.311  0.0441 -0.0303 -0.7919
  892MPD2    C113124   1.019   3.847  14.437 -0.1694  1.1402  1.0627
  892MPD2    C213125   1.109   3.760  14.490 -0.3620  0.1432  0.8025
  892MPD2    C313126   1.208   3.704  14.409  0.4718  0.1164  0.0368
  892MPD2    C413127   1.233   3.761  14.288 -0.0800 -0.2886 -0.2057
  892MPD2    C513128   1.153   3.859  14.239  0.1970 -0.4113  0.5681
  892MPD2     H13129   1.103   3.729  14.594  1.4456  0.5785  1.0417
  892MPD2    H113130   1.321   3.741  14.227  0.4995  1.2528  0.1276
  892MPD2    H213131   0.975   3.970  14.268 -0.7115 -0.0745  0.3195
  892MPD2    H313132   1.169   3.911  14.145  0.2376 -1.1979  0.1446
  892MPD2     N13133   1.291   3.597  14.452 -0.2072  0.1781 -0.1961
  892MPD2    H513134   1.373   3.571  14.398  0.0950 -0.9353  0.8031
  892MPD2    N113135   0.914   3.895  14.529 -0.4664  0.3167 -0.2460
  892MPD2    H713136   0.927   3.865  14.625 -0.5649 -1.0613 -0.6632
  893MPD2     C13137   2.173   1.560   1.480 -0.4590 -0.7008 -0.2108
  893MPD2    C113138   2.119   1.635   1.382 -0.4899 -0.6375 -0.1009
  893MPD2    C213139   1.975   1.633   1.356 -0.3370 -0.8687  0.6853
  893MPD2    C313140   1.899   1.540   1.424  0.1175 -0.5080  0.1519
  893MPD2    C413141   1.964   1.456   1.519 -0.3273 -0.4575  0.2850
  893MPD2    C513142   2.098   1.475   1.554  0.2245 -0.6167  0.2960
  893MPD2     H13143   1.937   1.696   1.277  1.4747  0.4067  0.8187
  893MPD2    H113144   1.914   1.378   1.575 -0.7161 -1.0619 -0.8883
  893MPD2    H213145   2.279   1.559   1.499 -0.6665  2.1719  1.0721
  893MPD2    H313146   2.144   1.423   1.638 -2.7297 -2.4977  0.7524
  893MPD2     N13147   1.762   1.515   1.395  0.6145 -0.1194 -0.7528
  893MPD2    H513148   1.717   1.438   1.443  1.9163 -1.4586 -1.6877
  893MPD2    N113149   2.204   1.729   1.324 -0.2175  0.4539 -0.2244
  893MPD2    H713150   2.298   1.728   1.362  0.3875 -0.8524 -1.7616
  894MPD2     C13151   0.093   4.595   1.664  0.0642 -0.4142  0.0848
  894MPD2    C113152   0.076   4.730   1.647  0.1993  0.1399  0.1989
  894MPD2    C213153   0.115   0.046   1.526 -0.3959 -0.1764 -0.1716
  894MPD2    C313154   0.167   4.707   1.422  0.3663 -0.0247  0.7026
  894MPD2    C413155   0.163   4.568   1.434  0.3968  0.3842 -0.9269
  894MPD2    C513156   0.133   4.516   1.559 -0.2392 -0.0333  0.2798
  894MPD2     H13157   0.119   0.154   1.513  3.0885 -0.4265 -1.2569
  894MPD2    H113158   0.204   4.492   1.369 -0.6148 -1.0056  0.0554
  894MPD2    H213159   0.075   4.551   1.762 -1.6115  1.6347  0.6826
  894MPD2    H313160   0.132   4.408   1.562  1.3342 -0.0535  0.2852
  894MPD2     N13161   0.221   0.036   1.320 -0.5595  0.1973 -0.2995
  894MPD2    H513162   0.215   0.137   1.314  1.2102  0.3351  0.2069
  894MPD2    N113163   0.035   0.081   1.747  0.1209  0.4459 -0.0466
  894MPD2    H713164   0.041   0.178   1.716 -0.8293  0.9650  1.4052
  895MPD2     C13165   0.492   3.319  13.147  0.0580 -0.1319  0.0786
  895MPD2    C113166   0.360   3.289  13.144 -0.0574  0.7309 -0.5639
  895MPD2    C213167   0.322   3.158  13.159  0.4837 -0.1028  0.6472
  895MPD2    C313168   0.415   3.057  13.180  0.5896 -0.2736  0.5720
  895MPD2    C413169   0.544   3.092  13.189 -0.2267  0.4144  0.7037
  895MPD2    C513170   0.588   3.222  13.178  0.5411 -0.1700  0.6278
  895MPD2     H13171   0.215   3.141  13.150  0.9183 -2.0994 -0.6238
  895MPD2    H113172   0.625   3.025  13.218 -0.6975 -0.6735 -0.4904
  895MPD2    H213173   0.521   3.422  13.130  0.0803 -0.2513 -0.6152
  895MPD2    H313174   0.691   3.253  13.166  1.1664 -3.2091 -1.5648
  895MPD2     N13175   0.382   2.921  13.203  0.5418 -0.4704 -0.0425
  895MPD2    H513176   0.452   2.856  13.237 -0.9502 -0.6901  2.5687
  895MPD2    N113177   0.254   3.382  13.133 -0.9970  0.2402  0.2385
  895MPD2    H713178   0.165   3.341  13.108 -1.7522  0.8214  1.9852
  896MPD2     C13179   2.220   0.797   1.765  0.1653  0.6699 -0.1482
  896MPD2    C113180   2.220   0.748   1.637 -0.3473  0.0173 -0.2168
  896MPD2    C213181   2.118   0.663   1.596 -0.3405  0.1790 -0.3644
  896MPD2    C313182   2.017   0.629   1.687  0.0249  0.0221  0.1592
  896MPD2    C413183   2.020   0.688   1.815  0.2947 -0.6733 -0.0863
  896MPD2    C513184   2.121   0.770   1.852  0.4608 -0.1765 -0.6019
  896MPD2     H13185   2.118   0.609   1.502  0.3007 -0.6364  0.1018
  896MPD2    H113186   1.957   0.657   1.898 -1.1542 -0.1103 -0.9734
  896MPD2    H213187   2.307   0.855   1.793  2.4099 -2.2467 -1.1400
  896MPD2    H313188   2.134   0.797   1.956 -0.0743 -1.8811 -0.0888
  896MPD2     N13189   1.924   0.533   1.649  0.2209 -0.8632  0.0059
  896MPD2    H513190   1.930   0.488   1.559 -2.1635  0.0872 -0.6348
  896MPD2    N113191   2.335   0.769   1.550 -0.5584  0.0259  0.0136
  896MPD2    H713192   2.415   0.817   1.590 -1.2660 -0.7511  2.3011
  897MPD2     C13193   4.152   2.082  10.972  0.2943  1.0723 -0.5780
  897MPD2    C113194   4.069   2.185  10.934  0.1647  0.6166 -0.6453
  897MPD2    C213195   3.960   2.226  11.009  0.6575 -0.1167  0.5112
  897MPD2    C313196   3.939   2.166  11.132  0.0251  0.2375  0.1568
  897MPD2    C413197   4.018   2.059  11.166  0.1623 -0.4795 -0.8602
  897MPD2    C513198   4.130   2.019  11.095  0.1706  0.0978  0.5682
  897MPD2     H13199   3.911   2.320  10.986  1.0688  0.1270  0.6260
  897MPD2    H113200   4.004   2.000  11.256  1.9853 -0.9973 -0.9303
  897MPD2    H213201   4.233   2.055  10.905  0.3296 -1.4775  0.4701
  897MPD2    H313202   4.186   1.941  11.143  4.5275  1.4699 -2.2813
  897MPD2     N13203   3.843   2.220  11.212 -0.0246  0.3165 -0.4947
  897MPD2    H513204   3.796   2.303  11.178  0.6863  0.0954 -2.0163
  897MPD2    N113205   4.099   2.240  10.809 -0.0814  0.2039 -0.3803
  897MPD2    H713206   4.185   2.218  10.759  0.4588  0.6147  0.3555
  898MPD2     C13207   0.740   3.131   0.692 -0.3442  0.3691  0.0591
  898MPD2    C113208   0.788   3.154   0.566 -0.7706  0.8654 -0.2056
  898MPD2    C213209   0.707   3.231   0.483  0.0372 -0.4335  0.5398
  898MPD2    C313210   0.583   3.276   0.524  0.2931 -0.3833  0.0385
  898MPD2    C413211   0.539   3.244   0.651 -0.1420  0.5813  0.5658
  898MPD2    C513212   0.619   3.179   0.736 -0.5472 -0.3210 -0.3787
  898MPD2     H13213   0.746   3.254   0.384 -1.0927  2.4214  0.7645
  898MPD2    H113214   0.441   3.276   0.683 -0.5674  1.1022 -1.2989
  898MPD2    H213215   0.780   3.068   0.770  0.0325  1.3904  0.6833
  898MPD2    H313216   0.584   3.142   0.831 -1.2412 -0.6991 -0.7833
  898MPD2     N13217   0.502   3.344   0.426  0.0771  0.1499  0.7753
  898MPD2    H513218   0.545   3.361   0.336 -1.5631 -0.2450 -0.0641
  898MPD2    N113219   0.910   3.100   0.524 -0.4118  0.5107 -0.3899
  898MPD2    H713220   0.952   3.043   0.596 -1.7670 -0.0113 -0.0252
  899MPD2     C13221   1.794   3.601  17.625 -1.1501 -0.3132  0.3342
  899MPD2    C113222   1.696   3.656  17.709 -0.1214  0.0308 -1.0228
  899MPD2    C213223   1.593   3.575   0.003  0.2381  0.1207  0.0768
  899MPD2    C313224   1.567   3.454  17.690  0.8906  0.1685 -0.1045
  899MPD2    C413225   1.666   3.396  17.607 -0.4117 -0.0011 -0.5122
  899MPD2    C513226   1.775   3.474  17.578 -1.0426 -0.8665 -0.5334
  899MPD2     H13227   1.515   3.624   0.059  1.1021 -0.0777  1.4574
  899MPD2    H113228   1.655   3.300  17.559  0.0078 -0.9317  1.2385
  899MPD2    H213229   1.887   3.650  17.598 -1.2088  0.0546  0.8070
  899MPD2    H313230   1.854   3.432  17.516 -0.0945 -0.2377  0.2352
  899MPD2     N13231   1.439   3.402  17.688  0.2311 -0.4216  0.8688
  899MPD2    H513232   1.421   3.339  17.610  0.2916 -0.9686  1.3016
  899MPD2    N113233   1.694   3.797  17.727 -0.0850  0.3530 -0.6104
  899MPD2    H713234   1.775   3.850  17.695 -0.3773  0.3772 -1.2929
  900MPD2     C13235   1.004   0.259  12.263  0.0582  0.6597  0.3300
  900MPD2    C113236   0.927   0.196  12.355 -0.0191 -0.3987 -0.0199
  900MPD2    C213237   0.800   0.244  12.382  0.1053 -0.2928  0.6373
  900MPD2    C313238   0.748   0.353  12.305  0.1453  0.1078 -0.3657
  900MPD2    C413239   0.831   0.411  12.205  0.3382 -0.3651  0.7034
  900MPD2    C513240   0.959   0.358  12.188  0.8787 -0.0435  0.2317
  900MPD2     H13241   0.736   0.218  12.465 -2.7813  1.6293 -0.9775
  900MPD2    H113242   0.800   0.501  12.153  0.0803 -1.6946 -1.4310
  900MPD2    H213243   1.102   0.222  12.234 -0.9575 -2.6704  1.1820
  900MPD2    H313244   1.025   0.407  12.117 -0.6507  1.8726  0.1292
  900MPD2     N13245   0.616   0.391  12.325  0.1115 -0.3956  0.3629
  900MPD2    H513246   0.562   0.341  12.394 -0.4675  0.6008  0.6398
  900MPD2    N113247   0.987   0.090  12.429 -0.3798  0.5125 -0.3754
  900MPD2    H713248   1.088   0.080  12.425 -0.2931  0.9848  0.4609
  901MPD2     C13249   0.970   3.823  12.738  0.3421 -0.7590 -0.4255
  901MPD2    C113250   1.092   3.877  12.736  0.0569 -0.2531 -0.5876
  901MPD2    C213251   1.116   4.009  12.748  0.5205  0.0453 -0.8459
  901MPD2    C313252   1.006   4.097  12.754  0.0838 -0.0287  0.0499
  901MPD2    C413253   0.880   4.043  12.753 -0.0140 -0.3931 -0.0275
  901MPD2    C513254   0.862   3.911  12.747  0.3350 -0.2270  0.3279
  901MPD2     H13255   1.215   4.050  12.734  0.8033 -0.0941  0.7540
  901MPD2    H113256   0.792   4.106  12.753  0.9804  0.9516 -2.2973
  901MPD2    H213257   0.956   3.716  12.741  2.6620 -1.0836 -1.3164
  901MPD2    H313258   0.766   3.859  12.751 -0.1951  0.6474 -1.3487
  901MPD2     N13259   1.023   4.235  12.744  0.2307 -0.4285 -0.0636
  901MPD2    H513260   1.119   4.263  12.725 -0.4162  2.1676  0.4495
  901MPD2    N113261   1.196   3.779  12.723 -0.5497 -0.1570  0.1231
  901MPD2    H713262   1.170   3.681  12.713 -0.7118  0.0185 -1.1099
  902MPD2     C13263   0.233   2.989  12.460  0.3944 -0.1213  0.0103
  902MPD2    C113264   0.261   3.107  12.401 -0.7199 -0.6555 -0.6084
  902MPD2    C213265   0.346   3.114  12.292 -0.0571 -0.0306  0.9918
  902MPD2    C313266   0.408   2.994  12.247 -0.6337  0.5119 -0.0307
  902MPD2    C413267   0.385   2.877  12.318  0.4256 -0.3550  0.1960
  902MPD2    C513268   0.294   2.873  12.424  0.1080 -0.3239  0.1388
  902MPD2     H13269   0.347   3.213  12.249  0.4676 -1.7323 -2.9829
  902MPD2    H113270   0.441   2.793  12.281  1.4870 -0.3754  1.8258
  902MPD2    H213271   0.157   2.986  12.537 -1.5536 -1.6912 -2.0033
  902MPD2    H313272   0.278   2.777  12.471  0.3641 -0.6420 -0.4379
  902MPD2     N13273   0.511   2.995  12.150 -0.0121  0.3280 -0.2134
  902MPD2    H513274   0.553   2.903  12.134 -1.0734  0.0178 -1.1763
  902MPD2    N113275   0.217   3.229  12.443 -0.0079 -0.0724 -0.2152
  902MPD2    H713276   0.236   3.309  12.383  1.1728 -0.1647  0.0250
  903MPD2     C13277   0.886   3.448  11.642  0.3770 -0.4483  0.5609
  903MPD2    C113278   0.783   3.374  11.698 -0.1366 -0.4286 -0.8025
  903MPD2    C213279   0.649   3.390  11.651 -0.0894 -0.2153  0.0054
  903MPD2    C313280   0.622   3.504  11.567 -0.1940 -0.2892 -0.0866
  903MPD2    C413281   0.722   3.583  11.527  0.0466  0.0714  0.4658
  903MPD2    C513282   0.850   3.554  11.560  0.0065  0.0119 -1.3408
  903MPD2     H13283   0.562   3.339  11.690 -0.2855 -0.7496 -1.1340
  903MPD2    H113284   0.714   3.668  11.460  1.7355  0.7174  1.0850
  903MPD2    H213285   0.991   3.436  11.665  0.3436  0.0919  1.0113
  903MPD2    H313286   0.922   3.624  11.519  1.7867  0.4828  2.5286
  903MPD2     N13287   0.490   3.520  11.532  0.0981 -0.0554 -0.5058
  903MPD2    H513288   0.419   3.454  11.563 -1.0157  1.1629 -0.4637
  903MPD2    N113289   0.807   3.270  11.795 -1.1399  0.4997 -0.1916
  903MPD2    H713290   0.723   3.218  11.817 -1.0675  0.0356 -1.0030
  904MPD2     C13291   0.300   2.136  14.385 -0.1229  0.8451  0.7232
  904MPD2    C113292   0.277   2.209  14.271  0.0779  0.5119 -0.0484
  904MPD2    C213293   0.377   2.219  14.179 -0.3593 -0.3284  0.4560
  904MPD2    C313294   0.497   2.154  14.186 -0.1535 -0.1856 -0.0161
  904MPD2    C413295   0.516   2.085  14.298 -0.8272 -0.3183  0.1802
  904MPD2    C513296   0.419   2.074  14.396  0.3973  0.2777 -0.1184
  904MPD2     H13297   0.368   2.266  14.081 -1.5836  1.7148  1.5353
  904MPD2    H113298   0.609   2.032  14.319 -0.6814 -0.6713 -1.3776
  904MPD2    H213299   0.230   2.140  14.468  0.3893  0.7402  1.1613
  904MPD2    H313300   0.430   1.994  14.468  2.2211  0.9500  0.3402
  904MPD2     N13301   0.586   2.161  14.081 -0.3730  0.3727  0.1069
  904MPD2    H513302   0.567   2.219  13.999  2.4342  2.3323  0.8305
  904MPD2    N113303   0.158   2.284  14.240  0.2575  0.1238 -0.0944
  904MPD2    H713304   0.147   2.335  14.153  0.2432  1.7723  0.8689
  905MPD2     C13305   4.354   2.652  13.712 -0.9445  0.3296  0.4701
  905MPD2    C113306   4.468   2.583  13.752 -0.2771  0.6801 -0.1786
  905MPD2    C213307   4.563   2.562  13.654 -0.6487 -0.0490  0.4713
  905MPD2    C313308   4.554   2.607  13.525 -0.6643  0.2789 -0.3992
  905MPD2    C413309   4.445   2.679  13.485 -0.2220 -0.4772  0.7743
  905MPD2    C513310   4.354   2.702  13.584  0.1247 -0.2468  0.4851
  905MPD2     H13311   4.651   2.501  13.667 -1.7897 -1.6668  0.5403
  905MPD2    H113312   4.426   2.714  13.384 -2.3620 -1.3448  0.8574
  905MPD2    H213313   4.274   2.678  13.781 -2.0735  0.4709 -0.8996
  905MPD2    H313314   4.263   2.760  13.572  0.6676 -0.1008 -2.7508
  905MPD2     N13315   4.642   2.585  13.420  0.4506  0.2928  0.2142
  905MPD2    H513316   4.619   2.638  13.336  0.8984 -1.2438 -0.8791
  905MPD2    N113317   4.477   2.545  13.888 -0.7071  1.2002  0.0433
  905MPD2    H713318   4.393   2.563  13.942 -1.8915 -3.3152 -0.2938
  906MPD2     C13319   2.315   2.867  11.372 -0.3758 -0.8804 -0.5312
  906MPD2    C113320   2.362   2.752  11.310  0.2129  0.2439 -0.0656
  906MPD2    C213321   2.320   2.631  11.357 -0.3358 -0.0009  1.0298
  906MPD2    C313322   2.214   2.629  11.443  0.1376 -0.2111  0.3321
  906MPD2    C413323   2.148   2.742  11.488 -0.5652 -0.2273  0.1850
  906MPD2    C513324   2.207   2.865  11.458  0.3953  0.1345 -0.3042
  906MPD2     H13325   2.357   2.537  11.319 -0.0248  0.5723 -0.0756
  906MPD2    H113326   2.055   2.737  11.544 -0.4431  0.8549  0.4661
  906MPD2    H213327   2.351   2.966  11.346 -2.3933  0.0392  0.1333
  906MPD2    H313328   2.175   2.955  11.510  0.1609  0.7675 -1.5558
  906MPD2     N13329   2.163   2.513  11.494  0.5768  0.4941 -0.1193
  906MPD2    H513330   2.068   2.518  11.531  0.1890  0.1702 -1.0678
  906MPD2    N113331   2.461   2.757  11.216  0.1667 -0.6514 -0.1719
  906MPD2    H713332   2.485   2.670  11.169 -2.0479 -1.0748 -0.5262
  907MPD2     C13333   0.798   1.578  15.254 -0.8199 -0.3911 -0.0410
  907MPD2    C113334   0.898   1.535  15.335 -0.0879 -0.0485 -0.1456
  907MPD2    C213335   0.939   1.608  15.446 -0.0928  0.1627 -0.4720
  907MPD2    C313336   0.875   1.725  15.478 -0.5859 -0.2583  0.0788
  907MPD2    C413337   0.766   1.764  15.401  0.3279 -0.0401  0.1682
  907MPD2    C513338   0.728   1.687  15.291 -0.0442 -0.2279 -0.0601
  907MPD2     H13339   1.012   1.564  15.512 -2.2072  0.4243  2.0478
  907MPD2    H113340   0.695   1.842  15.426  0.7248  0.5332 -0.4918
  907MPD2    H213341   0.764   1.521  15.168 -0.4164  0.8898 -1.0459
  907MPD2    H313342   0.637   1.715  15.240 -0.2482  1.9482  1.4713
  907MPD2     N13343   0.904   1.785  15.606 -0.0346  0.2969 -0.5977
  907MPD2    H513344   0.961   1.728  15.668  1.3696  0.2110 -1.9445
  907MPD2    N113345   0.976   1.420  15.301 -0.0652 -0.3057  0.1456
  907MPD2    H713346   1.027   1.378  15.378 -0.1602 -1.9985 -0.7194
  908MPD2     C13347   3.642   2.194  10.026  0.3649 -0.0006 -0.7724
  908MPD2    C113348   3.779   2.168  10.028  0.6817 -0.2763  0.5774
  908MPD2    C213349   3.862   2.249  10.112  0.2897  0.0913 -0.4862
  908MPD2    C313350   3.803   2.347  10.193 -0.6328  0.0009 -0.7738
  908MPD2    C413351   3.666   2.369  10.189  0.3890  1.0014 -0.0740
  908MPD2    C513352   3.586   2.301  10.100 -0.2465  0.3314 -0.2184
  908MPD2     H13353   3.970   2.246  10.109  0.3014 -0.6085  0.6183
  908MPD2    H113354   3.627   2.450  10.248  1.9072  2.2832 -0.8209
  908MPD2    H213355   3.578   2.133   9.963  0.1345  0.5812 -1.1049
  908MPD2    H313356   3.486   2.342  10.090 -0.4627 -0.6285 -1.9919
  908MPD2     N13357   3.881   2.421  10.285 -0.0688 -0.4265 -0.2309
  908MPD2    H513358   3.836   2.458  10.368  1.8501 -0.7024  0.9110
  908MPD2    N113359   3.831   2.069   9.946  0.1854  0.3760 -0.7083
  908MPD2    H713360   3.770   2.025   9.878 -0.3735  0.2934 -0.1496
  909MPD2     C13361   4.034   4.736  11.738 -0.3874 -0.3792 -0.0307
  909MPD2    C113362   4.086   0.126  11.774 -0.0025  0.5593 -0.3034
  909MPD2    C213363   4.014   0.211  11.852  0.0974 -0.5779 -0.3176
  909MPD2    C313364   3.901   0.172  11.921 -0.2539  0.5366 -0.2963
  909MPD2    C413365   3.857   0.043  11.893 -0.2647 -0.4746 -0.4942
  909MPD2    C513366   3.920   4.704  11.804  0.5713  0.0010  0.3322
  909MPD2     H13367   4.038   0.315  11.870  0.0716 -0.5448 -0.4774
  909MPD2    H113368   3.764   0.005  11.934 -0.8002 -0.2857 -1.5247
  909MPD2    H213369   4.075   4.666  11.667  0.2561  0.7122 -0.7358
  909MPD2    H313370   3.874   4.609  11.777 -0.2295  0.4328  0.1931
  909MPD2     N13371   3.828   0.269  11.998  0.4459  0.1309 -0.4739
  909MPD2    H513372   3.864   0.364  11.993  0.7014  0.0668  0.2461
  909MPD2    N113373   4.193   0.192  11.708 -0.4951  0.2419 -0.2907
  909MPD2    H713374   4.196   0.291  11.728  4.9730 -0.4415  2.1872
  910MPD2     C13375   0.749   1.730  16.251  0.4666  0.2976  0.0187
  910MPD2    C113376   0.752   1.692  16.119  0.3008 -0.4273 -0.0158
  910MPD2    C213377   0.673   1.766  16.033  0.2666 -0.3327  0.8270
  910MPD2    C313378   0.606   1.880  16.078 -0.6619  0.2498  1.3444
  910MPD2    C413379   0.608   1.921  16.211 -0.4173 -0.2453 -0.4326
  910MPD2    C513380   0.677   1.840  16.290  0.3706 -0.2073 -0.4649
  910MPD2     H13381   0.664   1.730  15.931 -0.4514 -0.9920  1.1261
  910MPD2    H113382   0.559   2.011  16.246  0.3420 -0.4123  1.0297
  910MPD2    H213383   0.817   1.683  16.321 -1.4276 -0.6270  1.2466
  910MPD2    H313384   0.675   1.872  16.394 -2.5958 -0.2805 -0.5098
  910MPD2     N13385   0.543   1.972  15.992  0.2662  0.4925 -0.2215
  910MPD2    H513386   0.520   2.063  16.031  1.5462  0.2175  1.2109
  910MPD2    N113387   0.824   1.579  16.084  0.6591 -0.4979 -0.1720
  910MPD2    H713388   0.820   1.561  15.984 -3.3421 -4.1229  0.6453
  911MPD2     C13389   3.036   2.506  16.363  0.0800 -0.7079  0.4883
  911MPD2    C113390   3.102   2.625  16.379 -0.1787 -0.1615  0.1365
  911MPD2    C213391   3.046   2.734  16.317 -0.3598 -0.0416  0.1926
  911MPD2    C313392   2.935   2.724  16.235 -0.2852 -0.1403 -0.2547
  911MPD2    C413393   2.871   2.600  16.221  0.0535 -0.2884 -0.2978
  911MPD2    C513394   2.924   2.493  16.283  0.0314 -0.5168 -0.4586
  911MPD2     H13395   3.084   2.834  16.334  1.3045 -0.4085 -1.3177
  911MPD2    H113396   2.790   2.581  16.151 -0.8341 -0.8305  0.8760
  911MPD2    H213397   3.073   2.427  16.428  0.7100 -0.6847  0.1511
  911MPD2    H313398   2.884   2.392  16.277 -0.4954 -0.4013  1.1523
  911MPD2     N13399   2.875   2.829  16.161 -0.5837 -0.0489  0.1267
  911MPD2    H513400   2.792   2.793  16.116 -1.1447  1.3468  0.0251
  911MPD2    N113401   3.218   2.629  16.462  0.1606  0.3592 -0.0280
  911MPD2    H713402   3.248   2.544  16.507  1.0583  1.5689  1.6482
  912MPD2     C13403   2.810   2.523  15.669 -0.0426  0.4900  0.0862
  912MPD2    C113404   2.746   2.565  15.782  0.7648 -0.5947  0.9607
  912MPD2    C213405   2.701   2.470  15.877 -0.1429  0.3300 -0.7033
  912MPD2    C313406   2.733   2.335  15.858  0.2645  0.1472 -0.2689
  912MPD2    C413407   2.802   2.297  15.744  0.1601  0.6887 -0.1534
  912MPD2    C513408   2.837   2.389  15.650 -0.2936  0.1098 -0.1173
  912MPD2     H13409   2.640   2.503  15.960  0.9013 -1.2639  0.6955
  912MPD2    H113410   2.818   2.192  15.724 -0.5470  0.6532 -0.5335
  912MPD2    H213411   2.838   2.597  15.595  0.9965 -1.1147 -1.1397
  912MPD2    H313412   2.890   2.354  15.563 -0.0745  1.1775 -0.4128
  912MPD2     N13413   2.690   2.242  15.961  0.2716 -0.1945 -0.0645
  912MPD2    H513414   2.624   2.267  16.034  1.0596  1.6425  0.0215
  912MPD2    N113415   2.729   2.704  15.802  0.2951  0.2408  0.4378
  912MPD2    H713416   2.759   2.757  15.721 -0.7494  1.4811  0.8667
  913MPD2     C13417   3.967   3.535  10.458 -0.1892 -0.5727 -0.7076
  913MPD2    C113418   3.932   3.635  10.542  0.9641 -0.2650 -0.7622
  913MPD2    C213419   3.833   3.724  10.500  0.5042  0.6405  0.7666
  913MPD2    C313420   3.777   3.720  10.372 -0.0260 -0.0475 -0.3029
  913MPD2    C413421   3.819   3.620  10.290  0.3168 -0.3821 -0.7404
  913MPD2    C513422   3.915   3.528  10.332 -0.5007  0.6074  0.2687
  913MPD2     H13423   3.815   3.805  10.569  0.3964 -0.0585  1.5671
  913MPD2    H113424   3.782   3.608  10.189 -2.1496 -0.0460  0.1236
  913MPD2    H213425   4.041   3.460  10.482  0.4000 -1.2089 -4.4873
  913MPD2    H313426   3.937   3.439  10.273 -2.1054  0.0102  0.5533
  913MPD2     N13427   3.691   3.814  10.321  0.1270 -0.3508  0.8126
  913MPD2    H513428   3.675   3.818  10.221  1.4800 -0.1154  0.6032
  913MPD2    N113429   4.006   3.646  10.665 -0.3339  0.3247  0.3205
  913MPD2    H713430   4.078   3.576  10.682  0.5988  0.8393 -1.5511
  914MPD2     C13431   1.312   3.521  11.904 -0.4300 -0.1899  0.8746
  914MPD2    C113432   1.281   3.639  11.961  0.4158  0.3464  0.5923
  914MPD2    C213433   1.309   3.651  12.093 -0.0035 -0.2018 -0.1074
  914MPD2    C313434   1.368   3.557  12.171  0.2479 -0.6851 -0.2814
  914MPD2    C413435   1.411   3.440  12.111  0.1679 -0.3637 -0.2619
  914MPD2    C513436   1.381   3.423  11.981  0.3029  0.8763 -0.6267
  914MPD2     H13437   1.285   3.742  12.147 -2.9975 -0.7395 -0.5345
  914MPD2    H113438   1.463   3.359  12.161  2.4699  1.2093 -0.0965
  914MPD2    H213439   1.280   3.493  11.804 -0.8761  2.5431  0.2679
  914MPD2    H313440   1.407   3.329  11.934  0.3977  0.3561  0.4631
  914MPD2     N13441   1.395   3.574  12.314 -0.5304 -0.0882 -0.1489
  914MPD2    H513442   1.389   3.666  12.357  1.9917  1.1094 -2.3771
  914MPD2    N113443   1.211   3.746  11.889 -0.2884 -0.0876 -1.1578
  914MPD2    H713444   1.209   3.731  11.789  4.1299 -0.8150 -1.1447
  915MPD2     C13445   4.306   4.062  15.836 -0.0358 -0.9600 -0.3851
  915MPD2    C113446   4.178   4.090  15.802 -0.4127 -0.3348  0.1323
  915MPD2    C213447   4.079   4.124  15.897  0.2066 -0.3688 -0.7923
  915MPD2    C313448   4.117   4.147  16.026  0.2471  0.7066 -0.3919
  915MPD2    C413449   4.252   4.128  16.058 -0.2140 -0.1756 -0.4178
  915MPD2    C513450   4.336   4.082  15.964 -0.8035  0.1140 -0.2461
  915MPD2     H13451   3.978   4.140  15.861  0.4336 -1.0089 -1.7298
  915MPD2    H113452   4.296   4.146  16.156 -0.1791  0.3957 -0.5374
  915MPD2    H213453   4.377   4.021  15.765 -0.4978 -0.6527 -1.0217
  915MPD2    H313454   4.437   4.060  15.996  0.0175  1.4347 -1.9353
  915MPD2     N13455   4.022   4.191  16.122 -0.2479 -0.2239 -0.3865
  915MPD2    H513456   3.930   4.203  16.081  0.0657  1.0225 -0.7270
  915MPD2    N113457   4.135   4.052  15.676 -0.7596 -0.3810 -0.0731
  915MPD2    H713458   4.036   4.045  15.653 -0.3532  0.1206 -1.9739
  916MPD2     C13459   2.348   2.479  15.839  0.4095  0.5419  0.5708
  916MPD2    C113460   2.295   2.362  15.904 -0.9280  0.3606  0.5862
  916MPD2    C213461   2.317   2.240  15.838  0.2877  0.6187 -0.6524
  916MPD2    C313462   2.374   2.232  15.712  0.0775  0.0844  0.2536
  916MPD2    C413463   2.416   2.352  15.650 -0.4906  0.1074  0.7506
  916MPD2    C513464   2.403   2.471  15.719 -0.3619 -0.3178 -0.8064
  916MPD2     H13465   2.282   2.150  15.888  1.1184  1.1773  0.9131
  916MPD2    H113466   2.451   2.361  15.548 -0.6403 -1.1940  0.5938
  916MPD2    H213467   2.342   2.580  15.877 -1.0865  1.1982 -1.4367
  916MPD2    H313468   2.449   2.558  15.674 -0.5775 -0.5217 -1.4281
  916MPD2     N13469   2.374   2.111  15.633 -0.3263 -0.1065  0.5216
  916MPD2    H513470   2.356   2.025  15.683 -3.2626  0.4195  0.3754
  916MPD2    N113471   2.219   2.370  16.022  0.0905  0.5813 -0.3854
  916MPD2    H713472   2.205   2.469  16.041  0.2435  0.1673  1.8132
  917MPD2     C13473   2.568   4.667  11.186 -0.5509  0.0852  0.2230
  917MPD2    C113474   2.616   4.690  11.307 -0.1091 -0.0645 -0.7254
  917MPD2    C213475   2.745   0.000  11.314 -0.1806 -0.6837  0.2452
  917MPD2    C313476   2.822   0.025  11.198 -0.0956  0.7743  0.4331
  917MPD2    C413477   2.763   0.010  11.076  0.3647  0.5619 -0.1284
  917MPD2    C513478   2.639   4.697  11.072  0.4750 -0.0490  0.2227
  917MPD2     H13479   2.785   0.027  11.412  0.8230 -1.3677  0.0306
  917MPD2    H113480   2.812   0.040  10.983  1.0485 -1.5778 -0.4662
  917MPD2    H213481   2.469   4.624  11.175 -0.5903  0.3219 -0.3575
  917MPD2    H313482   2.583   4.683  10.980  0.4418  1.8817 -0.0516
  917MPD2     N13483   2.950   0.088  11.205  0.4335  0.3072  0.3100
  917MPD2    H513484   2.978   0.129  11.116 -0.7977  1.6742  0.5582
  917MPD2    N113485   2.532   4.688  11.418 -0.8643 -0.0872 -0.6277
  917MPD2    H713486   2.435   4.661  11.403 -1.3799  2.4356 -1.8264
  918MPD2     C13487   2.666   0.213  12.356 -0.1557  0.4249 -0.1598
  918MPD2    C113488   2.732   0.232  12.233  1.0921 -0.0475 -0.4790
  918MPD2    C213489   2.656   0.226  12.118  0.1486 -0.2901 -0.1897
  918MPD2    C313490   2.528   0.177  12.123 -0.0730  0.4464 -0.0535
  918MPD2    C413491   2.461   0.146  12.242  0.5214 -0.1870 -0.4539
  918MPD2    C513492   2.529   0.175  12.355 -0.2739  0.0807  0.3141
  918MPD2     H13493   2.705   0.240  12.022 -1.2850 -1.3907 -1.0636
  918MPD2    H113494   2.366   0.095  12.238  0.4379 -0.2935  2.8619
  918MPD2    H213495   2.721   0.227  12.448 -0.3043 -0.0698  0.0054
  918MPD2    H313496   2.472   0.155  12.444  2.6283 -2.4677  1.5847
  918MPD2     N13497   2.479   0.142  11.999  0.3628 -0.8617  0.5180
  918MPD2    H513498   2.542   0.138  11.919 -0.2425 -0.0933  0.0141
  918MPD2    N113499   2.871   0.255  12.239  0.7429 -0.4670 -0.3859
  918MPD2    H713500   2.914   0.254  12.331  0.0054  0.7157 -0.0165
  919MPD2     C13501   3.406   3.921  11.710 -0.6112 -0.0004 -0.5726
  919MPD2    C113502   3.424   3.802  11.639  0.8658  0.3718 -0.0263
  919MPD2    C213503   3.465   3.799  11.508  0.1853 -0.0744 -0.1932
  919MPD2    C313504   3.476   3.913  11.431  0.3102  0.0167 -0.6661
  919MPD2    C413505   3.442   4.028  11.493  0.6917 -1.0247 -0.3126
  919MPD2    C513506   3.421   4.028  11.630  0.8355 -0.2683 -0.1101
  919MPD2     H13507   3.480   3.699  11.469 -2.9312 -0.7557  0.3568
  919MPD2    H113508   3.444   4.122  11.439  0.8481 -0.8054  0.0775
  919MPD2    H213509   3.378   3.920  11.815 -2.2581 -0.1572 -1.0100
  919MPD2    H313510   3.388   4.121  11.675  2.9782 -0.1510  1.1952
  919MPD2     N13511   3.503   3.912  11.295 -0.8847 -0.0478  0.0026
  919MPD2    H513512   3.488   4.001  11.250 -0.3032  0.5358  0.9619
  919MPD2    N113513   3.409   3.669  11.696  0.3902  0.6970  0.2924
  919MPD2    H713514   3.430   3.589  11.637 -2.2534 -0.2664  0.6293
  920MPD2     C13515   3.379   4.384  10.444 -0.2490  0.9371  0.8678
  920MPD2    C113516   3.306   4.275  10.421  0.3653 -0.6556 -0.3471
  920MPD2    C213517   3.309   4.177  10.519 -0.3234 -0.3029 -0.2009
  920MPD2    C313518   3.392   4.187  10.630 -0.1825  0.2209 -0.3793
  920MPD2    C413519   3.461   4.303  10.644  0.0736  0.9136 -0.4131
  920MPD2    C513520   3.457   4.399  10.553  0.4783  0.6815  0.3081
  920MPD2     H13521   3.258   4.083  10.503  0.3924 -0.7608  0.1907
  920MPD2    H113522   3.531   4.334  10.720  0.2267  0.2354 -0.2721
  920MPD2    H213523   3.388   4.466  10.373  1.3871  0.9712  1.1062
  920MPD2    H313524   3.522   4.483  10.573  1.8005 -0.2122 -0.1787
  920MPD2     N13525   3.412   4.080  10.716  0.2547  0.2675 -0.0145
  920MPD2    H513526   3.379   3.988  10.687  2.5489 -0.1217 -1.3147
  920MPD2    N113527   3.223   4.266  10.309  0.7513  0.2267  0.3765
  920MPD2    H713528   3.156   4.189  10.313  0.0581  0.7957 -0.1899
  921MPD2     C13529   3.971   3.234  16.643 -0.1762  0.1956  0.3045
  921MPD2    C113530   4.014   3.108  16.614 -0.4550  0.5353 -0.4826
  921MPD2    C213531   3.919   3.008  16.627  0.2905  0.0150  0.3681
  921MPD2    C313532   3.787   3.030  16.676  0.4131  0.2856 -0.0139
  921MPD2    C413533   3.749   3.158  16.692  0.7820  0.5250  1.2569
  921MPD2    C513534   3.838   3.253  16.676  0.5981  0.3666 -0.1879
  921MPD2     H13535   3.952   2.909  16.596 -1.6311 -0.7118  0.6577
  921MPD2    H113536   3.655   3.198  16.727  0.1071 -0.0218  0.0554
  921MPD2    H213537   4.031   3.320  16.615 -0.5867 -0.0692 -1.3623
  921MPD2    H313538   3.807   3.349  16.716 -0.7549 -0.5287  0.9084
  921MPD2     N13539   3.692   2.930  16.700 -0.2904  0.0765 -0.5124
  921MPD2    H513540   3.595   2.960  16.694 -0.2604  0.4843  1.0395
  921MPD2    N113541   4.140   3.084  16.562  0.2008 -0.2269 -0.8595
  921MPD2    H713542   4.199   3.166  16.557 -0.1991  0.1570  0.6657
  922MPD2     C13543   0.198   0.420  16.915 -0.2630 -0.5027  0.5238
  922MPD2    C113544   0.126   0.505  16.993  0.2734 -0.2623 -0.5782
  922MPD2    C213545   0.036   0.450  17.086  0.1097  0.0208  0.0884
  922MPD2    C313546   0.011   0.316  17.088  0.3010  0.2676  0.3535
  922MPD2    C413547   0.066   0.236  16.986 -0.6676  0.9006  0.0252
  922MPD2    C513548   0.157   0.287  16.903 -0.4171  0.5319 -0.4535
  922MPD2     H13549   4.715   0.513  17.153  1.4239  1.3329 -0.0169
  922MPD2    H113550   0.047   0.130  16.974  1.3536  0.5850 -0.4617
  922MPD2    H213551   0.265   0.462  16.841 -1.9650 -2.2864 -2.0643
  922MPD2    H313552   0.212   0.220  16.838  0.1651 -0.5693  1.1806
  922MPD2     N13553   4.636   0.277  17.154  0.1018  0.1554 -0.7034
  922MPD2    H513554   4.586   0.346  17.208 -0.1329 -0.4181 -0.1858
  922MPD2    N113555   0.147   0.647  16.997 -0.0990  0.4581 -0.4791
  922MPD2    H713556   0.100   0.707  17.064  0.8857  0.4146  0.2443
  923MPD2     C13557   1.526   3.088   8.807 -0.3092  0.1667  0.4232
  923MPD2    C113558   1.574   3.182   8.897  0.5788  0.0373 -0.6805
  923MPD2    C213559   1.644   3.134   9.009 -0.4737  0.5210 -0.3187
  923MPD2    C313560   1.670   2.992   9.027  0.3723 -0.0904  0.2098
  923MPD2    C413561   1.616   2.907   8.933 -0.1854  0.2655 -0.3008
  923MPD2    C513562   1.553   2.954   8.826 -0.4822  0.0998  0.5884
  923MPD2     H13563   1.663   3.189   9.101  1.0377  1.6703 -1.3249
  923MPD2    H113564   1.641   2.802   8.942 -1.3475  0.2582  2.7842
  923MPD2    H213565   1.471   3.119   8.719  0.0458  0.5494  0.3348
  923MPD2    H313566   1.534   2.881   8.748 -0.6109  2.2782 -1.4335
  923MPD2     N13567   1.742   2.933   9.135  0.5114  0.3694  0.0173
  923MPD2    H513568   1.732   2.832   9.141  1.2003  0.1830 -1.8754
  923MPD2    N113569   1.557   3.325   8.888  0.0969  0.5834 -0.3062
  923MPD2    H713570   1.567   3.384   8.971  1.6461 -0.8481  0.5335
  924MPD2     C13571   1.470   2.427  15.940  0.0834  0.4655  0.0954
  924MPD2    C113572   1.475   2.312  15.864  0.3412 -0.3544  0.1177
  924MPD2    C213573   1.358   2.257  15.819 -0.5556  0.3948 -0.0973
  924MPD2    C313574   1.240   2.304  15.871  0.3454  0.2388 -0.1073
  924MPD2    C413575   1.236   2.426  15.940  0.4876  0.9776  0.0952
  924MPD2    C513576   1.355   2.488  15.973 -0.5120 -0.5595  0.8752
  924MPD2     H13577   1.360   2.157  15.776  0.4527  0.7542 -0.8881
  924MPD2    H113578   1.150   2.475  15.984 -0.0524  0.9833 -0.9741
  924MPD2    H213579   1.557   2.484  15.970  2.6566 -2.1894 -2.2951
  924MPD2    H313580   1.351   2.583  16.026  2.7254  0.4415 -0.5973
  924MPD2     N13581   1.128   2.217  15.863  0.3415  0.5858  0.4841
  924MPD2    H513582   1.135   2.132  15.809  1.8853  1.2798 -0.4300
  924MPD2    N113583   1.598   2.241  15.842  0.0076  0.1237 -0.3961
  924MPD2    H713584   1.680   2.272  15.892  0.7929  0.7731 -2.0754
  925MPD2     C13585   4.518   3.474  14.717  0.1883 -0.4305  0.5230
  925MPD2    C113586   4.638   3.406  14.724  0.5286  0.3555  0.3422
  925MPD2    C213587   4.699   3.391  14.847  0.1620 -0.3318  0.0852
  925MPD2    C313588   4.653   3.459  14.961 -0.0632 -0.4741 -0.2669
  925MPD2    C413589   4.548   3.543  14.942  0.5611  0.0486  0.2108
  925MPD2    C513590   4.472   3.543  14.826 -0.3766  0.0916 -0.5352
  925MPD2     H13591   0.061   3.347  14.858  0.5430  0.5429  0.1533
  925MPD2    H113592   4.509   3.602  15.024 -2.3968 -0.0871 -1.0846
  925MPD2    H213593   4.458   3.477  14.626 -0.3850 -1.9018  0.8451
  925MPD2    H313594   4.384   3.606  14.826  0.9447  1.9685 -3.0416
  925MPD2     N13595   4.713   3.453  15.089 -0.7127  0.8223 -0.6075
  925MPD2    H513596   4.662   3.497  15.166 -0.0498  0.8203 -0.1706
  925MPD2    N113597   4.702   3.364  14.604 -0.5077 -0.6279 -0.3480
  925MPD2    H713598   0.056   3.322  14.623 -0.4038 -0.9066 -1.4943
  926MPD2     C13599   4.006   1.764  13.922 -0.5307  0.1856  0.2970
  926MPD2    C113600   3.920   1.831  13.839  0.1206 -0.8369 -0.1906
  926MPD2    C213601   3.949   1.866  13.710  0.4881  0.1312 -0.4492
  926MPD2    C313602   4.073   1.864  13.657 -0.3269 -0.4886  0.3446
  926MPD2    C413603   4.171   1.823  13.746 -0.0419 -0.3512  0.4099
  926MPD2    C513604   4.133   1.775  13.875 -0.3588 -0.0951  0.5582
  926MPD2     H13605   3.865   1.909  13.657  0.5057  0.1662 -0.4487
  926MPD2    H113606   4.277   1.827  13.726  0.0400  3.1599  1.6316
  926MPD2    H213607   3.979   1.739  14.024 -3.3369 -0.5799 -0.6339
  926MPD2    H313608   4.215   1.756  13.943  1.0615  3.7412 -0.1127
  926MPD2     N13609   4.105   1.902  13.526  0.6641  0.5141  0.0826
  926MPD2    H513610   4.201   1.906  13.493  0.7573 -0.0929  0.2765
  926MPD2    N113611   3.788   1.854  13.871 -0.1367  0.6272  0.4823
  926MPD2    H713612   3.740   1.882  13.786 -1.3799  2.1820  1.7036
  927MPD2     C13613   2.989   3.939   0.393 -0.0384 -0.2548 -0.7421
  927MPD2    C113614   3.017   4.073   0.371 -0.0166  0.3630 -0.8141
  927MPD2    C213615   3.077   4.111   0.256 -0.2245 -0.5275 -0.4043
  927MPD2    C313616   3.120   4.019   0.161 -0.2715  0.0545 -0.0718
  927MPD2    C413617   3.107   3.883   0.189 -0.0813 -0.0087  0.0900
  927MPD2    C513618   3.041   3.842   0.304  0.1327 -0.2828 -0.8176
  927MPD2     H13619   3.104   4.215   0.242 -0.6492 -0.3668 -0.0331
  927MPD2    H113620   3.143   3.808   0.121 -0.0912  0.9910 -1.0081
  927MPD2    H213621   2.937   3.894   0.477  0.9854 -2.6071 -1.3603
  927MPD2    H313622   3.026   3.736   0.325 -0.2480 -0.2826 -1.0770
  927MPD2     N13623   3.185   4.074   0.043 -0.3810  0.0674 -0.6853
  927MPD2    H513624   3.188   4.175   0.033 -2.3596 -0.0748 -2.8671
  927MPD2    N113625   2.982   4.158   0.481 -0.6285 -0.1376 -0.3541
  927MPD2    H713626   2.945   4.112   0.563 -0.3167  0.3752  0.0759
  928MPD2     C13627   1.615   1.955   1.138  0.2803 -0.1097  0.0599
  928MPD2    C113628   1.699   2.068   1.153 -0.1729 -0.3762  0.1451
  928MPD2    C213629   1.696   2.174   1.060 -0.2124  0.0310 -0.0081
  928MPD2    C313630   1.624   2.161   0.948 -0.4703 -0.0652 -0.4974
  928MPD2    C413631   1.544   2.047   0.935 -0.1209  0.3070 -0.0462
  928MPD2    C513632   1.538   1.954   1.028  0.4608  0.1495 -0.2743
  928MPD2     H13633   1.764   2.258   1.067 -1.3314  0.9190  0.1821
  928MPD2    H113634   1.483   2.041   0.845 -1.2778  0.5024  0.7343
  928MPD2    H213635   1.612   1.886   1.221  0.8582 -1.3724 -0.9843
  928MPD2    H313636   1.474   1.867   1.015 -1.8316  2.8055 -6.5753
  928MPD2     N13637   1.608   2.268   0.855 -0.6228 -0.1470 -0.6447
  928MPD2    H513638   1.567   2.249   0.764 -0.8496  0.3524 -0.6447
  928MPD2    N113639   1.794   2.064   1.258 -0.1926 -0.2243  0.0146
  928MPD2    H713640   1.790   1.982   1.318 -0.0391  0.8950  1.5498
  929MPD2     C13641   1.474   3.107  10.404  0.0980 -0.3997  0.3409
  929MPD2    C113642   1.458   3.007  10.314 -0.5893 -0.1585  0.5989
  929MPD2    C213643   1.468   3.032  10.176  0.5578  0.2691  0.0501
  929MPD2    C313644   1.469   3.163  10.132 -0.7477  0.7859 -0.3824
  929MPD2    C413645   1.466   3.264  10.227  0.4838  0.6340 -0.0278
  929MPD2    C513646   1.472   3.238  10.361  0.1277  0.6401  0.4630
  929MPD2     H13647   1.485   2.953  10.104  0.2199 -0.5430  0.8696
  929MPD2    H113648   1.466   3.368  10.194  1.0182  1.2562  1.9862
  929MPD2    H213649   1.496   3.089  10.508  1.2540  1.3394  0.3923
  929MPD2    H313650   1.493   3.327  10.418  1.2826  0.9674 -0.4746
  929MPD2     N13651   1.462   3.204   9.999  0.2632 -0.7042  0.0766
  929MPD2    H513652   1.461   3.304   9.979 -1.2790 -0.4750  1.2776
  929MPD2    N113653   1.445   2.875  10.374  0.0737  0.1132 -0.4686
  929MPD2    H713654   1.454   2.868  10.475 -2.7515  0.8501 -0.1551
  930MPD2     C13655   2.880   4.531  14.039 -0.3557  0.6004 -0.5738
  930MPD2    C113656   3.019   4.517  14.026  1.0220  0.3479 -0.9656
  930MPD2    C213657   3.069   4.450  13.918  0.6880  0.4149  0.1243
  930MPD2    C313658   2.982   4.401  13.815  0.4164 -0.2723 -0.3021
  930MPD2    C413659   2.846   4.413  13.833 -0.2519 -0.2593  0.0752
  930MPD2    C513660   2.794   4.480  13.940  1.2175  0.5544  0.6332
  930MPD2     H13661   3.176   4.444  13.907  0.6049 -1.8294  0.6065
  930MPD2    H113662   2.779   4.389  13.751  1.0580 -0.2126 -1.0009
  930MPD2    H213663   2.832   4.572  14.127  0.1763  0.6057 -0.2910
  930MPD2    H313664   2.686   4.488  13.946  1.2536  1.3995  0.1601
  930MPD2     N13665   3.031   4.365  13.685  0.1732 -0.1848  0.5944
  930MPD2    H513666   2.964   4.356  13.609  0.2614  1.5375  0.3092
  930MPD2    N113667   3.095   4.589  14.122  0.6867 -0.0597  0.3415
  930MPD2    H713668   3.044   4.635  14.197 -0.2279  0.7100 -0.7476
  931MPD2     C13669   2.824   4.361   1.306  0.9270  0.8046  0.2642
  931MPD2    C113670   2.870   4.282   1.206  0.1440  0.0268 -0.2356
  931MPD2    C213671   2.922   4.156   1.242  1.1460 -0.0819  0.7075
  931MPD2    C313672   2.915   4.113   1.371 -0.2037  0.3850  0.1973
  931MPD2    C413673   2.861   4.197   1.467 -0.2564 -0.4137 -0.0669
  931MPD2    C513674   2.809   4.318   1.437  0.1762  0.1504 -0.4440
  931MPD2     H13675   2.985   4.108   1.167  1.6202  1.2209  0.2703
  931MPD2    H113676   2.867   4.163   1.570 -0.1205  1.6242  0.5923
  931MPD2    H213677   2.803   4.466   1.290 -0.5276  0.3828 -0.5826
  931MPD2    H313678   2.763   4.381   1.512  0.4026  0.6589 -0.7376
  931MPD2     N13679   2.986   3.997   1.425  0.4416 -0.1124  0.3733
  931MPD2    H513680   2.984   3.992   1.527  1.8527  1.6933  0.4985
  931MPD2    N113681   2.871   4.335   1.078 -0.2371  0.0818  0.4763
  931MPD2    H713682   2.827   4.426   1.066  1.3427  0.8380  0.3425
  932MPD2     C13683   0.047   3.688  11.115  0.0232  0.4520 -0.3192
  932MPD2    C113684   0.183   3.681  11.092  1.1490  0.0325 -0.0255
  932MPD2    C213685   0.249   3.559  11.085  0.2953  0.3881  0.7066
  932MPD2    C313686   0.179   3.447  11.088  0.2111 -0.1699  0.5043
  932MPD2    C413687   0.042   3.453  11.096 -0.3925  0.3192  0.7590
  932MPD2    C513688   4.715   3.570  11.113 -0.1432 -0.3836  0.6707
  932MPD2     H13689   0.354   3.564  11.058 -0.0642  0.9978 -0.6080
  932MPD2    H113690   4.711   3.368  11.090 -0.0961  0.0654  1.0299
  932MPD2    H213691   4.730   3.780  11.134 -0.0070  0.3426  0.1373
  932MPD2    H313692   4.607   3.579  11.123 -0.0802  1.1443  0.0200
  932MPD2     N13693   0.238   3.317  11.086 -0.0342  0.0954  0.2106
  932MPD2    H513694   0.174   3.240  11.069 -1.1685  0.6267  2.1781
  932MPD2    N113695   0.270   3.797  11.093 -0.1255 -0.0491 -0.0057
  932MPD2    H713696   0.361   3.786  11.050 -1.1995 -3.3377 -1.4260
  933MPD2     C13697   2.075   1.612   1.890 -0.0076 -0.9498 -0.2575
  933MPD2    C113698   1.995   1.680   1.802  0.5481  0.3013  0.6024
  933MPD2    C213699   1.868   1.636   1.787 -0.8263  0.0327 -0.0965
  933MPD2    C313700   1.810   1.533   1.856  0.2138 -0.8782  1.9587
  933MPD2    C413701   1.893   1.465   1.943 -0.3255 -0.4516  0.3652
  933MPD2    C513702   2.021   1.503   1.960 -0.7093  0.1596 -0.0980
  933MPD2     H13703   1.798   1.676   1.715 -0.5399  0.2321 -0.2684
  933MPD2    H113704   1.858   1.376   1.995 -1.2842  0.7993  1.8734
  933MPD2    H213705   2.172   1.651   1.919  0.5041 -2.8800  0.6076
  933MPD2    H313706   2.087   1.459   2.034  0.0887  1.2088 -0.1863
  933MPD2     N13707   1.669   1.517   1.827  0.4923 -0.5662 -0.5259
  933MPD2    H513708   1.640   1.568   1.744  1.7984  0.5632 -0.2890
  933MPD2    N113709   2.051   1.789   1.725  0.3023 -0.9124 -0.1921
  933MPD2    H713710   2.152   1.799   1.717  0.3300 -1.0543 -0.0331
  934MPD2     C13711   1.731   0.030   1.794  0.3093 -1.0045  0.2192
  934MPD2    C113712   1.787   4.683   1.700  0.2037  0.6723  0.3099
  934MPD2    C213713   1.706   4.588   1.638 -0.8794 -0.1848  0.3137
  934MPD2    C313714   1.566   4.594   1.667 -0.3578  0.6321  0.1320
  934MPD2    C413715   1.513   4.683   1.765 -0.2793  0.2610 -0.4246
  934MPD2    C513716   1.600   0.025   1.836 -0.1825  0.7351  0.0406
  934MPD2     H13717   1.747   4.517   1.567 -0.7801  0.2081 -0.0255
  934MPD2    H113718   1.405   4.677   1.778 -0.0151  0.2548  1.8619
  934MPD2    H213719   1.790   0.106   1.845 -1.0504 -0.2561  0.6738
  934MPD2    H313720   1.565   0.090   1.914  1.0139  2.1657 -0.6216
  934MPD2     N13721   1.464   4.514   1.610  0.4202 -0.2066 -0.6094
  934MPD2    H513722   1.367   4.530   1.635 -0.4370  1.0164 -4.7105
  934MPD2    N113723   1.921   4.696   1.666 -0.1375 -0.3070  0.5015
  934MPD2    H713724   1.960   4.656   1.581  1.9316 -1.6830  2.0867
  935MPD2     C13725   1.205   3.514   1.465 -0.0447 -0.6307 -0.1264
  935MPD2    C113726   1.158   3.591   1.362  0.1861 -0.0115  0.9398
  935MPD2    C213727   1.185   3.727   1.359 -0.4076 -0.7161 -0.6686
  935MPD2    C313728   1.259   3.803   1.456  0.2042  0.2664  0.2759
  935MPD2    C413729   1.309   3.714   1.554 -0.7876 -1.0226  0.0452
  935MPD2    C513730   1.277   3.578   1.562  0.1078  0.0515 -0.2841
  935MPD2     H13731   1.142   3.785   1.278 -1.2007  2.8563  2.3167
  935MPD2    H113732   1.356   3.755   1.642 -3.6744 -0.8265  1.5053
  935MPD2    H213733   1.193   3.406   1.476  0.7629 -0.7027  0.0882
  935MPD2    H313734   1.299   3.518   1.651  0.3047  1.1838  0.4255
  935MPD2     N13735   1.275   3.943   1.453 -0.0125  0.2630  0.7131
  935MPD2    H513736   1.349   3.985   1.508  0.7488  0.2838 -0.3333
  935MPD2    N113737   1.091   3.533   1.255 -0.1704 -0.7879 -0.2261
  935MPD2    H713738   1.052   3.596   1.185 -1.2883 -0.1085  0.9903
  936MPD2     C13739   1.008   1.382  12.628 -0.3625 -0.1818  0.3708
  936MPD2    C113740   1.126   1.418  12.690 -1.1695 -0.0813  0.4141
  936MPD2    C213741   1.225   1.491  12.624 -0.3140 -0.8379  0.6720
  936MPD2    C313742   1.187   1.544  12.507 -0.3700 -0.3846 -0.2117
  936MPD2    C413743   1.069   1.516  12.444  0.1999  0.2264  0.2615
  936MPD2    C513744   0.984   1.425  12.498 -0.8695 -0.4934  0.3610
  936MPD2     H13745   1.315   1.522  12.677 -0.5589 -0.8063  1.0684
  936MPD2    H113746   1.048   1.569  12.352  1.2695 -2.8749 -1.7584
  936MPD2    H213747   0.931   1.322  12.674 -1.1118  1.3701  1.1129
  936MPD2    H313748   0.896   1.409  12.436  0.2350 -0.4333 -1.2051
  936MPD2     N13749   1.271   1.632  12.439  0.1092  0.6007  0.3776
  936MPD2    H513750   1.221   1.695  12.377  0.1542 -0.1536 -0.4327
  936MPD2    N113751   1.144   1.394  12.831  0.2752 -0.3942 -0.0476
  936MPD2    H713752   1.230   1.436  12.867 -1.7840  2.4229  1.6350
  937MPD2     C13753   3.665   2.969  11.664 -0.0314  0.4795  0.1475
  937MPD2    C113754   3.677   3.108  11.643 -0.3375 -0.0955  0.6402
  937MPD2    C213755   3.789   3.164  11.583 -0.6141  0.1493 -0.6093
  937MPD2    C313756   3.893   3.086  11.549 -0.2257  0.3660 -0.3258
  937MPD2    C413757   3.891   2.949  11.587  0.4204  0.7648  0.1312
  937MPD2    C513758   3.779   2.899  11.648  0.2815 -0.0993  0.7469
  937MPD2     H13759   3.786   3.267  11.549 -0.1747 -0.2065 -1.7416
  937MPD2    H113760   3.979   2.887  11.580 -0.1729 -0.0528 -0.0959
  937MPD2    H213761   3.587   2.912  11.715  0.9754  1.4363  2.7814
  937MPD2    H313762   3.770   2.796  11.680 -0.6738 -0.9029 -2.0973
  937MPD2     N13763   4.008   3.139  11.489 -0.0936  0.4876  0.4832
  937MPD2    H513764   4.002   3.240  11.475 -0.1845  0.4508  0.2545
  937MPD2    N113765   3.589   3.204  11.691  0.2068  0.1113  0.6861
  937MPD2    H713766   3.605   3.300  11.665 -1.1380  0.4113  0.9620
  938MPD2     C13767   0.694   4.074   1.059 -0.1893 -0.0719 -0.5819
  938MPD2    C113768   0.799   4.003   1.112  0.0793 -0.4789 -0.7115
  938MPD2    C213769   0.769   3.879   1.173  0.1120  0.6562  0.7828
  938MPD2    C313770   0.635   3.839   1.196 -0.3129  0.3765  0.5900
  938MPD2    C413771   0.539   3.921   1.148  0.0427 -0.3131  0.5232
  938MPD2    C513772   0.564   4.043   1.086 -0.5997 -0.2283 -0.1656
  938MPD2     H13773   0.855   3.823   1.208  0.5202  0.7343 -0.1048
  938MPD2    H113774   0.434   3.901   1.167 -0.5711  0.5952 -1.9059
  938MPD2    H213775   0.708   4.159   0.993 -1.7183  2.0974  1.8925
  938MPD2    H313776   0.487   4.115   1.059 -0.4233  0.3867  0.9694
  938MPD2     N13777   0.593   3.716   1.257  0.0686 -0.2567 -0.3340
  938MPD2    H513778   0.493   3.702   1.262 -0.3905  2.4917 -1.5687
  938MPD2    N113779   0.937   4.034   1.093  0.3801 -0.0746 -0.0181
  938MPD2    H713780   1.009   3.970   1.124  1.1226 -0.1549 -1.8841
  939MPD2     C13781   2.248   0.255   0.793  0.5885  0.3909 -0.9344
  939MPD2    C113782   2.208   0.385   0.787  0.0229 -0.5471 -0.0325
  939MPD2    C213783   2.286   0.474   0.716 -0.1642 -0.1139 -0.0586
  939MPD2    C313784   2.390   0.426   0.635 -0.1435  0.1551  0.1399
  939MPD2    C413785   2.404   0.289   0.626  0.6010 -0.2225  0.3306
  939MPD2    C513786   2.341   0.205   0.712 -0.0488  0.2899 -0.4391
  939MPD2     H13787   2.261   0.578   0.733 -0.1538 -0.0493 -0.4506
  939MPD2    H113788   2.475   0.236   0.563 -0.8812 -0.6205 -0.9716
  939MPD2    H213789   2.195   0.189   0.861  0.6742 -0.7397 -1.9699
  939MPD2    H313790   2.355   0.097   0.712 -0.1128  0.2819 -0.6589
  939MPD2     N13791   2.466   0.514   0.554  0.2087 -0.1846 -0.4350
  939MPD2    H513792   2.526   0.465   0.488  1.3905  0.6674 -0.0003
  939MPD2    N113793   2.105   0.427   0.870 -0.1313 -0.8165 -0.0660
  939MPD2    H713794   2.071   0.352   0.930  0.1056 -1.1995 -0.4169
  940MPD2     C13795   2.336   1.674  13.465  0.1218  0.0750  0.8260
  940MPD2    C113796   2.203   1.664  13.491 -0.3028 -0.2860 -0.2551
  940MPD2    C213797   2.106   1.656  13.386 -0.2445  0.1143 -0.3332
  940MPD2    C313798   2.150   1.642  13.251  0.2792  0.9719 -0.6167
  940MPD2    C413799   2.289   1.662  13.231 -1.0681  0.4886 -0.0675
  940MPD2    C513800   2.370   1.683  13.331 -0.7866  0.2698  0.1831
  940MPD2     H13801   2.002   1.644  13.413 -0.4580  2.1416 -0.2917
  940MPD2    H113802   2.334   1.662  13.132  1.4701 -0.9859  1.1213
  940MPD2    H213803   2.401   1.704  13.547  0.3186 -1.5236  1.2578
  940MPD2    H313804   2.477   1.691  13.311 -1.0203  0.0988 -1.1723
  940MPD2     N13805   2.058   1.613  13.149  0.6606 -0.3443 -0.4795
  940MPD2    H513806   2.111   1.604  13.063 -0.3777 -0.4626 -1.1184
  940MPD2    N113807   2.152   1.706  13.613  0.3425  0.1698  0.3173
  940MPD2    H713808   2.054   1.735  13.612 -0.1068 -1.4038 -1.1745
  941MPD2     C13809   0.746   0.804   9.870  0.7160 -0.3437 -0.6653
  941MPD2    C113810   0.844   0.770   9.963 -0.3880 -0.4549  0.2753
  941MPD2    C213811   0.831   0.654  10.037  0.8172 -0.6384  0.1180
  941MPD2    C313812   0.730   0.567  10.009  0.1503 -0.1124  0.1492
  941MPD2    C413813   0.647   0.592   9.899  0.2181 -0.3601  0.5553
  941MPD2    C513814   0.657   0.712   9.833  0.5625 -0.1704 -0.6814
  941MPD2     H13815   0.907   0.631  10.110  0.0501 -1.9531  0.5010
  941MPD2    H113816   0.570   0.521   9.872 -1.3424  1.2350  0.7519
  941MPD2    H213817   0.749   0.894   9.809 -3.5179 -0.6947 -1.3756
  941MPD2    H313818   0.585   0.733   9.755 -0.6379  1.3091  0.8111
  941MPD2     N13819   0.695   0.447  10.074 -0.0745  0.1401  0.0634
  941MPD2    H513820   0.622   0.388  10.034  0.2634 -1.0428  1.1635
  941MPD2    N113821   0.960   0.850   9.988 -0.7297  0.6032  0.5435
  941MPD2    H713822   1.016   0.801  10.058 -0.9551  1.0365  1.0186
  942MPD2     C13823   1.117   3.554   8.677  0.3701 -0.8681 -0.0332
  942MPD2    C113824   1.093   3.540   8.814 -0.1801  0.2469  0.1977
  942MPD2    C213825   1.113   3.415   8.874  0.6399  0.1815 -0.0113
  942MPD2    C313826   1.155   3.304   8.805 -0.4913 -0.1089  0.3469
  942MPD2    C413827   1.179   3.322   8.669 -0.4258 -0.8588  0.0722
  942MPD2    C513828   1.153   3.441   8.607 -0.2582 -0.5440  0.1961
  942MPD2     H13829   1.093   3.409   8.980 -2.0659  2.3644 -0.4027
  942MPD2    H113830   1.207   3.233   8.613 -0.1577 -1.7463  1.6257
  942MPD2    H213831   1.085   3.642   8.622 -1.3850  0.0643  2.4875
  942MPD2    H313832   1.177   3.452   8.502  0.2414 -2.7800  0.0740
  942MPD2     N13833   1.184   3.184   8.876 -0.1430  0.0878  0.8703
  942MPD2    H513834   1.196   3.096   8.829 -1.1722  0.8816 -0.8596
  942MPD2    N113835   1.053   3.638   8.899 -0.1372  0.5676 -0.0355
  942MPD2    H713836   1.027   3.610   8.993  1.6233 -2.1930 -0.3703
  943MPD2     C13837   4.462   0.780  10.086  0.3438  0.2956  0.5107
  943MPD2    C113838   4.363   0.718  10.161  0.6272 -0.2884  0.5146
  943MPD2    C213839   4.311   0.780  10.274 -0.1199 -0.2363  0.1511
  943MPD2    C313840   4.375   0.892  10.327 -0.1656 -0.7177 -0.2549
  943MPD2    C413841   4.470   0.961  10.254  0.3513  0.3485  0.4563
  943MPD2    C513842   4.514   0.902  10.136 -0.7931 -0.3187  1.2177
  943MPD2     H13843   4.222   0.744  10.324 -0.5862  1.7482  0.7463
  943MPD2    H113844   4.517   1.051  10.292 -2.0083  0.6648  2.6444
  943MPD2    H213845   4.495   0.739   9.991 -0.5063  1.2861 -0.2053
  943MPD2    H313846   4.584   0.952  10.071 -0.1981 -0.5240  1.7032
  943MPD2     N13847   4.334   0.962  10.442 -0.6250 -0.0467 -0.0882
  943MPD2    H513848   4.399   1.034  10.472 -2.1564  1.5011 -0.5395
  943MPD2    N113849   4.323   0.597  10.108  0.4914 -0.0583  0.4301
  943MPD2    H713850   4.357   0.564  10.018  2.0576  0.6310  0.7661
  944MPD2     C13851   4.055   0.235  10.810 -0.2499  0.3329  0.0585
  944MPD2    C113852   4.026   0.158  10.918 -0.0189  0.2506  0.0043
  944MPD2    C213853   4.019   0.212  11.045  0.5927 -0.5033  0.2738
  944MPD2    C313854   4.045   0.339  11.065  0.0641  0.3723  0.0072
  944MPD2    C413855   4.076   0.420  10.959 -0.3750  0.2336 -0.5235
  944MPD2    C513856   4.084   0.368  10.831  0.6107 -0.3239 -1.0384
  944MPD2     H13857   4.006   0.149  11.132  1.7105 -2.4679 -0.9540
  944MPD2    H113858   4.079   0.528  10.969  3.9826  0.1272 -0.5959
  944MPD2    H213859   4.055   0.201  10.707  0.3541 -1.0792  0.5377
  944MPD2    H313860   4.119   0.438  10.756 -1.0385 -1.2717 -2.6839
  944MPD2     N13861   4.013   0.393  11.195 -0.6234 -0.1951  0.6458
  944MPD2    H513862   3.980   0.324  11.262  1.7465 -0.4790  1.5280
  944MPD2    N113863   4.023   0.018  10.897  0.0904  0.3302  0.0096
  944MPD2    H713864   4.053   4.716  10.807 -0.3822 -1.5386  0.6581
    1TMC1    C113865   2.213   0.807  13.992 -0.4956  0.3476 -0.1058
    1TMC1    C213866   2.211   0.670  14.004  0.3964 -0.3631 -0.0463
    1TMC1    C313867   2.192   0.598  13.888 -0.2714  0.1112 -0.9090
    1TMC1    C413868   2.161   0.861  13.874 -0.0525 -0.5422  0.0683
    1TMC1    C513869   2.143   0.782  13.763  0.4626  0.3264 -0.3799
    1TMC1    C613870   2.170   0.645  13.766  0.3961 -0.1775  0.0444
    1TMC1     C13871   2.193   0.880  14.114  0.6629 -0.6254  0.5117
    1TMC1     O13872   2.161   0.814  14.213 -0.3501 -0.0304 -0.5172
    1TMC1     H13873   2.232   0.622  14.098 -1.9102 -1.4288 -0.0805
    1TMC1    H113874   2.141   0.967  13.862 -0.9310 -0.8231 -0.9122
    1TMC1    H213875   2.153   0.585  13.678  1.2179 -1.3512  0.6831
    1TMC1    C713876   2.102   0.843  13.638 -0.4599  0.2834 -0.1072
    1TMC1    C813877   2.177   0.452  13.898 -0.0019  0.2959  0.5871
    1TMC1    O113878   2.050   0.952  13.625  0.3518  0.3101  0.0724
    1TMC1    O213879   2.221   0.401  14.000  0.1425 -0.2652 -0.1220
    1TMC1    O313880   2.187   0.790  13.539  0.1981  0.0457  0.2236
    1TMC1    H313881   2.239   0.713  13.569 -1.2486 -0.7735  0.5665
    1TMC1    O513882   2.058   0.407  13.851  0.3003  0.4796 -0.5017
    1TMC1    H513883   2.030   0.459  13.773 -1.8710 -0.3577 -0.2632
    2MPD2     C13884   2.270   1.255  14.441 -0.2887 -1.3220  0.6620
    2MPD2    C113885   2.346   1.279  14.328 -0.1532  0.0195  0.0534
    2MPD2    C213886   2.340   1.195  14.220 -0.3820 -0.5299 -0.3267
    2MPD2    C313887   2.250   1.089  14.219 -0.2651  0.3224 -0.8966
    2MPD2    C413888   2.164   1.073  14.323  0.3266  0.5054  0.0303
    2MPD2    C513889   2.173   1.155  14.434 -1.1139 -0.0535  0.4559
    2MPD2     H13890   2.404   1.202  14.132 -1.2052  0.7908 -0.8173
    2MPD2    H113891   2.084   1.000  14.325  0.3566  0.5059  1.2260
    2MPD2    H213892   2.272   1.318  14.529  3.2045 -1.4012  0.6233
    2MPD2    H313893   2.107   1.138  14.518  0.2100 -0.3955  1.4326
    2MPD2     N13894   2.246   1.003  14.109 -0.6722 -0.4151 -0.1267
    2MPD2    H513895   2.301   1.022  14.025  1.4753  2.6944  1.9835
    2MPD2    N113896   2.428   1.396  14.333 -0.1122  0.2582 -0.5153
    2MPD2    H713897   2.431   1.450  14.419 -1.2921  3.9524 -2.7937
    3TMC2    C113898   2.551   1.582  14.241 -0.5629 -0.0213 -0.1114
    3TMC2    C213899   2.473   1.669  14.317  0.4727 -0.1884  0.0749
    3TMC2    C313900   2.461   1.800  14.280  0.9245 -0.2685 -0.0477
    3TMC2    C413901   2.614   1.624  14.131 -0.3804  0.5019  0.6819
    3TMC2    C513902   2.586   1.753  14.092  0.9468  0.0810 -0.2019
    3TMC2    C613903   2.516   1.846  14.164 -0.0464  0.3320 -0.2433
    3TMC2     C13904   2.500   1.443  14.225  0.3099 -0.4408  0.1457
    3TMC2     O13905   2.522   1.387  14.119 -0.4351  0.1802  0.1192
    3TMC2     H13906   2.406   1.628  14.392 -0.9964  0.6470 -0.7874
    3TMC2    H113907   2.666   1.559  14.062  0.8741  1.3318  0.8585
    3TMC2    H213908   2.500   1.949  14.134 -1.3857  0.2366  0.1297
    3TMC2    C713909   2.642   1.796  13.969  0.3442  0.3742  0.3304
    3TMC2    C813910   2.339   1.867  14.327  0.2153  0.8402  0.4822
    3TMC2    O113911   2.740   1.735  13.933  0.1083 -0.4588 -0.3698
    3TMC2    O213912   2.285   1.946  14.258 -0.2624  1.2635 -0.3277
    3TMC2    O513913   2.356   1.873  14.460  0.4967 -0.3531  0.4459
    3TMC2    H513914   2.434   1.823  14.492  0.5344 -0.9996 -0.6549
    4TMC2    C113915   1.947   2.183  13.341  0.1427 -0.8551 -0.6867
    4TMC2    C213916   1.955   2.091  13.238 -0.3414  0.4583 -0.0165
    4TMC2    C313917   2.064   2.014  13.225 -0.1509  0.0324  0.7440
    4TMC2    C413918   2.040   2.185  13.438 -0.3031 -0.7688 -0.3274
    4TMC2    C513919   2.141   2.099  13.427  0.2905 -0.0604  0.1491
    4TMC2    C613920   2.161   2.016  13.320  0.1019 -0.7042 -0.0177
    4TMC2     C13921   1.822   2.247  13.373 -0.5235  0.0241  0.4779
    4TMC2     O13922   1.807   2.291  13.488 -0.1901 -0.3329 -0.5047
    4TMC2     H13923   1.882   2.077  13.160  1.8358 -0.6647 -1.8437
    4TMC2    H113924   2.037   2.252  13.523 -1.0788 -0.0745 -0.9026
    4TMC2    H213925   2.236   1.939  13.326  1.6592  0.8750  0.7928
    4TMC2    C713926   2.236   2.083  13.537 -0.0236 -0.1065 -0.0255
    4TMC2    C813927   2.087   1.960  13.088 -0.2997  0.0091  0.1023
    4TMC2    O113928   2.194   2.093  13.652 -0.3770  0.8428 -0.2863
    4TMC2    O213929   1.999   1.950  13.003  0.5121 -0.4678  0.1566
    4TMC2    O513930   2.210   1.950  13.067  0.4463 -0.1589  0.1634
    4TMC2    H513931   2.270   1.979  13.138  1.0820 -1.8478  0.3230
    5MPD2     C13932   1.339   2.356  13.278  0.7319  0.0461 -0.2536
    5MPD2    C113933   1.400   2.321  13.157  0.3061  0.6363 -0.7442
    5MPD2    C213934   1.530   2.286  13.161  0.1101  0.2052  0.1615
    5MPD2    C313935   1.605   2.296  13.274  0.1774 -0.0306  0.2663
    5MPD2    C413936   1.543   2.333  13.391 -0.3598  0.2993 -0.1748
    5MPD2    C513937   1.406   2.354  13.400  0.8496  0.5294  0.1047
    5MPD2     H13938   1.576   2.247  13.071  0.3192  1.0985 -0.1137
    5MPD2    H113939   1.597   2.353  13.483 -2.4397  0.9274  0.9011
    5MPD2    H213940   1.234   2.382  13.283  0.8534  0.5820 -0.5244
    5MPD2    H313941   1.343   2.380  13.484  1.7251  0.2983  0.8294
    5MPD2     N13942   1.736   2.245  13.263  0.0836 -0.0587  0.1181
    5MPD2    H513943   1.771   2.230  13.169  0.0634  0.6312  0.0003
    5MPD2    N113944   1.316   2.317  13.048 -0.3470 -1.0689 -0.3566
    5MPD2    H713945   1.224   2.358  13.051 -0.9199 -2.3193 -0.8028
    6MPD1     C13946   0.476   3.764  12.289 -0.5663  0.3770 -0.2529
    6MPD1    C113947   0.496   3.734  12.417 -0.6251 -0.4010  0.5848
    6MPD1    C213948   0.525   3.608  12.450 -0.0109  0.8857 -0.8053
    6MPD1    C313949   0.527   3.505  12.357  0.4200 -0.2140  0.1682
    6MPD1    C413950   0.507   3.537  12.225 -0.2183 -0.1340 -0.2910
    6MPD1    C513951   0.479   3.669  12.191 -0.3614 -0.0006 -0.2604
    6MPD1     H13952   0.548   3.583  12.553 -2.4991  1.2527 -0.1661
    6MPD1    H113953   0.500   3.457  12.152  0.4456  0.9857 -1.5819
    6MPD1    H213954   0.456   3.867  12.260  0.0814  0.3065 -0.9688
    6MPD1    H313955   0.460   3.689  12.086 -1.4488 -1.1439 -0.2796
    6MPD1     N13956   0.550   3.377  12.384  0.7097  0.4528 -0.1064
    6MPD1    H513957   0.562   3.313  12.306  0.1643  1.4174 -0.9759
    6MPD1    N113958   0.522   3.838  12.512  0.1435  0.1374 -0.4896
    6MPD1    H613959   0.497   3.811  12.607  0.6678 -1.0679 -0.6897
    6MPD1    H713960   0.483   3.930  12.495 -3.7310 -1.0755  1.7626
    7MPD2     C13961   0.631   2.720  12.974 -0.1781 -0.2884  0.3636
    7MPD2    C113962   0.654   2.688  12.843 -0.0135  0.4821  0.5268
    7MPD2    C213963   0.730   2.573  12.813  0.0357 -0.2324 -0.6221
    7MPD2    C313964   0.774   2.490  12.911 -0.4987 -0.0727 -0.5552
    7MPD2    C413965   0.731   2.512  13.034 -0.2285 -1.0009 -0.0042
    7MPD2    C513966   0.672   2.629  13.069  0.7600 -0.9091 -0.2185
    7MPD2     H13967   0.748   2.551  12.708  0.0545  4.9153 -1.6854
    7MPD2    H113968   0.756   2.449  13.119  2.5874 -0.0020 -0.0965
    7MPD2    H213969   0.573   2.808  13.000  0.6565  0.6605 -1.0028
    7MPD2    H313970   0.661   2.651  13.174 -0.9080 -1.7180 -0.2164
    7MPD2     N13971   0.875   2.394  12.886 -0.0521  0.4430 -0.5297
    7MPD2    H513972   0.931   2.358  12.963 -1.4334 -1.6307 -0.4796
    7MPD2    N113973   0.622   2.769  12.731  0.0886 -0.4008 -0.5112
    7MPD2    H713974   0.660   2.735  12.644 -2.1904 -0.0680 -1.6264
    8TMC3    C113975   1.028   2.277  12.746 -0.3821 -0.1981  0.6391
    8TMC3    C213976   1.121   2.274  12.844  0.5006  0.4389  0.3410
    8TMC3    C313977   1.256   2.285  12.813 -0.3528 -0.3417 -0.2700
    8TMC3    C413978   1.065   2.269  12.618 -0.2889  0.6937 -0.5288
    8TMC3    C513979   1.196   2.278  12.588 -0.0510  0.2729  0.4585
    8TMC3    C613980   1.289   2.294  12.682 -0.0694 -0.1737  0.4902
    8TMC3     C13981   0.919   2.372  12.758  0.5237  0.3742 -0.1252
    8TMC3     O13982   0.884   2.410  12.649  0.0401 -0.2033 -0.3776
    8TMC3     H13983   1.087   2.263  12.946 -0.7899 -0.9628 -0.2369
    8TMC3    H113984   0.999   2.239  12.538  0.9666  1.6600 -1.9236
    8TMC3    H213985   1.393   2.316  12.662 -0.0039 -2.3083 -1.4794
    8TMC3    C713986   1.219   2.360  12.470  0.4142  0.3036  0.5162
    8TMC3    C813987   1.363   2.284  12.915 -0.2890 -0.1794 -0.0331
    8TMC3    O113988   1.328   2.363  12.416  0.0838  0.2736 -0.1133
    8TMC3    O213989   1.477   2.266  12.877 -0.5480  0.2843 -0.2056
    9TMC3    C113990   0.600   3.184  12.509  0.4256 -0.5730  0.9017
    9TMC3    C213991   0.697   3.145  12.420 -0.1862  0.6626 -0.1953
    9TMC3    C313992   0.747   3.017  12.433 -0.7085  0.5853 -0.3440
    9TMC3    C413993   0.555   3.102  12.609  0.0611 -0.0644  0.9044
    9TMC3    C513994   0.610   2.976  12.621  0.4490 -0.2144  0.9833
    9TMC3    C613995   0.717   2.934  12.542  0.4611 -0.1081  0.0479
    9TMC3     C13996   0.553   3.318  12.507 -0.4885  0.8566  0.4488
    9TMC3     O13997   0.508   3.365  12.614 -0.4084  0.0451  0.5118
    9TMC3     H13998   0.725   3.211  12.339 -0.7569  1.5943  0.3709
    9TMC3    H113999   0.481   3.139  12.679 -0.7192 -0.1500  0.1211
    9TMC3    H214000   0.775   2.847  12.568  2.7317  1.0935 -1.0041
    9TMC3    C714001   0.580   2.903  12.740 -0.7042  0.9665  0.3534
    9TMC3    C814002   0.848   2.972  12.343 -0.3020 -0.3533  0.6690
    9TMC3    O114003   0.521   2.964  12.835  0.5402  0.1582  0.2447
    9TMC3    O214004   0.916   3.045  12.270  0.3600 -0.0797  0.4997
   10MPD2     C14005   1.193   2.587  12.281 -0.3934  0.1642  0.1449
   10MPD2    C114006   1.101   2.564  12.379 -0.0195  0.4158 -0.1865
   10MPD2    C214007   0.993   2.643  12.392 -0.1531 -0.4903 -0.1094
   10MPD2    C314008   0.976   2.763  12.325  0.3796  0.6769  0.1216
   10MPD2    C414009   1.075   2.799  12.237 -1.2236  0.3736 -0.1027
   10MPD2    C514010   1.177   2.708  12.209 -0.1403 -0.0261  0.1655
   10MPD2     H14011   0.929   2.609  12.473 -0.8511 -2.4096 -1.4710
   10MPD2    H114012   1.072   2.897  12.189 -1.1132  0.9782  1.1429
   10MPD2    H214013   1.258   2.503  12.257  1.9361  1.7844  0.7609
   10MPD2    H314014   1.253   2.733  12.135  0.2433 -0.5091  0.4023
   10MPD2     N14015   0.869   2.844  12.368 -0.3080  0.1680  0.3308
   10MPD2    H514016   0.801   2.798  12.427 -2.7400 -0.8787 -3.3195
   10MPD2    N114017   1.116   2.451  12.460  0.4988  0.0046 -0.2481
   10MPD2    H714018   1.042   2.446  12.529  0.3067  0.4938 -0.4193
   11MPD2     C14019   2.676   1.890  13.696 -0.5900  0.6597  0.2708
   11MPD2    C114020   2.566   1.919  13.769  0.4326 -0.1959 -0.0160
   11MPD2    C214021   2.452   1.972  13.708  0.1870 -0.5225 -0.1434
   11MPD2    C314022   2.463   2.000  13.570  0.0945  0.3157 -0.5000
   11MPD2    C414023   2.572   1.969  13.498 -0.6620  1.0293  0.3875
   11MPD2    C514024   2.672   1.904  13.559 -0.1597 -0.9001 -0.2179
   11MPD2     H14025   2.365   1.985  13.770  1.4295  0.1691  1.4669
   11MPD2    H114026   2.579   1.981  13.390  3.3616 -0.6519  0.4387
   11MPD2    H214027   2.763   1.844  13.740 -1.6748 -0.4262  1.2649
   11MPD2    H314028   2.766   1.886  13.508  0.5293 -0.0705  0.7436
   11MPD2     N14029   2.360   2.046  13.488  0.2597  0.2527 -0.3864
   11MPD2    H514030   2.379   2.055  13.389 -2.0647 -1.5689 -1.0023
   11MPD2    N114031   2.556   1.878  13.901  0.3351 -0.0281 -0.1543
   11MPD2    H714032   2.467   1.905  13.942  0.7785  0.0543  0.7566
    1MPD1     C14033   4.363   3.014  17.003 -0.9682 -0.5507 -0.4795
    1MPD1    C114034   4.466   3.051  17.080  0.2727 -0.0177 -0.0180
    1MPD1    C214035   4.547   3.158  17.036 -0.4008 -0.2363 -0.2515
    1MPD1    C314036   4.525   3.214  16.912 -0.6984 -0.6923 -0.7844
    1MPD1    C414037   4.424   3.155  16.833 -0.8339  0.1736  0.1369
    1MPD1    C514038   4.344   3.059  16.880 -0.1426 -0.8569  0.8868
    1MPD1     H14039   4.626   3.190  17.103 -0.0735 -0.3563 -0.5778
    1MPD1    H114040   4.402   3.193  16.734 -1.8702 -1.2376 -0.1687
    1MPD1    H214041   4.286   2.943  17.032 -2.0571  0.6251 -0.5171
    1MPD1    H314042   4.269   3.012  16.817  0.6288  0.2506 -0.8831
    1MPD1     N14043   4.611   3.304  16.843  0.1008  0.2148  0.2854
    1MPD1    H514044   4.587   3.321  16.746  0.8480 -3.6150 -0.5361
    1MPD1    N114045   4.471   3.011  17.218  0.2967 -0.5023 -0.1722
    1MPD1    H614046   4.437   2.915  17.227 -0.3177 -0.3396 -0.7714
    1MPD1    H714047   4.567   3.012  17.250  0.4927  0.0774 -0.7827
    2MPD1     C14048   0.703   3.076  16.429  0.1844  0.0576 -0.3064
    2MPD1    C114049   0.597   3.113  16.344 -0.9595  0.0806 -0.0882
    2MPD1    C214050   0.513   3.216  16.388 -0.3515  0.3692  0.4868
    2MPD1    C314051   0.516   3.264  16.517  0.3956  0.1722 -0.1106
    2MPD1    C414052   0.615   3.220  16.599  0.5099 -0.4978  0.3546
    2MPD1    C514053   0.714   3.140  16.553  0.0752  0.4693 -0.1296
    2MPD1     H14054   0.438   3.262  16.325  0.2104 -0.5828 -0.8819
    2MPD1    H114055   0.622   3.264  16.697  1.1899 -0.0489  0.1079
    2MPD1    H214056   0.778   3.007  16.394  2.1170  1.7474  0.5557
    2MPD1    H314057   0.794   3.098  16.613 -0.4331 -0.2730  0.0213
    2MPD1     N14058   0.413   3.355  16.549  0.5811  0.7696 -0.3226
    2MPD1    H514059   0.333   3.353  16.488 -0.5354  0.1197  1.1608
    2MPD1    N114060   0.593   3.062  16.211  0.1644  0.1916 -0.2277
    2MPD1    H614061   0.627   2.966  16.201  1.3014  0.6552 -0.8075
    2MPD1    H714062   0.500   3.061  16.170  0.7519  2.2717 -1.6151
    3TMC3    C114063   0.264   3.470  16.688  0.0844 -0.3474 -1.3399
    3TMC3    C214064   0.204   3.501  16.573 -0.8874 -0.1748 -0.6290
    3TMC3    C314065   0.066   3.497  16.559 -0.1567 -0.2093 -0.6518
    3TMC3    C414066   0.189   3.445  16.801  0.7549 -0.1878  0.0909
    3TMC3    C514067   0.054   3.439  16.791  0.0309  0.1664 -0.8534
    3TMC3    C614068   4.728   3.465  16.671  0.1119  0.5442  0.2579
    3TMC3     C14069   0.397   3.409  16.673 -0.5436  0.2072  0.1454
    3TMC3     O14070   0.461   3.411  16.775  0.4979 -0.2608  0.1449
    3TMC3     H14071   0.257   3.536  16.486 -1.8501 -2.8877 -2.3084
    3TMC3    H114072   0.231   3.420  16.897  1.1771 -0.5709 -0.1934
    3TMC3    H214073   4.621   3.464  16.651  0.3508  1.4318 -1.0640
    3TMC3    C714074   4.720   3.369  16.898  0.0480  0.1598 -0.7150
    3TMC3    C814075   0.002   3.569  16.450 -0.6891  0.6706 -0.6373
    3TMC3    O114076   0.036   3.360  17.008 -0.5174 -0.0024 -0.1613
    3TMC3    O214077   4.623   3.604  16.460  0.1285 -0.6353 -0.5589
    4MPD1     C14078   0.163   3.961  16.177  0.0145 -0.3020  0.5850
    4MPD1    C114079   0.209   3.855  16.114  0.0273 -0.1859 -0.1747
    4MPD1    C214080   0.182   3.728  16.173  0.5763 -0.1762  0.0845
    4MPD1    C314081   0.096   3.713  16.281  0.1785 -0.0050 -0.1678
    4MPD1    C414082   0.038   3.822  16.327 -0.3695 -0.0414 -0.2616
    4MPD1    C514083   0.073   3.945  16.283 -0.4404 -0.0731 -0.4282
    4MPD1     H14084   0.227   3.636  16.138  1.9693  0.8610 -0.8086
    4MPD1    H114085   4.708   3.825  16.413  1.6336  0.5469  1.2745
    4MPD1    H214086   0.188   4.060  16.140  0.2189 -0.1384  1.1680
    4MPD1    H314087   0.025   4.030  16.330  0.4448  0.5444 -0.6394
    4MPD1     N14088   0.085   3.591  16.348  0.1191 -0.3572 -0.0461
    4MPD1    H514089   0.155   3.520  16.328  1.2380  0.9548 -0.7955
    4MPD1    N114090   0.296   3.869  16.005 -0.0245  0.1267 -0.1329
    4MPD1    H614091   0.293   3.792  15.938  1.5275  1.6389 -1.9395
    4MPD1    H714092   0.279   3.951  15.947 -1.4907  0.5045  0.8462
    1TCq1    O114093   4.561   1.569  10.228  0.1276  0.6533  0.0186
    1TCq1    C114094   4.573   1.617  10.349 -0.5401  0.4493  0.5432
    1TCq1    O214095   4.477   1.665  10.414  0.1803 -0.2819  0.1002
    1TCq1    C214096   4.663   1.517  10.404 -0.6210  0.0017 -0.4054
    1TCq1    C314097   4.609   1.400  10.451 -0.5767 -0.0117  0.2443
    1TCq1    C414098   4.690   1.292  10.471 -0.1060 -0.2948 -0.2570
    1TCq1    C514099   0.084   1.314  10.489  0.3740 -0.7072  0.5652
    1TCq1    C614100   0.136   1.436  10.454 -0.8492  0.0803  0.2781
    1TCq1    C714101   0.061   1.540  10.401  0.3198  0.3563  0.5761
    1TCq1    C814102   0.274   1.464  10.489 -0.0417 -0.6624 -0.9377
    1TCq1    O414103   0.347   1.367  10.491  0.5356 -0.4953 -0.0338
    1TCq1    C914104   4.633   1.168  10.526  0.0814 -0.2037 -0.0783
    1TCq1    O514105   4.706   1.085  10.590  0.4467  0.1460  0.0498
    1TCq1    O614106   4.506   1.156  10.519  0.1052 -0.0876  0.8766
    1TCq1    H114107   4.643   1.549  10.178 -0.7233 -2.8548  0.0858
    1TCq1    H214108   4.501   1.392  10.446 -0.5741 -0.4902  0.9230
    1TCq1    H314109   0.135   1.225  10.523  0.9963 -0.5012  0.1724
    1TCq1    H414110   0.100   1.628  10.351  1.4801 -0.2141  0.4726
    2MPD1     C14111   0.692   1.790  10.477  0.0107 -0.9289  0.4437
    2MPD1    C114112   0.691   1.655  10.484 -0.4122  0.1925  0.6958
    2MPD1    C214113   0.567   1.586  10.495 -0.3164 -0.6001  0.1563
    2MPD1    C314114   0.450   1.655  10.497 -0.2339  0.2609 -0.2073
    2MPD1    C414115   0.458   1.793  10.499 -0.1074 -0.4828  0.2333
    2MPD1    C514116   0.577   1.855  10.496 -0.1085  0.0687  0.0678
    2MPD1     H14117   0.562   1.478  10.486  0.3827 -0.5775 -0.5118
    2MPD1    H114118   0.373   1.859  10.491  0.0328 -0.3558 -0.2095
    2MPD1    H214119   0.782   1.848  10.462 -0.2495 -0.7649 -0.5078
    2MPD1    H314120   0.576   1.963  10.501  2.9008  0.0002  2.2497
    2MPD1     N14121   0.315   1.596  10.496  0.3057 -0.5621 -0.3544
    2MPD1    H514122   0.237   1.661  10.490  0.6140  0.0498  2.2632
    2MPD1    N114123   0.808   1.577  10.451  0.5809 -1.2684 -0.3670
    2MPD1    H614124   0.895   1.623  10.475  0.3093 -0.9276 -0.0372
    2MPD1    H714125   0.801   1.484  10.491  2.0221 -2.1212 -2.1048
    1TMC1    C114126   0.069   2.688  17.189 -0.4487 -0.0693 -0.1569
    1TMC1    C214127   0.206   2.701  17.215  0.0084  0.0868 -0.2201
    1TMC1    C314128   0.253   2.639  17.329 -0.0699 -0.4577  0.7725
    1TMC1    C414129   4.718   2.612  17.266  0.1901  0.4835  0.0576
    1TMC1    C514130   0.029   2.564  17.388  0.2785 -0.3079 -0.1524
    1TMC1    C614131   0.170   2.568  17.414 -0.0054  0.3493 -0.3075
    1TMC1     C14132   0.033   2.744  17.059 -0.0102  1.2580  0.3480
    1TMC1     O14133   0.116   2.815  16.999 -0.4586  0.0156 -0.1570
    1TMC1     H14134   0.270   2.760  17.151  1.3775 -1.2253 -0.0928
    1TMC1    H114135   4.611   2.612  17.252  0.0313 -1.4984  1.2641
    1TMC1    H214136   0.205   2.518  17.505 -2.5788 -2.0167 -0.6255
    1TMC1    C714137   4.691   2.466  17.460  0.8567 -0.0463  0.4161
    1TMC1    C814138   0.378   2.696  17.383  0.2520  0.1042 -0.0033
    1TMC1    O114139   4.720   2.442  17.577  0.2362  0.7684  0.6557
    1TMC1    O214140   0.396   2.744  17.494 -0.6455 -0.4937  0.0555
    1TMC1    O314141   4.648   2.378  17.364 -0.7061  0.4635 -0.0332
    1TMC1    H314142   4.650   2.423  17.277  0.1793  1.2888  0.4119
    1TMC1    O514143   0.472   2.666  17.300  0.4133  0.6319 -0.3386
    1TMC1    H514144   0.436   2.615  17.224 -1.8623  0.7416  0.6645
    2MPD1     C14145   4.450   2.767  16.654 -0.2196 -0.7809  0.0394
    2MPD1    C114146   4.389   2.697  16.760  0.0196  0.3608 -0.5393
    2MPD1    C214147   4.457   2.683  16.877  0.3273 -0.1588 -0.4754
    2MPD1    C314148   4.586   2.734  16.895 -0.4136 -0.5144  0.0643
    2MPD1    C414149   4.643   2.804  16.789 -0.1258 -0.9837  0.8164
    2MPD1    C514150   4.576   2.825  16.670  0.2386  0.3063  0.3607
    2MPD1     H14151   4.419   2.624  16.959 -0.4467  0.8585 -0.0983
    2MPD1    H114152   0.007   2.843  16.796 -0.3173 -0.4834  0.7659
    2MPD1    H214153   4.404   2.770  16.556 -1.6553  3.3059  0.8214
    2MPD1    H314154   4.635   2.865  16.588 -0.7896  3.6632  1.2384
    2MPD1     N14155   4.645   2.718  17.023 -0.4719 -0.1242  0.2108
    2MPD1    H514156   4.601   2.649  17.084 -0.7655 -1.7111 -1.8154
    2MPD1    N114157   4.262   2.640  16.748  0.4044  0.2506  0.6237
    2MPD1    H614158   4.260   2.584  16.663 -2.1992 -1.7836  2.0310
    2MPD1    H714159   4.232   2.587  16.830  1.2092  0.0884  0.8099
    1MPD1     C14160   2.539   3.628  11.568  0.3110 -0.5719 -0.2063
    1MPD1    C114161   2.668   3.613  11.601  0.3574  0.1642 -0.4075
    1MPD1    C214162   2.762   3.682  11.530  0.0588 -0.5121  0.0816
    1MPD1    C314163   2.719   3.791  11.448 -0.3091 -0.2332  0.0145
    1MPD1    C414164   2.588   3.821  11.442  0.1977 -0.4242  1.1141
    1MPD1    C514165   2.494   3.729  11.486  0.0000 -0.7738  0.3754
    1MPD1     H14166   2.864   3.653  11.552  0.3131 -0.4641 -1.0542
    1MPD1    H114167   2.542   3.898  11.380  0.0869 -1.5084 -0.1640
    1MPD1    H214168   2.464   3.562  11.610 -1.6362  0.5220 -1.9559
    1MPD1    H314169   2.387   3.740  11.472  0.3652  0.7076 -1.1713
    1MPD1     N14170   2.817   3.865  11.386  0.5204 -0.3202 -0.5741
    1MPD1    H514171   2.915   3.837  11.385  0.7162  0.3289  0.7444
    1MPD1    N114172   2.693   3.502  11.678 -0.3499  0.1342 -0.6495
    1MPD1    H614173   2.784   3.509  11.724 -2.1527  2.5436  2.5567
    1MPD1    H714174   2.617   3.484  11.742 -1.5829  2.1109 -1.5517
    2MPD1     C14175   1.843   2.464  10.760  0.2133 -0.4000  0.5685
    2MPD1    C114176   1.838   2.463  10.628  0.1434 -0.3482  0.7206
    2MPD1    C214177   1.934   2.534  10.560 -0.1896  0.6492  0.7486
    2MPD1    C314178   2.036   2.606  10.623  0.6308  0.5207  0.0787
    2MPD1    C414179   2.044   2.593  10.764 -0.8629 -0.0156  0.8445
    2MPD1    C514180   1.948   2.520  10.835  0.3924 -0.1432  0.4100
    2MPD1     H14181   1.931   2.528  10.451  1.8125 -3.9498  0.9664
    2MPD1    H114182   2.121   2.645  10.820 -1.1987  0.7024  0.6364
    2MPD1    H214183   1.758   2.429  10.817  1.2520 -1.4126  1.4986
    2MPD1    H314184   1.948   2.514  10.943 -3.5257  0.1830  0.4445
    2MPD1     N14185   2.141   2.678  10.554  0.0049  0.7517 -0.2413
    2MPD1    H514186   2.218   2.718  10.607  0.5114 -1.9736  1.1395
    2MPD1    N114187   1.729   2.418  10.552  0.0500 -0.3519  0.3747
    2MPD1    H614188   1.746   2.397  10.454  1.2197  0.2672  0.4453
    2MPD1    H714189   1.677   2.342  10.595  2.3283 -1.4618  1.1262
    3MPD1     C14190   2.726   2.749   9.648  0.3677  0.2225  1.1684
    3MPD1    C114191   2.763   2.857   9.733 -0.2740 -0.0372 -0.1824
    3MPD1    C214192   2.709   2.859   9.860 -0.5657  0.0371 -0.0232
    3MPD1    C314193   2.621   2.764   9.903 -0.5485  0.2037  0.6623
    3MPD1    C414194   2.590   2.657   9.823 -0.1061 -0.0198 -0.5310
    3MPD1    C514195   2.652   2.650   9.701 -0.1374 -0.1414 -0.2740
    3MPD1     H14196   2.742   2.943   9.921  0.6494 -0.9106  0.6319
    3MPD1    H114197   2.521   2.575   9.841 -0.7129  0.6238  0.0657
    3MPD1    H214198   2.752   2.756   9.543 -0.5712 -0.5300  0.8949
    3MPD1    H314199   2.609   2.574   9.638  1.4830 -1.2129 -0.0979
    3MPD1     N14200   2.582   2.770  10.038  0.2121  0.2099 -0.2743
    3MPD1    H514201   2.619   2.847  10.094 -0.9494 -0.2902  1.1796
    3MPD1    N114202   2.830   2.964   9.679 -0.1972  0.0496 -0.0107
    3MPD1    H614203   2.884   2.952   9.594  0.0628  1.0447  0.0160
    3MPD1    H714204   2.858   3.040   9.741  4.7492 -2.2964  0.6500
    4MPD2     C14205   3.027   3.802  10.695  0.2257 -0.8749  0.5558
    4MPD2    C114206   3.102   3.772  10.803  0.6320  0.1871 -0.2570
    4MPD2    C214207   3.168   3.654  10.820  0.5371 -0.1775 -0.3419
    4MPD2    C314208   3.160   3.557  10.724 -0.1934  0.3904 -0.0879
    4MPD2    C414209   3.084   3.588  10.608  1.1444 -0.4471 -0.6060
    4MPD2    C514210   3.024   3.709  10.593 -0.1855 -0.2803 -0.7705
    4MPD2     H14211   3.231   3.636  10.906 -1.1072 -3.0893  0.2501
    4MPD2    H114212   3.079   3.521  10.523  0.5151 -1.1946  0.0243
    4MPD2    H214213   2.975   3.895  10.677  0.9568 -0.9548 -1.9718
    4MPD2    H314214   2.973   3.739  10.502 -2.4135 -1.4583  0.0891
    4MPD2     N14215   3.235   3.442  10.747 -0.2591 -0.7901 -0.5717
    4MPD2    H514216   3.288   3.438  10.834  0.6623  0.6226 -1.0708
    4MPD2    N114217   3.113   3.864  10.911  0.5689  0.3711 -0.1158
    4MPD2    H714218   3.175   3.834  10.986  0.1361  0.8762  0.4445
    5TMC3    C114219   3.058   4.030  11.065 -0.5587 -0.3538  0.1347
    5TMC3    C214220   2.934   4.037  11.134  0.2213  0.1931 -0.1851
    5TMC3    C314221   2.932   4.018  11.265  0.0716  0.3944  0.9875
    5TMC3    C414222   3.170   3.992  11.133 -0.6088 -0.1941 -0.4404
    5TMC3    C514223   3.160   3.946  11.265  0.6651  0.3474 -0.2495
    5TMC3    C614224   3.047   3.973  11.331 -0.3149 -0.5425  0.8892
    5TMC3     C14225   3.040   3.985  10.931 -0.1769  0.7237  0.5665
    5TMC3     O14226   2.943   4.032  10.869  0.1305  0.0103 -0.4223
    5TMC3     H14227   2.841   4.075  11.093  0.8987  2.0620  0.0216
    5TMC3    H114228   3.264   3.979  11.081 -0.3469 -2.3404  0.5917
    5TMC3    H214229   3.055   3.959  11.438 -1.5570 -0.4388  0.9900
    5TMC3    C714230   3.194   3.802  11.257  0.1813 -0.4238 -0.3182
    5TMC3    C814231   2.804   3.987  11.317 -0.0171 -0.4085  0.2220
    5TMC3    O114232   3.228   3.764  11.146  0.0309 -0.4057 -0.1514
    5TMC3    O214233   2.707   4.055  11.278  0.0595 -0.2938  0.3253
    6TMC3    C114234   2.285   2.736  10.380 -0.5483  0.6331  0.2570
    6TMC3    C214235   2.320   2.704  10.254  0.5141  0.0378  0.0527
    6TMC3    C314236   2.447   2.734  10.228  0.4156 -0.0083 -0.0806
    6TMC3    C414237   2.373   2.791  10.473 -0.4305  0.0212  0.2846
    6TMC3    C514238   2.500   2.826  10.427  0.2395 -0.5762 -0.4475
    6TMC3    C614239   2.538   2.788  10.308 -0.3319 -0.1899 -0.2234
    6TMC3     C14240   2.157   2.681  10.418 -0.6581 -0.3308  0.7856
    6TMC3     O14241   2.096   2.630  10.325  0.8820  0.4065 -0.3427
    6TMC3     H14242   2.256   2.671  10.173 -0.1619  0.9589  0.2178
    6TMC3    H114243   2.347   2.810  10.577 -3.4175  0.0974 -0.4885
    6TMC3    H214244   2.641   2.802  10.277  0.1300  1.4503  2.0608
    6TMC3    C714245   2.603   2.864  10.532  0.1845 -0.3881 -0.0373
    6TMC3    C814246   2.499   2.675  10.102  0.3532  0.1532 -0.2926
    6TMC3    O114247   2.703   2.792  10.538  0.3480  0.0017  0.1032
    6TMC3    O214248   2.443   2.576  10.052  0.1186  0.2924  0.7863
    7MPD2     C14249   3.184   3.306  11.416  0.0963  0.4138  0.1486
    7MPD2    C114250   3.218   3.367  11.292  0.6385  0.4795  0.1096
    7MPD2    C214251   3.203   3.505  11.279  0.0755  0.9027  0.1568
    7MPD2    C314252   3.167   3.585  11.387 -0.0117  0.0718 -0.3984
    7MPD2    C414253   3.139   3.529  11.511 -0.2791 -0.3321 -0.8607
    7MPD2    C514254   3.153   3.390  11.526  1.0368 -0.0370  0.5450
    7MPD2     H14255   3.207   3.549  11.180 -0.5559 -0.7309 -0.5957
    7MPD2    H114256   3.138   3.592  11.599 -2.3636  0.0294 -1.1397
    7MPD2    H214257   3.187   3.198  11.427 -1.1055  0.1078 -2.5901
    7MPD2    H314258   3.142   3.353  11.628  1.6955 -1.8852 -0.0616
    7MPD2     N14259   3.166   3.729  11.374 -0.2238  0.1176  0.0555
    7MPD2    H514260   3.147   3.784  11.457 -0.0003  1.9909 -1.1243
    7MPD2    N114261   3.253   3.279  11.187 -0.2108 -0.0085 -0.5252
    7MPD2    H714262   3.238   3.179  11.200  0.3895 -0.3649 -2.5312
    8TMC3    C114263   3.303   3.213  10.966  0.0144 -0.0265 -0.2270
    8TMC3    C214264   3.200   3.126  10.966  0.8462 -0.1077  0.2014
    8TMC3    C314265   3.174   3.071  10.839 -0.0084 -0.0609  0.5117
    8TMC3    C414266   3.353   3.264  10.850 -0.3701  0.3157 -0.2886
    8TMC3    C514267   3.308   3.223  10.728 -0.5838 -0.9732 -0.0437
    8TMC3    C614268   3.228   3.113  10.720  0.2096 -0.1013 -0.7474
    8TMC3     C14269   3.296   3.323  11.060 -0.7089 -0.2544 -0.4238
    8TMC3     O14270   3.308   3.437  11.013  0.3637 -0.2361  0.4365
    8TMC3     H14271   3.143   3.093  11.052 -0.6934 -1.3993 -1.3036
    8TMC3    H114272   3.440   3.329  10.857 -1.0836  1.2240  0.2586
    8TMC3    H214273   3.194   3.079  10.623 -1.1300 -0.1066 -0.2823
    8TMC3    C714274   3.253   3.339  10.660 -0.1480 -0.2337  0.4796
    8TMC3    C814275   3.044   3.016  10.816 -0.1438  0.1035  0.4702
    8TMC3    O114276   3.196   3.324  10.554 -0.0216  0.2205 -0.0947
    8TMC3    O214277   3.032   2.935  10.729 -0.1656  0.1798 -0.3490
    9MPD2     C14278   2.727   3.150  10.949 -0.5056  0.7992  0.2531
    9MPD2    C114279   2.806   3.070  10.874  0.2838  0.0920  0.0682
    9MPD2    C214280   2.741   3.010  10.761  0.5006  0.5353  0.4282
    9MPD2    C314281   2.612   3.012  10.735 -0.2272  0.0793  0.1171
    9MPD2    C414282   2.533   3.087  10.821 -0.3850 -0.0929  1.0443
    9MPD2    C514283   2.599   3.170  10.908 -0.1955 -0.4084  0.1168
    9MPD2     H14284   2.797   2.944  10.697  2.4021 -0.2653  2.9656
    9MPD2    H114285   2.434   3.116  10.789 -0.3191 -0.0963  0.8364
    9MPD2    H214286   2.766   3.213  11.028 -2.1075 -1.9824  3.3222
    9MPD2    H314287   2.536   3.242  10.958  0.7672  0.2744  0.3516
    9MPD2     N14288   2.554   2.965  10.616 -0.2779 -0.1314  0.0812
    9MPD2    H514289   2.469   3.012  10.584 -0.0632  0.3802  0.2584
    9MPD2    N114290   2.947   3.070  10.897 -0.6680  0.0011  0.4217
    9MPD2    H714291   2.986   3.123  10.974 -3.1412 -0.2241  1.8242
    1MPD1     C14292   2.101   1.646  15.455 -0.3199 -0.1533 -0.1233
    1MPD1    C114293   2.074   1.745  15.368 -0.4070 -0.3379  0.3324
    1MPD1    C214294   2.057   1.875  15.413  0.1412 -0.1001  0.1870
    1MPD1    C314295   2.055   1.917  15.548  0.3685  0.3044 -0.1703
    1MPD1    C414296   2.066   1.806  15.638  0.0916 -0.2670 -0.3756
    1MPD1    C514297   2.097   1.677  15.593  0.0064  0.0689 -0.7287
    1MPD1     H14298   2.026   1.955  15.346 -0.8749  0.2495  1.0722
    1MPD1    H114299   2.074   1.821  15.745  0.1868 -0.0015 -0.4191
    1MPD1    H214300   2.118   1.544  15.425  0.5699  0.5324 -1.9299
    1MPD1    H314301   2.120   1.599  15.664 -0.2223  1.3390  0.7437
    1MPD1     N14302   2.039   2.050  15.594  0.3896  0.2667  0.1572
    1MPD1    H514303   2.026   2.048  15.694  1.2571  2.5662  0.3114
    1MPD1    N114304   2.069   1.713  15.235 -0.7280  0.2038 -0.5029
    1MPD1    H614305   2.100   1.617  15.222 -0.9607  0.2535 -1.4360
    1MPD1    H714306   2.138   1.776  15.194 -1.0216  0.7692 -0.1438
    2TMC2    C114307   1.949   2.451  15.727 -0.0490 -0.1989  0.5112
    2TMC2    C214308   1.993   2.558  15.646 -0.8114 -0.0130 -0.9006
    2TMC2    C314309   2.052   2.521  15.531  0.5476 -0.1516  0.3578
    2TMC2    C414310   1.979   2.322  15.689 -0.3002 -0.2065  0.8358
    2TMC2    C514311   2.047   2.301  15.571 -0.4816 -0.2048  0.8206
    2TMC2    C614312   2.068   2.399  15.480  0.6842  0.8012  0.2555
    2TMC2     C14313   1.884   2.469  15.852 -0.3378 -0.2807 -0.2972
    2TMC2     O14314   1.825   2.373  15.903  0.2464 -0.5943  0.0301
    2TMC2     H14315   1.985   2.664  15.670 -2.1148  0.0146 -1.4723
    2TMC2    H114316   1.964   2.241  15.760 -1.1312 -0.4076  0.4284
    2TMC2    H214317   2.108   2.382  15.381  2.7491  1.3277  1.0093
    2TMC2    C714318   2.068   2.166  15.515 -0.0834 -0.2744  0.1954
    2TMC2    C814319   2.073   2.631  15.435 -0.2139  0.1354  0.2382
    2TMC2    O114320   2.130   2.164  15.409 -0.0267  0.0659  0.7835
    2TMC2    O214321   2.125   2.741  15.464  0.2576  0.5794 -0.4425
    2TMC2    O514322   2.049   2.597  15.312  0.7618  0.1918  0.4508
    2TMC2    H514323   1.980   2.527  15.313 -1.5423  2.4359 -0.5561
    3MPD1     C14324   1.716   2.776  16.230 -0.4519 -0.5790  0.3895
    3MPD1    C114325   1.789   2.856  16.147 -0.1214  0.1850 -0.0731
    3MPD1    C214326   1.834   2.797  16.027  0.1326 -0.2390  0.0514
    3MPD1    C314327   1.834   2.656  16.015  0.3875  0.1150  0.3115
    3MPD1    C414328   1.754   2.578  16.101  0.0654  0.1781  0.1470
    3MPD1    C514329   1.696   2.640  16.206  0.1162  0.1576 -0.4285
    3MPD1     H14330   1.884   2.853  15.949  1.4312 -2.3383 -0.6455
    3MPD1    H114331   1.746   2.470  16.095 -0.2962  0.1759  0.6570
    3MPD1    H214332   1.685   2.819  16.324 -1.7284  0.8031 -0.6592
    3MPD1    H314333   1.628   2.597  16.277  1.9750 -1.8763  0.1098
    3MPD1     N14334   1.890   2.600  15.894 -0.0549  0.1013  0.1737
    3MPD1    H514335   1.947   2.662  15.838  0.3661 -0.0245  0.4684
    3MPD1    N114336   1.784   2.996  16.157  0.0977 -0.5524 -0.0925
    3MPD1    H614337   1.869   3.033  16.117  0.2215 -0.7589 -0.0216
    3MPD1    H714338   1.785   3.024  16.255 -1.1128 -2.7325  0.5455
    1TMC1    C114339   0.835   0.825  13.215  0.0632 -0.1556 -0.1919
    1TMC1    C214340   0.708   0.841  13.256  0.0955 -0.4499  0.1874
    1TMC1    C314341   0.652   0.722  13.283  0.0407 -0.2889  0.4465
    1TMC1    C414342   0.888   0.705  13.175 -0.2478  0.0714  0.2175
    1TMC1    C514343   0.817   0.591  13.207 -0.0347  0.5483  0.1064
    1TMC1    C614344   0.691   0.595  13.254 -1.3176  0.9471  0.2505
    1TMC1     C14345   0.924   0.923  13.271  0.2737 -0.1157 -0.4463
    1TMC1     O14346   0.877   1.036  13.277  0.5512  0.1246  0.8246
    1TMC1     H14347   0.669   0.936  13.289  1.9504 -0.0130  1.1057
    1TMC1    H114348   0.995   0.693  13.158 -0.3125 -0.2458  0.0322
    1TMC1    H214349   0.625   0.513  13.276  0.5522 -1.0931 -1.6903
    1TMC1    C714350   0.871   0.460  13.180  0.7750 -0.1933 -0.2280
    1TMC1    C814351   0.513   0.737  13.341 -0.0605  0.4579  0.5510
    1TMC1    O114352   0.840   0.372  13.255 -0.0574  0.2305  0.3557
    1TMC1    O214353   0.447   0.837  13.328 -0.3340  0.5903  0.3216
    1TMC1    O314354   0.963   0.467  13.081  0.2506  0.2460  0.1526
    1TMC1    H314355   0.975   0.551  13.031  2.7448  0.6172  1.3792
    1TMC1    O514356   0.483   0.637  13.426  0.0963  0.6861 -0.4091
    1TMC1    H514357   0.559   0.589  13.464 -0.1465  0.7920  0.2248
    2MPD2     C14358   1.162   1.077  13.363 -0.2173 -0.0086  1.3334
    2MPD2    C114359   1.155   0.941  13.378  0.3417  0.1304 -0.3478
    2MPD2    C214360   1.255   0.868  13.451  0.0710 -0.1261  0.3006
    2MPD2    C314361   1.362   0.948  13.503 -0.1283  0.5814 -0.1357
    2MPD2    C414362   1.376   1.084  13.476  0.9408 -0.1301  0.1825
    2MPD2    C514363   1.270   1.142  13.416  0.4893 -0.5029 -0.3310
    2MPD2     H14364   1.259   0.760  13.462  3.0465  0.1358  1.7406
    2MPD2    H114365   1.466   1.140  13.498  0.2970 -0.3950  3.3533
    2MPD2    H214366   1.087   1.140  13.317  0.9645 -1.4099 -2.4916
    2MPD2    H314367   1.278   1.249  13.402 -1.1870 -0.1914  1.1275
    2MPD2     N14368   1.460   0.873  13.568  0.0589 -0.0470  0.4625
    2MPD2    H514369   1.454   0.772  13.567  0.3879 -0.0833  1.5268
    2MPD2    N114370   1.046   0.874  13.319 -0.0692 -0.3859 -0.1746
    2MPD2    H714371   1.049   0.772  13.319 -0.4978 -0.3997 -0.1247
    3TCq1    O114372   1.827   0.934  14.077 -0.2466  0.2653  0.1969
    3TCq1    C114373   1.785   0.812  14.043 -0.8388 -0.5075 -0.4252
    3TCq1    O214374   1.827   0.710  14.095  0.0023  0.0908 -0.0712
    3TCq1    C214375   1.775   0.813  13.903 -0.1570 -0.4394  0.5316
    3TCq1    C314376   1.832   0.711  13.833  0.6535 -0.0687  0.1373
    3TCq1    C414377   1.762   0.671  13.722  0.2948  0.1573 -0.0103
    3TCq1    C514378   1.647   0.734  13.672 -0.7412  0.2796 -1.4396
    3TCq1    C614379   1.605   0.840  13.742  1.1162 -0.0353 -0.1294
    3TCq1    C714380   1.667   0.879  13.859 -0.4336 -0.0431 -0.1309
    3TCq1    C814381   1.529   0.931  13.668 -0.0128  0.0036  0.5018
    3TCq1    O414382   1.535   1.042  13.717  0.2318  0.0769 -0.3003
    3TCq1    C914383   1.812   0.560  13.647  0.1762  0.7342  0.3339
    3TCq1    O514384   1.750   0.514  13.542 -0.1950 -0.1842  0.0292
    3TCq1    O614385   1.930   0.528  13.674  0.0015  0.5494  0.0367
    3TCq1    H114386   1.841   1.006  14.012  0.5088 -0.0449  0.0163
    3TCq1    H214387   1.920   0.664  13.874  0.4145 -1.7520 -1.2629
    3TCq1    H314388   1.594   0.688  13.589 -1.0187 -1.9135 -0.0682
    3TCq1    H414389   1.634   0.969  13.910  0.1229 -0.0805  0.2961
    1MPD2     C14390   0.562   2.210  14.747  1.2282 -0.1547 -0.1598
    1MPD2    C114391   0.503   2.082  14.770 -0.3560 -0.3646 -0.2284
    1MPD2    C214392   0.574   1.971  14.723  0.1977 -1.1574  0.4249
    1MPD2    C314393   0.686   1.980  14.642  0.2538 -0.0581  0.5951
    1MPD2    C414394   0.736   2.105  14.617 -0.8559 -1.1643 -0.0692
    1MPD2    C514395   0.678   2.216  14.672  0.1965 -0.1692 -0.5975
    1MPD2     H14396   0.537   1.872  14.748 -3.0996  0.3107  1.2629
    1MPD2    H114397   0.819   2.123  14.550 -0.1551 -1.8157  0.6275
    1MPD2    H214398   0.515   2.300  14.785  1.2023 -0.3593  0.2926
    1MPD2    H314399   0.735   2.307  14.656 -0.9105  0.4966 -0.7470
    1MPD2     N14400   0.743   1.880  14.557  0.1652 -0.5424  0.5668
    1MPD2    H514401   0.828   1.903  14.506 -0.8786  0.3422 -0.7586
    1MPD2    N114402   0.381   2.069  14.836  0.3981 -0.4194  0.0886
    1MPD2    H714403   0.342   2.155  14.873 -0.7308 -0.7427 -0.3584
    2TMC3    C114404   0.153   1.984  14.854 -0.0375 -0.2275 -0.6584
    2TMC3    C214405   0.099   1.865  14.893  0.1638  0.8984  0.3022
    2TMC3    C314406   4.708   1.841  14.849 -0.2812 -0.1015  0.3123
    2TMC3    C414407   0.083   2.084  14.788  0.0366  0.1108 -0.0526
    2TMC3    C514408   4.687   2.056  14.765 -0.6399  0.6419  0.1035
    2TMC3    C614409   4.630   1.939  14.792 -0.3818  0.1060 -0.6298
    2TMC3     C14410   0.295   1.958  14.823 -0.0553  0.0229  0.0713
    2TMC3     O14411   0.305   1.856  14.763  0.0595  0.2332 -0.2553
    2TMC3     H14412   0.161   1.780  14.921  1.9946  2.3647  0.6712
    2TMC3    H114413   0.138   2.161  14.735 -2.0345  0.1449 -2.1262
    2TMC3    H214414   4.534   1.910  14.751 -0.2767 -0.7521 -0.2781
    2TMC3    C714415   4.601   2.152  14.700  0.0688 -0.0057  0.2656
    2TMC3    C814416   4.701   1.715  14.772 -0.2195 -0.1052  0.0187
    2TMC3    O114417   4.510   2.104  14.633  0.0121  0.2355  0.0596
    2TMC3    O214418   4.591   1.666  14.753  0.2084 -0.1502  0.2986
    3TCq1    O114419   4.293   3.175  15.131  0.6657  0.4474  0.0602
    3TCq1    C114420   4.419   3.222  15.150  0.3020 -0.1134  0.0396
    3TCq1    O214421   4.448   3.296  15.241  0.1467  0.2480  0.0897
    3TCq1    C214422   4.495   3.107  15.124  0.2183  0.1033 -0.4266
    3TCq1    C314423   4.552   3.040  15.230  0.2613 -0.2513  0.6952
    3TCq1    C414424   4.582   2.906  15.207  0.0514  0.1716 -0.0299
    3TCq1    C514425   4.550   2.843  15.091  0.2955 -0.8148  0.3144
    3TCq1    C614426   4.481   2.910  14.994  0.3492 -0.1313  0.4036
    3TCq1    C714427   4.450   3.040  15.011  0.2792 -0.1564 -0.1198
    3TCq1    C814428   4.435   2.838  14.883  0.0286  0.4899 -0.4466
    3TCq1    O414429   4.343   2.884  14.816  0.4236  0.1308  0.3458
    3TCq1    C914430   4.648   2.822  15.306 -0.4922  0.1703 -0.0248
    3TCq1    O514431   4.681   2.878  15.412 -0.0041 -1.0458 -0.0150
    3TCq1    O614432   4.702   2.714  15.269  0.0124  0.0326  0.0920
    3TCq1    H114433   4.264   3.086  15.099 -0.7698  0.5802  0.9938
    3TCq1    H214434   4.584   3.091  15.319 -2.3919  1.2975  0.7819
    3TCq1    H314435   4.560   2.735  15.093  0.7836 -0.7264  2.0508
    3TCq1    H414436   4.382   3.088  14.942  0.1527 -0.9549 -0.5548
    4MPD2     C14437   4.376   2.621  14.687  0.4614  0.1456  0.0141
    4MPD2    C114438   4.486   2.621  14.778  0.4635 -0.0042 -0.0507
    4MPD2    C214439   4.571   2.511  14.787  0.2329 -0.1623 -0.2297
    4MPD2    C314440   4.544   2.398  14.715  0.8640  0.0258  0.5568
    4MPD2    C414441   4.437   2.389  14.629 -0.4848 -0.1676  0.7918
    4MPD2    C514442   4.359   2.504  14.608 -0.6236  0.2994 -0.1090
    4MPD2     H14443   4.654   2.510  14.856 -0.8422 -2.2660  1.0187
    4MPD2    H114444   4.425   2.309  14.558 -0.7703  0.3587  0.2453
    4MPD2    H214445   4.306   2.703  14.670 -0.7350 -1.1617 -1.4011
    4MPD2    H314446   4.278   2.496  14.536 -0.1177 -0.7398 -0.5583
    4MPD2     N14447   4.619   2.281  14.747 -0.7431 -0.5357  0.5583
    4MPD2    H514448   4.689   2.292  14.820 -1.0901  0.7465  0.6928
    4MPD2    N114449   4.508   2.724  14.870  0.2044  0.2311  0.1593
    4MPD2    H714450   4.585   2.710  14.935 -0.4422 -0.2778  0.8032
    5TMC2    C114451   0.690   1.431  14.459 -0.0474 -0.5124 -0.2798
    5TMC2    C214452   0.781   1.391  14.547 -0.1305  0.5188 -0.6192
    5TMC2    C314453   0.873   1.482  14.586 -0.5842 -0.0506  0.4570
    5TMC2    C414454   0.680   1.563  14.419  0.5039 -0.3499 -0.4834
    5TMC2    C514455   0.762   1.656  14.482  0.2726 -0.2840 -0.3963
    5TMC2    C614456   0.864   1.619  14.569 -0.1471 -0.1501 -0.8628
    5TMC2     C14457   0.554   1.374  14.486 -0.4501  0.0444  0.6249
    5TMC2     O14458   0.543   1.255  14.507  0.0791 -0.6254 -0.1777
    5TMC2     H14459   0.791   1.286  14.570 -0.7487  0.4241 -0.7955
    5TMC2    H114460   0.597   1.592  14.356  0.2506  0.1181  0.0697
    5TMC2    H214461   0.940   1.695  14.584  0.0969  0.2971 -4.2486
    5TMC2    C714462   0.687   1.757  14.555  0.5045 -0.1896 -0.4971
    5TMC2    C814463   0.987   1.429  14.665  0.8311 -0.2472  0.5377
    5TMC2    O114464   0.576   1.712  14.589 -0.2041 -0.2805 -0.1177
    5TMC2    O214465   0.982   1.316  14.715  1.0155 -0.7010  0.0156
    5TMC2    O514466   1.076   1.526  14.691 -0.2564 -0.2933  0.0455
    5TMC2    H514467   1.068   1.603  14.632  0.5830 -1.2088 -1.2532
    6MPD2     C14468   0.067   1.449  14.618 -0.4991 -0.0898  1.3681
    6MPD2    C114469   0.143   1.565  14.654  0.8160 -0.7306  0.9832
    6MPD2    C214470   0.281   1.563  14.624 -0.1104  0.3181 -0.0686
    6MPD2    C314471   0.330   1.461  14.550  0.3657 -0.6289 -0.2530
    6MPD2    C414472   0.261   1.350  14.526 -0.1890  0.8026  0.4288
    6MPD2    C514473   0.128   1.348  14.553  0.7800  0.5413  0.5913
    6MPD2     H14474   0.342   1.651  14.636  0.9353 -0.5664  1.0543
    6MPD2    H114475   0.298   1.266  14.469 -1.0745  0.3999  0.4416
    6MPD2    H214476   4.695   1.452  14.619 -0.5271 -1.5672  1.3775
    6MPD2    H314477   0.069   1.268  14.510 -2.3570  2.3889  1.4905
    6MPD2     N14478   0.468   1.471  14.525 -0.5144 -0.0385 -0.2149
    6MPD2    H514479   0.510   1.563  14.539 -1.7307  0.6253 -0.9103
    6MPD2    N114480   0.086   1.684  14.721 -0.4698 -0.3879 -0.1274
    6MPD2    H714481   0.162   1.749  14.738  0.2291 -0.8304 -1.5765
  945NH3     N114482   2.233   3.364   0.656  0.2226  0.0377 -0.1244
  945NH3     H214483   2.225   3.276   0.706 -1.9137  0.3237  0.0635
  945NH3     H314484   2.213   3.335   0.561  1.9711  1.0802 -0.8017
  945NH3     H414485   2.151   3.414   0.688  0.9848 -0.1412  2.1076
  946SOD     NA14486   0.040   2.659  15.463 -0.1833 -0.3625  0.4952
  947SOD     NA14487   0.233   0.647  11.226  0.2585  0.3728  0.2147
  948SOD     NA14488   1.723   2.850  15.005 -0.1085 -0.0855 -0.4180
  949SOD     NA14489   0.217   0.003   6.860 -0.0888 -0.5156  0.0176
  950SOD     NA14490   4.062   3.331   2.610 -0.0263  0.5654 -0.4827
  951SOD     NA14491   3.485   2.521   9.299 -0.5853 -0.1587  0.0783
  952SOD     NA14492   3.669   2.390   7.006 -0.6702 -0.1016 -0.1014
  953SOD     NA14493   0.561   0.874  14.723  0.0079 -0.2047 -0.0411
  954SOL     OW14494   2.137   1.761   8.155  0.3405 -0.6214 -0.5444
  954SOL    HW114495   2.096   1.756   8.242 -2.2660  1.7464 -1.6080
  954SOL    HW214496   2.180   1.846   8.165  2.0544 -1.8486  2.3826
  955SOL     OW14497   4.423   2.473   2.699 -0.0707 -0.3655  0.7499
  955SOL    HW114498   4.375   2.449   2.778 -1.4156  0.3732  0.1461
  955SOL    HW214499   4.376   2.555   2.682  1.2272  0.7275  2.4402
  956SOL     OW14500   2.346   0.652   8.405 -0.0536  0.1310  0.0399
  956SOL    HW114501   2.381   0.668   8.493  0.2335  2.9193 -0.5959
  956SOL    HW214502   2.343   0.556   8.398 -2.4569  0.0974  1.3585
  957SOL     OW14503   2.073   0.267   2.290  0.1451  0.5187 -0.0445
  957SOL    HW114504   2.024   0.345   2.314  0.2423  0.9865 -1.3646
  957SOL    HW214505   2.032   0.240   2.208  0.6773 -2.5126  0.6911
  958SOL     OW14506   0.304   0.565   7.733 -0.3736 -0.5222  0.5517
  958SOL    HW114507   0.215   0.553   7.701  0.8517 -1.1632 -2.5974
  958SOL    HW214508   0.297   0.636   7.797 -0.2097 -1.1659  1.2789
  959SOL     OW14509   0.015   1.091   6.317 -0.4640  0.0876 -0.0313
  959SOL    HW114510   0.071   1.163   6.349 -1.5117  0.7166  0.3741
  959SOL    HW214511   4.693   1.131   6.253  0.6799  2.6722  0.5013
  960SOL     OW14512   3.041   2.660  13.449  0.5663  0.3975 -0.8874
  960SOL    HW114513   3.015   2.753  13.454 -1.6454 -0.4217  3.2412
  960SOL    HW214514   3.079   2.656  13.361 -1.5801  0.3241 -1.8231
  961SOL     OW14515   3.942   3.849   8.543  0.4991  0.4517  0.6102
  961SOL    HW114516   3.986   3.837   8.627 -1.7567 -3.4750  1.2732
  961SOL    HW214517   3.850   3.840   8.569  0.4696  0.5062  0.5233
  962SOL     OW14518   0.645   2.521   2.563 -0.4258 -0.4209 -0.4240
  962SOL    HW114519   0.564   2.561   2.530 -0.8272 -0.3199  0.6490
  962SOL    HW214520   0.642   2.437   2.519 -1.6365 -1.5170  1.7134
  963SOL     OW14521   3.075   2.560   5.542  0.3263 -0.4997  0.2522
  963SOL    HW114522   3.042   2.641   5.581 -0.3370 -1.4160  1.6183
  963SOL    HW214523   3.111   2.522   5.622  0.7059 -1.8017 -0.5450
  964SOL     OW14524   0.992   0.197  13.421 -0.2752  0.3353 -0.1844
  964SOL    HW114525   0.941   0.229  13.495 -1.8499  0.6874 -1.4157
  964SOL    HW214526   0.954   0.233  13.341 -0.4224 -0.0489 -0.2872
  965SOL     OW14527   1.013   4.527   7.156 -0.5343 -0.1317  0.0878
  965SOL    HW114528   0.953   4.564   7.220  0.7621  0.5766  0.9103
  965SOL    HW214529   0.956   4.469   7.107 -0.7330  1.1833 -1.2546
  966SOL     OW14530   0.569   2.010   3.618  0.6881 -0.5418 -0.5017
  966SOL    HW114531   0.582   2.082   3.557 -0.3208 -0.0035 -0.0858
  966SOL    HW214532   0.537   1.941   3.560 -1.4661  0.1541 -0.1245
  967SOL     OW14533   2.650   2.877   8.500  0.4498 -0.0356  0.0006
  967SOL    HW114534   2.577   2.910   8.553 -0.8035 -0.5087 -1.4368
  967SOL    HW214535   2.692   2.960   8.476 -2.0143  1.0422 -0.6202
  968SOL     OW14536   0.119   2.042  16.231  0.3238 -0.0561  0.1685
  968SOL    HW114537   0.117   2.078  16.143 -2.1761 -0.6192  0.0011
  968SOL    HW214538   0.183   2.102  16.270 -0.4695  2.0665 -1.8105
  969SOL     OW14539   3.560   3.048   3.000 -0.8103 -0.2925 -0.0585
  969SOL    HW114540   3.467   3.025   3.003 -0.7486 -0.4733  0.4536
  969SOL    HW214541   3.589   3.070   3.089 -2.4062  0.3414  0.3072
  970SOL     OW14542   4.044   0.060   3.373 -0.1801 -0.3148 -0.1193
  970SOL    HW114543   4.001   0.145   3.364  1.6923  0.6508 -0.1408
  970SOL    HW214544   4.080   0.057   3.461 -0.3924 -0.9807 -0.0617
  971SOL     OW14545   2.692   0.887   4.604 -0.0937 -0.3483 -0.0310
  971SOL    HW114546   2.628   0.840   4.551 -0.8009  0.6621 -0.0754
  971SOL    HW214547   2.671   0.976   4.575 -1.1885 -0.2638  1.0141
  972SOL     OW14548   2.804   0.527   2.009 -0.0424  0.0436 -0.0074
  972SOL    HW114549   2.881   0.529   1.953  0.4123 -0.2288  0.6006
  972SOL    HW214550   2.770   0.441   1.982  0.5826 -0.2316  0.0974
  973SOL     OW14551   0.097   0.263   7.896  0.3261  0.0181 -0.0050
  973SOL    HW114552   0.160   0.249   7.967 -1.5313 -2.7392  1.1273
  973SOL    HW214553   0.075   0.356   7.895  0.6626  0.0994  0.2343
  974SOL     OW14554   2.364   0.255  13.449 -0.7724 -0.0755  0.4346
  974SOL    HW114555   2.281   0.244  13.496 -0.3072 -0.6587  1.1211
  974SOL    HW214556   2.384   0.164  13.427  0.6797  0.4154 -0.2062
  975SOL     OW14557   2.367   0.715  14.361 -0.3151 -0.1124  0.3208
  975SOL    HW114558   2.394   0.626  14.336 -1.1369 -0.4122  0.4947
  975SOL    HW214559   2.314   0.732  14.284 -1.3983  0.5954  1.2186
  976SOL     OW14560   0.671   0.704   4.839  0.2878 -0.2553 -0.0911
  976SOL    HW114561   0.579   0.702   4.865  0.4685 -0.1264  0.5552
  976SOL    HW214562   0.700   0.616   4.862 -1.8334 -0.6473  1.1311
  977SOL     OW14563   0.972   3.101   7.166  0.0256 -0.0713  0.0071
  977SOL    HW114564   0.896   3.050   7.137 -4.1950  4.2258  3.4191
  977SOL    HW214565   0.940   3.185   7.132  1.3544  1.2295  1.9364
  978SOL     OW14566   2.942   1.115   3.086 -0.1968  0.1126 -0.0008
  978SOL    HW114567   2.855   1.155   3.082  0.7026  1.7296 -3.5273
  978SOL    HW214568   2.996   1.161   3.023 -0.8354  1.6320  0.5505
  979SOL     OW14569   3.121   3.419   2.220  0.2859 -1.1644  0.5968
  979SOL    HW114570   3.139   3.329   2.248  0.3473 -1.0758  0.8489
  979SOL    HW214571   3.025   3.418   2.228  0.0703 -1.5311 -2.2831
  980SOL     OW14572   0.113   2.586  15.101 -0.2200  0.2857 -0.2604
  980SOL    HW114573   0.198   2.584  15.145 -0.0314  1.2566 -0.5783
  980SOL    HW214574   0.060   2.641  15.159  2.6893  0.9651  1.7609
  981SOL     OW14575   4.157   1.221  15.943 -0.5043  0.4422 -0.2607
  981SOL    HW114576   4.071   1.191  15.971  0.1857 -0.4566  0.8402
  981SOL    HW214577   4.218   1.148  15.943  1.1898  1.8361 -2.8422
  982SOL     OW14578   1.055   1.691  17.198  0.0863 -0.7447  0.3767
  982SOL    HW114579   1.084   1.691  17.107  2.5404 -2.0354  1.1527
  982SOL    HW214580   1.017   1.777  17.210  0.1424 -0.5616 -0.7251
  983SOL     OW14581   0.220   0.813   1.152  0.1969  0.0173 -0.3700
  983SOL    HW114582   0.284   0.851   1.212 -2.7215  3.0898  0.7789
  983SOL    HW214583   0.243   0.859   1.072  2.0843 -0.5857 -0.1731
  984SOL     OW14584   4.561   1.002   7.198 -0.6109 -0.2257 -0.2398
  984SOL    HW114585   4.643   0.990   7.245 -1.3239  0.8045  1.2510
  984SOL    HW214586   4.516   1.037   7.275  1.9521  0.4067  0.9700
  985SOL     OW14587   4.687   3.263   9.601 -0.0296 -0.2743  0.3976
  985SOL    HW114588   4.711   3.171   9.593 -0.4136 -0.1890 -1.6036
  985SOL    HW214589   4.595   3.258   9.575  0.3348  1.8039 -1.3738
  986SOL     OW14590   3.089   1.156  15.765 -0.0450 -0.1554  0.4123
  986SOL    HW114591   3.132   1.181  15.846 -1.5735 -2.2608  1.8718
  986SOL    HW214592   3.001   1.132  15.792  0.1093  2.3606  3.0755
  987SOL     OW14593   4.710   1.783   2.258  0.0978 -0.1225  0.3792
  987SOL    HW114594   0.050   1.751   2.211  0.3208 -0.2319  0.8111
  987SOL    HW214595   0.013   1.830   2.332 -1.1022  0.4354  0.6681
  988SOL     OW14596   0.786   2.230   7.909  0.5631  0.1538 -0.5034
  988SOL    HW114597   0.757   2.308   7.957  0.4768 -0.4137  0.3674
  988SOL    HW214598   0.701   2.188   7.892  0.6266 -0.5734  0.9499
  989SOL     OW14599   1.852   4.722   0.460 -1.1212 -0.0240  0.1241
  989SOL    HW114600   1.864   4.733   0.366  1.3446  0.9776  0.5599
  989SOL    HW214601   1.756   4.715   0.462 -1.1638  0.0200 -2.3684
  990SOL     OW14602   0.720   4.631   4.688  0.7019 -0.1216  0.4191
  990SOL    HW114603   0.745   4.570   4.758  0.4731  0.1480  0.7346
  990SOL    HW214604   0.731   4.582   4.606  1.6607 -0.4128  0.7136
  991SOL     OW14605   4.080   2.503   5.857  0.2316 -0.0167  0.1326
  991SOL    HW114606   3.999   2.510   5.806 -1.0945 -2.6803  1.8954
  991SOL    HW214607   4.101   2.409   5.860 -1.0958 -0.2233  3.1634
  992SOL     OW14608   0.275   1.098   5.251 -0.1213 -0.3032 -0.1002
  992SOL    HW114609   0.289   1.051   5.333 -1.8448 -2.7380 -1.1902
  992SOL    HW214610   0.186   1.123   5.279 -0.2705 -2.2634  1.1637
  993SOL     OW14611   3.620   3.432   4.546  0.0499 -0.1322 -0.0221
  993SOL    HW114612   3.681   3.402   4.479 -0.1957  1.0569 -0.7754
  993SOL    HW214613   3.681   3.476   4.604 -1.4629 -2.4325  3.3499
  994SOL     OW14614   3.487   2.631   1.952 -0.0271  0.2182 -0.1202
  994SOL    HW114615   3.546   2.702   1.977 -0.2047 -0.3925  2.0177
  994SOL    HW214616   3.509   2.570   2.022 -0.1403  0.3595  0.0410
  995SOL     OW14617   1.712   1.804   2.382 -0.1455 -0.1501 -0.1229
  995SOL    HW114618   1.791   1.804   2.329  0.1995  2.8373  0.3524
  995SOL    HW214619   1.747   1.829   2.468 -1.3439  0.9838  0.0508
  996SOL     OW14620   4.135   2.297   6.055  0.0397 -0.3797 -0.1780
  996SOL    HW114621   4.214   2.253   6.087  0.5333  0.6903  0.0965
  996SOL    HW214622   4.129   2.361   6.126  0.3306  0.4851 -0.9342
  997SOL     OW14623   1.994   0.191   1.125 -0.3452  0.1019  0.1037
  997SOL    HW114624   2.059   0.129   1.092  0.7130  0.3208  1.7889
  997SOL    HW214625   1.974   0.160   1.213  0.0052  0.5232  0.3285
  998SOL     OW14626   0.210   1.582   9.035 -0.3912 -0.3916  0.3251
  998SOL    HW114627   0.208   1.632   9.117  1.0577 -0.9565  0.6967
  998SOL    HW214628   0.299   1.549   9.031  0.3109  1.5168  0.2008
  999SOL     OW14629   4.028   4.457   9.711  0.6035 -0.1782 -0.0877
  999SOL    HW114630   4.123   4.461   9.722  0.7495 -1.4764 -0.9240
  999SOL    HW214631   4.005   4.514   9.786 -1.0693  1.7297 -2.0402
 1000SOL     OW14632   2.912   1.149   8.786  0.2242  0.4270  0.4541
 1000SOL    HW114633   2.992   1.113   8.826  0.7967  2.2315  0.9389
 1000SOL    HW214634   2.893   1.077   8.726  1.9912  0.3284 -0.0064
 1001SOL     OW14635   0.209   2.400   3.578  0.3943 -0.0627  0.3856
 1001SOL    HW114636   0.241   2.462   3.513  0.1321 -1.6465 -1.2846
 1001SOL    HW214637   0.117   2.390   3.552  0.5328 -1.9742  0.6070
 1002SOL     OW14638   3.591   1.485  16.164 -0.4881 -0.3046 -0.3630
 1002SOL    HW114639   3.613   1.578  16.166  0.7170 -0.5206 -3.0176
 1002SOL    HW214640   3.623   1.453  16.079  3.5068 -1.3961  1.5743
 1003SOL     OW14641   1.567   0.527   5.312 -0.4450 -0.0860  0.5542
 1003SOL    HW114642   1.631   0.578   5.264 -0.5546 -1.2440 -0.8142
 1003SOL    HW214643   1.486   0.567   5.280 -1.2023 -2.0470  0.0260
 1004SOL     OW14644   2.478   1.364   1.894  0.0956 -0.0834 -0.2021
 1004SOL    HW114645   2.389   1.331   1.878  0.3568 -1.1055  0.4153
 1004SOL    HW214646   2.530   1.331   1.821  0.3106  0.0101 -0.0892
 1005SOL     OW14647   2.087   2.569   2.692  0.1480 -0.0966 -0.2899
 1005SOL    HW114648   2.028   2.561   2.616  1.1263 -0.8407 -0.9664
 1005SOL    HW214649   2.065   2.488   2.738 -0.1683  0.7937  1.1174
 1006SOL     OW14650   1.973   2.950  10.255  0.5148  0.7914 -0.8116
 1006SOL    HW114651   1.923   2.897  10.192 -0.0729 -0.0924  0.4006
 1006SOL    HW214652   1.938   2.913  10.336  0.4682  0.6901 -0.8777
 1007SOL     OW14653   4.616   3.675   5.998 -0.0994 -0.4012  0.2118
 1007SOL    HW114654   4.562   3.754   5.999 -0.1892 -0.4364 -1.6220
 1007SOL    HW214655   4.693   3.695   6.051  1.2398 -0.6558 -1.6369
 1008SOL     OW14656   0.293   2.741   5.288  0.0037 -0.6169 -0.2740
 1008SOL    HW114657   0.217   2.709   5.238 -1.7734  0.8509  1.4619
 1008SOL    HW214658   0.366   2.728   5.228 -0.8377  2.2348 -1.9531
 1009SOL     OW14659   3.662   0.121   8.508  0.3906  0.2802 -0.2178
 1009SOL    HW114660   3.566   0.130   8.503  0.0832 -1.4021  2.4461
 1009SOL    HW214661   3.666   0.136   8.602 -1.6435 -1.8434  0.2315
 1010SOL     OW14662   4.470   0.199   8.979  0.1147  0.2168  0.2321
 1010SOL    HW114663   4.516   0.212   9.062 -0.7072  2.7138  0.2947
 1010SOL    HW214664   4.524   0.258   8.926  0.3961  1.4407  1.8789
 1011SOL     OW14665   0.156   3.947   7.150  0.1159  0.0703  0.4651
 1011SOL    HW114666   0.219   4.018   7.161  0.4943 -0.0810 -0.7360
 1011SOL    HW214667   0.076   3.991   7.179 -0.2224  0.4667 -1.0490
 1012SOL     OW14668   4.151   4.063  17.360 -0.2497 -0.0554 -0.4483
 1012SOL    HW114669   4.138   4.092  17.270 -1.3423 -0.3938 -0.3983
 1012SOL    HW214670   4.069   4.013  17.362 -0.7853  0.8212 -0.0769
 1013SOL     OW14671   4.359   0.634  12.507  0.2149 -0.2422 -0.4383
 1013SOL    HW114672   4.373   0.617  12.414 -0.2336 -0.6187 -0.4367
 1013SOL    HW214673   4.267   0.606  12.508  0.3339 -0.4332  2.5722
 1014SOL     OW14674   2.836   0.504   3.278  0.1488 -0.3006  0.2800
 1014SOL    HW114675   2.836   0.571   3.210 -2.2478  1.3905  1.9414
 1014SOL    HW214676   2.825   0.560   3.355 -1.2769  0.6722 -0.6376
 1015SOL     OW14677   4.116   3.757   5.902  0.1286 -0.4526 -0.2334
 1015SOL    HW114678   4.112   3.753   5.997 -2.9806  0.4350 -0.3255
 1015SOL    HW214679   4.157   3.675   5.875  0.9731  0.8413 -2.9285
 1016SOL     OW14680   1.928   0.906   0.583  0.3593  0.4050 -0.9784
 1016SOL    HW114681   1.956   0.971   0.518  0.0671  0.8923 -0.6139
 1016SOL    HW214682   1.994   0.902   0.651  1.8206  0.0642 -2.4265
 1017SOL     OW14683   4.685   2.779   7.455 -0.9721 -0.4423  0.8476
 1017SOL    HW114684   4.597   2.740   7.453 -1.0037 -0.3425  0.3335
 1017SOL    HW214685   4.683   2.834   7.533 -0.8551  2.9310 -1.5212
 1018SOL     OW14686   1.789   1.111  13.603 -0.5926  0.0686  0.2086
 1018SOL    HW114687   1.705   1.074  13.631 -1.3208 -0.3771 -2.6251
 1018SOL    HW214688   1.822   1.029  13.567 -1.9960  1.5059 -4.2814
 1019SOL     OW14689   3.100   4.662   7.434 -0.2957 -0.1129  0.1684
 1019SOL    HW114690   3.171   4.700   7.486  1.7071 -3.4069 -0.1617
 1019SOL    HW214691   3.080   4.579   7.478  0.1103 -0.1882  0.2167
 1020SOL     OW14692   3.027   3.429  15.011  0.1978 -0.7778 -0.1169
 1020SOL    HW114693   2.950   3.380  14.982  0.7663 -1.3652 -0.6290
 1020SOL    HW214694   3.067   3.364  15.067  2.7395  1.1304  0.2823
 1021SOL     OW14695   4.128   3.364   3.231 -0.0482 -0.0643  0.2992
 1021SOL    HW114696   4.048   3.360   3.283  0.0127 -0.2425  0.3780
 1021SOL    HW214697   4.121   3.452   3.193 -2.3985 -0.0532  0.7994
 1022SOL     OW14698   4.355   0.389   5.727 -0.9034 -0.1224 -0.1740
 1022SOL    HW114699   4.313   0.303   5.728  0.6694 -0.9055 -1.2585
 1022SOL    HW214700   4.282   0.450   5.739 -1.0441  0.1009 -2.1233
 1023SOL     OW14701   4.565   3.785   5.061  0.6375  0.0152  0.2254
 1023SOL    HW114702   4.473   3.760   5.049  0.0967  2.4185 -0.5225
 1023SOL    HW214703   4.563   3.878   5.041  2.0846 -0.3102 -1.4853
 1024SOL     OW14704   1.354   0.335   2.053  0.0639 -0.2344 -0.9858
 1024SOL    HW114705   1.299   0.382   2.116  2.0132  0.8130 -0.0445
 1024SOL    HW214706   1.364   0.404   1.988 -1.9649  0.9351 -0.0499
 1025SOL     OW14707   2.500   3.904   6.833 -0.5131 -0.4902  0.2083
 1025SOL    HW114708   2.431   3.890   6.767 -1.8962 -1.5113  1.8788
 1025SOL    HW214709   2.448   3.949   6.900  1.9234 -0.7221  2.2436
 1026SOL     OW14710   0.290   4.547  10.896 -0.0362  0.7146 -0.2736
 1026SOL    HW114711   0.248   4.509  10.819 -0.0552 -1.0320  0.5837
 1026SOL    HW214712   0.377   4.574  10.868  1.3086 -1.6242  1.6406
 1027SOL     OW14713   1.257   0.831   4.572 -0.2750 -0.0716  0.1854
 1027SOL    HW114714   1.309   0.854   4.495 -0.5806 -1.1033 -0.3375
 1027SOL    HW214715   1.329   0.800   4.627 -2.8966 -1.8278  2.6171
 1028SOL     OW14716   0.720   3.707   7.787 -0.2746 -0.3678 -0.8469
 1028SOL    HW114717   0.749   3.787   7.743 -1.5156  0.3635 -0.3275
 1028SOL    HW214718   0.708   3.638   7.721  1.5202 -1.6230  0.1608
 1029SOL     OW14719   4.080   3.503   5.580  0.6068 -0.2435  0.1994
 1029SOL    HW114720   4.101   3.507   5.673  2.2214  2.3753 -0.2744
 1029SOL    HW214721   3.999   3.453   5.579  0.1064  0.5959 -1.2750
 1030SOL     OW14722   3.491   1.589   4.808 -0.0516 -0.1694 -0.1330
 1030SOL    HW114723   3.564   1.557   4.754  0.1779  0.7182 -0.3536
 1030SOL    HW214724   3.523   1.566   4.895 -0.1613 -1.0880 -0.3369
 1031SOL     OW14725   2.940   4.426  14.681  0.1221 -0.0696 -0.1149
 1031SOL    HW114726   2.946   4.331  14.684 -2.0663 -0.1337  1.9080
 1031SOL    HW214727   2.881   4.439  14.755 -3.0313  0.2571 -2.7203
 1032SOL     OW14728   3.010   0.402   3.589 -0.3360  0.1020 -0.4951
 1032SOL    HW114729   3.001   0.496   3.606 -0.5209  0.0887 -0.5147
 1032SOL    HW214730   3.086   0.392   3.647 -1.4188  2.0829  1.2880
 1033SOL     OW14731   2.820   3.114   5.555 -0.5279 -0.0428 -0.0878
 1033SOL    HW114732   2.754   3.104   5.486 -0.9960 -0.6052  0.4457
 1033SOL    HW214733   2.878   3.041   5.534 -1.9961 -1.1162 -0.4508
 1034SOL     OW14734   0.919   2.841   7.871 -0.4862 -0.9817  0.0644
 1034SOL    HW114735   0.955   2.781   7.937 -1.2096 -0.8969  0.5365
 1034SOL    HW214736   0.977   2.814   7.800  2.8471  2.3640  1.4907
 1035SOL     OW14737   3.390   0.809   9.076  0.6226  0.1329 -0.2321
 1035SOL    HW114738   3.476   0.767   9.075 -0.1169 -1.4540  2.5080
 1035SOL    HW214739   3.333   0.746   9.120  2.3384 -2.1165 -1.2206
 1036SOL     OW14740   4.302   3.659   8.579  0.6325  0.3121 -0.1239
 1036SOL    HW114741   4.370   3.723   8.602  0.2017  0.0998  1.7296
 1036SOL    HW214742   4.339   3.631   8.496 -0.8903  3.3537 -1.8543
 1037SOL     OW14743   2.823   0.566   6.072 -0.1689 -0.1351 -0.1966
 1037SOL    HW114744   2.801   0.640   6.015 -0.4405 -2.3308 -2.9516
 1037SOL    HW214745   2.749   0.571   6.133 -0.6878 -2.3445 -0.6397
 1038SOL     OW14746   2.205   4.091   7.306  0.3664  0.1752  0.8127
 1038SOL    HW114747   2.221   4.014   7.361 -3.5189 -1.2375 -0.0273
 1038SOL    HW214748   2.292   4.131   7.306 -0.9213  2.9767  0.9377
 1039SOL     OW14749   2.996   4.644  16.306 -0.5998  0.7152 -0.7192
 1039SOL    HW114750   2.999   4.657  16.211  0.3910  1.6504 -0.5637
 1039SOL    HW214751   2.917   4.695  16.323 -1.7202 -0.3129 -2.8470
 1040SOL     OW14752   2.419   1.619  11.251 -0.2362  0.3536  0.3850
 1040SOL    HW114753   2.359   1.689  11.279 -0.6792  0.1715 -0.1044
 1040SOL    HW214754   2.505   1.652  11.276 -0.3382  0.0525  1.1491
 1041SOL     OW14755   0.613   1.783   2.018  0.1321 -0.0097  0.2609
 1041SOL    HW114756   0.524   1.765   1.988  0.4854 -0.8199 -0.2791
 1041SOL    HW214757   0.603   1.843   2.092 -0.0640  0.7779 -0.4008
 1042SOL     OW14758   1.810   0.800  16.313 -0.2890 -0.1414  0.1507
 1042SOL    HW114759   1.885   0.775  16.367 -1.5915 -0.5980  1.7788
 1042SOL    HW214760   1.753   0.840  16.379  1.1157 -0.2156  1.4206
 1043SOL     OW14761   1.933   2.513   5.663 -0.0463  0.2848  0.2034
 1043SOL    HW114762   1.869   2.512   5.734  1.1929 -0.1148  1.3114
 1043SOL    HW214763   2.001   2.465   5.710 -0.4957 -2.0302 -1.5103
 1044SOL     OW14764   2.929   2.041   6.074 -0.3030 -0.1709  0.1370
 1044SOL    HW114765   2.905   1.956   6.111  0.5954 -0.6335 -0.3392
 1044SOL    HW214766   2.844   2.066   6.039 -0.2013  3.1174  2.2714
 1045SOL     OW14767   4.074   3.776   9.516 -0.5642 -0.4422  0.3734
 1045SOL    HW114768   3.984   3.808   9.512 -0.5526 -0.5245 -0.4999
 1045SOL    HW214769   4.122   3.855   9.489 -1.6120  0.2278  0.4591
 1046SOL     OW14770   0.977   0.410   2.305 -0.0503 -0.0851 -0.1684
 1046SOL    HW114771   0.976   0.316   2.287  1.2488  0.0626 -0.9913
 1046SOL    HW214772   0.901   0.443   2.257  0.8114  2.4955  0.2134
 1047SOL     OW14773   3.721   0.155   6.200  0.0306 -0.3400 -0.5179
 1047SOL    HW114774   3.780   0.113   6.262  0.7074  2.7040  0.9064
 1047SOL    HW214775   3.647   0.095   6.197 -0.4140  0.1898 -0.0190
 1048SOL     OW14776   1.321   4.047   2.445 -0.4668 -0.0962  0.4165
 1048SOL    HW114777   1.382   3.973   2.441 -0.1376  0.2371 -0.8861
 1048SOL    HW214778   1.259   4.006   2.384  0.7406 -1.9474  0.4415
 1049SOL     OW14779   2.767   1.380   8.553 -0.6103  0.0207  0.2318
 1049SOL    HW114780   2.826   1.427   8.612  0.1557 -1.5346  0.7148
 1049SOL    HW214781   2.763   1.437   8.476 -1.6477 -1.8148 -1.0621
 1050SOL     OW14782   2.108   4.073  10.878 -0.6778  0.7589  0.6223
 1050SOL    HW114783   2.129   4.166  10.880  0.3615  0.5642 -0.5141
 1050SOL    HW214784   2.024   4.084  10.833  0.3430  0.3764 -1.4051
 1051SOL     OW14785   1.109   0.874   9.601 -0.1840  0.5515 -0.2268
 1051SOL    HW114786   1.115   0.814   9.675 -1.4141 -0.2321 -0.7506
 1051SOL    HW214787   1.016   0.864   9.580 -0.6742  2.0637  1.2483
 1052SOL     OW14788   3.662   4.554   2.441  0.5576  0.3102 -0.0930
 1052SOL    HW114789   3.709   4.500   2.378 -3.8232 -2.5220 -0.9045
 1052SOL    HW214790   3.642   4.634   2.392  1.2918  0.1501 -0.6646
 1053SOL     OW14791   3.927   3.099   1.288  0.5414  0.1048 -0.1136
 1053SOL    HW114792   3.994   3.146   1.238 -1.5536  2.4143 -0.7585
 1053SOL    HW214793   3.871   3.175   1.302  0.2824 -0.6245  2.7930
 1054SOL     OW14794   1.289   1.048   4.861 -0.4132 -0.0194  0.1911
 1054SOL    HW114795   1.288   0.972   4.803 -2.9265 -0.0369  0.2581
 1054SOL    HW214796   1.379   1.075   4.843 -1.2312  2.3790 -0.2745
 1055SOL     OW14797   4.682   3.894   9.011  0.2363  0.0791 -0.1273
 1055SOL    HW114798   4.718   3.842   9.083  1.2662  0.5530 -0.2958
 1055SOL    HW214799   4.597   3.922   9.044  0.1624  0.6481 -0.7943
 1056SOL     OW14800   2.648   2.142   2.765  0.2421  0.2492  0.2461
 1056SOL    HW114801   2.723   2.092   2.797 -1.9577 -2.9343  0.3382
 1056SOL    HW214802   2.680   2.229   2.790  0.2452  0.3068  0.0443
 1057SOL     OW14803   1.319   2.437  13.923  0.0636 -0.5778 -0.1924
 1057SOL    HW114804   1.282   2.375  13.986 -0.4338  0.9138  0.9599
 1057SOL    HW214805   1.348   2.371  13.859 -1.5541 -1.6781  0.2113
 1058SOL     OW14806   3.656   2.620   5.758  0.5068  0.2178  0.3345
 1058SOL    HW114807   3.680   2.542   5.708 -1.0779 -1.3305  1.9643
 1058SOL    HW214808   3.565   2.638   5.735  0.9359  0.3338 -1.2787
 1059SOL     OW14809   3.893   3.073  11.109 -0.6570 -0.1158  0.5400
 1059SOL    HW114810   3.852   3.017  11.175 -1.2140 -0.7396 -0.3489
 1059SOL    HW214811   3.842   3.151  11.129  0.9229  0.7718  1.1099
 1060SOL     OW14812   2.302   2.022   7.511  0.5146  0.1661  0.4257
 1060SOL    HW114813   2.232   2.085   7.526  0.4446 -0.0199  0.8858
 1060SOL    HW214814   2.256   1.939   7.495 -0.2025  0.3115  1.7236
 1061SOL     OW14815   4.530   1.546   9.140  0.1983 -0.5055 -0.0950
 1061SOL    HW114816   4.611   1.524   9.093 -0.4372 -1.5700 -0.6950
 1061SOL    HW214817   4.492   1.458   9.147  0.6918 -0.7547 -0.5366
 1062SOL     OW14818   3.598   3.814   3.148  0.1682  1.0057  0.4975
 1062SOL    HW114819   3.536   3.840   3.217 -1.1182  1.6308 -0.8936
 1062SOL    HW214820   3.670   3.790   3.206 -0.9427 -0.5924  1.2317
 1063SOL     OW14821   2.403   2.660  16.182 -0.4625 -0.0086  1.1936
 1063SOL    HW114822   2.391   2.718  16.257  0.5062 -0.4055  1.6534
 1063SOL    HW214823   2.488   2.693  16.152 -0.5303 -1.1259 -0.2016
 1064SOL     OW14824   0.613   1.297   0.132  0.1683 -0.4541  0.2045
 1064SOL    HW114825   0.645   1.373   0.084 -1.1300  1.1963  1.9374
 1064SOL    HW214826   0.520   1.297   0.107  0.5966 -0.9106 -1.3757
 1065SOL     OW14827   2.920   4.448  14.406  0.0679 -0.3692  0.0578
 1065SOL    HW114828   3.013   4.440  14.387  0.0038  0.0512 -0.4395
 1065SOL    HW214829   2.927   4.458  14.501  0.6096  1.2292 -0.1540
 1066SOL     OW14830   0.364   4.116  13.131  0.5544 -0.1314 -0.1894
 1066SOL    HW114831   0.423   4.041  13.129 -0.1314 -0.6768  0.4166
 1066SOL    HW214832   0.279   4.074  13.138  0.3621  0.2638 -0.1375
 1067SOL     OW14833   4.164   4.711  14.794  0.0823 -0.0919  0.2499
 1067SOL    HW114834   4.088   4.736  14.741  0.1468 -1.0180 -0.2862
 1067SOL    HW214835   4.131   0.007  14.878  2.3703 -0.1792  1.1841
 1068SOL     OW14836   4.469   3.001   4.582  0.1005  0.7790 -0.5921
 1068SOL    HW114837   4.486   2.958   4.497 -0.3309  1.1161 -0.8484
 1068SOL    HW214838   4.416   3.075   4.553 -1.4487  0.3736  1.2197
 1069SOL     OW14839   0.823   2.161   8.447  0.3322 -0.2798 -0.5076
 1069SOL    HW114840   0.892   2.213   8.487 -0.3044 -0.9015  1.4148
 1069SOL    HW214841   0.789   2.218   8.379 -1.9790 -0.2072  0.6951
 1070SOL     OW14842   1.056   1.941   3.303  0.0829 -0.2161 -0.3648
 1070SOL    HW114843   1.048   1.886   3.226 -3.9755 -1.3395  0.8689
 1070SOL    HW214844   1.016   2.015   3.258  0.0424  0.0447  0.0996
 1071SOL     OW14845   2.320   2.185  17.022  0.7907 -0.5691 -0.4708
 1071SOL    HW114846   2.366   2.248  17.079  0.1134  0.0820 -0.6446
 1071SOL    HW214847   2.289   2.248  16.957  0.0422 -0.5428 -0.0817
 1072SOL     OW14848   0.512   1.904   9.498  0.3976 -0.4872 -0.1960
 1072SOL    HW114849   0.579   1.972   9.497  0.3899 -0.4585  0.8104
 1072SOL    HW214850   0.562   1.823   9.508  0.3642 -0.4639  0.1747
 1073SOL     OW14851   4.078   0.211   1.538  0.0087 -0.5653  0.0744
 1073SOL    HW114852   4.000   0.212   1.482 -1.3967 -0.5662  2.0086
 1073SOL    HW214853   4.151   0.175   1.489 -1.7429 -0.0781 -2.8752
 1074SOL     OW14854   4.306   4.370  15.676 -0.1390  0.6403  0.1170
 1074SOL    HW114855   4.300   4.430  15.602 -0.8245  1.1172  0.5608
 1074SOL    HW214856   4.262   4.292  15.642  1.0456 -0.1339  0.3617
 1075SOL     OW14857   0.191   3.944  13.442 -0.4506 -0.1076  0.0667
 1075SOL    HW114858   0.182   3.856  13.479  2.6649 -0.3407  0.2964
 1075SOL    HW214859   0.285   3.957  13.429 -0.6317  1.4212  0.2586
 1076SOL     OW14860   3.835   1.331   3.527 -0.4685  0.6522  0.1055
 1076SOL    HW114861   3.905   1.318   3.590 -0.9493 -0.1634  0.4682
 1076SOL    HW214862   3.762   1.321   3.589 -0.8718 -1.0972 -0.6481
 1077SOL     OW14863   2.072   4.151   3.345  0.1044 -0.3995 -0.1162
 1077SOL    HW114864   2.146   4.120   3.292  0.3892  1.5264 -0.8179
 1077SOL    HW214865   2.010   4.081   3.323 -0.5253 -0.0690  0.5975
 1078SOL     OW14866   2.710   3.999   8.668 -0.2166 -0.3207  0.2746
 1078SOL    HW114867   2.721   4.073   8.608 -1.7384  0.0337  0.4447
 1078SOL    HW214868   2.702   3.934   8.598 -0.5280  0.3884 -0.3494
 1079SOL     OW14869   4.289   1.167   5.914  0.0940 -0.2921 -0.0274
 1079SOL    HW114870   4.276   1.246   5.967 -0.6457 -0.9458  0.7647
 1079SOL    HW214871   4.325   1.205   5.834 -1.7002 -3.1327 -2.1515
 1080SOL     OW14872   2.500   1.347   1.435 -0.4546  0.2722  0.1594
 1080SOL    HW114873   2.537   1.260   1.447  0.9272  0.7063 -0.7839
 1080SOL    HW214874   2.575   1.401   1.407  1.7460 -3.7181 -1.6074
 1081SOL     OW14875   3.794   4.628   5.387 -0.1939 -0.0784 -0.3336
 1081SOL    HW114876   3.795   4.666   5.474 -1.8760 -2.4226  0.7265
 1081SOL    HW214877   3.751   4.546   5.414  1.1557 -0.0159  1.9745
 1082SOL     OW14878   3.059   0.398   2.508 -0.1392  0.1583  0.4993
 1082SOL    HW114879   2.969   0.427   2.521 -0.6941 -2.0344  1.6453
 1082SOL    HW214880   3.053   0.309   2.543 -1.4592 -0.2988 -0.9202
 1083SOL     OW14881   0.949   2.341   4.400 -0.3465 -0.0328 -0.0994
 1083SOL    HW114882   0.943   2.411   4.465 -2.6676  0.4470 -0.8600
 1083SOL    HW214883   1.038   2.366   4.373  0.0656 -1.9624 -0.5380
 1084SOL     OW14884   2.002   0.856  17.117 -0.0021  0.5049 -0.0569
 1084SOL    HW114885   1.925   0.832  17.066  0.4678 -1.6404  0.2361
 1084SOL    HW214886   1.981   0.842  17.209 -3.6632  1.1189 -0.8155
 1085SOL     OW14887   3.987   0.527  16.911  0.0670 -0.3573  0.5418
 1085SOL    HW114888   4.031   0.463  16.856  1.1707 -1.4091  2.6260
 1085SOL    HW214889   4.045   0.525  16.988 -0.0372  1.4620  0.6752
 1086SOL     OW14890   2.503   0.946   9.273  0.4733 -0.0068 -0.0526
 1086SOL    HW114891   2.562   0.887   9.227  0.1925  0.5046 -1.0552
 1086SOL    HW214892   2.569   1.014   9.285  0.8922 -0.6859  1.6216
 1087SOL     OW14893   1.969   1.576  15.976 -0.1997 -0.4221  0.7393
 1087SOL    HW114894   1.993   1.667  15.995  1.2135 -0.8505  1.0159
 1087SOL    HW214895   2.023   1.527  16.039 -0.2347  0.1557  1.2190
 1088SOL     OW14896   1.753   2.676   8.596  0.9017  0.2856 -0.3917
 1088SOL    HW114897   1.794   2.758   8.567  1.1239  0.3747  0.1896
 1088SOL    HW214898   1.814   2.670   8.669  0.0982  1.3092  0.3661
 1089SOL     OW14899   0.795   2.335  12.289 -0.2458  0.3567  0.1532
 1089SOL    HW114900   0.741   2.411  12.267 -1.9388 -1.4113 -1.8273
 1089SOL    HW214901   0.720   2.276  12.291 -0.1519  0.2418  0.3504
 1090SOL     OW14902   2.043   4.647   4.810 -0.2488 -0.0214  0.5727
 1090SOL    HW114903   2.121   4.660   4.755 -1.1853  1.2957 -0.4570
 1090SOL    HW214904   2.002   4.567   4.777  0.5270  0.6329 -2.0401
 1091SOL     OW14905   4.135   0.057  13.773 -0.5971  0.2789 -0.1147
 1091SOL    HW114906   4.202   0.040  13.707 -1.2944  0.6853 -0.9222
 1091SOL    HW214907   4.137   4.710  13.820 -1.0343  1.0359  1.2534
 1092SOL     OW14908   1.354   4.016   4.935 -0.0102 -0.3068 -0.7897
 1092SOL    HW114909   1.437   4.061   4.949 -0.0245 -1.1708  2.0810
 1092SOL    HW214910   1.380   3.933   4.975  1.2015  0.9558  1.0135
 1093SOL     OW14911   1.604   2.653  13.592 -0.0889  0.6643  0.8145
 1093SOL    HW114912   1.542   2.647  13.665  0.5806 -0.1084  1.3034
 1093SOL    HW214913   1.680   2.613  13.633 -1.6705  0.5688  3.6865
 1094SOL     OW14914   0.316   0.690   6.861 -0.1597  0.1935 -0.8756
 1094SOL    HW114915   0.402   0.699   6.902 -2.0270  3.1166  2.3571
 1094SOL    HW214916   0.313   0.595   6.853 -0.8255 -0.0525  2.4510
 1095SOL     OW14917   4.374   0.024   6.418  0.1165 -0.5199  0.0593
 1095SOL    HW114918   4.442   0.069   6.368  1.2906 -2.4042 -0.0355
 1095SOL    HW214919   4.295   0.077   6.428 -0.5939 -1.6381  0.4477
 1096SOL     OW14920   2.748   3.497   5.108  0.1362  0.2267 -0.9976
 1096SOL    HW114921   2.700   3.579   5.119 -2.0305 -0.6887 -3.6815
 1096SOL    HW214922   2.837   3.532   5.100  0.4362 -0.9371 -2.9977
 1097SOL     OW14923   1.778   0.124   8.550 -0.3219 -0.0979 -0.0123
 1097SOL    HW114924   1.737   0.091   8.630 -1.2346 -0.3419 -0.5657
 1097SOL    HW214925   1.865   0.087   8.559  0.2927  1.5401  0.7079
 1098SOL     OW14926   1.777   0.879   5.934 -0.1832 -0.1813  0.0159
 1098SOL    HW114927   1.697   0.885   5.883  0.2356  0.6933 -0.5335
 1098SOL    HW214928   1.772   0.784   5.945 -1.4893  0.3507  4.1763
 1099SOL     OW14929   4.387   3.640   4.786 -0.4741  0.6105 -0.0867
 1099SOL    HW114930   4.430   3.725   4.800  1.0813 -0.4849  1.8308
 1099SOL    HW214931   4.454   3.572   4.800  0.2701  1.4078  0.2527
 1100SOL     OW14932   3.516   3.227   8.505  0.1256  0.3140  0.2381
 1100SOL    HW114933   3.458   3.298   8.534 -0.4147 -0.3822  0.8548
 1100SOL    HW214934   3.524   3.254   8.414 -0.5298  0.3739  0.1945
 1101SOL     OW14935   2.056   1.209   6.311  0.2588  0.9705 -0.2293
 1101SOL    HW114936   2.082   1.140   6.373 -0.4341  0.3746 -0.6029
 1101SOL    HW214937   1.960   1.202   6.315  0.4295 -1.5301 -0.0991
 1102SOL     OW14938   4.286   2.957  12.550  0.2643  0.1207  0.5752
 1102SOL    HW114939   4.210   2.919  12.594  0.0485 -1.0346 -0.7948
 1102SOL    HW214940   4.349   2.885  12.553 -0.4550 -0.5440 -0.0990
 1103SOL     OW14941   0.561   1.459   3.954  0.5066  0.0027 -0.1356
 1103SOL    HW114942   0.633   1.398   3.967  0.6768  0.2777  0.2350
 1103SOL    HW214943   0.483   1.418   3.990  1.0373 -0.0822  0.9072
 1104SOL     OW14944   3.110   0.452   8.636 -0.3998  0.4655  0.5057
 1104SOL    HW114945   3.108   0.404   8.553  1.7723  1.9053 -0.3672
 1104SOL    HW214946   3.202   0.462   8.658  0.2642 -0.8737 -1.6033
 1105SOL     OW14947   3.797   0.721  16.827  0.3983  0.0059 -0.9950
 1105SOL    HW114948   3.876   0.742  16.777  1.3911 -3.3178 -0.8115
 1105SOL    HW214949   3.832   0.658  16.889 -0.9611 -0.1715 -0.4044
 1106SOL     OW14950   0.879   4.215   2.041  0.0849 -0.2224  0.5184
 1106SOL    HW114951   0.886   4.288   1.980 -0.0550  0.1035  0.8953
 1106SOL    HW214952   0.907   4.147   1.980 -1.4998 -1.2017  0.9073
 1107SOL     OW14953   3.671   0.679   3.671 -0.5198  0.0784 -0.3821
 1107SOL    HW114954   3.656   0.627   3.750 -0.1652 -0.0233 -0.3817
 1107SOL    HW214955   3.719   0.615   3.619 -1.4712 -0.1256 -1.0011
 1108SOL     OW14956   3.705   3.253  11.222 -0.1241  0.2927  0.3756
 1108SOL    HW114957   3.633   3.191  11.236  0.9783 -1.2301 -0.8199
 1108SOL    HW214958   3.662   3.336  11.199 -3.5481 -1.7559 -0.6528
 1109SOL     OW14959   3.245   2.897   7.522  0.7586  0.3976 -0.1371
 1109SOL    HW114960   3.200   2.904   7.606  0.4464 -1.2494 -0.1757
 1109SOL    HW214961   3.225   2.807   7.499  0.7848 -0.4377  3.0368
 1110SOL     OW14962   0.296   4.566   6.741  0.5006  0.3372  0.2421
 1110SOL    HW114963   0.312   4.532   6.653  0.8925 -1.1865  0.9004
 1110SOL    HW214964   0.326   4.491   6.793  0.2302 -0.0132 -0.1017
 1111SOL     OW14965   4.379   2.693   7.350 -0.3816 -0.1138  0.2258
 1111SOL    HW114966   4.324   2.681   7.427 -0.7646  0.8760  0.1002
 1111SOL    HW214967   4.340   2.637   7.283  0.5924  0.1964 -0.6076
 1112SOL     OW14968   1.257   2.680  16.970 -0.2258  0.8352  0.1370
 1112SOL    HW114969   1.248   2.760  16.918  0.5670  0.7200 -0.1883
 1112SOL    HW214970   1.341   2.697  17.014  1.0992 -0.4088 -1.8741
 1113SOL     OW14971   1.874   3.000  14.882  0.0519  0.0241 -0.1198
 1113SOL    HW114972   1.956   2.950  14.885 -0.9663 -1.6111  0.2168
 1113SOL    HW214973   1.888   3.054  14.804  0.1289  0.9347  0.5270
 1114SOL     OW14974   4.284   3.511  12.820  0.7351  0.2674  0.2545
 1114SOL    HW114975   4.257   3.471  12.738  0.8872 -0.8166  0.7399
 1114SOL    HW214976   4.330   3.437  12.860  2.2302  0.1507 -1.6793
 1115SOL     OW14977   4.664   1.669   8.773  0.3239 -0.1420  0.8550
 1115SOL    HW114978   4.603   1.725   8.727  1.5806 -1.5977 -2.5512
 1115SOL    HW214979   4.635   1.689   8.862 -0.6301  2.4865 -0.0587
 1116SOL     OW14980   4.682   4.118   5.452  0.0058 -0.2942  0.2745
 1116SOL    HW114981   4.641   4.071   5.525 -1.5794 -2.2795 -1.8968
 1116SOL    HW214982   4.726   4.042   5.412  0.3605  0.8695 -1.5302
 1117SOL     OW14983   1.749   3.129   3.614 -0.0377 -0.5450 -0.6029
 1117SOL    HW114984   1.723   3.217   3.639 -2.6419 -0.9959 -1.7835
 1117SOL    HW214985   1.844   3.122   3.623  0.2280  0.3190 -2.8055
 1118SOL     OW14986   1.014   3.876   6.790 -0.2750 -0.1335 -0.4580
 1118SOL    HW114987   1.003   3.840   6.878  1.0608  0.9954  0.1692
 1118SOL    HW214988   1.087   3.935   6.809 -1.7897  1.5368  0.2741
 1119SOL     OW14989   3.680   1.273  10.093 -0.1323 -0.0140 -0.1457
 1119SOL    HW114990   3.672   1.273  10.189 -1.7068  0.5576 -0.2731
 1119SOL    HW214991   3.674   1.182  10.064 -1.7289  0.6261 -1.7772
 1120SOL     OW14992   2.701   4.164   2.717  0.1377 -0.0219 -0.3191
 1120SOL    HW114993   2.740   4.123   2.640 -0.8551  0.1380 -0.9092
 1120SOL    HW214994   2.755   4.243   2.721 -1.3792  0.9492  1.0394
 1121SOL     OW14995   0.466   0.811   9.198 -0.0944  0.1705  0.0623
 1121SOL    HW114996   0.418   0.888   9.168 -0.5431  0.2508  1.0061
 1121SOL    HW214997   0.414   0.786   9.274 -1.2631  2.5356  0.0482
 1122SOL     OW14998   1.681   2.809   4.024 -0.0696 -0.5749 -0.5104
 1122SOL    HW114999   1.721   2.759   3.953 -0.3655 -0.2987 -0.8666
 1122SOL    HW215000   1.637   2.868   3.964  0.3317 -0.4256 -0.6551
 1123SOL     OW15001   1.259   2.623   9.484 -0.3454 -0.2667 -0.2002
 1123SOL    HW115002   1.246   2.583   9.570  2.1179 -0.9356 -0.1366
 1123SOL    HW215003   1.295   2.707   9.511 -0.6918  0.8108 -3.1197
 1124SOL     OW15004   0.451   1.467  10.129 -0.2770  0.0273  0.2495
 1124SOL    HW115005   0.445   1.374  10.106  0.4452 -0.3782  1.7125
 1124SOL    HW215006   0.525   1.467  10.189  0.2948  0.4465 -0.4618
 1125SOL     OW15007   1.173   1.815   0.788 -0.4859 -0.2501 -0.5291
 1125SOL    HW115008   1.097   1.762   0.810  0.1327 -1.0095 -0.2177
 1125SOL    HW215009   1.246   1.788   0.844  1.1539  3.0769 -1.0679
 1126SOL     OW15010   4.659   1.930   6.428 -0.4081 -0.0105  0.5923
 1126SOL    HW115011   4.687   1.845   6.394  1.0365  0.2788  1.0368
 1126SOL    HW215012   4.721   1.929   6.501 -0.3877 -1.6816  0.5342
 1127SOL     OW15013   2.129   0.974   5.865  0.0116  0.0507 -0.6443
 1127SOL    HW115014   2.048   0.986   5.815 -0.8329 -1.7667  0.2635
 1127SOL    HW215015   2.178   0.907   5.816  0.5470  0.0859 -0.1459
 1128SOL     OW15016   3.084   3.349   3.986  0.5216 -0.1714  0.2102
 1128SOL    HW115017   3.115   3.438   3.971  0.8081 -0.1838  0.7531
 1128SOL    HW215018   3.157   3.319   4.040  0.2912  0.1629  0.7003
 1129SOL     OW15019   0.557   3.534   2.596 -0.8839 -0.0694 -0.3804
 1129SOL    HW115020   0.596   3.481   2.665 -0.8217  0.0362 -0.3337
 1129SOL    HW215021   0.466   3.507   2.586 -0.7275 -1.5744  2.2267
 1130SOL     OW15022   3.552   3.969   4.697  0.0159 -0.2694  0.4041
 1130SOL    HW115023   3.527   4.020   4.775 -0.5410 -2.0650  1.3926
 1130SOL    HW215024   3.535   4.034   4.629 -3.6655 -0.7752  0.8263
 1131SOL     OW15025   1.084   1.153   6.421 -0.0962  0.6368 -0.0603
 1131SOL    HW115026   1.062   1.230   6.368  1.8952  1.8229  0.8313
 1131SOL    HW215027   1.179   1.159   6.421 -0.1588  1.6466 -0.1019
 1132SOL     OW15028   4.325   0.084   5.690 -0.2515  0.1807  0.2274
 1132SOL    HW115029   4.242   0.037   5.689 -0.4459  0.4428  3.3239
 1132SOL    HW215030   4.384   0.036   5.749 -0.8210 -1.2728 -0.3712
 1133SOL     OW15031   0.853   0.539   9.284 -0.2738  0.4035  0.2195
 1133SOL    HW115032   0.946   0.526   9.269 -0.2832  0.0314  0.4839
 1133SOL    HW215033   0.830   0.446   9.285 -2.9415  1.0602 -0.9206
 1134SOL     OW15034   1.295   2.226   4.058 -0.6716  0.2754 -0.1566
 1134SOL    HW115035   1.370   2.185   4.015  1.2403  3.6243 -0.0416
 1134SOL    HW215036   1.338   2.252   4.139 -1.7347  2.0389 -0.1551
 1135SOL     OW15037   2.178   2.218  13.900 -0.0073  0.3027 -0.4685
 1135SOL    HW115038   2.179   2.198  13.806  1.3858  1.7162 -0.7588
 1135SOL    HW215039   2.256   2.274  13.906 -0.9797  1.7344 -1.2245
 1136SOL     OW15040   1.628   0.015   0.999  0.3226  0.1526  0.8877
 1136SOL    HW115041   1.667   4.731   1.084  2.3118  1.8970  0.3840
 1136SOL    HW215042   1.563   0.079   1.030 -0.9049 -0.4652 -0.4044
 1137SOL     OW15043   0.737   0.661   3.944 -0.1685 -0.5151 -0.0501
 1137SOL    HW115044   0.671   0.591   3.947  1.9521 -2.5070 -0.2130
 1137SOL    HW215045   0.811   0.630   3.995  0.6454  0.7262 -0.4920
 1138SOL     OW15046   1.821   1.434   3.246  0.6257 -0.6997 -1.0020
 1138SOL    HW115047   1.862   1.458   3.329 -0.2563  1.5161 -1.2020
 1138SOL    HW215048   1.736   1.393   3.266 -0.2239  2.2494  1.4309
 1139SOL     OW15049   4.369   0.593   1.794 -0.2132  0.2516  0.4188
 1139SOL    HW115050   4.366   0.572   1.887  1.9565 -5.1391 -0.7871
 1139SOL    HW215051   4.297   0.543   1.754  0.7654  0.2847 -1.4004
 1140SOL     OW15052   1.381   0.903   3.233  0.5297  0.1522 -0.0062
 1140SOL    HW115053   1.444   0.957   3.186  0.6678 -0.9084 -1.0463
 1140SOL    HW215054   1.425   0.826   3.270  3.5787  2.3701  0.9368
 1141SOL     OW15055   4.526   0.648   8.459 -0.3093 -0.4075 -0.1568
 1141SOL    HW115056   4.431   0.659   8.451 -0.5860 -0.5248  3.2634
 1141SOL    HW215057   4.561   0.729   8.496 -0.3987 -0.9643  1.1315
 1142SOL     OW15058   2.423   0.120   2.271 -0.0701 -0.2935  0.2415
 1142SOL    HW115059   2.386   0.146   2.187  0.6775 -1.2410 -0.3761
 1142SOL    HW215060   2.510   0.161   2.267 -0.3255  0.1048 -1.2576
 1143SOL     OW15061   3.102   2.916   3.205  0.3790  0.0279 -0.7135
 1143SOL    HW115062   3.050   2.836   3.203  1.5571 -0.7620  0.2081
 1143SOL    HW215063   3.030   2.977   3.220 -1.4180 -2.2050 -0.1912
 1144SOL     OW15064   3.014   1.659  12.536 -0.1861 -0.1169  0.5688
 1144SOL    HW115065   3.057   1.671  12.452  1.6950 -0.4402  1.4819
 1144SOL    HW215066   2.930   1.700  12.514  0.2813  0.7872  0.4727
 1145SOL     OW15067   4.182   1.123  14.931 -0.4729  0.1057 -0.7997
 1145SOL    HW115068   4.172   1.210  14.893 -2.2356  0.8466  1.3216
 1145SOL    HW215069   4.156   1.062  14.862  0.3761 -2.6364  1.3204
 1146SOL     OW15070   0.459   1.166   4.899 -0.4731  0.2834  0.1602
 1146SOL    HW115071   0.391   1.132   4.957  1.2222 -2.3248  0.6386
 1146SOL    HW215072   0.409   1.192   4.822 -2.2038  1.2442  1.6040
 1147SOL     OW15073   3.451   3.614   5.152 -0.4013  0.1112 -0.2746
 1147SOL    HW115074   3.418   3.704   5.156  0.4229  0.4261 -0.4074
 1147SOL    HW215075   3.371   3.574   5.117  1.6969 -2.1752 -2.4868
 1148SOL     OW15076   2.919   1.602   8.157 -0.1036  0.4028 -0.1210
 1148SOL    HW115077   2.986   1.592   8.089 -0.6010 -0.5931 -0.4704
 1148SOL    HW215078   2.967   1.601   8.239 -1.4404 -0.7377  0.6633
 1149SOL     OW15079   3.209   4.615   8.757 -0.2232  0.0532  0.0246
 1149SOL    HW115080   3.163   4.565   8.825 -2.0794 -1.2323 -2.1796
 1149SOL    HW215081   3.299   4.601   8.788 -0.2976 -0.8927 -0.1860
 1150SOL     OW15082   3.116   3.927  16.536  0.6974 -0.0957 -0.0693
 1150SOL    HW115083   3.132   3.885  16.452  0.7794  0.7080 -0.4491
 1150SOL    HW215084   3.190   3.987  16.537  0.0898  0.6570  2.1663
 1151SOL     OW15085   3.321   0.539   1.832 -0.1997  0.4151 -0.4146
 1151SOL    HW115086   3.412   0.541   1.803  0.3374  0.2686  1.2565
 1151SOL    HW215087   3.345   0.584   1.913 -0.0736  1.7023 -1.1695
 1152SOL     OW15088   0.743   0.722  11.239 -0.2666 -0.7031 -0.2794
 1152SOL    HW115089   0.795   0.661  11.293  1.6545  1.3436  0.1701
 1152SOL    HW215090   0.740   0.797  11.298 -1.5293  2.1327 -4.0022
 1153SOL     OW15091   3.133   1.213  17.659 -0.5370  0.7858 -0.2954
 1153SOL    HW115092   3.219   1.225  17.618  0.4824 -1.7078  1.1153
 1153SOL    HW215093   3.158   1.208   0.006 -0.5533  0.4622 -0.3093
 1154SOL     OW15094   4.014   0.716   6.104  0.4026  0.4684 -0.3971
 1154SOL    HW115095   3.989   0.693   6.015  1.1757  0.0223 -0.4946
 1154SOL    HW215096   4.052   0.803   6.091 -0.9778  1.0854 -0.3262
 1155SOL     OW15097   2.967   0.279  12.540 -0.0766 -0.3511 -0.2691
 1155SOL    HW115098   3.040   0.266  12.600 -0.6631  1.8095  0.9312
 1155SOL    HW215099   2.930   0.192  12.550  1.6337 -0.8816  1.3965
 1156SOL     OW15100   0.465   4.263   5.260  0.2838 -0.0066  0.2931
 1156SOL    HW115101   0.524   4.188   5.253  0.2499 -0.1074  1.1175
 1156SOL    HW215102   0.388   4.232   5.211  1.2316  0.7556 -1.7085
 1157SOL     OW15103   0.357   3.289   2.366  0.0356  0.1002 -0.4231
 1157SOL    HW115104   0.435   3.254   2.408  0.6281  0.1717 -1.4600
 1157SOL    HW215105   0.292   3.220   2.381  2.0743 -1.3716  1.6091
 1158SOL     OW15106   1.937   3.214   2.804 -0.0571  0.5730  0.0131
 1158SOL    HW115107   2.023   3.210   2.764  0.2315  1.1266  0.5783
 1158SOL    HW215108   1.959   3.272   2.877  1.6800 -0.8435  0.6238
 1159SOL     OW15109   1.692   4.312   1.837  0.1268 -0.2597  0.1114
 1159SOL    HW115110   1.662   4.395   1.873 -0.2250  0.7494 -2.5087
 1159SOL    HW215111   1.640   4.251   1.889 -0.4055  1.4803  1.6096
 1160SOL     OW15112   4.587   4.690   8.863  0.6354 -0.1001  0.2382
 1160SOL    HW115113   4.518   4.625   8.850  2.1178 -1.1189 -2.4858
 1160SOL    HW215114   4.537   0.019   8.912 -0.5137 -1.1004  0.3925
 1161SOL     OW15115   4.002   0.534  17.562 -0.0921 -0.5539 -0.6484
 1161SOL    HW115116   3.963   0.597  17.500 -2.4242 -1.6272 -0.2506
 1161SOL    HW215117   4.087   0.577  17.573 -1.4572  2.2574 -0.9593
 1162SOL     OW15118   4.478   2.921   0.995  0.3963  0.4293 -0.0038
 1162SOL    HW115119   4.410   2.987   1.007  0.4052  0.1933  1.2609
 1162SOL    HW215120   4.446   2.861   1.063  0.7790  1.8765  1.4387
 1163SOL     OW15121   0.374   1.791   1.845  0.3975  0.1527  0.2684
 1163SOL    HW115122   0.437   1.862   1.852  2.7990 -2.1296  1.6531
 1163SOL    HW215123   0.370   1.770   1.752 -0.2483  3.6013 -0.5000
 1164SOL     OW15124   1.607   2.683   5.262  0.6707 -0.0378 -0.0480
 1164SOL    HW115125   1.556   2.746   5.212 -3.0499 -1.2257  2.1710
 1164SOL    HW215126   1.700   2.697   5.243  1.2188 -2.8599  0.5570
 1165SOL     OW15127   2.529   2.267   3.908  0.2481  0.3012  0.1769
 1165SOL    HW115128   2.477   2.191   3.935 -2.5099  2.1750  0.1251
 1165SOL    HW215129   2.514   2.272   3.814 -0.6686 -0.2058  0.2997
 1166SOL     OW15130   3.028   1.730  10.403 -0.0415 -0.4794  0.5645
 1166SOL    HW115131   2.954   1.725  10.342  0.1663 -0.6411  0.3269
 1166SOL    HW215132   2.983   1.751  10.485 -0.3346 -1.8364  0.7393
 1167SOL     OW15133   1.689   3.155  12.244 -0.1313  0.4665 -0.1903
 1167SOL    HW115134   1.654   3.215  12.310  0.5671  0.2704  0.3664
 1167SOL    HW215135   1.689   3.206  12.164  1.1788 -2.1505 -1.8768
 1168SOL     OW15136   1.357   0.297  13.669 -1.2828  0.1494  0.8275
 1168SOL    HW115137   1.409   0.323  13.745  0.8755  0.4554 -0.7663
 1168SOL    HW215138   1.411   0.219  13.655  0.1291  2.0896 -4.3962
 1169SOL     OW15139   1.742   1.774   8.180  0.7007 -1.0559 -0.2780
 1169SOL    HW115140   1.651   1.757   8.154 -0.3296  3.2629  0.4593
 1169SOL    HW215141   1.720   1.808   8.267  0.1747  1.8411 -1.5311
 1170SOL     OW15142   1.070   0.820   5.498  0.6455 -0.4137 -0.1855
 1170SOL    HW115143   1.051   0.818   5.404 -1.7671 -2.9839  0.3745
 1170SOL    HW215144   0.984   0.823   5.539  0.9391 -0.2967  0.4222
 1171SOL     OW15145   1.352   3.206   6.823 -0.5088 -0.4917 -0.3776
 1171SOL    HW115146   1.257   3.195   6.820 -0.2186 -2.9853 -0.5521
 1171SOL    HW215147   1.370   3.251   6.741  0.0058 -0.1188 -0.0581
 1172SOL     OW15148   0.142   4.559   8.253 -0.4136 -0.0022  0.3548
 1172SOL    HW115149   0.198   4.517   8.188 -1.0521  1.0699 -0.9026
 1172SOL    HW215150   0.053   4.541   8.225 -0.1923 -1.6442  0.7346
 1173SOL     OW15151   0.494   3.738   8.436 -0.0539  0.2725 -0.0941
 1173SOL    HW115152   0.438   3.676   8.389  0.5051 -0.9745  0.8782
 1173SOL    HW215153   0.573   3.744   8.382  0.2567  0.3043  0.3640
 1174SOL     OW15154   1.891   0.808   4.779 -0.0343 -0.1380 -0.0368
 1174SOL    HW115155   1.941   0.741   4.733 -1.2730 -0.7461 -0.4929
 1174SOL    HW215156   1.929   0.891   4.749  0.4687 -0.4365 -0.2219
 1175SOL     OW15157   3.903   3.977  17.321 -0.2457  0.7017 -0.6305
 1175SOL    HW115158   3.811   3.989  17.298 -1.0351 -2.0584  1.0389
 1175SOL    HW215159   3.898   4.033  17.399 -0.6470 -0.2980  0.0677
 1176SOL     OW15160   2.455   3.321  10.605  0.2984 -0.1364 -0.0874
 1176SOL    HW115161   2.476   3.397  10.659 -0.9022  1.3084 -1.6471
 1176SOL    HW215162   2.436   3.366  10.523 -0.7325  1.9893  1.3025
 1177SOL     OW15163   4.261   0.974   4.263 -0.5397 -0.2158 -0.1754
 1177SOL    HW115164   4.243   1.023   4.183  0.4222  1.1746  0.4484
 1177SOL    HW215165   4.179   0.993   4.309 -0.1768  0.0744  0.3453
 1178SOL     OW15166   1.597   3.262   9.339  0.1929 -0.0064 -0.0926
 1178SOL    HW115167   1.550   3.184   9.371  2.0904 -1.2949 -0.4282
 1178SOL    HW215168   1.670   3.215   9.298  1.2512  1.2886  0.3310
 1179SOL     OW15169   4.553   1.028  17.219 -0.1836 -0.1408  0.0741
 1179SOL    HW115170   4.470   1.065  17.247 -0.6532  0.6060 -2.2795
 1179SOL    HW215171   4.579   1.073  17.139 -1.8654  0.7149  0.0305
 1180SOL     OW15172   4.438   4.181   3.201 -0.3214 -0.2434 -0.3564
 1180SOL    HW115173   4.498   4.256   3.195 -2.4317  1.5021  0.3012
 1180SOL    HW215174   4.498   4.107   3.209  0.2722  0.1248 -1.4056
 1181SOL     OW15175   4.737   4.234   6.681 -0.1942  0.6193  0.2260
 1181SOL    HW115176   4.720   4.184   6.601  0.9236  1.9702 -0.8510
 1181SOL    HW215177   4.699   4.320   6.661 -1.2244 -0.2485 -1.5601
 1182SOL     OW15178   0.979   3.715   6.533  0.3960 -0.1462 -0.0079
 1182SOL    HW115179   1.070   3.691   6.513  0.6310  0.3128  0.4852
 1182SOL    HW215180   0.989   3.767   6.612  0.4480  0.6102 -0.5114
 1183SOL     OW15181   1.125   1.923   5.270  0.4760  0.0167 -0.2751
 1183SOL    HW115182   1.211   1.952   5.241  1.7584 -1.9080  1.6620
 1183SOL    HW215183   1.149   1.889   5.356  0.3670 -0.3217 -0.3808
 1184SOL     OW15184   4.524   1.899   4.602 -0.0076  0.3558 -0.0780
 1184SOL    HW115185   4.433   1.922   4.620 -0.7208 -1.2176 -1.6774
 1184SOL    HW215186   4.560   1.987   4.595 -1.2306  0.9491  1.0478
 1185SOL     OW15187   2.780   0.623   3.516  0.3815 -0.5140  0.6987
 1185SOL    HW115188   2.819   0.639   3.602  1.3658  0.1568  0.1273
 1185SOL    HW215189   2.740   0.709   3.509  0.5182 -0.5705 -0.7622
 1186SOL     OW15190   2.570   3.265  12.535  0.0111 -0.3867  0.0339
 1186SOL    HW115191   2.490   3.308  12.565 -0.5055 -0.6173 -1.0069
 1186SOL    HW215192   2.539   3.175  12.540 -0.1275 -0.4059 -1.1021
 1187SOL     OW15193   3.195   1.784   4.501 -0.2159  0.1075  0.0632
 1187SOL    HW115194   3.172   1.693   4.516 -1.7666  1.1081  3.5592
 1187SOL    HW215195   3.248   1.801   4.579  0.2079  1.0250 -0.4188
 1188SOL     OW15196   2.120   3.085   2.200 -0.2974 -0.1665  0.3126
 1188SOL    HW115197   2.156   3.171   2.219 -3.3117  1.4200 -1.1732
 1188SOL    HW215198   2.146   3.036   2.279 -2.6895 -0.9644  0.5953
 1189SOL     OW15199   0.961   2.191   3.224  0.5891  0.2307 -0.6064
 1189SOL    HW115200   1.001   2.250   3.160  0.6096  0.4239 -0.4194
 1189SOL    HW215201   0.984   2.240   3.303 -0.9502 -0.5862  0.3518
 1190SOL     OW15202   3.288   2.191   1.938  0.6211 -0.0964 -0.4379
 1190SOL    HW115203   3.199   2.186   1.972  0.8690 -1.5971 -0.0294
 1190SOL    HW215204   3.287   2.282   1.908  3.6936 -0.1401 -0.6916
 1191SOL     OW15205   0.195   4.460  15.416 -0.1402  0.1006  0.2870
 1191SOL    HW115206   0.272   4.509  15.444 -0.4082  0.7491 -0.1255
 1191SOL    HW215207   0.129   4.503  15.470  1.1852  2.9597 -0.3668
 1192SOL     OW15208   3.310   1.605   1.606 -0.8532  0.8003  0.2455
 1192SOL    HW115209   3.385   1.656   1.638 -0.6279 -0.2506  1.3732
 1192SOL    HW215210   3.316   1.619   1.511 -0.3939  2.1003  0.4554
 1193SOL     OW15211   2.396   4.702  15.808 -0.7157  0.2207  0.1847
 1193SOL    HW115212   2.466   4.678  15.870  1.2124  1.5976 -1.4616
 1193SOL    HW215213   2.446   4.683  15.728 -2.0442 -3.0820  0.1240
 1194SOL     OW15214   1.964   1.220   0.744  0.1078 -0.0239 -0.2844
 1194SOL    HW115215   1.982   1.313   0.729 -1.3312  0.3960  0.6084
 1194SOL    HW215216   1.869   1.216   0.734  0.0667  1.2246 -0.3953
 1195SOL     OW15217   2.781   4.051   6.685  0.0181  0.2449  0.4051
 1195SOL    HW115218   2.827   4.026   6.605  0.1890 -0.5153  0.7310
 1195SOL    HW215219   2.723   4.120   6.655  0.0242 -0.2701 -0.7822
 1196SOL     OW15220   3.680   4.095   0.569  0.1018 -0.3269 -0.0357
 1196SOL    HW115221   3.727   4.149   0.505 -1.2971 -1.5132 -2.0845
 1196SOL    HW215222   3.624   4.035   0.519  2.1713 -0.7263 -1.8956
 1197SOL     OW15223   0.046   4.652   8.683  0.1251 -0.2506  0.1828
 1197SOL    HW115224   4.714   4.676   8.744  0.0826 -0.8136  0.3626
 1197SOL    HW215225   0.113   4.698   8.733 -0.4969  0.1054  0.6801
 1198SOL     OW15226   1.629   3.917   4.310 -0.4871  0.0354  0.2069
 1198SOL    HW115227   1.676   3.905   4.227  0.7542 -0.6411  1.0095
 1198SOL    HW215228   1.684   3.980   4.356 -0.7589 -0.3346  1.0292
 1199SOL     OW15229   1.909   1.094   4.653  0.0319  0.3755  0.0200
 1199SOL    HW115230   1.957   1.116   4.733 -1.6643 -2.2423  1.7317
 1199SOL    HW215231   1.837   1.156   4.665  0.8017  1.8146 -2.6754
 1200SOL     OW15232   2.626   4.380   0.482  0.8356  0.0476  0.3450
 1200SOL    HW115233   2.618   4.325   0.559  2.6841  0.6794  1.0022
 1200SOL    HW215234   2.556   4.441   0.506  1.4544  1.3015 -1.0321
 1201SOL     OW15235   0.441   2.726   1.813 -0.0616  0.7966  0.4393
 1201SOL    HW115236   0.440   2.717   1.717 -1.1867  2.1717  0.3302
 1201SOL    HW215237   0.360   2.775   1.824 -1.0548 -1.1158  1.5503
 1202SOL     OW15238   2.570   4.523  17.156 -0.0151  0.3846  0.4082
 1202SOL    HW115239   2.480   4.535  17.187 -0.1428  0.1919  0.1034
 1202SOL    HW215240   2.560   4.502  17.063 -0.1778  1.2798  0.2250
 1203SOL     OW15241   0.184   4.415  16.310 -0.4298 -0.5233 -0.0408
 1203SOL    HW115242   0.277   4.428  16.331 -0.6282  0.8431 -0.0183
 1203SOL    HW215243   0.158   4.346  16.371  0.2780 -1.3763 -0.7063
 1204SOL     OW15244   1.869   3.574   3.747 -0.0382  0.1156 -0.3578
 1204SOL    HW115245   1.906   3.641   3.689  0.4810  0.6201  0.5545
 1204SOL    HW215246   1.944   3.520   3.775 -0.6064 -0.0954  0.7472
 1205SOL     OW15247   4.098   0.418   3.644  0.3865  0.2725 -0.4034
 1205SOL    HW115248   4.090   0.446   3.553 -3.8330 -1.1680 -0.4610
 1205SOL    HW215249   4.022   0.362   3.657  1.9103 -1.5490  0.6008
 1206SOL     OW15250   3.707   3.225   4.813 -0.1010  0.0773 -0.5061
 1206SOL    HW115251   3.678   3.160   4.877  0.1315 -1.2259 -1.7337
 1206SOL    HW215252   3.703   3.159   4.744  1.8983 -1.3462  0.7071
 1207SOL     OW15253   0.764   0.815   9.154  0.0265 -0.1391  0.1907
 1207SOL    HW115254   0.754   0.743   9.217  0.7595  1.1650  1.7978
 1207SOL    HW215255   0.697   0.873   9.188  0.3100 -0.6232  1.5872
 1208SOL     OW15256   1.826   0.894   8.736  0.0411 -0.1855  0.0542
 1208SOL    HW115257   1.763   0.893   8.809 -1.2837 -2.2463 -1.0971
 1208SOL    HW215258   1.806   0.979   8.698  0.6351 -1.0614 -2.1959
 1209SOL     OW15259   0.640   2.390   6.110 -1.0431 -0.1226  0.1319
 1209SOL    HW115260   0.727   2.412   6.078 -0.3224 -1.1442  1.3775
 1209SOL    HW215261   0.660   2.374   6.202 -2.2624 -2.0297  0.0764
 1210SOL     OW15262   3.333   1.466   8.975  0.2550 -0.1748  0.0328
 1210SOL    HW115263   3.249   1.499   9.008 -1.0008 -0.3508 -2.9703
 1210SOL    HW215264   3.304   1.434   8.890  0.1393  2.2509 -0.8608
 1211SOL     OW15265   3.931   4.386  12.154  0.4901 -0.8739  0.1647
 1211SOL    HW115266   4.024   4.373  12.137  0.5434  0.8750 -0.8278
 1211SOL    HW215267   3.899   4.385  12.064 -1.1390 -0.2627  0.7366
 1212SOL     OW15268   2.417   3.077   4.815  0.2461 -0.1639 -0.3205
 1212SOL    HW115269   2.414   3.101   4.723  3.5401  0.2731 -0.3142
 1212SOL    HW215270   2.329   3.039   4.818  0.9193 -1.5718  1.5683
 1213SOL     OW15271   0.607   1.432   1.832 -0.1599 -0.3880 -0.0397
 1213SOL    HW115272   0.576   1.343   1.845 -1.0755  0.1994  1.8997
 1213SOL    HW215273   0.625   1.433   1.738  1.1387 -0.0790  0.2099
 1214SOL     OW15274   3.028   2.699   2.282 -0.2365  0.0410 -0.2887
 1214SOL    HW115275   2.985   2.665   2.360 -2.6551  0.4450 -1.4576
 1214SOL    HW215276   2.971   2.668   2.212 -0.7659 -0.6666  0.4557
 1215SOL     OW15277   4.123   0.488   5.008 -0.3499  0.6963 -0.1422
 1215SOL    HW115278   4.087   0.554   5.067 -0.8691 -0.1290  0.4757
 1215SOL    HW215279   4.114   0.414   5.068  0.1048  1.4185  0.8046
 1216SOL     OW15280   4.537   3.930   1.494  0.0608 -0.6755  0.3393
 1216SOL    HW115281   4.575   3.965   1.575  3.3878  0.5943 -1.7876
 1216SOL    HW215282   4.546   3.837   1.512  0.5912 -0.3839  1.5834
 1217SOL     OW15283   3.660   1.442   6.312  0.2884  0.0872  0.0050
 1217SOL    HW115284   3.701   1.527   6.325 -2.4037  1.5654 -1.3028
 1217SOL    HW215285   3.565   1.457   6.314  0.4063  0.8232  0.1293
 1218SOL     OW15286   4.653   1.525   0.252 -0.5142 -0.2681 -0.1447
 1218SOL    HW115287   0.010   1.536   0.263 -0.1698 -0.1230 -3.4234
 1218SOL    HW215288   4.637   1.567   0.167 -0.6365  1.0378  0.5213
 1219SOL     OW15289   0.225   4.575  14.588 -0.0105  0.2642  0.2972
 1219SOL    HW115290   0.229   4.578  14.493  2.2057 -1.2837  0.3304
 1219SOL    HW215291   0.241   4.668  14.602  0.6002  0.2564 -0.3812
 1220SOL     OW15292   1.000   1.154   3.784 -0.2450 -0.4858 -0.0255
 1220SOL    HW115293   1.051   1.139   3.863 -0.3740  0.3021  0.2134
 1220SOL    HW215294   0.916   1.112   3.805 -0.1011 -1.0730 -0.6357
 1221SOL     OW15295   3.137   0.740   5.029  0.2848 -0.0902  0.2481
 1221SOL    HW115296   3.183   0.686   5.092  0.0761  2.4969  2.6506
 1221SOL    HW215297   3.058   0.772   5.072  0.1419  0.9982 -0.8036
 1222SOL     OW15298   3.985   0.077   7.778 -0.3317 -0.3819 -0.2157
 1222SOL    HW115299   4.037   4.733   7.777  1.1802  0.5932 -1.1642
 1222SOL    HW215300   4.023   0.103   7.694 -0.3225  1.3170  0.3007
 1223SOL     OW15301   3.185   1.719   8.621 -0.0980 -0.2534 -0.2623
 1223SOL    HW115302   3.133   1.718   8.701 -0.4390  0.7937 -0.4817
 1223SOL    HW215303   3.271   1.678   8.633 -0.3718 -0.2468  1.7435
 1224SOL     OW15304   1.345   0.444  11.389  0.1721 -0.3250  0.8256
 1224SOL    HW115305   1.330   0.388  11.312  1.3571  0.2925  0.1356
 1224SOL    HW215306   1.437   0.471  11.384  0.1889 -0.8613 -2.0744
 1225SOL     OW15307   4.653   2.344   3.102  0.1236  0.0664  0.2912
 1225SOL    HW115308   4.571   2.394   3.092  0.7959  1.2241  0.5496
 1225SOL    HW215309   4.722   2.392   3.057  0.3051 -1.3105 -0.9112
 1226SOL     OW15310   0.508   0.868   2.555 -0.5331 -0.6056 -0.7286
 1226SOL    HW115311   0.539   0.802   2.617 -0.2706 -0.1773 -0.4005
 1226SOL    HW215312   0.431   0.913   2.589 -0.4588 -0.0648 -1.2529
 1227SOL     OW15313   4.037   1.619   5.512  0.3353  0.3147 -0.4256
 1227SOL    HW115314   3.942   1.616   5.511  0.3774 -0.6019 -2.7889
 1227SOL    HW215315   4.052   1.545   5.453  0.1065 -0.4898  0.5143
 1228SOL     OW15316   1.099   0.265  13.823 -0.8753 -0.0488  0.3230
 1228SOL    HW115317   1.176   0.293  13.774 -0.2750 -1.2660  0.5730
 1228SOL    HW215318   1.107   0.321  13.900 -0.9844  0.5347 -0.0937
 1229SOL     OW15319   2.491   4.602   4.118 -0.1998 -0.1293 -0.1846
 1229SOL    HW115320   2.451   4.517   4.132  1.9980 -1.3703 -1.3787
 1229SOL    HW215321   2.566   4.590   4.176  0.0388  2.3305  0.0390
 1230SOL     OW15322   1.713   4.592   8.993 -0.3703  0.4171 -0.5290
 1230SOL    HW115323   1.805   4.580   8.968  0.2658 -2.2043  2.9218
 1230SOL    HW215324   1.685   4.502   9.011  4.0228 -0.8201  0.2609
 1231SOL     OW15325   4.304   2.262  11.138  0.3305 -0.3173 -0.4519
 1231SOL    HW115326   4.394   2.274  11.110  0.9028 -0.7860  1.2030
 1231SOL    HW215327   4.274   2.198  11.072  3.9191 -1.5655 -0.8713
 1232SOL     OW15328   3.462   2.876   9.843 -0.3786 -0.0046  0.1242
 1232SOL    HW115329   3.404   2.827   9.901 -1.4275  0.5210 -0.4881
 1232SOL    HW215330   3.482   2.949   9.902  2.0535  1.4036 -2.4475
 1233SOL     OW15331   2.192   3.023  12.525  0.3367 -0.4186 -0.3552
 1233SOL    HW115332   2.191   3.118  12.526 -2.9292 -0.4555 -1.2466
 1233SOL    HW215333   2.252   3.003  12.453  1.3586  0.3662  0.2759
 1234SOL     OW15334   0.331   1.175  11.217 -0.1905  0.2498 -0.0458
 1234SOL    HW115335   0.388   1.130  11.155  0.9569 -0.6076  1.6388
 1234SOL    HW215336   0.369   1.149  11.301 -1.4954 -1.7442 -0.0953
 1235SOL     OW15337   0.874   1.502   4.299  0.4352  0.5880 -0.1609
 1235SOL    HW115338   0.779   1.513   4.292  0.0836 -1.5411  1.3360
 1235SOL    HW215339   0.888   1.409   4.281 -0.7974  0.2872  0.4550
 1236SOL     OW15340   3.456   2.300   3.795  0.3970 -0.0851 -0.4655
 1236SOL    HW115341   3.361   2.289   3.796  0.3711  0.3706  1.2324
 1236SOL    HW215342   3.452   2.387   3.755 -3.3671 -0.0468 -0.0432
 1237SOL     OW15343   1.570   0.757   3.724 -0.4364 -0.3688  0.0769
 1237SOL    HW115344   1.550   0.789   3.812  0.2958 -1.3235  0.5914
 1237SOL    HW215345   1.652   0.805   3.713  1.0498 -2.5696  1.4205
 1238SOL     OW15346   4.721   3.023   2.904 -0.1875  0.2872 -0.6497
 1238SOL    HW115347   0.062   3.036   2.849  0.6940 -0.6673  0.3864
 1238SOL    HW215348   0.018   3.061   2.985  0.5786 -0.2251 -0.7266
 1239SOL     OW15349   4.376   3.285   2.946 -0.6422 -0.0169 -0.2883
 1239SOL    HW115350   4.387   3.374   2.980 -3.1803 -0.3849  1.4784
 1239SOL    HW215351   4.452   3.271   2.889  0.5154 -2.2487  1.8339
 1240SOL     OW15352   2.559   4.707   8.446 -0.0276 -0.2294 -0.2060
 1240SOL    HW115353   2.641   4.658   8.459  0.6828  1.2528  0.9177
 1240SOL    HW215354   2.512   4.657   8.380  2.3288 -0.6355 -1.5594
 1241SOL     OW15355   1.841   3.067   7.315 -0.0095  0.5125  0.0130
 1241SOL    HW115356   1.923   3.041   7.358  0.1941 -1.8176 -1.7881
 1241SOL    HW215357   1.785   3.005   7.362  0.1256 -1.3541 -2.2708
 1242SOL     OW15358   1.213   4.714   2.833 -0.2066 -0.2397 -0.4720
 1242SOL    HW115359   1.255   4.688   2.915 -2.4751 -0.0183  0.7581
 1242SOL    HW215360   1.283   0.017   2.781 -0.8825  1.3892 -0.1181
 1243SOL     OW15361   4.083   1.739   1.630 -0.3741  0.1004  0.1965
 1243SOL    HW115362   4.015   1.806   1.641  1.7439  2.3164 -0.1444
 1243SOL    HW215363   4.113   1.731   1.721 -1.1014 -1.5690  0.2941
 1244SOL     OW15364   2.830   3.509   7.243  0.2728  0.0153  0.4284
 1244SOL    HW115365   2.906   3.550   7.286  1.8320 -0.2838 -2.0697
 1244SOL    HW215366   2.863   3.487   7.156 -0.7116 -1.4532  0.4325
 1245SOL     OW15367   4.380   2.482   8.620  0.3005 -0.5760 -0.2189
 1245SOL    HW115368   4.471   2.473   8.593  0.0195  0.0936 -1.4483
 1245SOL    HW215369   4.333   2.474   8.536 -0.5503 -0.1884  0.2144
 1246SOL     OW15370   0.993   4.432   8.606 -0.2514  0.4184  0.1896
 1246SOL    HW115371   0.988   4.472   8.519 -0.4954 -0.1292 -0.0516
 1246SOL    HW215372   1.025   4.509   8.653  1.5809  0.7169 -1.5511
 1247SOL     OW15373   2.770   1.162   2.063 -0.1701 -0.4939 -0.3315
 1247SOL    HW115374   2.683   1.170   2.024  0.8447  2.7643 -1.8812
 1247SOL    HW215375   2.742   1.133   2.150  1.3100 -1.2632 -0.1184
 1248SOL     OW15376   3.626   1.692   3.722 -0.4572  0.0099  0.0745
 1248SOL    HW115377   3.716   1.701   3.692 -0.0075  0.0959  1.4801
 1248SOL    HW215378   3.604   1.779   3.756 -0.7125  0.0577 -0.2148
 1249SOL     OW15379   4.268   1.705   2.219 -0.2158  0.3147 -0.1871
 1249SOL    HW115380   4.352   1.677   2.258 -1.1408  0.6023  2.0334
 1249SOL    HW215381   4.293   1.703   2.127 -3.6781 -1.4417 -1.0729
 1250SOL     OW15382   1.310   1.377  16.683 -0.0898 -0.4028  0.7597
 1250SOL    HW115383   1.312   1.368  16.588 -2.3654  3.5894  0.3179
 1250SOL    HW215384   1.402   1.365  16.705  0.4082 -1.4952 -1.9373
 1251SOL     OW15385   1.018   3.042   8.558 -0.4280  0.3930  0.2273
 1251SOL    HW115386   0.968   2.986   8.619  0.0986 -0.6663 -0.3113
 1251SOL    HW215387   0.971   3.123   8.576 -0.9023 -0.2260  1.7856
 1252SOL     OW15388   0.536   1.957  10.168 -0.1088  0.3057 -0.2772
 1252SOL    HW115389   0.546   1.870  10.129 -0.3042  0.6091 -1.0046
 1252SOL    HW215390   0.619   1.969  10.214  0.3431 -0.5209 -0.8714
 1253SOL     OW15391   2.312   3.563  17.629 -0.2909  0.1179 -0.3614
 1253SOL    HW115392   2.278   3.651  17.646 -0.3796  0.3788 -1.9516
 1253SOL    HW215393   2.233   3.528  17.589  0.5876  0.2353 -2.2165
 1254SOL     OW15394   0.192   1.025  11.574 -0.1963  0.6642  0.1110
 1254SOL    HW115395   0.183   1.113  11.611  2.5986  1.1991 -0.4911
 1254SOL    HW215396   0.257   1.038  11.505  0.4046  1.6006  0.8469
 1255SOL     OW15397   1.831   0.929   6.212 -0.2391  0.5191  0.0218
 1255SOL    HW115398   1.924   0.950   6.210 -0.0224 -0.6275 -1.3646
 1255SOL    HW215399   1.800   0.910   6.124 -0.9574 -1.4977  0.7161
 1256SOL     OW15400   2.518   2.557  17.383  0.1467  0.0421 -0.0902
 1256SOL    HW115401   2.597   2.596  17.420  1.3757 -2.0053 -0.5478
 1256SOL    HW215402   2.476   2.509  17.455  0.9827 -0.5362  0.0042
 1257SOL     OW15403   2.312   2.389   2.602 -0.7489 -0.7702 -0.3503
 1257SOL    HW115404   2.356   2.421   2.681 -0.9589  1.0226 -0.9647
 1257SOL    HW215405   2.221   2.409   2.625  0.1722  1.1312  1.5724
 1258SOL     OW15406   3.924   0.020   1.142 -0.2604  0.4153  0.0430
 1258SOL    HW115407   3.855   0.059   1.196 -1.6394 -1.2961 -0.4899
 1258SOL    HW215408   3.875   4.695   1.088 -0.8259 -1.2599  2.4750
 1259SOL     OW15409   2.997   0.375   6.068 -0.4203  0.2203  0.2672
 1259SOL    HW115410   2.963   0.332   6.146 -0.2337  0.5863  0.5475
 1259SOL    HW215411   2.927   0.439   6.059 -0.7164 -0.0157  0.8873
 1260SOL     OW15412   0.544   2.793   0.950  0.0096 -0.4641 -0.3257
 1260SOL    HW115413   0.541   2.725   0.883 -0.4127  0.1892 -0.9775
 1260SOL    HW215414   0.490   2.861   0.910  2.1791  0.9321 -0.8747
 1261SOL     OW15415   1.879   0.370   8.730 -0.7929 -0.1428 -0.3990
 1261SOL    HW115416   1.905   0.302   8.668 -0.7793 -1.6678  1.2952
 1261SOL    HW215417   1.785   0.362   8.745 -1.2547  1.1084 -2.5870
 1262SOL     OW15418   2.541   0.971   5.302 -0.7474 -0.1411 -0.8941
 1262SOL    HW115419   2.475   0.951   5.369 -0.5408  1.6090 -0.1908
 1262SOL    HW215420   2.558   1.065   5.303 -1.1213 -0.0713 -1.0614
 1263SOL     OW15421   2.037   1.215  16.593 -0.5788  0.3010 -0.3106
 1263SOL    HW115422   2.001   1.128  16.612 -0.6925  0.8426  1.9923
 1263SOL    HW215423   2.105   1.225  16.660  0.4441  0.1582 -1.3454
 1264SOL     OW15424   1.593   0.521   4.906 -0.0812  0.1559  0.1371
 1264SOL    HW115425   1.682   0.525   4.942 -0.2607 -0.9799  0.7398
 1264SOL    HW215426   1.560   0.444   4.953 -0.7376  1.9513  2.6557
 1265SOL     OW15427   0.300   1.252   3.777 -0.3807  0.6149  0.5967
 1265SOL    HW115428   0.326   1.279   3.866  0.9937  0.0331  0.3648
 1265SOL    HW215429   0.205   1.263   3.785 -0.5916 -1.9217  1.4094
 1266SOL     OW15430   2.214   3.710   5.433  0.3664  0.4662 -0.1199
 1266SOL    HW115431   2.306   3.726   5.412  0.5781 -0.4127  0.1278
 1266SOL    HW215432   2.217   3.618   5.459 -0.6511  0.3219 -0.5437
 1267SOL     OW15433   0.598   0.468   8.722 -0.6484  0.0793 -0.0890
 1267SOL    HW115434   0.604   0.562   8.707 -1.0592  0.2596  0.9130
 1267SOL    HW215435   0.594   0.459   8.817  1.2364 -0.0806 -0.0234
 1268SOL     OW15436   1.475   3.298   5.384 -0.0564  0.3020 -0.1439
 1268SOL    HW115437   1.538   3.265   5.447  0.5698  0.3607 -0.7460
 1268SOL    HW215438   1.400   3.302   5.444 -0.3497  1.1021 -0.5641
 1269SOL     OW15439   1.857   2.187  14.327 -0.0176 -0.6227  0.1711
 1269SOL    HW115440   1.841   2.274  14.292  1.7606 -0.1859  0.4562
 1269SOL    HW215441   1.800   2.146  14.262  0.7416  0.2023 -1.0121
 1270SOL     OW15442   3.541   0.517   6.992 -0.1828  0.1316  0.2843
 1270SOL    HW115443   3.501   0.468   6.919 -0.9382  0.4473  0.4867
 1270SOL    HW215444   3.473   0.487   7.052  1.0845  2.5596  2.9037
 1271SOL     OW15445   2.715   2.832   2.028  0.0106  0.2717  0.1059
 1271SOL    HW115446   2.751   2.914   2.064  2.3104  0.2016 -2.0566
 1271SOL    HW215447   2.633   2.847   2.074  1.2922 -1.0998  2.8212
 1272SOL     OW15448   3.314   0.975  17.649  0.2588  0.5189 -0.5608
 1272SOL    HW115449   3.346   0.953  17.736  0.2982 -1.7590 -1.1310
 1272SOL    HW215450   3.226   1.006  17.669 -0.2977 -0.2887 -1.7208
 1273SOL     OW15451   1.671   3.005   7.793  0.4105 -0.1416 -0.2325
 1273SOL    HW115452   1.587   2.965   7.817 -0.1558  1.2769  0.1129
 1273SOL    HW215453   1.653   3.097   7.807 -0.5145 -0.5450  1.1821
 1274SOL     OW15454   4.187   4.595   7.512  0.0139  0.6133  0.1172
 1274SOL    HW115455   4.264   4.578   7.458  0.8189 -2.7811  2.3175
 1274SOL    HW215456   4.110   4.600   7.456  2.0873  1.9956 -2.5930
 1275SOL     OW15457   2.653   0.992   5.665  0.4045  0.3227  0.3031
 1275SOL    HW115458   2.712   0.934   5.615 -0.8082 -1.4935  0.9679
 1275SOL    HW215459   2.693   0.968   5.749  0.3024  1.9572  0.8114
 1276SOL     OW15460   4.022   3.298  17.362 -0.1922 -0.5082 -0.0998
 1276SOL    HW115461   4.088   3.365  17.340  0.8403 -1.8758 -1.1835
 1276SOL    HW215462   4.060   3.221  17.319  3.4368  1.4916 -0.4997
 1277SOL     OW15463   2.371   4.199  14.732  0.1986 -0.3951  0.1534
 1277SOL    HW115464   2.326   4.238  14.807  1.0396 -2.6632  1.8301
 1277SOL    HW215465   2.292   4.164  14.690 -0.2227  0.4590  0.2469
 1278SOL     OW15466   1.023   1.006   6.057  0.5412  0.3120 -0.2962
 1278SOL    HW115467   1.090   0.947   6.023 -1.1802 -1.4220 -0.6842
 1278SOL    HW215468   1.072   1.080   6.091  2.1054 -1.0905  0.5195
 1279SOL     OW15469   4.214   0.892   8.511 -0.1355 -0.6737 -0.3112
 1279SOL    HW115470   4.224   0.818   8.452  0.3387 -0.4882 -0.4617
 1279SOL    HW215471   4.222   0.971   8.457  0.2781  0.1015  0.8670
 1280SOL     OW15472   0.869   1.407  10.947 -0.5477 -0.0032  0.1916
 1280SOL    HW115473   0.947   1.424  10.999 -1.7014 -0.9559  2.2027
 1280SOL    HW215474   0.798   1.395  11.009  0.3854  1.6885  1.5712
 1281SOL     OW15475   3.373   0.668   9.475 -0.2209 -0.2022 -0.8466
 1281SOL    HW115476   3.424   0.748   9.462  0.9643 -0.6251  1.2030
 1281SOL    HW215477   3.397   0.617   9.398 -0.8091 -2.7640  0.6754
 1282SOL     OW15478   1.840   0.125  15.271 -0.0801  0.2954 -0.6169
 1282SOL    HW115479   1.894   0.185  15.323 -0.9724  0.8433 -0.3170
 1282SOL    HW215480   1.809   0.068  15.342 -2.0229  1.2710 -0.6832
 1283SOL     OW15481   0.092   0.857   9.486  0.4663 -0.5977  0.1381
 1283SOL    HW115482   0.033   0.787   9.457  0.9378 -0.3405 -1.4364
 1283SOL    HW215483   0.073   0.938   9.439  3.5413 -1.1242 -2.0152
 1284SOL     OW15484   1.845   4.290   1.423 -0.0009  0.8743 -0.0820
 1284SOL    HW115485   1.753   4.311   1.440 -0.2971 -0.9673  0.5501
 1284SOL    HW215486   1.862   4.332   1.338  0.6252  0.6456 -0.0645
 1285SOL     OW15487   2.483   4.513   4.688  0.0097 -0.1058  0.7930
 1285SOL    HW115488   2.431   4.462   4.625 -1.6873 -0.2997  2.3465
 1285SOL    HW215489   2.429   4.512   4.767  0.1547  1.8075  0.9106
 1286SOL     OW15490   2.656   4.104   1.682 -0.5881 -0.2256  0.0820
 1286SOL    HW115491   2.580   4.052   1.656  0.2294 -0.6399 -1.4631
 1286SOL    HW215492   2.618   4.191   1.664  0.9686  0.3268 -0.5463
 1287SOL     OW15493   2.115   4.264  16.852 -0.5063 -0.4308  0.3825
 1287SOL    HW115494   2.051   4.206  16.894 -0.5998  0.3332  1.3059
 1287SOL    HW215495   2.153   4.218  16.778 -1.2844 -2.2337  1.0976
 1288SOL     OW15496   4.314   0.502   8.769 -0.0788  0.3517  0.4728
 1288SOL    HW115497   4.282   0.412   8.761 -2.0114  1.2734 -2.1348
 1288SOL    HW215498   4.242   0.564   8.758  0.4437  0.9650  0.4414
 1289SOL     OW15499   0.974   0.253   8.576  0.1337  0.2917 -0.4958
 1289SOL    HW115500   1.052   0.204   8.550  1.3619  0.5167  2.6808
 1289SOL    HW215501   1.004   0.344   8.575 -0.1185  0.3338 -3.9654
 1290SOL     OW15502   3.059   1.201  13.434 -0.2783  0.7613  0.0087
 1290SOL    HW115503   3.022   1.273  13.484 -1.1839 -0.9901  1.8648
 1290SOL    HW215504   3.043   1.128  13.494 -0.0022  0.9563  0.3168
 1291SOL     OW15505   0.851   3.338   7.084 -0.4131 -0.2567  0.3916
 1291SOL    HW115506   0.910   3.404   7.121 -1.9037  1.0165  0.4827
 1291SOL    HW215507   0.838   3.370   6.995 -0.6691 -0.4590  0.3565
 1292SOL     OW15508   0.306   4.732   5.355 -0.0509 -0.0659  0.6112
 1292SOL    HW115509   0.318   0.069   5.415  1.7192 -0.0081  0.1815
 1292SOL    HW215510   0.352   4.661   5.399 -0.3164 -1.1336 -0.8398
 1293SOL     OW15511   2.850   0.984  16.328  0.3671 -0.3512  0.6386
 1293SOL    HW115512   2.825   1.074  16.309  0.3417 -0.5249 -0.1808
 1293SOL    HW215513   2.908   1.010  16.399  1.1638 -0.6326  0.0981
 1294SOL     OW15514   3.614   1.641   1.433 -0.3192  0.0555  0.1350
 1294SOL    HW115515   3.608   1.551   1.399 -3.1669 -0.2663  1.5050
 1294SOL    HW215516   3.523   1.662   1.414 -0.3209 -0.8107 -0.8608
 1295SOL     OW15517   2.506   4.238   9.936 -0.3759 -0.1234 -0.3112
 1295SOL    HW115518   2.433   4.177   9.953  0.2564 -0.5502  0.9027
 1295SOL    HW215519   2.554   4.217  10.016  0.5653 -1.5600 -1.2565
 1296SOL     OW15520   1.586   1.562   5.036 -0.0914  0.3026  0.0559
 1296SOL    HW115521   1.642   1.639   5.046  0.4306  0.1003 -1.2925
 1296SOL    HW215522   1.513   1.594   4.983  0.7751 -1.3459 -2.1322
 1297SOL     OW15523   2.660   1.986   8.463 -0.1136 -0.2263  0.3008
 1297SOL    HW115524   2.722   1.944   8.403  0.3413 -1.4540  1.6284
 1297SOL    HW215525   2.599   1.916   8.484 -0.5069  0.6859  2.2039
 1298SOL     OW15526   0.326   3.739   7.150 -0.5172  0.3722 -0.4289
 1298SOL    HW115527   0.290   3.685   7.220  0.9214  1.3481  1.0701
 1298SOL    HW215528   0.275   3.819   7.161 -2.6260 -0.8620 -1.4346
 1299SOL     OW15529   4.441   0.371   8.358  0.2354  0.2028 -0.6320
 1299SOL    HW115530   4.507   0.309   8.390 -0.1848  1.3501  2.4367
 1299SOL    HW215531   4.470   0.447   8.409  1.4177  0.9495 -2.4365
 1300SOL     OW15532   3.475   4.348  12.896 -0.1925 -0.9332 -0.3399
 1300SOL    HW115533   3.440   4.391  12.974  1.1088 -1.5635  0.6022
 1300SOL    HW215534   3.519   4.421  12.852  3.0791 -1.7406  1.6333
 1301SOL     OW15535   2.566   0.036   6.870  0.1063  0.1976  0.8883
 1301SOL    HW115536   2.576   4.714   6.945  1.2955 -2.0118 -1.0285
 1301SOL    HW215537   2.628   0.101   6.902  2.1242 -0.8153 -1.0054
 1302SOL     OW15538   3.058   1.416   2.691 -0.0292  0.4566 -0.5050
 1302SOL    HW115539   3.097   1.484   2.636  0.2417 -0.7452 -1.8077
 1302SOL    HW215540   3.011   1.370   2.622  1.0086  3.2387 -3.0557
 1303SOL     OW15541   0.403   3.212   4.101 -0.2437 -0.3393 -0.3371
 1303SOL    HW115542   0.411   3.149   4.173 -0.5112  1.7105  1.5129
 1303SOL    HW215543   0.327   3.265   4.127  0.3827  0.9942 -1.1964
 1304SOL     OW15544   1.776   0.660  15.146 -0.4878 -0.6150  0.3855
 1304SOL    HW115545   1.788   0.641  15.239  0.2710 -1.6172  0.0839
 1304SOL    HW215546   1.769   0.572  15.109  0.5327  0.7008 -2.9349
 1305SOL     OW15547   2.393   1.805   4.275  0.3646  0.0584  0.2984
 1305SOL    HW115548   2.457   1.809   4.204  0.0810  0.4149  0.0678
 1305SOL    HW215549   2.445   1.783   4.353  0.2070  0.1596  0.4316
 1306SOL     OW15550   4.321   3.312  14.256 -0.5952  0.4711 -0.6204
 1306SOL    HW115551   4.402   3.326  14.206 -0.1536 -1.7462 -0.5170
 1306SOL    HW215552   4.348   3.343  14.342  2.0662 -2.9598 -0.2019
 1307SOL     OW15553   3.248   2.872   5.352 -0.0446  0.5642  0.1734
 1307SOL    HW115554   3.220   2.785   5.324  1.3522  0.4505 -0.8552
 1307SOL    HW215555   3.340   2.861   5.330 -0.5356 -2.8178 -0.2209
 1308SOL     OW15556   2.938   3.088  11.482 -0.2125 -0.4433 -0.1123
 1308SOL    HW115557   2.868   3.151  11.498 -2.1390 -3.2251  2.4355
 1308SOL    HW215558   2.968   3.082  11.572 -1.6694 -2.8797  0.2199
 1309SOL     OW15559   0.955   3.214   4.798  0.3015 -0.0997 -1.0995
 1309SOL    HW115560   0.918   3.266   4.870  0.0378 -0.2508 -1.1283
 1309SOL    HW215561   0.883   3.159   4.767 -0.4589 -0.4109  1.2286
 1310SOL     OW15562   4.116   1.839   4.080  0.0899  0.1219 -0.3714
 1310SOL    HW115563   4.165   1.823   4.160 -1.9003  4.3133  1.6863
 1310SOL    HW215564   4.060   1.761   4.072 -0.2046  0.3137 -0.1637
 1311SOL     OW15565   1.938   1.506   8.801 -0.0891 -0.4489 -0.2747
 1311SOL    HW115566   1.925   1.440   8.868  1.5334  0.0988  0.5769
 1311SOL    HW215567   1.854   1.552   8.806 -0.9047 -1.8700 -1.0276
 1312SOL     OW15568   3.448   0.835   4.307 -0.0567 -0.1209 -0.5898
 1312SOL    HW115569   3.428   0.839   4.400  2.9067  2.3508 -0.0534
 1312SOL    HW215570   3.479   0.745   4.295  3.1022  1.0545 -1.3070
 1313SOL     OW15571   0.411   2.465   8.095  0.1787  0.9359 -0.2343
 1313SOL    HW115572   0.371   2.526   8.157  0.4110 -0.0740  0.9054
 1313SOL    HW215573   0.439   2.538   8.040  0.6561  0.2800 -0.8509
 1314SOL     OW15574   2.525   0.778   2.925 -0.4017 -0.3579 -0.7767
 1314SOL    HW115575   2.431   0.773   2.907 -0.9401  0.9702  1.7122
 1314SOL    HW215576   2.522   0.864   2.966  1.8108 -0.2921 -0.7850
 1315SOL     OW15577   1.815   0.904   1.628 -0.8531  0.6983 -0.2395
 1315SOL    HW115578   1.843   0.992   1.653 -0.2563  0.6421 -0.7299
 1315SOL    HW215579   1.798   0.873   1.717  2.1224  1.3734  0.5729
 1316SOL     OW15580   2.746   3.989   9.041  0.3563  0.0346  0.3954
 1316SOL    HW115581   2.684   4.059   9.019 -1.9065 -1.3723  2.3350
 1316SOL    HW215582   2.709   3.965   9.126  1.9962 -0.3524  0.9966
 1317SOL     OW15583   3.515   4.056  16.108 -0.5573  0.6220  0.2093
 1317SOL    HW115584   3.525   3.964  16.136  0.0452  1.5779  3.1452
 1317SOL    HW215585   3.540   4.048  16.016 -1.3033 -0.9321  0.1435
 1318SOL     OW15586   0.569   1.320   5.912 -0.9030 -0.1191  0.4217
 1318SOL    HW115587   0.578   1.404   5.957 -2.5722  0.5820 -0.5550
 1318SOL    HW215588   0.628   1.327   5.837 -2.2181  0.5799 -0.5624
 1319SOL     OW15589   0.440   0.599   8.350  0.3666  0.4385  0.0713
 1319SOL    HW115590   0.426   0.513   8.311  1.6946  0.0604  0.4156
 1319SOL    HW215591   0.522   0.634   8.315  0.3075  0.2605 -0.2453
 1320SOL     OW15592   2.241   3.260   7.406  0.0994  0.8804 -0.4149
 1320SOL    HW115593   2.193   3.343   7.408 -0.2813  0.6679 -0.8145
 1320SOL    HW215594   2.300   3.276   7.333 -2.4613 -0.5339 -2.8019
 1321SOL     OW15595   1.671   3.684   4.466 -0.1379 -0.3285  0.5301
 1321SOL    HW115596   1.626   3.616   4.416  0.6183  0.9579 -1.9113
 1321SOL    HW215597   1.640   3.758   4.413 -1.2530 -0.3022  1.2011
 1322SOL     OW15598   1.159   1.826   2.792 -0.5495  0.0530 -0.1706
 1322SOL    HW115599   1.117   1.777   2.722  0.6975 -0.6041 -0.4537
 1322SOL    HW215600   1.093   1.847   2.858 -1.8693 -0.0210 -1.4841
 1323SOL     OW15601   2.101   0.956   6.142  0.2405  0.3058 -0.6184
 1323SOL    HW115602   2.131   1.027   6.199  0.7642 -0.0514 -0.4440
 1323SOL    HW215603   2.117   0.996   6.056 -3.3001  2.1615 -0.3783
 1324SOL     OW15604   1.831   0.142   0.788  0.2217 -0.7145  0.0701
 1324SOL    HW115605   1.791   0.202   0.726  1.0876  2.2299  2.3279
 1324SOL    HW215606   1.759   0.103   0.837  0.2819 -0.6660  0.1977
 1325SOL     OW15607   0.378   0.295   5.108  0.2299  0.2000 -0.1561
 1325SOL    HW115608   0.382   0.201   5.094 -0.1254  0.4441 -1.9759
 1325SOL    HW215609   0.305   0.314   5.049  0.5779  1.5720 -0.1604
 1326SOL     OW15610   1.126   1.396   3.656 -0.2642 -0.2630  0.5249
 1326SOL    HW115611   1.092   1.309   3.636  0.5997 -1.2362  3.2036
 1326SOL    HW215612   1.047   1.445   3.681 -0.2509 -1.4183  2.8551
 1327SOL     OW15613   0.142   0.525  11.052 -0.1778  0.9606 -0.0508
 1327SOL    HW115614   0.160   0.501  10.961 -2.0738 -0.1149 -0.1521
 1327SOL    HW215615   0.056   0.564  11.039 -0.3613  0.2688 -0.9179
 1328SOL     OW15616   3.613   1.528   3.009 -0.1878  0.2226  0.2676
 1328SOL    HW115617   3.638   1.526   2.917 -0.8667 -0.1672  0.0909
 1328SOL    HW215618   3.616   1.435   3.032 -1.9053  0.5599  1.8482
 1329SOL     OW15619   4.485   1.620   4.673 -0.3287 -0.8244  0.6547
 1329SOL    HW115620   4.421   1.585   4.611  0.7659  2.4938 -2.3647
 1329SOL    HW215621   4.482   1.715   4.663  0.7660 -0.9937 -1.4007
 1330SOL     OW15622   3.736   2.928  11.288  0.0447  0.3366 -0.5789
 1330SOL    HW115623   3.752   2.914  11.381 -1.2660 -0.4821 -0.4848
 1330SOL    HW215624   3.773   2.847  11.253  0.8847 -0.4381  2.0814
 1331SOL     OW15625   1.936   1.825   2.229  0.1589 -0.3443 -0.1445
 1331SOL    HW115626   1.891   1.835   2.145  0.0389  1.3395  0.1234
 1331SOL    HW215627   2.024   1.808   2.196  1.1207  0.1817  2.1569
 1332SOL     OW15628   0.529   2.820   4.097 -0.2754  0.1870  0.2719
 1332SOL    HW115629   0.536   2.839   4.191  1.3901 -0.5964  0.2919
 1332SOL    HW215630   0.489   2.733   4.096  0.1784 -0.0081 -0.2200
 1333SOL     OW15631   2.546   3.874  13.106 -0.4311  0.4898  0.1098
 1333SOL    HW115632   2.626   3.925  13.112 -1.1302  1.6979 -0.7543
 1333SOL    HW215633   2.532   3.852  13.198  0.1215  0.8348  0.2746
 1334SOL     OW15634   2.365   0.652   9.844 -0.1649  0.1132  0.1996
 1334SOL    HW115635   2.458   0.630   9.836  0.2793  2.3370 -0.6985
 1334SOL    HW215636   2.361   0.729   9.901  0.3443  1.1964 -1.2163
 1335SOL     OW15637   1.318   1.191   2.741  0.1244 -0.0287 -0.2054
 1335SOL    HW115638   1.280   1.262   2.689 -0.7595 -1.2061 -1.1597
 1335SOL    HW215639   1.330   1.122   2.676  0.5302 -0.6077  0.4842
 1336SOL     OW15640   0.468   2.248  16.139  0.2291 -0.0721  0.3746
 1336SOL    HW115641   0.437   2.288  16.220 -0.3830  1.9385 -0.8796
 1336SOL    HW215642   0.541   2.306  16.118  0.5746 -1.1950 -1.5081
 1337SOL     OW15643   2.548   2.572   6.903  0.3101  0.6816 -0.1282
 1337SOL    HW115644   2.600   2.644   6.938  2.0083  0.2215 -1.7008
 1337SOL    HW215645   2.611   2.529   6.845 -0.0251  0.5184 -0.3721
 1338SOL     OW15646   4.052   3.388  15.495  0.0760 -0.0592  0.0436
 1338SOL    HW115647   4.082   3.365  15.407  0.1881  1.3778 -0.3000
 1338SOL    HW215648   4.040   3.483  15.492  0.2126 -0.0812 -1.1563
 1339SOL     OW15649   4.448   2.943   9.030 -0.4906 -0.4396 -0.5289
 1339SOL    HW115650   4.443   2.847   9.034 -1.7243 -0.3375  0.3638
 1339SOL    HW215651   4.468   2.959   8.938  1.8967 -0.8133 -0.0715
 1340SOL     OW15652   4.200   2.704   1.885  0.1024  0.4186  0.0219
 1340SOL    HW115653   4.167   2.783   1.841  0.0569  0.5856  0.3556
 1340SOL    HW215654   4.129   2.645   1.859 -0.0231 -0.2206  1.8204
 1341SOL     OW15655   2.350   0.742   3.465  0.1735 -0.0876  0.0619
 1341SOL    HW115656   2.275   0.785   3.506 -1.7718 -2.0248 -1.4521
 1341SOL    HW215657   2.384   0.817   3.416  1.5115 -0.3492  0.5993
 1342SOL     OW15658   2.669   3.922  16.832  0.1114 -0.1055 -0.3058
 1342SOL    HW115659   2.690   3.897  16.922  1.4377 -0.4611 -0.7139
 1342SOL    HW215660   2.714   4.005  16.816 -0.6575  0.5321  0.8308
 1343SOL     OW15661   0.225   1.348   2.302 -0.6539 -0.6761  0.2899
 1343SOL    HW115662   0.310   1.330   2.341  0.1166  0.0836 -1.0406
 1343SOL    HW215663   0.173   1.349   2.383 -0.8088 -1.6611  0.1990
 1344SOL     OW15664   0.902   3.633   8.269 -0.4694 -0.2219  0.3752
 1344SOL    HW115665   0.977   3.690   8.286 -2.2891  2.5253 -0.7498
 1344SOL    HW215666   0.941   3.579   8.200 -1.6765 -0.1862 -0.3369
 1345SOL     OW15667   3.148   2.995  11.608  0.7411 -0.6555 -0.1374
 1345SOL    HW115668   3.095   3.022  11.533 -1.9674  0.2986  2.1140
 1345SOL    HW215669   3.223   2.974  11.553  1.0375  0.5127 -0.1899
 1346SOL     OW15670   0.588   2.053   4.859 -0.1108 -0.4039 -0.0160
 1346SOL    HW115671   0.528   2.033   4.788  1.3620  0.8623 -1.6224
 1346SOL    HW215672   0.664   2.085   4.810 -0.2175  3.0317  2.0304
 1347SOL     OW15673   2.456   0.460   1.962  0.1163 -0.0739 -0.1284
 1347SOL    HW115674   2.410   0.450   1.878  2.3274  0.9899 -1.4753
 1347SOL    HW215675   2.537   0.415   1.938  0.9420  1.0901  0.4695
 1348SOL     OW15676   0.076   2.885   3.802  0.2290 -0.4910  0.7203
 1348SOL    HW115677   0.129   2.820   3.757  0.4347  0.5809 -0.5802
 1348SOL    HW215678   0.042   2.835   3.876 -0.0842 -1.7275 -0.2763
 1349SOL     OW15679   2.781   1.617  10.985 -0.0800 -0.2319  0.2301
 1349SOL    HW115680   2.697   1.595  10.945  1.3080 -4.7612 -0.2310
 1349SOL    HW215681   2.755   1.699  11.026 -0.2834  0.2543 -0.8726
 1350SOL     OW15682   3.548   3.232   3.849  0.3312  0.4244  0.4279
 1350SOL    HW115683   3.535   3.291   3.924  2.0277  0.6579  0.5486
 1350SOL    HW215684   3.500   3.280   3.782 -1.0427  0.2838  1.3066
 1351SOL     OW15685   0.787   3.664  13.448 -0.0956  0.3636  0.4098
 1351SOL    HW115686   0.849   3.737  13.445  0.4006 -0.1367 -1.6947
 1351SOL    HW215687   0.705   3.713  13.445 -0.9740 -1.1088  0.4976
 1352SOL     OW15688   2.352   2.198   2.420  0.2319  0.1928 -0.0146
 1352SOL    HW115689   2.334   2.285   2.456  2.7807  0.3092  1.0325
 1352SOL    HW215690   2.438   2.185   2.461 -0.2884 -0.8245  0.7356
 1353SOL     OW15691   2.130   2.684   5.536 -0.3436 -0.6737  0.9572
 1353SOL    HW115692   2.056   2.632   5.567 -1.2595 -1.3242 -2.2747
 1353SOL    HW215693   2.083   2.758   5.497  0.6706  0.4785  1.9343
 1354SOL     OW15694   1.887   0.123   9.989 -0.3378  0.0820  0.4568
 1354SOL    HW115695   1.849   0.039  10.014 -0.1094 -0.7638 -2.0196
 1354SOL    HW215696   1.834   0.186  10.037 -0.0636  1.1077 -0.5701
 1355SOL     OW15697   3.355   2.531   8.890 -0.7254  0.0664 -0.0361
 1355SOL    HW115698   3.303   2.567   8.818 -0.3706  1.9881  0.6776
 1355SOL    HW215699   3.373   2.441   8.862 -2.5439 -0.1715 -0.4609
 1356SOL     OW15700   2.784   2.565   5.111  0.0979 -0.2046  0.0377
 1356SOL    HW115701   2.863   2.539   5.157 -0.3099 -0.1014  0.8082
 1356SOL    HW215702   2.785   2.659   5.133 -0.4400 -0.1575 -0.1208
 1357SOL     OW15703   0.602   2.099   3.874  0.5351 -0.1751 -0.8403
 1357SOL    HW115704   0.603   2.047   3.793  1.6087 -0.1990 -0.8092
 1357SOL    HW215705   0.685   2.147   3.867 -0.3443  1.4658  0.1380
 1358SOL     OW15706   1.501   1.865  10.445 -0.4926 -0.6593  0.1451
 1358SOL    HW115707   1.554   1.935  10.407  0.1765 -1.6587 -0.7570
 1358SOL    HW215708   1.429   1.878  10.384 -0.1870 -1.4209 -0.3782
 1359SOL     OW15709   3.073   4.181   4.942 -0.4890 -0.1469 -0.1025
 1359SOL    HW115710   3.138   4.209   4.878 -0.3159 -1.3082 -0.4214
 1359SOL    HW215711   3.098   4.241   5.013  4.3748 -1.5348 -0.6420
 1360SOL     OW15712   2.225   4.547  13.334 -0.0220  0.1635  0.1575
 1360SOL    HW115713   2.230   4.564  13.240  2.1763 -0.2589  0.1824
 1360SOL    HW215714   2.131   4.545  13.348  0.2678  0.6479  2.2644
 1361SOL     OW15715   3.343   0.484   4.063  0.2559  0.6485 -0.3011
 1361SOL    HW115716   3.337   0.408   4.121  1.1686  0.1370 -0.8657
 1361SOL    HW215717   3.278   0.540   4.105  0.2561 -0.3556  1.0243
 1362SOL     OW15718   1.936   4.005  14.116 -0.0367  0.4082  0.0035
 1362SOL    HW115719   1.956   3.912  14.109 -3.1322 -0.4710  2.8445
 1362SOL    HW215720   2.018   4.031  14.158 -0.5241  2.8527 -0.5560
 1363SOL     OW15721   4.552   1.678   4.335 -0.3981 -0.1055 -0.4009
 1363SOL    HW115722   4.494   1.656   4.407 -0.3829  3.3475  0.6642
 1363SOL    HW215723   4.490   1.658   4.265 -0.0141 -0.3935 -0.6577
 1364SOL     OW15724   0.794   1.589   6.351  0.3770 -0.3245  0.5914
 1364SOL    HW115725   0.802   1.518   6.288  1.7100  0.7333 -0.4395
 1364SOL    HW215726   0.754   1.533   6.417 -1.5874 -0.2506 -0.5503
 1365SOL     OW15727   2.541   1.449   6.157 -0.1169 -0.1490 -0.5642
 1365SOL    HW115728   2.517   1.526   6.209  1.8992 -0.6398  1.0495
 1365SOL    HW215729   2.502   1.472   6.072 -0.5425  0.5200 -0.1839
 1366SOL     OW15730   3.807   4.536   8.604 -0.7258 -0.2380 -0.1218
 1366SOL    HW115731   3.757   4.478   8.547 -1.8920 -0.8047  1.4682
 1366SOL    HW215732   3.896   4.520   8.575 -1.2588  0.4863 -2.1838
 1367SOL     OW15733   1.261   0.551  16.373  0.2099  0.7289  0.2344
 1367SOL    HW115734   1.344   0.592  16.349  0.2932  0.3078 -0.2081
 1367SOL    HW215735   1.207   0.556  16.294  1.1084 -1.3387 -0.4974
 1368SOL     OW15736   3.512   4.682   1.347 -0.5966  0.7656  0.5055
 1368SOL    HW115737   3.445   4.703   1.413  0.5009  5.0660  0.3018
 1368SOL    HW215738   3.487   4.592   1.328 -0.5998  1.0423 -0.7800
 1369SOL     OW15739   1.941   2.961   7.929  0.6527  0.1360 -0.0878
 1369SOL    HW115740   1.854   2.954   7.888  0.4127  4.0664 -0.2330
 1369SOL    HW215741   1.992   2.900   7.875  0.5160 -0.2391  0.2108
 1370SOL     OW15742   2.940   2.232   4.446 -0.1599  0.0428 -0.1690
 1370SOL    HW115743   2.891   2.231   4.364  1.5104  0.8534 -1.1770
 1370SOL    HW215744   2.995   2.306   4.422  3.4437 -2.2585  1.0639
 1371SOL     OW15745   2.760   3.377   9.807  0.7499 -0.1309 -0.3981
 1371SOL    HW115746   2.793   3.288   9.820  0.6746 -0.2960 -1.3983
 1371SOL    HW215747   2.800   3.388   9.721 -0.7928 -3.7285 -1.5981
 1372SOL     OW15748   2.934   4.380   2.896 -0.3663  0.5058 -0.4623
 1372SOL    HW115749   2.887   4.344   2.971  0.5430  2.9127  1.2433
 1372SOL    HW215750   2.914   4.473   2.903  0.3539  0.8203 -2.5327
 1373SOL     OW15751   1.317   1.169   4.537 -0.1089 -0.3107 -0.3485
 1373SOL    HW115752   1.379   1.100   4.557  1.4481  0.7793 -1.3650
 1373SOL    HW215753   1.364   1.244   4.498  0.8584 -0.1371  1.1552
 1374SOL     OW15754   3.885   2.217   5.966  0.1958 -0.7304  0.3837
 1374SOL    HW115755   3.966   2.227   6.016  1.5215 -0.2103 -1.8687
 1374SOL    HW215756   3.843   2.149   6.019 -0.0387 -0.1030  1.0133
 1375SOL     OW15757   0.871   0.837   8.127 -0.3406 -0.5050 -0.2909
 1375SOL    HW115758   0.951   0.847   8.076 -1.0691 -0.6385 -1.4430
 1375SOL    HW215759   0.909   0.839   8.215 -2.0806  0.4699  0.4375
 1376SOL     OW15760   1.896   2.052  16.559  0.5340  0.1933 -0.1339
 1376SOL    HW115761   1.889   2.136  16.604  0.0286 -0.2932  0.6933
 1376SOL    HW215762   1.985   2.054  16.524 -0.2211 -0.5087 -2.0816
 1377SOL     OW15763   1.179   2.236   5.400  0.4166  0.1075  0.1684
 1377SOL    HW115764   1.221   2.228   5.315 -3.2072 -0.9667 -1.4805
 1377SOL    HW215765   1.124   2.311   5.378  0.4273 -0.0370 -0.3473
 1378SOL     OW15766   2.047   3.945   7.008 -0.4032  0.0433  0.0221
 1378SOL    HW115767   2.008   4.033   7.002  1.8555  1.1858  1.9413
 1378SOL    HW215768   2.056   3.915   6.918 -1.3937 -1.1757  0.3349
 1379SOL     OW15769   3.755   4.643   8.839  0.0657  0.1732  0.0350
 1379SOL    HW115770   3.758   4.556   8.878  1.3080 -0.2546 -1.0111
 1379SOL    HW215771   3.778   4.617   8.750 -1.2738  0.8088 -0.5031
 1380SOL     OW15772   3.274   3.284   4.393 -0.0844 -0.5824  0.3087
 1380SOL    HW115773   3.215   3.209   4.400 -1.3083  0.5780  2.6537
 1380SOL    HW215774   3.353   3.238   4.421  0.7795  0.9841  0.4775
 1381SOL     OW15775   1.579   1.947   8.646 -0.2461  0.4861 -0.0816
 1381SOL    HW115776   1.585   1.978   8.556  2.5024  0.7553  0.2077
 1381SOL    HW215777   1.663   1.957   8.692  0.9877 -1.0963 -2.0202
 1382SOL     OW15778   1.970   0.543   2.310  0.2670 -0.0230 -0.7595
 1382SOL    HW115779   1.905   0.550   2.240 -1.2335  0.6384  0.7163
 1382SOL    HW215780   2.004   0.632   2.320  0.6277 -0.0906 -1.3471
 1383SOL     OW15781   1.396   4.668   8.333  0.3074  0.4249 -0.3444
 1383SOL    HW115782   1.398   4.580   8.294  0.6198 -0.4848  1.7016
 1383SOL    HW215783   1.482   4.703   8.308  0.6279  0.6995  1.1229
 1384SOL     OW15784   0.600   0.925  11.917  0.1960  0.3977  0.0916
 1384SOL    HW115785   0.530   0.930  11.851  1.3120  1.7164 -0.9915
 1384SOL    HW215786   0.678   0.961  11.875 -0.7642  1.4711 -0.7770
 1385SOL     OW15787   1.167   3.956  13.532  0.0619  0.0632 -0.4377
 1385SOL    HW115788   1.243   4.004  13.565 -1.0238  1.0498  0.5930
 1385SOL    HW215789   1.161   3.888  13.598  2.7908 -0.5415 -0.7883
 1386SOL     OW15790   0.266   0.648   7.420  0.6082  0.2048 -0.8283
 1386SOL    HW115791   0.209   0.656   7.496 -0.4938 -2.9347 -1.3416
 1386SOL    HW215792   0.212   0.685   7.351 -0.7788  2.9902  1.7542
 1387SOL     OW15793   2.686   0.245   5.835 -0.4816 -0.1897  0.1382
 1387SOL    HW115794   2.616   0.246   5.900  0.4638 -0.2409  1.1642
 1387SOL    HW215795   2.701   0.152   5.818 -0.3213 -0.3533  1.1700
 1388SOL     OW15796   4.618   4.412   1.372  0.2507  0.1583 -0.3209
 1388SOL    HW115797   4.643   4.357   1.446  0.4031 -0.9547 -1.1997
 1388SOL    HW215798   4.687   4.415   1.305  1.2041  0.5942  0.6886
 1389SOL     OW15799   0.211   3.639   4.080  0.1708 -0.0996 -0.3775
 1389SOL    HW115800   0.125   3.681   4.085  0.3641  0.0975  1.1834
 1389SOL    HW215801   0.273   3.711   4.087  1.8372 -1.6084  0.1825
 1390SOL     OW15802   2.496   2.577   8.632 -0.1805  0.7794 -0.0623
 1390SOL    HW115803   2.591   2.565   8.632 -0.2202  0.4551  0.4701
 1390SOL    HW215804   2.465   2.488   8.613  1.4477  0.1266  0.3452
 1391SOL     OW15805   2.493   3.917   5.392 -0.3144  0.0820  0.1060
 1391SOL    HW115806   2.532   3.844   5.344  2.8038  0.5493  1.9561
 1391SOL    HW215807   2.469   3.876   5.475  0.5025  1.2430  0.9191
 1392SOL     OW15808   1.718   2.260   5.689 -0.4814  0.3678 -0.2063
 1392SOL    HW115809   1.640   2.209   5.710 -0.1070 -0.0076  0.2779
 1392SOL    HW215810   1.755   2.289   5.773 -3.1627  0.9025  0.7872
 1393SOL     OW15811   3.252   0.909   4.581  0.1428  0.1614  0.8016
 1393SOL    HW115812   3.222   0.936   4.494 -0.2876  1.1328  1.2488
 1393SOL    HW215813   3.179   0.911   4.643  0.0561  1.6874  0.6673
 1394SOL     OW15814   3.830   0.780   8.873  0.3572 -0.1059  0.1162
 1394SOL    HW115815   3.810   0.867   8.838 -0.7183 -0.4414 -0.0805
 1394SOL    HW215816   3.904   0.796   8.932  0.1095  0.6401  0.2206
 1395SOL     OW15817   4.020   2.349   8.780 -0.5352  0.1242 -0.0362
 1395SOL    HW115818   4.113   2.337   8.758 -0.5715  0.4029 -0.3449
 1395SOL    HW215819   4.032   2.379   8.870  0.9268 -0.4134 -0.0428
 1396SOL     OW15820   3.034   2.924   6.836 -0.3315  0.7321  0.4087
 1396SOL    HW115821   3.051   2.904   6.744 -0.0708  0.0729  0.6033
 1396SOL    HW215822   3.092   2.999   6.847 -1.4532  1.7617 -0.7854
 1397SOL     OW15823   3.449   1.356   6.591 -0.3110  0.5846 -0.3589
 1397SOL    HW115824   3.497   1.437   6.574 -0.3094  0.0829 -2.8009
 1397SOL    HW215825   3.485   1.345   6.679 -0.3029 -0.2786 -0.4654
 1398SOL     OW15826   2.196   2.785   2.807  0.5444 -0.1479 -0.3791
 1398SOL    HW115827   2.133   2.737   2.860  0.5398 -1.4760 -1.5673
 1398SOL    HW215828   2.191   2.728   2.730  1.9225  0.0664 -0.6237
 1399SOL     OW15829   0.268   1.732   8.457 -0.3707  0.1008 -0.0277
 1399SOL    HW115830   0.251   1.683   8.537  2.5906 -1.4820 -0.3585
 1399SOL    HW215831   0.213   1.809   8.466 -1.1255 -0.6022  1.2896
 1400SOL     OW15832   3.639   2.219  14.022 -0.3496  0.1983 -0.1627
 1400SOL    HW115833   3.679   2.241  14.106  2.3500  1.1542 -1.7183
 1400SOL    HW215834   3.669   2.295  13.973 -0.2192 -0.8432 -1.7268
 1401SOL     OW15835   3.029   0.410   4.284 -0.0818 -0.2032 -0.1386
 1401SOL    HW115836   3.071   0.494   4.271 -0.5471  0.0698  0.1155
 1401SOL    HW215837   3.015   0.377   4.195 -0.4677  0.1410 -0.2033
 1402SOL     OW15838   4.013   0.249   9.240 -0.4138 -0.6956  0.1135
 1402SOL    HW115839   4.056   0.207   9.166 -1.4149 -3.0176  0.8419
 1402SOL    HW215840   4.093   0.277   9.283 -1.0147  1.4961 -0.1727
 1403SOL     OW15841   1.157   0.718   3.227 -0.3582 -0.0775 -0.3591
 1403SOL    HW115842   1.235   0.762   3.195 -0.9371 -0.7160 -2.6403
 1403SOL    HW215843   1.182   0.707   3.319 -2.3624 -1.7364  0.0108
 1404SOL     OW15844   1.906   3.469  12.521  0.3199  0.1298  0.0536
 1404SOL    HW115845   1.987   3.427  12.549  1.4370  3.5703  2.0718
 1404SOL    HW215846   1.901   3.531  12.594 -0.0688  0.2094 -0.0418
 1405SOL     OW15847   1.726   1.215   2.504 -0.3090  0.3170  0.1414
 1405SOL    HW115848   1.650   1.167   2.534 -0.7133  1.3861  0.8187
 1405SOL    HW215849   1.727   1.178   2.415 -1.3200 -0.3637  0.4143
 1406SOL     OW15850   0.101   1.511   6.880  0.1986  0.2343  0.3513
 1406SOL    HW115851   0.083   1.604   6.890  0.2469  0.3031 -0.2094
 1406SOL    HW215852   0.113   1.485   6.971  1.9747  2.3343  0.7157
 1407SOL     OW15853   3.778   3.975  16.832 -0.3597  0.4605  0.1428
 1407SOL    HW115854   3.795   3.974  16.926  0.9840  1.0237 -0.0917
 1407SOL    HW215855   3.831   4.046  16.795  0.5367  1.6928  3.7752
 1408SOL     OW15856   4.499   3.670   8.904 -0.4952  0.7029 -0.3190
 1408SOL    HW115857   4.576   3.726   8.916  0.0091 -0.1002  0.1844
 1408SOL    HW215858   4.452   3.695   8.984 -1.5839  1.6659 -1.2595
 1409SOL     OW15859   3.213   2.145  11.678  0.5620 -0.3950  0.5253
 1409SOL    HW115860   3.199   2.051  11.673  0.6069 -0.3776  0.0987
 1409SOL    HW215861   3.209   2.155  11.773  1.8098  1.1843  0.4193
 1410SOL     OW15862   0.444   1.058  11.436  0.5704 -0.9574 -0.9031
 1410SOL    HW115863   0.533   1.087  11.451  0.7930 -2.0520 -0.1694
 1410SOL    HW215864   0.463   0.973  11.396 -0.1741 -1.5267 -0.0594
 1411SOL     OW15865   4.666   3.006   9.474 -0.5743 -0.1096 -0.0888
 1411SOL    HW115866   4.680   2.917   9.444 -0.5218  0.0831 -0.6300
 1411SOL    HW215867   4.618   3.043   9.401 -0.3335 -0.9409 -0.6662
 1412SOL     OW15868   3.765   3.749   9.478 -0.6706 -0.3767  0.0641
 1412SOL    HW115869   3.753   3.674   9.421 -1.9992  0.2195 -0.4434
 1412SOL    HW215870   3.697   3.807   9.443 -0.2679  1.0903  1.7051
 1413SOL     OW15871   3.803   4.051   2.827  0.3711  0.4849 -0.4043
 1413SOL    HW115872   3.816   3.963   2.860  0.8973  0.2906 -1.1299
 1413SOL    HW215873   3.774   4.093   2.908  2.1647  0.0165  0.4785
 1414SOL     OW15874   4.610   0.877   5.399  0.3071  1.0301 -0.3376
 1414SOL    HW115875   4.586   0.807   5.460  0.2946  0.7363 -0.6869
 1414SOL    HW215876   4.677   0.826   5.354 -2.7316 -1.8637 -1.6053
 1415SOL     OW15877   4.412   0.225   4.864  0.4394  0.9760 -0.1485
 1415SOL    HW115878   4.418   0.321   4.863 -1.2423  1.0623 -1.9378
 1415SOL    HW215879   4.381   0.209   4.775 -0.9244  0.5942  0.3946
 1416SOL     OW15880   0.469   3.395   3.238 -0.0318  0.1196 -0.1669
 1416SOL    HW115881   0.506   3.309   3.258 -0.4345  0.3538  1.5906
 1416SOL    HW215882   0.498   3.414   3.149 -1.0492  0.2784 -0.4625
 1417SOL     OW15883   1.840   3.837  17.012 -0.3177  0.0236 -0.1981
 1417SOL    HW115884   1.836   3.796  16.925 -0.1668 -2.5789  1.0095
 1417SOL    HW215885   1.749   3.836  17.042 -0.8980  1.8801 -1.9014
 1418SOL     OW15886   3.319   3.374   9.058  0.1150 -0.3237 -0.0854
 1418SOL    HW115887   3.360   3.289   9.079  2.0013  1.1336  2.1649
 1418SOL    HW215888   3.353   3.380   8.969 -1.1485 -2.3318 -0.7165
 1419SOL     OW15889   2.659   4.502   3.217  0.3329 -0.4658 -0.2470
 1419SOL    HW115890   2.584   4.460   3.176  0.2432  0.4422 -1.0043
 1419SOL    HW215891   2.650   4.596   3.200  0.7100 -0.4362 -0.3030
 1420SOL     OW15892   2.683   2.372   5.965 -0.0343  0.5126  0.3546
 1420SOL    HW115893   2.770   2.359   6.003 -0.0966  1.1154  0.6897
 1420SOL    HW215894   2.644   2.322   6.036 -0.5809 -0.4667 -0.6191
 1421SOL     OW15895   3.438   1.527   5.495  0.4830  0.1603  0.5194
 1421SOL    HW115896   3.360   1.574   5.522 -1.3453 -2.3141 -0.5045
 1421SOL    HW215897   3.418   1.490   5.409 -0.7796 -0.6715  1.1615
 1422SOL     OW15898   3.813   0.886  12.594 -0.1773  0.2185  0.4654
 1422SOL    HW115899   3.821   0.793  12.615  0.2980 -0.1929 -1.4898
 1422SOL    HW215900   3.850   0.938  12.666 -1.2673  0.7274  0.6577
 1423SOL     OW15901   1.425   1.679   4.456 -0.1710 -0.0924 -0.0661
 1423SOL    HW115902   1.464   1.740   4.394  1.9882 -1.2641  0.1553
 1423SOL    HW215903   1.434   1.729   4.538 -1.1934 -1.3772  0.8281
 1424SOL     OW15904   3.978   1.758   4.798  0.9185 -0.3680  0.1648
 1424SOL    HW115905   3.967   1.758   4.893  0.7668  1.5868  0.1509
 1424SOL    HW215906   4.002   1.849   4.780 -1.5078  0.3579  0.6031
 1425SOL     OW15907   2.780   0.926   3.231 -0.0704 -0.8309 -0.3781
 1425SOL    HW115908   2.830   1.002   3.202 -0.5959 -0.0345  0.8181
 1425SOL    HW215909   2.804   0.849   3.180  2.1723  0.6027 -1.4622
 1426SOL     OW15910   3.300   3.762   5.851 -0.1735  0.3477  0.2756
 1426SOL    HW115911   3.366   3.710   5.807 -2.6980 -2.0994 -0.5987
 1426SOL    HW215912   3.349   3.796   5.926 -1.0687  3.7435 -0.6753
 1427SOL     OW15913   3.320   2.790  10.616 -0.2484 -0.2030  0.8011
 1427SOL    HW115914   3.263   2.843  10.560  0.1187  0.6352  1.2185
 1427SOL    HW215915   3.253   2.733  10.653 -0.4934 -1.4832 -1.6771
 1428SOL     OW15916   3.933   3.391   8.058  0.3808  0.1422  0.9780
 1428SOL    HW115917   3.912   3.368   8.148  1.0918  1.0027  1.3680
 1428SOL    HW215918   3.987   3.316   8.034  0.7659  0.9759 -0.7903
 1429SOL     OW15919   3.311   0.574   5.185 -0.3576  0.6879 -0.2953
 1429SOL    HW115920   3.314   0.478   5.183 -0.9231  0.6772 -0.5149
 1429SOL    HW215921   3.285   0.589   5.275  1.9282  0.2902  0.4389
 1430SOL     OW15922   3.981   4.601   8.233  0.3985 -0.0716  0.1663
 1430SOL    HW115923   3.947   4.686   8.206  1.3397 -0.5534 -2.5059
 1430SOL    HW215924   3.908   4.540   8.222 -1.3010  1.9386  0.3720
 1431SOL     OW15925   4.538   2.135  15.170 -0.2054  1.2510  0.4460
 1431SOL    HW115926   4.451   2.174  15.185 -0.7360  1.7461 -3.9918
 1431SOL    HW215927   4.513   2.046  15.195  2.6024 -0.4875 -2.9293
 1432SOL     OW15928   3.697   1.585   3.452 -0.2158 -0.5843  0.4566
 1432SOL    HW115929   3.726   1.509   3.502 -1.7778 -0.8600  0.9403
 1432SOL    HW215930   3.613   1.611   3.491 -0.1005  1.6024 -0.7486
 1433SOL     OW15931   3.929   3.658   2.603  0.3100  0.3167  0.0372
 1433SOL    HW115932   3.890   3.578   2.636  2.2879  0.0252  1.6693
 1433SOL    HW215933   4.021   3.629   2.602 -0.4427 -2.0311 -0.4880
 1434SOL     OW15934   0.226   3.091   0.619  0.0522 -0.5157 -0.0036
 1434SOL    HW115935   0.184   3.066   0.537 -1.4858 -0.8798  0.8845
 1434SOL    HW215936   0.275   3.171   0.600  0.3247 -0.8360 -0.6483
 1435SOL     OW15937   1.432   0.078   3.453 -0.7139  0.1784 -0.4538
 1435SOL    HW115938   1.487   0.069   3.531 -0.1098  0.6886 -0.8225
 1435SOL    HW215939   1.393   0.165   3.464 -1.9612 -0.5801  1.1935
 1436SOL     OW15940   2.484   1.928   5.901  0.5211 -0.4079  0.1166
 1436SOL    HW115941   2.391   1.904   5.902  0.6570 -0.9618 -0.5231
 1436SOL    HW215942   2.488   1.941   5.806  1.6022 -0.5251  0.1522
 1437SOL     OW15943   2.957   2.710   3.465 -0.4949  0.0011  0.3975
 1437SOL    HW115944   2.868   2.677   3.482  0.2490 -2.7021 -0.9804
 1437SOL    HW215945   2.974   2.695   3.372 -3.1871  0.0942 -0.1109
 1438SOL     OW15946   4.153   0.368  16.743  0.0545  0.2342  0.1150
 1438SOL    HW115947   4.166   0.314  16.665  0.7303  1.2975 -0.5227
 1438SOL    HW215948   4.165   0.309  16.817 -1.0716 -2.4958 -1.9059
 1439SOL     OW15949   1.942   4.159   7.262 -0.0397 -0.3627 -0.2338
 1439SOL    HW115950   1.907   4.070   7.251 -0.8833  0.0038 -0.4670
 1439SOL    HW215951   2.035   4.139   7.258  0.1387  0.0615  1.9890
 1440SOL     OW15952   3.837   2.434   2.422 -0.0086  0.5268  0.1781
 1440SOL    HW115953   3.853   2.391   2.506  1.1475 -0.5172 -0.5717
 1440SOL    HW215954   3.776   2.372   2.382  2.2025 -3.2231  2.6490
 1441SOL     OW15955   2.293   4.482  11.064 -0.4469 -0.1043 -0.4906
 1441SOL    HW115956   2.305   4.552  11.000 -0.7566 -0.2890 -0.7548
 1441SOL    HW215957   2.257   4.413  11.007  0.4078 -0.5037 -0.5553
 1442SOL     OW15958   3.424   4.022   3.061  0.2243  0.1178 -0.3106
 1442SOL    HW115959   3.337   3.995   3.088 -0.5314  1.7487 -1.0896
 1442SOL    HW215960   3.468   3.937   3.069  0.6699  0.3390 -0.4009
 1443SOL     OW15961   2.352   1.281   9.690 -0.1401 -0.0856 -0.2094
 1443SOL    HW115962   2.336   1.186   9.692  0.8771 -0.2538 -0.2382
 1443SOL    HW215963   2.274   1.331   9.666  0.6683  1.5057  0.5094
 1444SOL     OW15964   1.510   2.009   0.605  0.2115 -0.4935  0.1332
 1444SOL    HW115965   1.437   1.951   0.582 -1.1757  0.6620  1.5838
 1444SOL    HW215966   1.582   1.946   0.608 -0.8273 -1.6391  0.8582
 1445SOL     OW15967   2.225   2.977   2.447  0.5474 -0.2154 -0.0912
 1445SOL    HW115968   2.217   2.884   2.427  1.9436 -0.2539 -0.4752
 1445SOL    HW215969   2.141   2.986   2.492  1.2338  0.5241  1.0315
 1446SOL     OW15970   3.707   0.560   6.372  0.1533  0.3148 -0.5147
 1446SOL    HW115971   3.676   0.509   6.298 -2.6823  2.4142 -0.7558
 1446SOL    HW215972   3.626   0.604   6.396  0.5787 -0.1007  1.6838
 1447SOL     OW15973   0.611   3.901   1.562  0.1866 -0.0883  0.2453
 1447SOL    HW115974   0.634   3.864   1.647 -2.8390 -0.5943  0.8444
 1447SOL    HW215975   0.689   3.949   1.536  1.0404 -1.2156  0.7368
 1448SOL     OW15976   2.226   0.999   8.605 -0.2183 -0.4915  0.2412
 1448SOL    HW115977   2.188   0.911   8.612 -2.3620  0.3982 -0.3786
 1448SOL    HW215978   2.149   1.048   8.578  1.0577  0.8431 -1.0029
 1449SOL     OW15979   2.692   2.671   3.234  0.3819  0.4479 -0.6521
 1449SOL    HW115980   2.618   2.724   3.203  1.0373  1.0904 -1.1235
 1449SOL    HW215981   2.640   2.595   3.258 -1.4094  2.1602  0.9673
 1450SOL     OW15982   1.670   3.220   5.563 -0.1507  0.1602  0.4456
 1450SOL    HW115983   1.653   3.227   5.657  0.4532  4.1845  0.2757
 1450SOL    HW215984   1.752   3.269   5.575  0.6465 -0.9310 -0.5883
 1451SOL     OW15985   4.012   0.837  16.708 -0.4563  0.4533  0.2167
 1451SOL    HW115986   4.078   0.808  16.644 -1.3043  0.4573 -0.6641
 1451SOL    HW215987   4.007   0.931  16.693 -0.8983  0.0466 -2.1862
 1452SOL     OW15988   2.348   4.300   7.650  0.7527 -0.0829  0.2804
 1452SOL    HW115989   2.293   4.314   7.727  0.0867  1.0493 -0.4066
 1452SOL    HW215990   2.336   4.205   7.646 -3.0063  0.5312 -2.2188
 1453SOL     OW15991   4.361   3.276   6.333 -0.6282  0.2941 -0.2447
 1453SOL    HW115992   4.359   3.199   6.390  1.0629  1.5858  1.5558
 1453SOL    HW215993   4.344   3.341   6.402 -1.6876  0.9641 -1.1446
 1454SOL     OW15994   0.525   3.503   2.994 -0.1911  0.1442 -0.0303
 1454SOL    HW115995   0.545   3.452   2.915  1.0059 -0.9586  0.9830
 1454SOL    HW215996   0.450   3.551   2.957  0.3786  0.1493 -1.1670
 1455SOL     OW15997   3.604   1.406   8.994 -0.2152  0.5778  0.4914
 1455SOL    HW115998   3.600   1.311   9.002  0.1075  0.3696 -1.9978
 1455SOL    HW215999   3.511   1.422   9.010 -0.0904  0.5584  1.2433
 1456SOL     OW16000   4.006   0.864   1.257  0.7848 -0.5641 -0.5294
 1456SOL    HW116001   4.038   0.953   1.271  2.3853 -1.3115  0.5888
 1456SOL    HW216002   3.932   0.869   1.317  3.0481  1.0117  2.1115
 1457SOL     OW16003   1.970   2.297   4.428  0.7718  0.3426  0.1352
 1457SOL    HW116004   1.974   2.227   4.493  0.5048 -0.0337 -0.2568
 1457SOL    HW216005   2.027   2.357   4.477  0.9389 -0.2178  0.6235
 1458SOL     OW16006   1.911   1.506   2.999  0.3077  0.0494  0.1997
 1458SOL    HW116007   1.837   1.538   2.948  0.6869  0.3319 -0.1705
 1458SOL    HW216008   1.870   1.468   3.077 -0.7211  0.7365 -0.0066
 1459SOL     OW16009   2.053   2.958   4.539  0.2770 -0.7795 -0.2636
 1459SOL    HW116010   2.047   3.042   4.585 -1.7676 -0.6164 -0.8036
 1459SOL    HW216011   1.982   2.961   4.474  1.4522  0.3407 -1.5177
 1460SOL     OW16012   0.250   2.483  14.484 -0.2345 -0.4265 -0.5316
 1460SOL    HW116013   0.219   2.548  14.421  1.9273  0.7981 -0.3320
 1460SOL    HW216014   0.239   2.400  14.438 -2.5528 -0.0634 -0.6290
 1461SOL     OW16015   1.669   4.233   2.456  0.1182  0.0706 -0.0442
 1461SOL    HW116016   1.575   4.245   2.441  0.5578  1.6034 -1.5450
 1461SOL    HW216017   1.657   4.241   2.551 -1.3719 -0.4861 -0.1843
 1462SOL     OW16018   3.912   2.844   2.187  0.1949  0.5383 -1.2749
 1462SOL    HW116019   3.977   2.791   2.235  1.4440  2.0236 -1.3378
 1462SOL    HW216020   3.881   2.891   2.264  0.9279  0.4347 -0.9123
 1463SOL     OW16021   1.038   0.812   2.373  0.3077  0.3982 -0.0851
 1463SOL    HW116022   0.974   0.741   2.380  2.1668 -1.3702 -0.8559
 1463SOL    HW216023   1.034   0.853   2.459  3.1832  0.0971  0.1995
 1464SOL     OW16024   0.010   3.743   3.338  0.3726 -0.1089 -0.4613
 1464SOL    HW116025   0.038   3.677   3.274  0.5397 -0.4417 -0.0446
 1464SOL    HW216026   4.727   3.688   3.414 -0.0365 -0.7835 -1.0562
 1465SOL     OW16027   3.399   2.648   5.779 -0.2232 -0.1259  0.0556
 1465SOL    HW116028   3.359   2.619   5.697 -0.5261 -1.4564  0.6660
 1465SOL    HW216029   3.392   2.743   5.772  0.6216 -0.1114 -0.6871
 1466SOL     OW16030   3.529   0.487   9.950  0.1977 -0.0153  0.6687
 1466SOL    HW116031   3.439   0.495   9.982  0.5454 -0.3361  1.7146
 1466SOL    HW216032   3.572   0.416   9.998  0.5410 -0.5692 -0.4457
 1467SOL     OW16033   4.293   4.051  10.623  0.0600 -0.1661 -0.4136
 1467SOL    HW116034   4.279   4.085  10.712  1.8295 -0.9897  0.1721
 1467SOL    HW216035   4.346   3.972  10.631 -0.0256 -0.0613  1.2899
 1468SOL     OW16036   3.570   2.297   3.201 -0.1446  0.0974 -0.3442
 1468SOL    HW116037   3.519   2.319   3.123 -0.0232 -0.0154 -0.4555
 1468SOL    HW216038   3.498   2.273   3.259 -1.1341  1.3622 -1.0537
 1469SOL     OW16039   3.061   4.577   2.617 -0.2183  0.0216  0.2159
 1469SOL    HW116040   3.110   4.632   2.679 -0.8089  0.2726  0.4652
 1469SOL    HW216041   3.132   4.549   2.559  1.3747  1.3983  1.5036
 1470SOL     OW16042   1.555   3.938  16.829  0.4880 -0.5368  0.7370
 1470SOL    HW116043   1.460   3.942  16.815  0.1796 -1.7305  2.4992
 1470SOL    HW216044   1.575   4.030  16.848 -0.4976  0.3049 -2.2287
 1471SOL     OW16045   0.307   4.594   3.665 -0.0031  0.2962  0.0731
 1471SOL    HW116046   0.242   4.602   3.735  1.7515 -0.8345  1.8277
 1471SOL    HW216047   0.333   4.503   3.680  3.4994  1.5867  1.7748
 1472SOL     OW16048   0.877   3.608   7.431  0.0652 -0.0562  0.2442
 1472SOL    HW116049   0.787   3.607   7.464 -0.5105 -0.9964 -1.3367
 1472SOL    HW216050   0.912   3.531   7.475 -0.8796 -1.0462 -0.7381
 1473SOL     OW16051   0.531   0.660   7.448  0.1396 -0.5541  0.2748
 1473SOL    HW116052   0.516   0.750   7.477 -0.0042 -0.0168 -1.5114
 1473SOL    HW216053   0.442   0.628   7.440  0.5340 -1.7894  0.8264
 1474SOL     OW16054   1.741   4.267  12.297  0.0912  0.0093  0.0713
 1474SOL    HW116055   1.743   4.250  12.392 -0.5962 -0.0716  0.0741
 1474SOL    HW216056   1.667   4.328  12.290 -0.4783 -0.8622 -1.5200
 1475SOL     OW16057   2.753   1.184   9.269  0.4767  0.0229 -0.2324
 1475SOL    HW116058   2.835   1.178   9.318 -0.1721 -3.2301  0.3998
 1475SOL    HW216059   2.782   1.129   9.196 -0.9143 -0.9873 -0.0205
 1476SOL     OW16060   0.751   1.758   2.324  0.2753  0.2377  0.3352
 1476SOL    HW116061   0.778   1.666   2.329  0.0004  0.0546 -1.5473
 1476SOL    HW216062   0.658   1.745   2.341  0.2506 -0.2792 -0.1858
 1477SOL     OW16063   4.013   4.677   2.026 -0.2685  0.0183  0.0754
 1477SOL    HW116064   3.989   4.598   2.074  1.2127 -1.0715 -0.9830
 1477SOL    HW216065   4.108   4.671   2.025 -0.2436  0.3841  0.2788
 1478SOL     OW16066   0.261   0.348  14.081 -0.1673 -1.1413  0.0105
 1478SOL    HW116067   0.215   0.427  14.108 -1.6370 -2.4159  1.2208
 1478SOL    HW216068   0.204   0.287  14.128  0.6664 -1.2752  0.8299
 1479SOL     OW16069   3.670   3.494   4.897 -0.0195  0.1177 -0.4750
 1479SOL    HW116070   3.740   3.549   4.862 -1.7514  3.3967  1.1923
 1479SOL    HW216071   3.707   3.407   4.881  1.7596  1.2659 -2.4857
 1480SOL     OW16072   1.271   3.810   3.589 -0.3380  0.6086  1.0550
 1480SOL    HW116073   1.331   3.739   3.564 -0.0671  1.1142  0.2687
 1480SOL    HW216074   1.271   3.868   3.514  2.0330  1.8339  1.9811
 1481SOL     OW16075   1.777   3.560   8.115  0.5299 -0.2876 -0.2318
 1481SOL    HW116076   1.735   3.634   8.159 -0.1227 -2.1225  2.2231
 1481SOL    HW216077   1.710   3.501   8.150  0.8067 -0.0067  0.7535
 1482SOL     OW16078   0.030   0.960   8.275 -0.3344 -0.1133 -0.2436
 1482SOL    HW116079   0.066   1.048   8.265 -1.5193  0.5969  1.9299
 1482SOL    HW216080   0.112   0.922   8.307  0.2432  0.6891 -0.7401
 1483SOL     OW16081   1.307   1.888   7.900 -0.6373  0.3240 -0.1254
 1483SOL    HW116082   1.267   1.812   7.944  0.8433 -0.3471  0.0414
 1483SOL    HW216083   1.251   1.895   7.823 -1.2695  0.7444  0.3611
 1484SOL     OW16084   0.998   2.728   0.171 -0.2893  0.1707 -0.1484
 1484SOL    HW116085   0.999   2.662   0.241 -0.1123 -0.6370 -0.9139
 1484SOL    HW216086   0.938   2.689   0.107 -1.1196  0.1471  0.6350
 1485SOL     OW16087   1.560   1.036   0.157 -0.1332 -1.0615  0.2269
 1485SOL    HW116088   1.537   1.011   0.246  2.4207  0.1678  1.2441
 1485SOL    HW216089   1.524   1.125   0.164  1.5132 -0.2968 -0.9378
 1486SOL     OW16090   2.294   0.611   2.144  0.0571  0.3432  0.5141
 1486SOL    HW116091   2.273   0.550   2.214 -4.2298  0.3702 -0.7053
 1486SOL    HW216092   2.339   0.548   2.088  0.8845  1.1757  0.2398
 1487SOL     OW16093   0.463   2.411  12.333  0.0701 -0.2027  0.2901
 1487SOL    HW116094   0.395   2.432  12.268 -0.6124 -0.1729  1.0166
 1487SOL    HW216095   0.538   2.451  12.289 -0.4627  1.5502  0.9963
 1488SOL     OW16096   3.270   1.819  10.171 -0.1159 -0.2214  0.3628
 1488SOL    HW116097   3.198   1.802  10.110  0.2294  1.4580 -0.5233
 1488SOL    HW216098   3.261   1.747  10.233 -0.3593  1.0300  1.7751
 1489SOL     OW16099   2.886   3.371  16.014  0.1679 -0.0497  0.7980
 1489SOL    HW116100   2.924   3.346  16.099  2.3847  0.2941 -0.0975
 1489SOL    HW216101   2.818   3.427  16.050 -0.3603  0.6750 -1.3469
 1490SOL     OW16102   1.267   1.609   8.089  0.4572 -0.4016  0.2346
 1490SOL    HW116103   1.236   1.535   8.037 -0.4364  0.5663 -0.6106
 1490SOL    HW216104   1.185   1.644   8.124  1.0504 -0.8680  2.1210
 1491SOL     OW16105   2.381   3.362  15.143  0.7177 -0.3614 -0.1825
 1491SOL    HW116106   2.398   3.328  15.056 -2.1097  0.9132 -1.2363
 1491SOL    HW216107   2.371   3.455  15.121 -0.4447  0.0673  2.0520
 1492SOL     OW16108   0.474   1.189   4.240 -0.3508  0.4901 -0.2934
 1492SOL    HW116109   0.411   1.151   4.301  1.7625  0.4310  1.8522
 1492SOL    HW216110   0.508   1.104   4.211 -3.6839 -1.4129  1.4816
 1493SOL     OW16111   0.277   3.823   6.092 -0.5936  0.0493 -0.0060
 1493SOL    HW116112   0.308   3.891   6.152  0.6912  0.2301 -0.8677
 1493SOL    HW216113   0.331   3.836   6.014  1.4481  0.8663  1.5409
 1494SOL     OW16114   2.081   0.503  17.159  0.0851 -0.5542  0.2213
 1494SOL    HW116115   1.996   0.471  17.128 -0.7433  0.2859  1.6697
 1494SOL    HW216116   2.142   0.463  17.097  0.1826 -1.2951  0.7921
 1495SOL     OW16117   4.215   2.970   3.349  0.3438 -0.5386 -0.1848
 1495SOL    HW116118   4.130   2.963   3.306 -0.8560  0.1049  2.0498
 1495SOL    HW216119   4.262   3.023   3.285 -0.8966  0.0138 -0.6349
 1496SOL     OW16120   1.839   2.409   3.126  0.5089  0.6632 -0.2921
 1496SOL    HW116121   1.790   2.462   3.063  1.2761  3.3369  1.3322
 1496SOL    HW216122   1.832   2.325   3.082  3.9348 -0.5986  1.5726
 1497SOL     OW16123   2.302   1.848   9.602 -0.1225  0.5002 -0.0060
 1497SOL    HW116124   2.248   1.802   9.537  0.3829  0.1257 -0.1649
 1497SOL    HW216125   2.347   1.783   9.656  0.0301  0.8981  0.3425
 1498SOL     OW16126   3.129   2.883  14.138 -0.5327 -0.3746 -0.3905
 1498SOL    HW116127   3.113   2.860  14.046 -1.8876  0.8248 -0.4514
 1498SOL    HW216128   3.077   2.962  14.152  0.7666  0.2797  0.8047
 1499SOL     OW16129   1.230   2.632   4.999 -0.0562  0.2397  0.0190
 1499SOL    HW116130   1.291   2.662   4.932  0.4068  1.8396  1.1463
 1499SOL    HW216131   1.181   2.568   4.949 -0.7837 -0.4839  1.6495
 1500SOL     OW16132   1.772   1.451   4.404 -0.4393 -0.3333  0.1888
 1500SOL    HW116133   1.750   1.421   4.316  1.3524 -0.8576 -0.0847
 1500SOL    HW216134   1.847   1.507   4.383  0.8446 -1.1871  2.5500
 1501SOL     OW16135   0.371   4.257   8.996 -0.2753  0.0395  0.4137
 1501SOL    HW116136   0.463   4.286   8.991 -1.0017  2.0290 -1.5184
 1501SOL    HW216137   0.340   4.329   8.940 -2.1176 -0.7058  0.4968
 1502SOL     OW16138   3.810   3.978  16.081 -0.3282 -0.4804  0.5455
 1502SOL    HW116139   3.749   4.050  16.063 -0.2036 -0.7724 -1.0854
 1502SOL    HW216140   3.825   3.948  15.991  1.6497  0.8966  0.3956
 1503SOL     OW16141   3.820   1.091   9.731  0.4722 -0.2023  0.1378
 1503SOL    HW116142   3.798   1.070   9.822  0.7252 -0.3552  0.1619
 1503SOL    HW216143   3.781   1.016   9.687  1.0201  0.7661 -1.9928
 1504SOL     OW16144   0.498   0.698  17.115  0.1724  0.1692 -0.3802
 1504SOL    HW116145   0.511   0.606  17.135 -0.0028  0.0362 -0.8976
 1504SOL    HW216146   0.509   0.734  17.203  3.3184 -1.0619 -0.2694
 1505SOL     OW16147   0.653   0.937   1.707 -0.2401  0.1170 -0.1395
 1505SOL    HW116148   0.569   0.962   1.669 -0.4451  0.0227  0.2494
 1505SOL    HW216149   0.656   0.844   1.684 -0.3933  0.0598  0.0762
 1506SOL     OW16150   0.091   4.135   3.517  0.0304  0.4993  0.0263
 1506SOL    HW116151   4.734   4.154   3.523 -0.5592 -2.6293  0.4858
 1506SOL    HW216152   0.079   4.040   3.518  0.7504  0.3942 -1.3669
 1507SOL     OW16153   0.409   3.457  15.039  0.2108  0.0412 -0.2334
 1507SOL    HW116154   0.407   3.543  14.998 -0.7064  0.7342  1.3039
 1507SOL    HW216155   0.323   3.422  15.016  0.8343 -0.7531 -1.3737
 1508SOL     OW16156   2.245   3.451   6.096 -0.6462  0.4072 -0.0442
 1508SOL    HW116157   2.192   3.375   6.120 -1.6188  1.5940  1.5753
 1508SOL    HW216158   2.228   3.450   6.002 -0.0143 -0.7606 -0.1392
 1509SOL     OW16159   1.964   0.354   3.489 -0.3730  0.1749  0.0247
 1509SOL    HW116160   1.918   0.413   3.430 -1.9825  0.4873  1.5769
 1509SOL    HW216161   2.052   0.390   3.480 -0.4935  0.5614  0.3657
 1510SOL     OW16162   2.510   1.406   3.991  0.6362  0.3043  0.2140
 1510SOL    HW116163   2.515   1.423   4.085  0.3631  3.1204 -0.2682
 1510SOL    HW216164   2.572   1.336   3.970 -1.3343 -0.6874 -2.2910
 1511SOL     OW16165   0.724   0.800   3.468  0.0672  0.1800  0.1315
 1511SOL    HW116166   0.707   0.894   3.482  1.3135  0.0889  2.1772
 1511SOL    HW216167   0.781   0.780   3.541 -0.4941 -4.5271 -0.7224
 1512SOL     OW16168   1.194   2.563   2.931  0.5641  0.2647  0.3048
 1512SOL    HW116169   1.245   2.493   2.972  0.4322 -0.4413 -0.7430
 1512SOL    HW216170   1.132   2.521   2.871 -0.6619 -0.3073  1.9762
 1513SOL     OW16171   3.336   1.219  14.094  0.2177  0.8276  0.2508
 1513SOL    HW116172   3.251   1.252  14.065 -0.8693  0.3521  2.9042
 1513SOL    HW216173   3.368   1.151  14.034  0.5112 -0.2069  1.5844
 1514SOL     OW16174   4.539   4.693   4.649 -0.2393 -0.5709  0.2879
 1514SOL    HW116175   4.464   4.635   4.639  0.1337 -0.9400 -0.3631
 1514SOL    HW216176   4.587   4.669   4.570 -0.5167  0.6450 -0.2509
 1515SOL     OW16177   4.373   2.776   3.433  0.0512 -0.1043  0.3906
 1515SOL    HW116178   4.315   2.846   3.406  0.9920  0.9691  1.1400
 1515SOL    HW216179   4.314   2.701   3.429 -0.5415  0.3365  1.0422
 1516SOL     OW16180   4.733   0.409   9.778  0.2561  0.6884 -0.0537
 1516SOL    HW116181   0.037   0.358   9.848  0.8260 -0.3999 -1.1940
 1516SOL    HW216182   0.056   0.383   9.708  1.8054 -0.6545  1.7664
 1517SOL     OW16183   0.955   1.197   3.533  0.1130 -0.1385  0.0110
 1517SOL    HW116184   0.968   1.182   3.627  0.4239  0.2485  0.0293
 1517SOL    HW216185   1.043   1.168   3.509 -0.1325 -1.1098  0.2635
 1518SOL     OW16186   2.118   2.207   7.617 -0.6974 -0.0117  1.0341
 1518SOL    HW116187   2.033   2.251   7.606  1.0726  3.0825 -0.0161
 1518SOL    HW216188   2.173   2.280   7.645  1.7625 -1.2118 -0.6962
 1519SOL     OW16189   3.395   4.429   8.408 -0.3758 -0.3598  0.9083
 1519SOL    HW116190   3.319   4.484   8.425  0.3085 -0.0233  2.8407
 1519SOL    HW216191   3.385   4.363   8.476 -1.8134  0.8826  1.9007
 1520SOL     OW16192   1.396   4.485   3.649  0.7990 -0.4447 -0.7636
 1520SOL    HW116193   1.344   4.421   3.698 -0.1424  0.0204 -1.1411
 1520SOL    HW216194   1.341   4.493   3.571  0.1823 -3.7127 -0.6825
 1521SOL     OW16195   4.602   1.702   6.128  0.0328  0.0888  0.6205
 1521SOL    HW116196   4.696   1.723   6.130  0.2362 -0.8132  0.2193
 1521SOL    HW216197   4.590   1.679   6.220 -1.6060  0.3227  0.4677
 1522SOL     OW16198   0.808   0.488  14.776  0.1905  0.2612 -0.9446
 1522SOL    HW116199   0.899   0.517  14.776  0.3428 -0.2193 -1.3612
 1522SOL    HW216200   0.809   0.404  14.729 -0.0480  0.8907 -2.0639
 1523SOL     OW16201   0.467   0.804   2.897 -1.0105  0.3773 -0.4848
 1523SOL    HW116202   0.428   0.727   2.855  2.0724 -2.2048  1.3637
 1523SOL    HW216203   0.410   0.824   2.971 -0.7882 -1.2697  0.1374
 1524SOL     OW16204   1.883   2.311   3.596  0.0097  0.5788  0.1086
 1524SOL    HW116205   1.860   2.404   3.600  0.5139  0.6419  1.4076
 1524SOL    HW216206   1.795   2.284   3.568  0.3365  0.7493 -1.0845
 1525SOL     OW16207   0.517   4.466  11.702  0.5153  0.1442  0.1580
 1525SOL    HW116208   0.535   4.557  11.677 -0.4831 -0.3929 -2.4700
 1525SOL    HW216209   0.441   4.495  11.753  0.2519 -1.9365  0.9458
 1526SOL     OW16210   0.978   2.248   1.152 -0.4694  0.3292  0.6257
 1526SOL    HW116211   0.955   2.341   1.148 -0.1449  0.4173  0.8198
 1526SOL    HW216212   0.953   2.229   1.242 -4.4284 -1.6691 -0.9053
 1527SOL     OW16213   1.132   3.625   7.824 -0.4464 -0.0318  0.2701
 1527SOL    HW116214   1.037   3.612   7.817 -0.2579 -1.7989  1.0453
 1527SOL    HW216215   1.158   3.540   7.859 -1.7161 -1.5499 -2.4214
 1528SOL     OW16216   2.977   1.173   6.026  0.1228 -0.5719  0.4630
 1528SOL    HW116217   2.917   1.227   6.077  0.7814  0.6530 -0.0580
 1528SOL    HW216218   3.046   1.170   6.092  0.4270  0.5987  0.2028
 1529SOL     OW16219   3.549   0.616   7.723  0.1223 -0.0260  0.2813
 1529SOL    HW116220   3.519   0.580   7.640  1.5782  1.6773 -0.9801
 1529SOL    HW216221   3.623   0.667   7.689  1.5700 -1.2102  1.6391
 1530SOL     OW16222   3.088   0.343  16.633  0.3206 -0.7773 -0.3288
 1530SOL    HW116223   3.177   0.372  16.653 -0.6798  1.5227  0.8335
 1530SOL    HW216224   3.089   0.286  16.557 -0.6031 -0.2908 -0.7127
 1531SOL     OW16225   0.383   3.490  14.729 -0.2086  0.6066  0.4152
 1531SOL    HW116226   0.467   3.512  14.770 -0.4700  1.5452  0.4405
 1531SOL    HW216227   0.368   3.567  14.675 -0.7607 -0.8185 -1.4601
 1532SOL     OW16228   0.719   0.712   3.076 -0.0376 -0.0034 -0.1982
 1532SOL    HW116229   0.651   0.777   3.061  0.4176  0.5704  0.2266
 1532SOL    HW216230   0.678   0.630   3.050 -0.8499  0.8541 -1.5868
 1533SOL     OW16231   1.736   2.644   2.055 -0.3206  0.2960 -0.0294
 1533SOL    HW116232   1.727   2.607   1.967  0.1609  0.5035 -0.1659
 1533SOL    HW216233   1.772   2.575   2.111 -3.4285 -1.1046  0.2355
 1534SOL     OW16234   2.534   2.191  12.166 -0.2528 -0.0171 -0.1363
 1534SOL    HW116235   2.463   2.186  12.103  0.2051  2.6354 -0.8715
 1534SOL    HW216236   2.503   2.246  12.238 -0.2533 -0.2456  0.0381
 1535SOL     OW16237   2.925   3.750   8.680  0.1170 -0.3899 -0.0555
 1535SOL    HW116238   2.928   3.764   8.585 -1.7183  2.0623  0.2481
 1535SOL    HW216239   2.845   3.800   8.697  0.7648  0.7977 -0.4798
 1536SOL     OW16240   1.313   3.011   5.482 -0.2291 -0.0035  0.1209
 1536SOL    HW116241   1.309   3.106   5.467  0.0374  0.0750  0.5443
 1536SOL    HW216242   1.257   2.978   5.412  0.3067  0.6533 -0.6244
 1537SOL     OW16243   0.388   0.316   3.391  0.2614 -0.0892 -0.1370
 1537SOL    HW116244   0.310   0.345   3.344 -0.9602 -2.1577  0.6193
 1537SOL    HW216245   0.353   0.312   3.480 -1.0196 -0.2701 -0.6454
 1538SOL     OW16246   2.697   4.623   7.066 -0.0276 -0.4185 -0.3947
 1538SOL    HW116247   2.776   4.675   7.051 -0.3340  0.6646  1.7901
 1538SOL    HW216248   2.720   4.579   7.148 -2.4991  0.0708  0.5408
 1539SOL     OW16249   2.667   3.636   7.461  0.0766  0.4169 -0.3708
 1539SOL    HW116250   2.593   3.580   7.483 -0.2372  0.5431 -1.1229
 1539SOL    HW216251   2.687   3.614   7.370 -0.2563  1.1964 -0.6283
 1540SOL     OW16252   0.578   2.795   3.724 -0.3773 -0.4751 -0.9197
 1540SOL    HW116253   0.541   2.870   3.771 -1.7598 -0.6336 -1.7517
 1540SOL    HW216254   0.661   2.835   3.698 -0.0443 -0.3883  0.2648
 1541SOL     OW16255   2.171   3.746   7.140  0.2332 -0.1984 -0.2589
 1541SOL    HW116256   2.128   3.814   7.090  0.5934 -0.1629 -0.5161
 1541SOL    HW216257   2.094   3.692   7.159  0.6751 -0.6956  0.1423
 1542SOL     OW16258   3.651   2.666   9.378  0.2332 -0.2680 -0.3300
 1542SOL    HW116259   3.723   2.726   9.394  0.8042 -1.3954  1.3261
 1542SOL    HW216260   3.712   2.592   9.369  1.1658  0.5610 -0.8688
 1543SOL     OW16261   0.533   3.320   8.952  0.4014  0.3676  0.0922
 1543SOL    HW116262   0.518   3.261   8.878  0.3024  1.3705 -0.7005
 1543SOL    HW216263   0.455   3.376   8.942  0.7279  1.1898  2.2160
 1544SOL     OW16264   3.144   2.013   7.543 -0.5825 -0.6593  0.4699
 1544SOL    HW116265   3.232   2.052   7.545 -1.0085  0.2708  0.7732
 1544SOL    HW216266   3.104   2.032   7.628 -1.4627 -0.1910 -0.0492
 1545SOL     OW16267   1.330   3.881  12.413 -0.1739  0.0162 -0.7568
 1545SOL    HW116268   1.321   3.972  12.441  1.9482 -0.4698  1.5297
 1545SOL    HW216269   1.241   3.854  12.389 -1.9045  3.8050  1.3611
 1546SOL     OW16270   0.518   2.734   7.321 -0.4369  0.1713  0.4015
 1546SOL    HW116271   0.468   2.806   7.358 -0.5985  0.4036 -0.2630
 1546SOL    HW216272   0.609   2.764   7.323 -0.1350 -0.6678 -0.7569
 1547SOL     OW16273   2.930   0.314   9.231  0.1143  0.2053  0.3071
 1547SOL    HW116274   2.981   0.275   9.302 -0.2287 -0.0467  0.4131
 1547SOL    HW216275   2.852   0.260   9.244  0.1893  0.0169 -0.0128
 1548SOL     OW16276   4.627   3.154   0.600 -0.1785 -0.1853  0.0602
 1548SOL    HW116277   4.544   3.199   0.615 -0.4484 -0.1578 -1.4463
 1548SOL    HW216278   4.687   3.229   0.598  1.6574 -1.6384  1.0853
 1549SOL     OW16279   1.176   0.811   5.959 -0.6011 -0.8180 -0.2362
 1549SOL    HW116280   1.209   0.783   5.873  0.8909 -0.9269  0.3903
 1549SOL    HW216281   1.258   0.821   6.006 -0.4365  0.7049 -0.8538
 1550SOL     OW16282   2.881   2.030   3.422 -0.2166  0.1428 -0.6555
 1550SOL    HW116283   2.888   2.002   3.513 -2.1123 -1.3061 -0.9506
 1550SOL    HW216284   2.811   1.979   3.381 -0.5618  0.2772 -0.2286
 1551SOL     OW16285   2.130   3.544   5.771 -0.1636 -0.4506 -0.1905
 1551SOL    HW116286   2.172   3.620   5.811  0.6672 -0.5217 -0.9114
 1551SOL    HW216287   2.065   3.586   5.715  0.7327  0.5344 -0.5089
 1552SOL     OW16288   4.355   0.936   7.015  0.1176 -0.3582  0.0993
 1552SOL    HW116289   4.280   0.904   7.065  0.2942  1.8992  1.8236
 1552SOL    HW216290   4.420   0.950   7.083  0.2597 -0.0774 -0.0967
 1553SOL     OW16291   0.235   1.134  10.251  0.5326 -0.1262 -0.0184
 1553SOL    HW116292   0.228   1.100  10.340 -1.5554 -1.2052 -0.6233
 1553SOL    HW216293   0.324   1.170  10.260 -0.2757  1.6035  1.0496
 1554SOL     OW16294   3.127   3.087  10.205  0.1515 -0.3576  0.2938
 1554SOL    HW116295   3.102   3.176  10.229  1.0403  0.1578 -0.7111
 1554SOL    HW216296   3.080   3.064  10.125 -1.1068  1.1397  0.5973
 1555SOL     OW16297   4.274   4.502   3.168  0.0550 -0.6009  0.2510
 1555SOL    HW116298   4.309   4.450   3.096 -0.1196 -0.5005  0.0948
 1555SOL    HW216299   4.252   4.586   3.128  0.3911 -1.4206 -1.6271
 1556SOL     OW16300   1.152   4.192   5.121 -0.5307  0.2780  0.1299
 1556SOL    HW116301   1.189   4.124   5.065  0.1313  0.2766  0.5721
 1556SOL    HW216302   1.125   4.138   5.195  0.3256 -0.8616 -0.3879
 1557SOL     OW16303   2.667   3.231   2.231  0.5036 -0.2730 -0.2022
 1557SOL    HW116304   2.584   3.220   2.185  2.1275 -1.0114 -2.9480
 1557SOL    HW216305   2.644   3.172   2.302 -3.9915  2.7143  0.8405
 1558SOL     OW16306   1.033   2.529   2.148  0.3542  0.7238 -0.3590
 1558SOL    HW116307   0.995   2.444   2.127 -0.9996  2.2111 -3.8179
 1558SOL    HW216308   1.114   2.521   2.097  0.4938  0.0196 -0.0239
 1559SOL     OW16309   3.034   3.583   9.956 -0.0261  0.4337  0.3919
 1559SOL    HW116310   2.938   3.587   9.954 -0.2664 -3.4731  2.4163
 1559SOL    HW216311   3.043   3.595   9.862  1.6759 -0.3207  0.4662
 1560SOL     OW16312   4.332   3.533   6.999 -0.0811  0.1998  0.0333
 1560SOL    HW116313   4.240   3.509   7.008  0.0520  0.0141  0.8440
 1560SOL    HW216314   4.365   3.461   7.052 -0.0037  0.7992  0.7922
 1561SOL     OW16315   3.803   1.035   8.826 -0.0317 -0.2966 -0.2612
 1561SOL    HW116316   3.857   1.114   8.824 -0.5019 -0.0296 -2.0923
 1561SOL    HW216317   3.734   1.060   8.765  0.7832  1.6641 -0.3934
 1562SOL     OW16318   3.120   3.839   6.254 -0.4395  0.7176  0.5294
 1562SOL    HW116319   3.102   3.747   6.272 -0.2589  0.8400  1.3571
 1562SOL    HW216320   3.060   3.866   6.185  2.0114  1.7837 -1.2005
 1563SOL     OW16321   4.188   1.071   0.659 -0.3479  0.2746 -0.3856
 1563SOL    HW116322   4.243   1.122   0.600 -1.1511  0.1162 -1.2702
 1563SOL    HW216323   4.252   1.006   0.687 -0.1191  0.7536  0.2254
 1564SOL     OW16324   4.500   4.110   9.157  0.5748 -0.6690 -0.8770
 1564SOL    HW116325   4.405   4.102   9.169  0.2431  2.2732 -1.4848
 1564SOL    HW216326   4.537   4.131   9.243  2.0306 -1.4369 -1.3252
 1565SOL     OW16327   4.237   2.439   9.236 -0.5638 -0.1470 -0.7236
 1565SOL    HW116328   4.246   2.531   9.263  1.7516 -0.8963  1.0896
 1565SOL    HW216329   4.328   2.417   9.218 -0.4237 -0.6880  0.6747
 1566SOL     OW16330   4.513   4.340   5.098 -0.2851  0.6707  0.3491
 1566SOL    HW116331   4.549   4.379   5.018  0.2877  1.3523  0.9371
 1566SOL    HW216332   4.439   4.286   5.071 -0.6182  0.6005  1.3863
 1567SOL     OW16333   4.105   2.205   9.272 -0.1439  0.1315  0.6934
 1567SOL    HW116334   4.151   2.165   9.346 -1.3423 -1.2642  0.6598
 1567SOL    HW216335   4.160   2.283   9.261  2.1158 -1.5925 -0.3012
 1568SOL     OW16336   2.785   3.453   8.679  0.2727 -0.2408  0.1645
 1568SOL    HW116337   2.724   3.453   8.754 -1.5493 -2.7549 -1.2975
 1568SOL    HW216338   2.868   3.491   8.705  0.6288 -0.4699 -0.6505
 1569SOL     OW16339   0.772   2.573   7.446  0.0883 -0.1111  0.2987
 1569SOL    HW116340   0.865   2.589   7.462  0.0621 -0.1281  0.4739
 1569SOL    HW216341   0.765   2.478   7.436  3.1144 -0.3743  0.7377
 1570SOL     OW16342   2.954   4.210   8.186 -0.0066 -0.2035 -0.1320
 1570SOL    HW116343   2.901   4.174   8.115  1.3979  3.4280 -2.9841
 1570SOL    HW216344   3.035   4.165   8.162 -0.0269  0.8598 -2.2148
 1571SOL     OW16345   3.956   3.051   6.554  0.4260  0.2595 -0.1607
 1571SOL    HW116346   3.941   2.980   6.616 -1.7873  1.5343  0.7630
 1571SOL    HW216347   4.020   3.011   6.495 -1.1789 -0.0772 -1.7086
 1572SOL     OW16348   2.381   0.216   6.702 -0.8721 -1.1270  0.9377
 1572SOL    HW116349   2.434   0.182   6.773  1.1735  0.1162 -0.0001
 1572SOL    HW216350   2.425   0.301   6.698 -1.9942 -0.5231  1.2553
 1573SOL     OW16351   0.355   0.590   9.654  0.1954  0.4980 -0.2541
 1573SOL    HW116352   0.435   0.538   9.659  0.1386  0.7124  2.8192
 1573SOL    HW216353   0.293   0.528   9.615  0.2117  0.5615 -0.3815
 1574SOL     OW16354   4.657   3.011  12.509  0.7144 -0.6777 -0.1013
 1574SOL    HW116355   4.688   2.922  12.492  1.9717 -0.0738 -1.0183
 1574SOL    HW216356   4.631   3.040  12.422 -0.6767 -3.7731 -0.7045
 1575SOL     OW16357   1.170   3.607   2.512  0.7604  0.4267  0.1562
 1575SOL    HW116358   1.125   3.529   2.481  0.4841 -0.1016  1.9172
 1575SOL    HW216359   1.105   3.676   2.525  0.1952  0.1612 -1.2420
 1576SOL     OW16360   0.753   0.480   2.138 -0.3147  0.4530 -0.0491
 1576SOL    HW116361   0.728   0.564   2.101 -0.7476 -0.6364 -2.2341
 1576SOL    HW216362   0.696   0.471   2.214  0.3982 -1.0001  0.3162
 1577SOL     OW16363   3.147   2.676   4.307 -0.0482  0.1282  0.3365
 1577SOL    HW116364   3.128   2.739   4.237  0.6749 -0.2397 -0.1881
 1577SOL    HW216365   3.242   2.668   4.314  0.4712  2.9951 -3.6665
 1578SOL     OW16366   3.523   3.085  11.134 -0.1840 -0.2749  0.1730
 1578SOL    HW116367   3.438   3.050  11.162 -0.3511  0.9073  1.1517
 1578SOL    HW216368   3.587   3.020  11.163  1.9328  1.8373  0.1886
 1579SOL     OW16369   2.926   4.388  12.126  0.4380  0.2687 -0.0545
 1579SOL    HW116370   2.847   4.335  12.134 -0.5064  1.7876  0.6072
 1579SOL    HW216371   2.887   4.473  12.107 -0.3518  0.1692  1.1898
 1580SOL     OW16372   4.129   2.528  11.133 -0.2095  1.0735 -0.4931
 1580SOL    HW116373   4.206   2.471  11.143 -2.5562 -2.1486 -0.7035
 1580SOL    HW216374   4.051   2.479  11.159 -0.3846  1.0546 -1.0557
 1581SOL     OW16375   0.128   4.113   1.266 -0.1718 -0.1929  0.5595
 1581SOL    HW116376   0.211   4.110   1.314  0.2124  0.2044 -0.0661
 1581SOL    HW216377   0.110   4.203   1.241 -2.8143 -0.1432  2.7612
 1582SOL     OW16378   2.647   0.699  11.838  0.9083  0.1272 -0.2870
 1582SOL    HW116379   2.555   0.677  11.851  0.6229  1.6999  0.4154
 1582SOL    HW216380   2.661   0.685  11.744 -0.8466  0.8695 -0.6515
 1583SOL     OW16381   2.208   1.516  10.298 -0.1913  0.2043  0.1611
 1583SOL    HW116382   2.119   1.520  10.334  0.2987 -0.1782  1.4012
 1583SOL    HW216383   2.264   1.492  10.372  1.4670  0.3873 -1.0250
 1584SOL     OW16384   1.208   3.899   2.869 -0.1493  0.1388 -0.8469
 1584SOL    HW116385   1.248   3.887   2.955 -0.9860  0.6680 -0.3838
 1584SOL    HW216386   1.235   3.989   2.852 -0.0445  0.2884  0.0939
 1585SOL     OW16387   4.074   3.557   8.429 -0.4505  0.0978 -0.1679
 1585SOL    HW116388   4.110   3.606   8.502 -0.0243  0.1699 -0.4275
 1585SOL    HW216389   4.145   3.537   8.367 -0.3242 -1.9199  0.6275
 1586SOL     OW16390   2.334   2.066   4.315  0.6834  0.5489  0.1982
 1586SOL    HW116391   2.370   1.980   4.296 -0.2887  0.5648 -1.6868
 1586SOL    HW216392   2.399   2.099   4.378 -1.2509  0.9666  1.9791
 1587SOL     OW16393   1.642   3.208  11.826  0.5884 -0.1781  0.1286
 1587SOL    HW116394   1.633   3.116  11.851  0.4154 -0.1254  0.2591
 1587SOL    HW216395   1.725   3.235  11.865  0.6841 -1.0730  0.5363
 1588SOL     OW16396   4.636   3.171  15.951  0.1057 -0.2516  0.5938
 1588SOL    HW116397   4.639   3.174  15.855  2.1214 -0.1677  0.6556
 1588SOL    HW216398   4.617   3.079  15.966  1.7198 -0.4347  1.4681
 1589SOL     OW16399   3.758   0.940   6.428  0.1419  0.0509 -0.0055
 1589SOL    HW116400   3.847   0.959   6.458  0.5133  0.9637 -1.6966
 1589SOL    HW216401   3.721   0.917   6.513 -0.0555 -1.3345 -0.4786
 1590SOL     OW16402   1.969   0.110  11.885  0.4657 -0.2570 -0.5922
 1590SOL    HW116403   2.006   0.195  11.910  0.4385 -0.2174 -0.6864
 1590SOL    HW216404   1.941   0.072  11.968  1.6868  0.3546  0.0972
 1591SOL     OW16405   3.720   1.734  11.879  0.2833 -0.4331  0.1647
 1591SOL    HW116406   3.627   1.712  11.877  0.6556 -1.7039 -1.8781
 1591SOL    HW216407   3.753   1.661  11.828  1.3496  0.3618 -0.3018
 1592SOL     OW16408   3.366   0.316  10.160 -0.6055  0.5471  0.0360
 1592SOL    HW116409   3.422   0.372  10.214  0.9992 -0.8435 -0.1831
 1592SOL    HW216410   3.308   0.384  10.125 -1.0947 -1.1628 -2.4712
 1593SOL     OW16411   2.511   2.721   2.431  0.4312  0.4378 -0.2762
 1593SOL    HW116412   2.521   2.633   2.466 -1.3685  0.9519  1.5435
 1593SOL    HW216413   2.544   2.780   2.498 -0.9271 -0.6301  1.3206
 1594SOL     OW16414   0.227   3.561   1.775 -0.3601 -0.3255 -0.6655
 1594SOL    HW116415   0.178   3.597   1.849 -0.3014  0.2968 -0.9225
 1594SOL    HW216416   0.249   3.470   1.795  0.1020 -0.2742 -0.9410
 1595SOL     OW16417   2.483   0.276   5.996 -0.2380  0.0281  0.5669
 1595SOL    HW116418   2.431   0.229   6.061 -2.4963  1.0521 -0.5175
 1595SOL    HW216419   2.423   0.349   5.983 -0.8529 -0.4248  0.8398
 1596SOL     OW16420   4.235   2.261   5.218  0.4890 -0.3796 -0.2496
 1596SOL    HW116421   4.298   2.273   5.147  1.4226  1.0067  0.7964
 1596SOL    HW216422   4.301   2.274   5.286  0.5221 -0.4424 -0.2704
 1597SOL     OW16423   0.698   1.101  10.015  0.1390 -0.0889  0.3839
 1597SOL    HW116424   0.777   1.075   9.967 -0.9145 -0.2963 -1.2280
 1597SOL    HW216425   0.668   1.013  10.038 -0.8699  0.1045 -0.2221
 1598SOL     OW16426   0.692   1.744   1.521 -0.6344  0.2321 -0.2953
 1598SOL    HW116427   0.782   1.724   1.548 -0.6969  0.4284  0.0612
 1598SOL    HW216428   0.699   1.775   1.431  1.4311  0.2520 -0.1362
 1599SOL     OW16429   2.722   4.417   5.014 -0.1465 -0.0881 -0.3724
 1599SOL    HW116430   2.754   4.450   5.097 -2.5700  1.9525 -0.2775
 1599SOL    HW216431   2.695   4.326   5.024  0.1833 -0.0475  0.8909
 1600SOL     OW16432   4.565   4.285   7.930 -0.0005  0.1302 -0.1588
 1600SOL    HW116433   4.602   4.271   7.843 -0.0637 -0.9271 -0.0118
 1600SOL    HW216434   4.470   4.277   7.920  0.1742 -1.9616 -0.0770
 1601SOL     OW16435   3.038   0.852   6.352 -0.0182 -0.6280 -0.1857
 1601SOL    HW116436   3.105   0.857   6.420  1.6944 -2.7493 -1.7238
 1601SOL    HW216437   3.001   0.939   6.361 -1.5925 -1.6043  2.6835
 1602SOL     OW16438   3.803   3.926   4.784  1.0593  0.1492 -0.2170
 1602SOL    HW116439   3.723   3.944   4.734 -1.2589 -0.5530  3.2776
 1602SOL    HW216440   3.830   3.844   4.742 -0.8335 -0.9783  0.7822
 1603SOL     OW16441   4.054   1.684   2.872  0.5675 -0.5183 -0.1865
 1603SOL    HW116442   3.988   1.723   2.930  1.1295 -3.8376  2.6472
 1603SOL    HW216443   4.016   1.693   2.784  0.9637 -2.7769 -0.5761
 1604SOL     OW16444   2.653   4.278   9.329 -0.1661 -0.5984  0.3600
 1604SOL    HW116445   2.573   4.303   9.376 -0.4132  3.3696 -2.1494
 1604SOL    HW216446   2.701   4.233   9.398  1.9198  1.3713  0.1969
 1605SOL     OW16447   1.501   4.191   1.985 -0.1799 -0.1578  0.5874
 1605SOL    HW116448   1.476   4.113   2.034  1.3241 -1.3797 -0.5660
 1605SOL    HW216449   1.418   4.213   1.943  0.4833 -0.4730 -0.9127
 1606SOL     OW16450   3.744   0.923   3.007 -0.0383 -0.5514  0.1503
 1606SOL    HW116451   3.774   0.989   3.070  2.1342 -2.9092  1.5819
 1606SOL    HW216452   3.669   0.965   2.966  0.3912  1.0418  0.9870
 1607SOL     OW16453   1.002   4.051   4.174  0.1271 -0.1509 -0.0930
 1607SOL    HW116454   0.959   4.134   4.155 -0.7557 -0.5060  0.3679
 1607SOL    HW216455   1.070   4.088   4.231 -0.2285  0.2254  0.0856
 1608SOL     OW16456   2.412   0.122  16.660 -0.3011  0.5315 -0.0473
 1608SOL    HW116457   2.418   0.031  16.633 -0.8671  0.8881 -1.3721
 1608SOL    HW216458   2.409   0.117  16.756  1.4243  0.7925  0.0346
 1609SOL     OW16459   4.170   4.100  17.105  0.2253 -0.3453  0.3837
 1609SOL    HW116460   4.148   4.072  17.017  1.6843 -2.6383  0.7400
 1609SOL    HW216461   4.240   4.162  17.086 -0.1431 -0.4060 -1.1385
 1610SOL     OW16462   0.311   3.688   9.236  0.5316  0.1969  0.4546
 1610SOL    HW116463   0.406   3.690   9.250  0.3687 -0.0402  1.6033
 1610SOL    HW216464   0.305   3.622   9.168 -2.5766  0.2865  0.6361
 1611SOL     OW16465   2.334   4.041   3.749 -0.3333 -0.1616  0.2970
 1611SOL    HW116466   2.245   4.046   3.714  0.5675  1.2225 -1.7468
 1611SOL    HW216467   2.339   4.110   3.816  2.5488  1.0026 -1.1156
 1612SOL     OW16468   2.895   2.390   8.340  0.2703 -0.7433  0.1658
 1612SOL    HW116469   2.820   2.347   8.379 -0.6359  1.8612  1.2696
 1612SOL    HW216470   2.932   2.416   8.424 -0.4764 -0.5730  0.4354
 1613SOL     OW16471   0.591   1.149  17.525 -0.0083 -0.1818  0.2606
 1613SOL    HW116472   0.510   1.108  17.554  0.7438 -0.0742  2.5155
 1613SOL    HW216473   0.572   1.175  17.435 -2.0657 -1.6809  0.2802
 1614SOL     OW16474   1.636   0.194  17.236 -0.3444  0.0131 -0.6850
 1614SOL    HW116475   1.596   0.107  17.246  4.3651 -2.2091 -1.3695
 1614SOL    HW216476   1.555   0.235  17.204 -1.9096 -1.5004  1.3207
 1615SOL     OW16477   0.023   2.204   8.681  0.2586 -0.4970  0.3284
 1615SOL    HW116478   4.698   2.135   8.703  0.5756 -0.6876  0.6249
 1615SOL    HW216479   0.013   2.265   8.755  2.8100 -1.0577  1.1518
 1616SOL     OW16480   4.148   3.210   8.022  0.4825 -0.8673 -0.3813
 1616SOL    HW116481   4.119   3.136   8.076 -0.1027 -0.8641 -0.6893
 1616SOL    HW216482   4.119   3.179   7.936 -0.2026 -1.4739  0.0684
 1617SOL     OW16483   0.308   2.726   8.694  0.2299 -0.4154 -0.3508
 1617SOL    HW116484   0.320   2.640   8.654  2.3710 -0.6167  0.7570
 1617SOL    HW216485   0.320   2.779   8.615  3.6797 -0.3790  0.2076
 1618SOL     OW16486   1.434   1.273  13.777 -0.6425  0.1666 -0.6664
 1618SOL    HW116487   1.460   1.181  13.774 -1.0033  0.0899 -1.5251
 1618SOL    HW216488   1.455   1.294  13.686 -2.3213  2.5316 -0.5058
 1619SOL     OW16489   2.184   0.633   4.948  0.7026 -0.7271 -0.1856
 1619SOL    HW116490   2.152   0.624   4.858 -1.0125  2.9918  0.0674
 1619SOL    HW216491   2.268   0.674   4.928 -0.6944  1.2695 -1.9216
 1620SOL     OW16492   4.469   2.172   5.401  0.4673 -0.3431  0.1645
 1620SOL    HW116493   4.555   2.154   5.365  0.6841 -1.3035  1.1689
 1620SOL    HW216494   4.473   2.266   5.415 -0.9384 -0.0776 -1.1725
 1621SOL     OW16495   0.029   0.485  16.228 -0.5242 -0.0747  0.3164
 1621SOL    HW116496   0.099   0.469  16.164 -0.2510 -0.2028  0.6494
 1621SOL    HW216497   4.702   0.529  16.171  1.3539  1.2218 -0.7840
 1622SOL     OW16498   1.519   1.561   9.519 -0.1821  0.0392 -0.3277
 1622SOL    HW116499   1.600   1.564   9.569 -0.7407  0.4986  0.5493
 1622SOL    HW216500   1.474   1.501   9.578  1.1715  0.1640  0.8251
 1623SOL     OW16501   1.705   4.008   7.832 -0.1881  0.3508 -0.0715
 1623SOL    HW116502   1.747   3.979   7.751  0.0036 -1.4907  0.6935
 1623SOL    HW216503   1.736   4.099   7.831  3.9381 -1.0687  1.5815
 1624SOL     OW16504   4.142   3.941   3.649  0.1675 -0.0365 -0.0198
 1624SOL    HW116505   4.060   3.966   3.692 -1.1783 -0.4243 -2.4060
 1624SOL    HW216506   4.098   3.901   3.574  1.4812 -1.8611  0.1649
 1625SOL     OW16507   4.418   0.724  12.762  0.2833  0.4662  0.2218
 1625SOL    HW116508   4.348   0.785  12.739  2.1148  3.3234  2.2010
 1625SOL    HW216509   4.413   0.664  12.687  1.0151  1.2851 -0.4811
 1626SOL     OW16510   4.082   4.226   3.828  0.6305 -0.5152  0.0361
 1626SOL    HW116511   4.125   4.209   3.744  1.7439 -0.1315  0.5286
 1626SOL    HW216512   4.014   4.292   3.815  2.1171  1.3701  1.6296
 1627SOL     OW16513   0.517   2.864   2.060 -0.1702  0.3849  0.5388
 1627SOL    HW116514   0.501   2.815   1.979  1.2108 -2.2361  1.8551
 1627SOL    HW216515   0.443   2.835   2.113  0.7922  1.4592  2.4653
 1628SOL     OW16516   4.513   0.928   9.638 -0.2688  0.3185  0.2674
 1628SOL    HW116517   4.580   0.995   9.650 -0.0900  0.0310  0.8682
 1628SOL    HW216518   4.451   0.961   9.572  1.3228  0.6120 -1.0667
 1629SOL     OW16519   0.561   3.087  15.768  0.1466  0.1040  0.1747
 1629SOL    HW116520   0.552   3.172  15.725 -0.1391  0.2399  0.5070
 1629SOL    HW216521   0.611   3.117  15.844  0.8754  0.6256 -0.5086
 1630SOL     OW16522   0.550   0.409   9.653 -0.1615  0.2786  0.0770
 1630SOL    HW116523   0.610   0.467   9.606 -0.7016 -0.6075 -1.6721
 1630SOL    HW216524   0.598   0.326   9.653 -2.6281 -1.1414 -1.8933
 1631SOL     OW16525   3.462   3.668  17.559  0.0553 -0.2481  0.6976
 1631SOL    HW116526   3.422   3.674  17.646 -0.4133  0.2111  0.4454
 1631SOL    HW216527   3.533   3.607  17.581  1.6127  1.9056  1.6335
 1632SOL     OW16528   3.311   3.162   8.825 -0.4835 -0.0655  0.3906
 1632SOL    HW116529   3.218   3.150   8.839 -0.2276 -1.1976  1.1236
 1632SOL    HW216530   3.335   3.073   8.798 -2.2508  0.3411 -2.4931
 1633SOL     OW16531   0.164   1.667  12.568 -0.2810 -0.3160  0.6130
 1633SOL    HW116532   0.250   1.702  12.591  0.2442 -0.5360 -1.0599
 1633SOL    HW216533   0.153   1.611  12.645 -0.8482  0.2259  0.9300
 1634SOL     OW16534   3.538   3.793  16.173 -0.9699 -0.6879  0.3163
 1634SOL    HW116535   3.616   3.737  16.172 -1.3070 -1.1802  0.8896
 1634SOL    HW216536   3.481   3.735  16.224  0.3260 -1.4350  0.8996
 1635SOL     OW16537   1.581   2.934  10.702 -0.9114 -0.0431 -0.0690
 1635SOL    HW116538   1.646   3.002  10.683 -0.3034 -0.6398 -0.1355
 1635SOL    HW216539   1.646   2.871  10.733  0.3481  1.4011  0.2751
 1636SOL     OW16540   1.850   4.614  17.256 -0.0974 -0.5753  0.3813
 1636SOL    HW116541   1.817   4.601  17.345 -0.3853 -0.5300  0.2807
 1636SOL    HW216542   1.926   4.556  17.255 -0.0334 -0.4841 -0.1311
 1637SOL     OW16543   2.390   1.192   2.505 -0.2880  0.1104  0.0809
 1637SOL    HW116544   2.414   1.266   2.450 -2.0616 -0.2507 -1.1766
 1637SOL    HW216545   2.336   1.234   2.572  2.9579  1.1500  2.0889
 1638SOL     OW16546   3.586   0.273   1.894 -0.1822 -0.0624 -0.9686
 1638SOL    HW116547   3.680   0.289   1.905 -0.3020 -0.2219  0.2367
 1638SOL    HW216548   3.575   0.266   1.799  0.3252 -0.4983 -0.9966
 1639SOL     OW16549   1.267   2.941   8.676 -0.0449 -0.5623 -0.0784
 1639SOL    HW116550   1.310   2.926   8.591  1.0147 -0.2462  0.4004
 1639SOL    HW216551   1.189   2.985   8.644  1.4429  1.4396 -0.9718
 1640SOL     OW16552   4.288   2.129   9.840 -0.3925 -0.2186 -0.4304
 1640SOL    HW116553   4.214   2.164   9.790 -1.0952 -1.2619 -0.1399
 1640SOL    HW216554   4.292   2.189   9.915  1.4593 -0.5694 -0.2467
 1641SOL     OW16555   1.148   4.120   6.808  0.2445  0.2670  0.2668
 1641SOL    HW116556   1.159   4.175   6.885  1.8777 -1.3114  1.1510
 1641SOL    HW216557   1.233   4.134   6.766  0.9145 -0.3274  1.4562
 1642SOL     OW16558   4.703   3.783   9.267 -0.4748  0.1171  0.4589
 1642SOL    HW116559   4.631   3.786   9.329 -0.8365 -0.4287  0.0662
 1642SOL    HW216560   0.012   3.704   9.294 -1.2793 -0.2307  0.7878
 1643SOL     OW16561   0.102   1.379   2.077  0.5578 -0.5948 -0.2538
 1643SOL    HW116562   0.187   1.375   2.034 -0.0849  2.7754 -1.7822
 1643SOL    HW216563   0.132   1.337   2.157  1.2863 -2.9502 -1.7396
 1644SOL     OW16564   3.626   1.093   1.143 -0.8055 -0.1291  0.0510
 1644SOL    HW116565   3.696   1.115   1.205 -0.3369 -1.4658  0.0063
 1644SOL    HW216566   3.615   1.000   1.162 -0.0861 -0.0968  0.6407
 1645SOL     OW16567   4.439   2.595   3.161  0.1443 -0.3015 -0.3367
 1645SOL    HW116568   4.468   2.646   3.086  1.2439 -0.2120  0.1458
 1645SOL    HW216569   4.510   2.619   3.221  0.3445  1.0054 -1.1104
 1646SOL     OW16570   2.758   3.823   1.028  0.0093  0.8110  0.2646
 1646SOL    HW116571   2.719   3.758   0.970 -0.3660  1.5909 -0.3400
 1646SOL    HW216572   2.799   3.771   1.098  0.1926  0.6935  0.0702
 1647SOL     OW16573   4.677   4.566   4.433 -0.4321  0.1590  0.2303
 1647SOL    HW116574   0.004   4.500   4.461 -0.6349 -0.0288  0.2508
 1647SOL    HW216575   4.735   4.607   4.370  0.4826  1.8413  2.1820
 1648SOL     OW16576   3.524   0.210   1.595  0.4934  0.2707  0.1956
 1648SOL    HW116577   3.437   0.197   1.557  0.7923  1.6714 -0.9353
 1648SOL    HW216578   3.543   0.302   1.579 -1.3490  0.2924 -1.7983
 1649SOL     OW16579   2.266   0.129   7.706  0.0665  0.1641  0.2571
 1649SOL    HW116580   2.228   0.058   7.758  1.0219 -0.7974 -0.3415
 1649SOL    HW216581   2.186   0.176   7.684  1.3317  1.6670 -1.0508
 1650SOL     OW16582   0.041   2.201   9.725 -0.2746 -0.0344  0.6975
 1650SOL    HW116583   0.049   2.219   9.818  1.7432 -0.5722  0.6404
 1650SOL    HW216584   4.684   2.205   9.704 -0.7789 -2.8222  2.3732
 1651SOL     OW16585   3.485   2.131   9.551 -0.3311 -0.1603  0.7814
 1651SOL    HW116586   3.396   2.165   9.542 -0.5325 -0.5482  1.2885
 1651SOL    HW216587   3.530   2.213   9.532 -0.8104 -0.0574  0.0463
 1652SOL     OW16588   0.015   2.813   5.468 -0.1069 -0.2240 -0.4037
 1652SOL    HW116589   4.709   2.865   5.536  1.3399 -0.6611  0.8412
 1652SOL    HW216590   0.098   2.856   5.486 -0.1140  0.1029 -1.1995
 1653SOL     OW16591   1.400   0.158   0.993  0.0122  0.3431  0.4859
 1653SOL    HW116592   1.353   0.241   0.999 -0.8126 -0.2855  2.3726
 1653SOL    HW216593   1.372   0.127   0.907  0.0337  1.3934  0.0996
 1654SOL     OW16594   4.564   4.188   3.556 -0.0602  0.4972  0.0484
 1654SOL    HW116595   4.515   4.105   3.551  0.7805  0.0831 -1.2310
 1654SOL    HW216596   4.524   4.227   3.634 -2.6955 -2.2007  0.0547
 1655SOL     OW16597   1.305   4.619  14.481 -0.0795  0.1291  0.1765
 1655SOL    HW116598   1.259   4.607  14.398  0.6471 -2.0655  0.0852
 1655SOL    HW216599   1.235   4.601  14.544 -0.8205  0.3560 -0.5961
 1656SOL     OW16600   4.700   4.381   9.636  0.4753  0.5062 -0.1980
 1656SOL    HW116601   4.711   4.370   9.542  1.4430 -2.8952  0.3089
 1656SOL    HW216602   0.047   4.355   9.675 -0.1447  0.2310  0.9462
 1657SOL     OW16603   0.115   1.779   6.180  0.2055 -0.2830 -0.4061
 1657SOL    HW116604   0.128   1.764   6.274  0.4464  2.6783  0.0326
 1657SOL    HW216605   0.196   1.739   6.150 -0.5814 -0.7077 -2.0146
 1658SOL     OW16606   0.696   2.937   5.359 -0.2181  0.1442  0.1319
 1658SOL    HW116607   0.612   2.909   5.396 -0.0130  0.2211  0.6618
 1658SOL    HW216608   0.751   2.878   5.410  0.2022 -0.7134 -1.3450
 1659SOL     OW16609   3.520   1.293  17.609  0.2581 -0.0045 -0.2446
 1659SOL    HW116610   3.476   1.314  17.527 -0.5790 -1.0074 -0.0660
 1659SOL    HW216611   3.459   1.335  17.669  1.3208  1.2465 -0.0554
 1660SOL     OW16612   4.053   1.379   3.374  0.2115 -0.1757  0.1190
 1660SOL    HW116613   3.977   1.331   3.407  0.3244 -0.3009  0.1927
 1660SOL    HW216614   4.090   1.303   3.330 -2.2403 -1.0392 -0.4866
 1661SOL     OW16615   2.985   0.945   4.728 -0.3215  0.2563 -0.0950
 1661SOL    HW116616   2.913   0.953   4.666 -0.2197 -2.4288 -0.5494
 1661SOL    HW216617   2.997   0.851   4.718 -0.7977  0.2825 -0.9210
 1662SOL     OW16618   4.486   4.649   0.786  0.2727 -0.3856  0.4772
 1662SOL    HW116619   4.467   4.587   0.857  0.5123 -1.0073  0.0005
 1662SOL    HW216620   4.499   4.732   0.831 -1.6010  0.2068 -0.0708
 1663SOL     OW16621   1.993   3.072   8.916 -0.4933 -0.0468  0.6473
 1663SOL    HW116622   2.029   2.985   8.930 -0.2952  0.3527  2.6769
 1663SOL    HW216623   1.914   3.057   8.865 -0.5024  2.3391 -0.0772
 1664SOL     OW16624   2.292   1.885  11.279  0.3888  0.2477  0.1922
 1664SOL    HW116625   2.216   1.928  11.318  0.3318  0.7108 -0.4272
 1664SOL    HW216626   2.359   1.917  11.340  0.8823 -1.9654  0.8114
 1665SOL     OW16627   1.383   4.127   7.154  0.4489  0.3783  0.4112
 1665SOL    HW116628   1.353   4.211   7.121  2.2256 -0.1281 -2.4289
 1665SOL    HW216629   1.398   4.090   7.067 -1.5373 -0.4405  0.4065
 1666SOL     OW16630   1.316   4.508  11.725  0.6919 -0.0853  0.4446
 1666SOL    HW116631   1.320   4.415  11.748  2.6138 -0.0929  0.0095
 1666SOL    HW216632   1.378   4.537  11.792  0.5588  1.1196  0.0457
 1667SOL     OW16633   4.486   4.188   6.502  0.5193 -0.2529 -0.2698
 1667SOL    HW116634   4.468   4.100   6.469 -0.0604  0.3169 -1.4379
 1667SOL    HW216635   4.410   4.230   6.463  0.6489 -0.8865 -1.2172
 1668SOL     OW16636   3.461   0.773   8.280  0.2540  0.9950  0.4936
 1668SOL    HW116637   3.474   0.688   8.323  2.3814  0.5451 -1.0759
 1668SOL    HW216638   3.550   0.807   8.278 -0.6619  3.4957  1.9582
 1669SOL     OW16639   1.930   2.455   2.512 -0.3761 -0.8437 -0.4884
 1669SOL    HW116640   1.929   2.486   2.421  0.4524 -2.3200 -1.0095
 1669SOL    HW216641   1.839   2.479   2.530  0.4124  1.0530  0.9232
 1670SOL     OW16642   2.842   4.176   7.436  0.3234  0.6425  0.2331
 1670SOL    HW116643   2.928   4.162   7.395 -0.9095  1.8446 -2.7552
 1670SOL    HW216644   2.799   4.161   7.352 -0.7375 -1.2277  1.1328
 1671SOL     OW16645   2.812   3.383  13.389  0.2485  0.6115  0.0808
 1671SOL    HW116646   2.856   3.392  13.305  1.7272  1.2068  0.9326
 1671SOL    HW216647   2.768   3.467  13.404  0.0197  0.0466  2.6261
 1672SOL     OW16648   1.833   0.188   2.841  0.8603 -0.1702 -0.1063
 1672SOL    HW116649   1.885   0.190   2.921 -0.0785  0.2480  0.4900
 1672SOL    HW216650   1.746   0.209   2.876  0.4649  0.5519 -1.5254
 1673SOL     OW16651   3.173   4.138   2.377 -0.5617  0.0704 -0.3014
 1673SOL    HW116652   3.232   4.078   2.332 -0.1295  0.4422 -0.2333
 1673SOL    HW216653   3.099   4.151   2.317 -0.2629 -0.9957 -0.9018
 1674SOL     OW16654   3.832   2.356   8.589  0.6066  0.0424  0.8653
 1674SOL    HW116655   3.910   2.352   8.645  1.2620  0.1312 -0.0486
 1674SOL    HW216656   3.769   2.396   8.649  2.1840  2.9880  0.5289
 1675SOL     OW16657   0.336   3.417   4.821 -0.0610 -0.6295 -0.0198
 1675SOL    HW116658   0.419   3.445   4.781 -1.0608  1.7459 -0.4700
 1675SOL    HW216659   0.334   3.325   4.798  0.6703 -0.4890 -0.6658
 1676SOL     OW16660   0.897   3.000   3.139  0.2413  0.0760 -0.3340
 1676SOL    HW116661   0.962   3.004   3.069 -0.3647  2.2395 -0.7714
 1676SOL    HW216662   0.958   2.984   3.211  0.9236 -0.3799 -1.0071
 1677SOL     OW16663   3.198   2.064  16.664  0.4016  0.1751  0.2740
 1677SOL    HW116664   3.200   2.144  16.716  3.3620  1.6883 -2.1838
 1677SOL    HW216665   3.257   2.088  16.592  2.1040 -1.9509  0.9763
 1678SOL     OW16666   2.378   1.654   9.776  0.2979 -0.0606  0.4080
 1678SOL    HW116667   2.379   1.652   9.872  0.7135  4.6050  0.5219
 1678SOL    HW216668   2.439   1.582   9.761 -2.6678 -2.6055  0.5263
 1679SOL     OW16669   3.293   2.664   6.338  0.4846  0.0168  0.6333
 1679SOL    HW116670   3.203   2.688   6.318  0.5571 -1.0539 -0.9151
 1679SOL    HW216671   3.296   2.586   6.394  1.2052 -1.4816 -1.4823
 1680SOL     OW16672   4.267   2.710   9.365 -0.6519 -0.0785  0.7603
 1680SOL    HW116673   4.249   2.794   9.322  1.0734 -0.6730 -1.1265
 1680SOL    HW216674   4.324   2.738   9.437 -1.1832  2.5890  0.1203
 1681SOL     OW16675   2.373   2.308   0.627  0.3766  0.3139 -0.0921
 1681SOL    HW116676   2.281   2.328   0.610 -0.1052 -0.1631  2.0087
 1681SOL    HW216677   2.380   2.267   0.713  0.5632  1.7738  0.5697
 1682SOL     OW16678   0.610   1.704  14.094 -0.3287  0.5821 -0.0054
 1682SOL    HW116679   0.554   1.705  14.016 -2.6679 -2.9064  1.6119
 1682SOL    HW216680   0.620   1.799  14.099 -0.2567  0.6135 -0.6365
 1683SOL     OW16681   0.275   3.659   1.047  0.6403 -0.1764  0.0941
 1683SOL    HW116682   0.240   3.709   1.121 -1.8694 -0.8546 -0.6341
 1683SOL    HW216683   0.277   3.723   0.976 -2.8194  2.6460  2.4826
 1684SOL     OW16684   0.640   1.666   4.787 -0.8059  0.3540  0.0622
 1684SOL    HW116685   0.711   1.680   4.724 -0.5702 -0.0180  0.2446
 1684SOL    HW216686   0.692   1.622   4.854 -0.0465  1.3322  0.1263
 1685SOL     OW16687   0.692   2.760  10.213  0.1678 -0.0816 -0.1037
 1685SOL    HW116688   0.660   2.848  10.232 -1.4869 -0.1442 -2.6708
 1685SOL    HW216689   0.784   2.764  10.239  0.1551  1.9268 -0.3866
 1686SOL     OW16690   3.530   4.117   4.092 -0.2935  0.1477 -0.2574
 1686SOL    HW116691   3.459   4.055   4.107 -0.6355  0.4433 -0.6768
 1686SOL    HW216692   3.611   4.068   4.109  1.2103  2.2421 -1.3440
 1687SOL     OW16693   0.107   1.059   7.535 -0.8494 -0.0208 -0.0968
 1687SOL    HW116694   0.137   0.999   7.467  1.2808  0.7608  0.1360
 1687SOL    HW216695   0.165   1.043   7.610 -1.1023  1.7870  0.4773
 1688SOL     OW16696   3.185   3.890  16.284 -0.3144  0.2309  0.7190
 1688SOL    HW116697   3.205   3.818  16.224  0.0125 -0.7254  1.9820
 1688SOL    HW216698   3.219   3.966  16.237  2.5528 -1.0272  0.7956
 1689SOL     OW16699   1.044   0.371   4.811 -0.2742 -0.2881  0.6194
 1689SOL    HW116700   1.035   0.276   4.820  1.2748 -0.4454  0.5311
 1689SOL    HW216701   0.954   0.403   4.806  0.0484  0.4750 -0.2073
 1690SOL     OW16702   1.140   2.621  13.143  0.4045 -0.4251  0.0967
 1690SOL    HW116703   1.231   2.648  13.130  0.7577 -1.2576  0.8586
 1690SOL    HW216704   1.108   2.680  13.212  0.9215 -0.6193  0.5028
 1691SOL     OW16705   3.614   3.062   3.281  0.0279  0.3075  0.5297
 1691SOL    HW116706   3.616   3.104   3.367 -1.4038  0.8078  0.3238
 1691SOL    HW216707   3.577   2.977   3.305 -0.1003  0.2746  0.2085
 1692SOL     OW16708   1.523   1.133   0.520  0.1176  0.2179 -0.2808
 1692SOL    HW116709   1.577   1.098   0.590 -1.3289  0.3205  0.8847
 1692SOL    HW216710   1.586   1.185   0.469 -0.3581  1.4660  0.3925
 1693SOL     OW16711   4.591   4.418  14.057  0.4325  0.1422  0.2124
 1693SOL    HW116712   4.539   4.339  14.040  0.7121  0.0385 -0.1462
 1693SOL    HW216713   4.540   4.475  14.000 -0.6401 -2.1050 -1.0663
 1694SOL     OW16714   1.601   1.546   3.869  0.0395  0.3592 -0.1799
 1694SOL    HW116715   1.667   1.496   3.822  0.4912  0.6913  0.1090
 1694SOL    HW216716   1.665   1.606   3.908  0.3390  0.5683 -0.9762
 1695SOL     OW16717   1.474   4.372   6.473 -0.4446 -0.6599 -0.2935
 1695SOL    HW116718   1.496   4.439   6.407  0.0397 -0.6350 -0.1081
 1695SOL    HW216719   1.478   4.299   6.412  1.2623 -1.2086  0.4819
 1696SOL     OW16720   0.412   2.356   3.753  0.3171 -0.0078  0.1957
 1696SOL    HW116721   0.473   2.386   3.686  0.4941 -1.8671 -0.4533
 1696SOL    HW216722   0.330   2.386   3.714  0.3023 -1.1535 -0.6504
 1697SOL     OW16723   2.396   1.902  15.860 -0.1993 -0.4425 -0.1493
 1697SOL    HW116724   2.398   1.810  15.834 -0.5883  0.1680 -2.3498
 1697SOL    HW216725   2.397   1.895  15.956 -1.5953 -0.1972 -0.1205
 1698SOL     OW16726   0.789   2.517   2.797 -0.0108 -0.1301  0.4429
 1698SOL    HW116727   0.734   2.493   2.722 -0.3610  0.9704  0.3440
 1698SOL    HW216728   0.854   2.572   2.754  0.3661 -0.7892  0.1681
 1699SOL     OW16729   2.578   1.239   7.608 -0.3572 -0.4330  0.0926
 1699SOL    HW116730   2.541   1.172   7.665 -0.7225 -1.9104 -1.8893
 1699SOL    HW216731   2.593   1.302   7.678  0.5051 -1.6126  0.9698
 1700SOL     OW16732   1.051   1.992   5.872 -0.6468 -0.4194  0.1372
 1700SOL    HW116733   1.144   2.008   5.883 -1.2139  2.2831  1.0199
 1700SOL    HW216734   1.047   1.902   5.904  1.0652 -1.1547 -1.7346
 1701SOL     OW16735   3.702   2.157   7.777 -0.3156 -0.1186 -0.0970
 1701SOL    HW116736   3.671   2.095   7.711  2.6521 -0.6468 -0.9851
 1701SOL    HW216737   3.795   2.161   7.756 -0.3830 -0.0025 -0.3750
 1702SOL     OW16738   3.287   1.640   7.323  0.1664  0.1008  0.4764
 1702SOL    HW116739   3.232   1.658   7.400 -2.1657 -3.2857 -0.4380
 1702SOL    HW216740   3.221   1.613   7.259  1.1708  1.0447 -0.9518
 1703SOL     OW16741   0.445   3.190  13.749  0.3124 -0.1824  0.7709
 1703SOL    HW116742   0.429   3.239  13.669  0.2568 -2.1416 -0.4275
 1703SOL    HW216743   0.445   3.256  13.818 -0.7407  1.1566 -0.5229
 1704SOL     OW16744   4.430   1.425   1.826 -0.2278 -0.8181 -0.4828
 1704SOL    HW116745   4.516   1.464   1.840 -0.5938 -0.1424 -0.1191
 1704SOL    HW216746   4.427   1.374   1.907 -0.4707  0.3318  0.2344
 1705SOL     OW16747   2.367   0.901   2.470 -0.3692  0.3782  0.2024
 1705SOL    HW116748   2.441   0.844   2.492 -0.1087  0.6307 -0.0144
 1705SOL    HW216749   2.416   0.984   2.463  0.3468 -0.1639 -1.1899
 1706SOL     OW16750   2.615   0.760  17.075  0.4721  0.1378  0.1223
 1706SOL    HW116751   2.652   0.800  16.996  0.7786 -1.5055 -0.5651
 1706SOL    HW216752   2.539   0.819  17.073 -0.5793 -1.1969  0.5710
 1707SOL     OW16753   4.115   1.347   1.434  0.7417 -0.4908 -0.1459
 1707SOL    HW116754   4.199   1.381   1.406  1.1943 -1.2157  0.3393
 1707SOL    HW216755   4.093   1.372   1.524 -0.9995 -2.5053 -0.0072
 1708SOL     OW16756   3.983   3.626  14.356 -0.1699 -0.0229 -0.3316
 1708SOL    HW116757   3.991   3.606  14.262 -0.6903 -2.0535  0.0605
 1708SOL    HW216758   4.074   3.603  14.376  0.3493 -0.0046 -2.6558
 1709SOL     OW16759   4.030   3.245  12.286  0.1042 -0.9467 -0.2212
 1709SOL    HW116760   4.075   3.326  12.308 -0.3166 -0.0750 -2.5177
 1709SOL    HW216761   4.070   3.229  12.201  0.0669 -0.6663 -0.2893
 1710SOL     OW16762   2.371   3.246   5.883  0.0204  0.2611 -0.5937
 1710SOL    HW116763   2.287   3.214   5.850 -0.9957  3.1486 -0.8086
 1710SOL    HW216764   2.420   3.272   5.805 -1.4499  1.9350 -0.9756
 1711SOL     OW16765   3.710   1.871   3.419 -0.0506 -0.2987  0.1259
 1711SOL    HW116766   3.720   1.776   3.424  2.2847 -0.0945 -0.6856
 1711SOL    HW216767   3.709   1.902   3.510 -3.5765  0.0383 -0.0037
 1712SOL     OW16768   3.387   2.099   7.657  0.2091 -0.1209  0.2780
 1712SOL    HW116769   3.402   2.141   7.742 -1.0361 -0.3614  0.6054
 1712SOL    HW216770   3.389   2.007   7.681 -1.8302  0.3350  2.1935
 1713SOL     OW16771   3.158   2.978   1.400 -0.0932 -0.4251  1.0425
 1713SOL    HW116772   3.207   2.907   1.358  0.5811 -0.1862  1.4204
 1713SOL    HW216773   3.090   2.995   1.335  0.8884 -1.9822 -0.3869
 1714SOL     OW16774   1.185   4.697  16.760 -0.4616  0.2073 -0.2185
 1714SOL    HW116775   1.274   4.684  16.728  0.8251  0.9830  3.0105
 1714SOL    HW216776   1.215   4.719  16.848  0.1537 -1.3813 -0.0380
 1715SOL     OW16777   0.078   2.192  11.829  0.3430 -0.3603 -0.2357
 1715SOL    HW116778   0.007   2.131  11.810  0.8329 -0.3788 -2.0839
 1715SOL    HW216779   0.138   2.158  11.762 -1.0649  0.9004 -2.1551
 1716SOL     OW16780   2.524   3.103   5.051 -0.2832 -0.4745  0.0290
 1716SOL    HW116781   2.459   3.105   4.981 -0.0983 -1.7600 -0.1776
 1716SOL    HW216782   2.566   3.179   5.010 -0.2656 -0.8765 -0.6885
 1717SOL     OW16783   2.037   2.854   7.312  0.1438 -0.0786 -0.1793
 1717SOL    HW116784   2.086   2.875   7.391  2.0930  0.7224 -1.6162
 1717SOL    HW216785   1.975   2.794   7.354 -0.3088 -0.4270 -1.3517
 1718SOL     OW16786   3.839   1.821   4.350  0.1488  0.4864 -0.3868
 1718SOL    HW116787   3.884   1.900   4.319  2.5876 -0.2001  1.3719
 1718SOL    HW216788   3.749   1.850   4.363  0.2344 -0.4854  2.3876
 1719SOL     OW16789   3.180   1.651   3.626 -0.1653  0.8142  0.0410
 1719SOL    HW116790   3.114   1.636   3.559  0.2062  0.3057 -0.2104
 1719SOL    HW216791   3.138   1.624   3.708 -1.2352  0.2447 -0.6997
 1720SOL     OW16792   4.242   1.357   6.104 -0.0759  0.0637 -0.2161
 1720SOL    HW116793   4.280   1.331   6.188 -1.1639 -0.6924  0.0433
 1720SOL    HW216794   4.321   1.398   6.069 -1.9231  3.9547  0.2089
 1721SOL     OW16795   1.904   3.705   5.178 -0.3839 -0.2838  0.3399
 1721SOL    HW116796   1.908   3.626   5.231 -0.1944  0.0842  0.8772
 1721SOL    HW216797   1.997   3.727   5.165  0.3544 -4.3380 -1.1864
 1722SOL     OW16798   1.110   4.623   1.712  0.2249 -0.6268 -0.0506
 1722SOL    HW116799   1.123   4.711   1.748  1.2306 -0.9348  0.3677
 1722SOL    HW216800   1.032   4.637   1.658  0.6205 -1.4885 -0.8477
 1723SOL     OW16801   2.077   0.647   8.401  0.2380 -0.1172 -0.3551
 1723SOL    HW116802   2.172   0.634   8.401 -0.0026 -1.8580  0.1811
 1723SOL    HW216803   2.070   0.702   8.478 -0.9603 -1.7603  0.7044
 1724SOL     OW16804   0.429   3.285  13.492 -0.4681  0.0058  0.1082
 1724SOL    HW116805   0.487   3.256  13.422 -0.5055 -1.6161  0.7421
 1724SOL    HW216806   0.457   3.376  13.506  0.3228 -0.2856  0.3990
 1725SOL     OW16807   1.196   2.896   4.858  0.1478 -0.0600  0.1082
 1725SOL    HW116808   1.133   2.845   4.908  0.2726 -0.2132  0.1095
 1725SOL    HW216809   1.209   2.974   4.912  0.6287  0.0871 -0.2159
 1726SOL     OW16810   2.962   3.475   4.585  0.2992 -0.0122 -0.4472
 1726SOL    HW116811   3.005   3.531   4.520  2.4712  0.7709  1.6782
 1726SOL    HW216812   2.963   3.387   4.548 -0.3920  0.3394 -1.2942
 1727SOL     OW16813   2.918   4.106   7.910 -0.1623  0.1523 -0.2536
 1727SOL    HW116814   2.934   4.016   7.940  2.3925  1.2310  1.6289
 1727SOL    HW216815   2.899   4.090   7.818 -1.1716 -0.2012  0.0175
 1728SOL     OW16816   0.741   2.055  17.238 -0.3023 -0.0020  0.3579
 1728SOL    HW116817   0.750   1.996  17.313 -0.9739  0.9765  1.2211
 1728SOL    HW216818   0.807   2.017  17.180  0.0722 -0.0055  0.7900
 1729SOL     OW16819   0.965   0.895   4.824 -0.0281  0.5903 -0.4615
 1729SOL    HW116820   0.983   0.971   4.768 -1.2614  1.7536  0.7396
 1729SOL    HW216821   0.869   0.894   4.823 -0.0279  0.4764 -0.1094
 1730SOL     OW16822   1.348   0.140   4.287  0.4149  0.0140  0.2752
 1730SOL    HW116823   1.437   0.110   4.307  0.2404  0.1873  1.3243
 1730SOL    HW216824   1.341   0.142   4.192 -1.4682  0.0349  0.4152
 1731SOL     OW16825   1.815   0.560   2.741  0.5988  0.4704 -0.8523
 1731SOL    HW116826   1.759   0.574   2.664 -1.7067  1.1141  0.9374
 1731SOL    HW216827   1.772   0.479   2.770  2.8879 -1.4916 -2.8857
 1732SOL     OW16828   0.448   2.985   1.628 -0.2894  0.0503 -0.2474
 1732SOL    HW116829   0.451   3.078   1.652 -0.7901 -0.3280  1.3283
 1732SOL    HW216830   0.376   2.955   1.683 -1.2626  0.6266 -1.2063
 1733SOL     OW16831   1.993   1.282  12.359 -0.5541  0.9114  0.1865
 1733SOL    HW116832   2.011   1.301  12.451  3.4984  1.1137 -0.6693
 1733SOL    HW216833   1.902   1.252  12.368 -0.7815  0.2656 -4.1624
 1734SOL     OW16834   3.468   2.956   1.396 -0.1626 -0.4156 -0.4736
 1734SOL    HW116835   3.551   2.931   1.354  0.5850  0.2705  0.6197
 1734SOL    HW216836   3.441   3.018   1.328  3.2564  0.0547 -1.4063
 1735SOL     OW16837   4.236   4.238   4.960 -0.0226 -0.4105  0.3501
 1735SOL    HW116838   4.156   4.217   4.912 -0.5020  2.5926 -0.1534
 1735SOL    HW216839   4.238   4.333   4.956 -0.8819 -0.4586 -0.9556
 1736SOL     OW16840   3.702   2.167   4.081 -0.2145  0.5789 -0.0473
 1736SOL    HW116841   3.714   2.176   3.987 -1.6775  2.3203 -0.0745
 1736SOL    HW216842   3.710   2.258   4.109 -0.2444  0.9594 -1.2943
 1737SOL     OW16843   1.578   0.304  12.195  0.2481 -0.5764  0.7066
 1737SOL    HW116844   1.500   0.355  12.214  0.8833  1.4042 -2.0325
 1737SOL    HW216845   1.546   0.214  12.184 -2.7971  0.5334  0.4839
 1738SOL     OW16846   1.876   0.628  16.730 -0.4330 -0.2034 -0.3338
 1738SOL    HW116847   1.893   0.606  16.639  1.9963 -0.4734  0.1846
 1738SOL    HW216848   1.960   0.659  16.765 -0.6602  0.3674 -0.2970
 1739SOL     OW16849   0.342   1.083   4.468  0.3201 -0.7690  0.2233
 1739SOL    HW116850   0.343   1.164   4.519 -1.4376 -0.9175  0.4740
 1739SOL    HW216851   0.299   1.019   4.525  0.4753  0.8593  2.1584
 1740SOL     OW16852   4.060   0.180   3.086  0.3284 -0.0469 -0.1618
 1740SOL    HW116853   3.978   0.135   3.103  0.6800 -1.6586 -2.8604
 1740SOL    HW216854   4.036   0.252   3.028  1.3779 -0.4452 -1.0839
 1741SOL     OW16855   0.357   1.107   7.393 -0.2428  0.3907  0.0022
 1741SOL    HW116856   0.425   1.165   7.427  0.7109 -1.2276  0.8540
 1741SOL    HW216857   0.384   1.035   7.450  3.1223  0.4386 -1.5174
 1742SOL     OW16858   1.815   1.583  12.326  0.4203 -0.3132  0.1629
 1742SOL    HW116859   1.854   1.527  12.394  1.8003 -1.5666 -1.6517
 1742SOL    HW216860   1.841   1.544  12.242 -0.0940 -0.0672 -0.1047
 1743SOL     OW16861   0.363   4.583  15.833  0.5977  0.1590  1.0075
 1743SOL    HW116862   0.269   4.580  15.849  0.4107  0.7921 -0.0084
 1743SOL    HW216863   0.397   4.544  15.914  0.4304 -0.0916  0.9549
 1744SOL     OW16864   1.219   2.501   5.255 -0.2385 -0.4977 -0.1376
 1744SOL    HW116865   1.294   2.452   5.223  0.8686 -0.0684  1.8160
 1744SOL    HW216866   1.214   2.566   5.185  2.9051 -0.3824 -0.2363
 1745SOL     OW16867   4.282   2.121   5.782  0.1986 -0.1742 -0.5859
 1745SOL    HW116868   4.342   2.102   5.855 -2.0043 -0.6156  1.1021
 1745SOL    HW216869   4.318   2.057   5.720 -2.4269 -0.3910 -1.8562
 1746SOL     OW16870   4.047   1.324   3.709 -0.2973  0.6819  0.2343
 1746SOL    HW116871   4.089   1.408   3.696 -0.8643  0.7239 -1.4180
 1746SOL    HW216872   4.113   1.263   3.740 -1.7324 -0.6879  0.6205
 1747SOL     OW16873   3.496   3.598  13.160  0.4409  0.0464  0.1909
 1747SOL    HW116874   3.489   3.610  13.065  0.6314  1.1928  0.3204
 1747SOL    HW216875   3.591   3.605  13.166  0.5651 -1.4653 -0.0869
 1748SOL     OW16876   2.247   3.406  16.310  0.5179 -0.0570 -0.0494
 1748SOL    HW116877   2.219   3.465  16.380 -2.1008 -2.7907  1.1745
 1748SOL    HW216878   2.334   3.440  16.287  0.5907  0.0003  0.3048
 1749SOL     OW16879   2.568   2.078   4.492 -0.0913  0.2930  0.4211
 1749SOL    HW116880   2.589   2.161   4.535  0.2627 -0.3059  1.4101
 1749SOL    HW216881   2.533   2.025   4.563 -1.4111 -0.5467 -0.8722
 1750SOL     OW16882   1.307   0.649   7.933  0.3887  0.3795 -0.0333
 1750SOL    HW116883   1.395   0.681   7.948  0.4766 -0.9636  2.4278
 1750SOL    HW216884   1.309   0.574   7.992  2.6374  1.2283  0.9616
 1751SOL     OW16885   2.320   2.213  14.403  0.2908 -0.0517  0.2314
 1751SOL    HW116886   2.275   2.243  14.324  0.3024  0.0461  0.2611
 1751SOL    HW216887   2.299   2.120  14.393 -0.8141  0.6500 -3.6627
 1752SOL     OW16888   1.916   0.908   5.106  0.2644  0.5274 -0.3695
 1752SOL    HW116889   1.938   0.973   5.173  0.6145 -1.1065  1.1198
 1752SOL    HW216890   2.005   0.883   5.079  0.3732 -1.4182  1.8083
 1753SOL     OW16891   4.696   1.841  17.549 -0.0655 -0.0902  0.2932
 1753SOL    HW116892   0.044   1.827  17.505 -0.2178 -2.7277  0.8423
 1753SOL    HW216893   4.688   1.936  17.550 -2.3433 -0.3319  3.6746
 1754SOL     OW16894   3.673   0.077   4.436  0.2519  0.1602  0.3296
 1754SOL    HW116895   3.750   0.037   4.476  0.8706 -0.6466 -1.6335
 1754SOL    HW216896   3.703   0.163   4.405  0.6526 -0.5137 -1.1788
 1755SOL     OW16897   3.761   4.228  15.966 -0.3393 -0.5333  0.2270
 1755SOL    HW116898   3.815   4.252  15.891 -0.5352  1.4140  0.7100
 1755SOL    HW216899   3.698   4.299  15.957 -0.2632 -0.3546  1.0471
 1756SOL     OW16900   0.925   2.476   5.489  0.6325  0.1199 -0.1184
 1756SOL    HW116901   0.880   2.408   5.539  0.1608 -0.0303 -0.7491
 1756SOL    HW216902   0.916   2.437   5.401 -0.4506 -1.9251  0.8947
 1757SOL     OW16903   1.330   4.594   6.122 -0.0009 -0.2573  0.3419
 1757SOL    HW116904   1.263   4.529   6.143 -0.2179 -0.3401 -0.5742
 1757SOL    HW216905   1.402   4.551   6.168 -0.3669 -0.7403  0.4629
 1758SOL     OW16906   4.727   2.076  17.194 -0.2131  0.7343 -0.4308
 1758SOL    HW116907   0.061   2.031  17.147  0.8006  0.8577  0.9909
 1758SOL    HW216908   4.735   2.165  17.160  2.4950  0.4275 -0.6026
 1759SOL     OW16909   1.307   3.729   5.372  0.3416 -0.2822  0.2125
 1759SOL    HW116910   1.255   3.676   5.434  1.6675  0.3424  1.8548
 1759SOL    HW216911   1.234   3.779   5.335  1.1733  0.6919 -0.0827
 1760SOL     OW16912   3.561   0.288  13.129 -0.0869 -0.4518 -0.1321
 1760SOL    HW116913   3.651   0.282  13.162 -0.2981 -1.2855  0.2821
 1760SOL    HW216914   3.550   0.381  13.110 -0.3927 -1.0631 -3.0465
 1761SOL     OW16915   0.793   4.104   7.466 -0.2843 -0.0906 -0.2903
 1761SOL    HW116916   0.698   4.115   7.462 -0.2369  0.5979  0.8102
 1761SOL    HW216917   0.811   4.195   7.489  0.5734 -0.4024  0.2516
 1762SOL     OW16918   0.345   2.746  16.896  0.7659  0.0408  0.7719
 1762SOL    HW116919   0.413   2.813  16.906  2.0298 -0.9354 -1.3398
 1762SOL    HW216920   0.273   2.797  16.932  1.2669  0.3131  1.4023
 1763SOL     OW16921   1.256   3.984   6.051  0.3453  0.0043 -0.2310
 1763SOL    HW116922   1.311   3.948   5.981  2.8216 -0.7236  2.0767
 1763SOL    HW216923   1.174   3.969   6.005  1.7576 -1.1793 -2.3876
 1764SOL     OW16924   4.037   1.062   5.768 -0.2804  0.3750 -0.0071
 1764SOL    HW116925   3.984   1.101   5.699  0.9137  1.5840 -0.2393
 1764SOL    HW216926   4.047   1.130   5.835  1.1821 -1.3447  1.5004
 1765SOL     OW16927   2.461   4.583   9.406 -0.4803  0.0346 -0.1969
 1765SOL    HW116928   2.416   4.525   9.468  1.8246 -1.4024  0.1122
 1765SOL    HW216929   2.547   4.599   9.443  0.3820  0.0066 -2.1905
 1766SOL     OW16930   4.604   0.151   7.806  0.3297 -0.4369 -0.3176
 1766SOL    HW116931   4.636   0.061   7.808 -2.8406 -1.5258  0.9538
 1766SOL    HW216932   4.671   0.188   7.864 -0.4175  3.6093 -2.0417
 1767SOL     OW16933   1.331   2.831   7.794 -0.3967 -0.4441  0.7057
 1767SOL    HW116934   1.394   2.771   7.754 -0.5310  0.3145 -0.6589
 1767SOL    HW216935   1.251   2.810   7.745 -1.1705  2.0866  0.8668
 1768SOL     OW16936   2.523   3.901   7.216 -0.0368 -0.0256 -0.5242
 1768SOL    HW116937   2.497   3.937   7.131 -2.5588  1.6618  0.9709
 1768SOL    HW216938   2.593   3.848   7.177  0.5205  0.2527  0.0917
 1769SOL     OW16939   4.173   2.713   8.594  0.2435 -0.2126 -0.4242
 1769SOL    HW116940   4.125   2.702   8.676 -2.3895 -0.2689 -1.9941
 1769SOL    HW216941   4.248   2.655   8.610 -0.7031 -1.1908  0.4758
 1770SOL     OW16942   2.748   0.321   5.432 -0.0649  0.3291  0.3865
 1770SOL    HW116943   2.824   0.284   5.476  0.2207  0.1261 -0.2791
 1770SOL    HW216944   2.759   0.283   5.345 -0.0925  0.6354  0.2463
 1771SOL     OW16945   0.661   2.617   5.711  0.1833  0.3379 -0.4755
 1771SOL    HW116946   0.699   2.541   5.755  1.0045  0.5606 -0.8041
 1771SOL    HW216947   0.567   2.617   5.728  0.5472  2.6066  1.6035
 1772SOL     OW16948   1.659   2.044   4.671 -0.8016 -0.0977 -0.3191
 1772SOL    HW116949   1.588   1.983   4.689 -0.6431  0.0016  0.6478
 1772SOL    HW216950   1.632   2.130   4.703 -0.8646 -0.6111  1.0040
 1773SOL     OW16951   0.381   2.954   0.821 -0.6234 -0.0787  0.5508
 1773SOL    HW116952   0.375   3.042   0.857  0.0463 -0.3050  1.2384
 1773SOL    HW216953   0.325   2.969   0.746 -0.6940  0.6240  0.7471
 1774SOL     OW16954   0.534   1.858   8.921 -0.1096  0.2741  0.2789
 1774SOL    HW116955   0.560   1.825   8.835  0.1293  0.6958  0.1895
 1774SOL    HW216956   0.571   1.946   8.923  0.4946  0.0284  0.1204
 1775SOL     OW16957   1.254   1.477   7.823  0.0215 -0.2519 -0.0573
 1775SOL    HW116958   1.307   1.523   7.758 -0.5714 -2.0097 -1.7974
 1775SOL    HW216959   1.183   1.457   7.762 -0.5407  1.9328 -0.1023
 1776SOL     OW16960   2.173   2.671   1.609  0.0461  0.1657  0.2027
 1776SOL    HW116961   2.244   2.696   1.668  0.3954  0.6990 -0.4436
 1776SOL    HW216962   2.218   2.598   1.564 -0.7203  0.3019 -0.7889
 1777SOL     OW16963   3.801   4.402   3.693 -0.1181 -0.3613 -0.4548
 1777SOL    HW116964   3.739   4.329   3.687 -1.2430  0.4826  0.7773
 1777SOL    HW216965   3.866   4.370   3.630 -1.4219 -1.4100 -1.2758
 1778SOL     OW16966   0.033   1.521  15.073  0.2323  0.3128 -0.4269
 1778SOL    HW116967   4.691   1.471  15.054 -0.1570 -0.0094  2.1139
 1778SOL    HW216968   0.094   1.448  15.077  0.4959  0.3378 -3.5791
 1779SOL     OW16969   1.224   3.611   6.430 -0.4421 -0.4556  0.1846
 1779SOL    HW116970   1.236   3.603   6.525  0.0707 -0.7124  0.0990
 1779SOL    HW216971   1.219   3.516   6.424 -2.1370 -0.5650  2.9867
 1780SOL     OW16972   0.704   2.914   6.242 -0.7137 -0.7715  0.0272
 1780SOL    HW116973   0.783   2.869   6.271  0.6910 -0.3132 -3.0710
 1780SOL    HW216974   0.649   2.910   6.320 -1.2081 -0.8525 -0.3259
 1781SOL     OW16975   4.375   1.003   5.482  0.7033  0.4129 -0.4894
 1781SOL    HW116976   4.450   0.980   5.427 -1.6713 -2.5230 -2.5049
 1781SOL    HW216977   4.398   0.971   5.569 -0.0582  3.1547  0.7014
 1782SOL     OW16978   1.979   3.535   7.916  0.1815 -0.8939  0.1443
 1782SOL    HW116979   1.979   3.442   7.894  1.6112 -1.0195  0.6826
 1782SOL    HW216980   1.904   3.548   7.975 -1.2684 -4.9183 -0.8711
 1783SOL     OW16981   3.520   2.388   2.617 -0.0624 -0.1075  0.0316
 1783SOL    HW116982   3.463   2.353   2.549  1.1702  1.2277 -1.7097
 1783SOL    HW216983   3.485   2.477   2.625  1.3319  0.4233  0.3562
 1784SOL     OW16984   4.358   3.409   3.780  0.0066 -0.0249  0.5954
 1784SOL    HW116985   4.429   3.471   3.761  1.5320 -2.3510 -1.3289
 1784SOL    HW216986   4.405   3.346   3.834 -0.4192  1.1300  2.3215
 1785SOL     OW16987   3.592   1.030  16.818 -0.3043 -0.2764 -0.0784
 1785SOL    HW116988   3.552   1.116  16.812  0.8851  0.2253 -0.8620
 1785SOL    HW216989   3.526   0.983  16.768 -0.7671  1.9419 -1.5283
 1786SOL     OW16990   1.696   1.880  16.633 -0.1855  0.5898 -0.4249
 1786SOL    HW116991   1.766   1.945  16.627 -1.4788  1.7634 -3.1719
 1786SOL    HW216992   1.731   1.815  16.573 -0.2537 -0.3047  0.5180
 1787SOL     OW16993   4.157   0.618   3.006  0.1251  0.1052 -0.0462
 1787SOL    HW116994   4.092   0.674   2.964 -0.1367  0.1461  0.4149
 1787SOL    HW216995   4.123   0.531   2.983  0.5162 -0.3649  1.1115
 1788SOL     OW16996   1.307   4.518  11.175  0.0914  0.2008  0.0091
 1788SOL    HW116997   1.362   4.467  11.235 -1.3868  1.2031  2.2229
 1788SOL    HW216998   1.359   4.596  11.156 -0.9778  1.0308  0.5053
 1789SOL     OW16999   2.259   4.447   5.459 -0.0786 -0.4662  0.0774
 1789SOL    HW117000   2.326   4.439   5.391 -2.0340 -1.8541 -1.6756
 1789SOL    HW217001   2.186   4.467   5.401  1.9975  1.1726 -1.9493
 1790SOL     OW17002   2.099   4.633   2.063  0.4807 -0.5347 -0.3971
 1790SOL    HW117003   2.041   4.560   2.037 -2.5668  2.2660 -1.4372
 1790SOL    HW217004   2.059   4.714   2.032  2.0543  0.3104 -0.2107
 1791SOL     OW17005   3.858   3.578   3.810 -0.5027  0.8376  0.4728
 1791SOL    HW117006   3.838   3.658   3.761  1.0714  1.0781  0.2136
 1791SOL    HW217007   3.782   3.530   3.777 -0.2994  0.7682  0.1006
 1792SOL     OW17008   3.944   4.273   8.100 -0.3122  0.1536  0.3823
 1792SOL    HW117009   4.037   4.292   8.086 -0.3686  1.7661  2.2202
 1792SOL    HW217010   3.939   4.180   8.075  0.9914  0.5467 -1.3922
 1793SOL     OW17011   4.399   2.104   3.270  0.1451  0.5820 -0.0795
 1793SOL    HW117012   4.336   2.170   3.298 -0.3888 -0.5665  1.4149
 1793SOL    HW217013   4.342   2.027   3.280 -2.1290  1.8400 -3.2794
 1794SOL     OW17014   4.155   1.468  16.039  0.4104 -0.4065  0.0682
 1794SOL    HW117015   4.164   1.377  16.012  3.4893 -0.6218  1.7708
 1794SOL    HW217016   4.060   1.474  16.053  0.1619 -0.5549 -1.6523
 1795SOL     OW17017   2.603   2.619   8.009 -0.2456 -0.0666  0.0975
 1795SOL    HW117018   2.557   2.698   8.038  1.1887  1.0032 -0.5663
 1795SOL    HW217019   2.529   2.559   8.006  0.9927 -1.5264 -1.0004
 1796SOL     OW17020   1.580   4.683   0.398 -0.5780 -0.3707 -0.1514
 1796SOL    HW117021   1.541   4.596   0.408 -0.7622 -0.1199  1.2591
 1796SOL    HW217022   1.496   4.726   0.381 -0.5528 -0.8309 -1.4034
 1797SOL     OW17023   2.030   4.648   8.067 -0.4611  0.1690 -0.3631
 1797SOL    HW117024   2.121   4.629   8.042  0.0633 -2.0908  3.2927
 1797SOL    HW217025   2.019   0.002   8.039  1.7225  0.7480  0.6855
 1798SOL     OW17026   0.839   3.175   5.362  0.0351 -0.6094 -0.0688
 1798SOL    HW117027   0.777   3.104   5.377 -0.6857 -0.1369 -0.8141
 1798SOL    HW217028   0.923   3.129   5.367  0.3017 -0.0404  0.6434
 1799SOL     OW17029   2.574   0.440   7.477  0.4139  0.5363  0.1569
 1799SOL    HW117030   2.567   0.351   7.513  0.1591  0.6617  0.4180
 1799SOL    HW217031   2.561   0.426   7.384  0.4641 -0.5655  0.3167
 1800SOL     OW17032   3.566   4.663   9.478 -0.0256  0.1875  0.0013
 1800SOL    HW117033   3.645   4.621   9.510 -0.3602  0.7815  1.6180
 1800SOL    HW217034   3.539   4.726   9.545  0.6312 -0.4815  0.8855
 1801SOL     OW17035   3.353   1.257  10.984 -0.1270  0.5511  0.2530
 1801SOL    HW117036   3.321   1.278  10.896  2.5233 -2.1663 -1.3732
 1801SOL    HW217037   3.429   1.211  10.948  0.7002  1.9330  0.2200
 1802SOL     OW17038   0.931   0.783   7.607  0.0874 -0.0250 -0.4208
 1802SOL    HW117039   0.910   0.728   7.682  1.9513  1.0000  0.8496
 1802SOL    HW217040   1.024   0.800   7.619  0.0995 -0.1830 -0.3032
 1803SOL     OW17041   4.251   4.735   7.870  0.0625 -0.2263 -0.2534
 1803SOL    HW117042   4.305   0.053   7.812 -0.9115 -0.9150 -1.8134
 1803SOL    HW217043   4.248   0.041   7.956  0.9224  0.2368 -0.4556
 1804SOL     OW17044   0.677   1.266   3.107 -0.1387  0.1553 -0.2750
 1804SOL    HW117045   0.694   1.173   3.121  0.1626  0.0581 -1.2222
 1804SOL    HW217046   0.595   1.264   3.057  1.0853  1.3880 -2.3597
 1805SOL     OW17047   0.888   1.605   7.079 -0.0448 -0.3178  0.6103
 1805SOL    HW117048   0.933   1.546   7.018  1.5030  1.7618 -0.2539
 1805SOL    HW217049   0.868   1.539   7.146  1.3893 -0.9578  0.4083
 1806SOL     OW17050   2.404   3.943  15.822 -0.1683  0.4678 -0.1158
 1806SOL    HW117051   2.390   3.936  15.916  1.1081 -1.5340 -0.0522
 1806SOL    HW217052   2.422   4.037  15.824  1.1123  0.2088  1.3480
 1807SOL     OW17053   1.751   2.206   2.929 -0.3077 -0.4835 -0.5004
 1807SOL    HW117054   1.698   2.260   2.870 -0.1670  0.6832  0.4525
 1807SOL    HW217055   1.687   2.138   2.949 -0.8874  0.7815  1.8953
 1808SOL     OW17056   2.207   3.836  17.593  0.1010  1.0325 -0.7367
 1808SOL    HW117057   2.270   3.898  17.630  2.4672 -1.2960 -0.8311
 1808SOL    HW217058   2.233   3.826  17.501 -0.5003  1.3897 -0.9457
 1809SOL     OW17059   2.830   3.043   1.764 -0.5977  0.0843 -0.3602
 1809SOL    HW117060   2.887   3.104   1.717 -1.4668  0.3514 -1.0919
 1809SOL    HW217061   2.885   3.002   1.830 -1.5864  0.9744  1.0203
 1810SOL     OW17062   2.504   0.773  10.128  0.4933 -0.1877  0.1552
 1810SOL    HW117063   2.555   0.702  10.089 -0.2274 -0.8653  0.4556
 1810SOL    HW217064   2.509   0.828  10.050 -1.0903 -0.4788 -0.1461
 1811SOL     OW17065   2.666   2.474  14.662 -0.4532  0.0939 -0.1772
 1811SOL    HW117066   2.678   2.391  14.706  0.8590  0.5688  0.3589
 1811SOL    HW217067   2.574   2.474  14.688 -0.4181 -2.1599 -0.1106
 1812SOL     OW17068   1.214   3.239   5.942 -0.1357 -0.3621 -0.1472
 1812SOL    HW117069   1.174   3.231   5.856 -0.4997  0.8774 -0.0947
 1812SOL    HW217070   1.208   3.153   5.984  0.8906 -0.6184 -0.5365
 1813SOL     OW17071   1.536   4.493   2.843  0.0747  0.1787 -0.2346
 1813SOL    HW117072   1.537   4.579   2.800 -0.5945 -0.1208 -0.8470
 1813SOL    HW217073   1.608   4.493   2.905  0.9388  0.9069 -1.2340
 1814SOL     OW17074   2.051   3.227   4.620  0.4190  0.0921 -0.6549
 1814SOL    HW117075   1.992   3.261   4.687 -1.6956  0.6126 -2.7679
 1814SOL    HW217076   2.025   3.265   4.536  1.3306  0.9631 -0.5362
 1815SOL     OW17077   2.964   0.220   5.579 -0.4825  0.0966  0.3696
 1815SOL    HW117078   3.059   0.232   5.589 -0.9859  1.5654  3.2009
 1815SOL    HW217079   2.933   0.274   5.651 -0.1445 -0.2870  0.8045
 1816SOL     OW17080   3.131   3.773   6.550  0.2397 -0.0828 -0.1305
 1816SOL    HW117081   3.082   3.847   6.584 -0.9698 -0.3264 -1.3536
 1816SOL    HW217082   3.089   3.746   6.469  1.3930 -1.1998 -0.3773
 1817SOL     OW17083   1.082   0.444  16.543  0.1619 -0.2090  0.0447
 1817SOL    HW117084   1.060   0.362  16.501  1.8172 -1.9225  2.5319
 1817SOL    HW217085   1.125   0.497  16.476 -1.6735  1.2192  0.0018
 1818SOL     OW17086   2.937   2.447  14.303  0.2914  0.0810 -0.0501
 1818SOL    HW117087   2.963   2.528  14.346  1.1844 -0.8847  1.2477
 1818SOL    HW217088   2.845   2.432  14.325  0.7136 -1.6732  0.5670
 1819SOL     OW17089   2.152   1.356   5.020 -0.4624 -0.4691  0.1977
 1819SOL    HW117090   2.141   1.450   5.030 -3.2610 -0.6736 -0.8483
 1819SOL    HW217091   2.196   1.363   4.935  0.8301 -2.8061  0.6563
 1820SOL     OW17092   3.774   4.116   3.341 -0.2519  0.4283  0.5438
 1820SOL    HW117093   3.823   4.179   3.394  1.6971 -1.7249  1.3444
 1820SOL    HW217094   3.825   4.037   3.361 -0.7558 -1.4556 -5.7331
 1821SOL     OW17095   2.845   4.657   3.765 -0.1634  0.6492 -0.3091
 1821SOL    HW117096   2.864   4.674   3.673  0.4803 -1.3302 -0.5579
 1821SOL    HW217097   2.756   4.623   3.766  0.6079 -1.3695  1.2725
 1822SOL     OW17098   1.281   0.984   5.325 -0.5768  0.3561  0.0616
 1822SOL    HW117099   1.231   0.983   5.243  1.2227  1.4938 -1.0417
 1822SOL    HW217100   1.360   0.940   5.293 -0.4270 -1.0161  2.2895
 1823SOL     OW17101   4.252   0.654  14.734  0.4131 -0.3887  0.7751
 1823SOL    HW117102   4.333   0.607  14.719  1.2737  0.8979  1.3708
 1823SOL    HW217103   4.286   0.701  14.810  2.1351  0.5793 -0.5841
 1824SOL     OW17104   2.216   4.587   6.814 -0.4172 -0.5701 -0.0681
 1824SOL    HW117105   2.275   4.618   6.884 -1.2833  1.3455 -0.1729
 1824SOL    HW217106   2.189   4.675   6.787 -0.2758 -0.5653 -0.1914
 1825SOL     OW17107   4.154   0.740   3.999 -0.2614  0.2165 -0.2782
 1825SOL    HW117108   4.061   0.719   3.993  0.4423 -2.9262 -0.0751
 1825SOL    HW217109   4.183   0.705   4.083 -0.5350  0.5647 -0.0397
 1826SOL     OW17110   1.231   2.837   5.229  0.0089 -0.6724 -0.0350
 1826SOL    HW117111   1.316   2.825   5.185  0.1844 -0.0088  0.1188
 1826SOL    HW217112   1.160   2.820   5.167  0.0712 -1.0027 -0.0190
 1827SOL     OW17113   2.755   4.611   0.090 -0.1037 -0.0118  0.2449
 1827SOL    HW117114   2.782   4.630   0.179 -2.8646 -0.7813  1.2306
 1827SOL    HW217115   2.841   4.619   0.047  0.2428 -0.8400  0.7826
 1828SOL     OW17116   0.635   3.050   8.513  0.3931  0.2141  0.5663
 1828SOL    HW117117   0.701   3.037   8.581  2.0313 -0.3805 -1.1424
 1828SOL    HW217118   0.683   3.095   8.444 -0.5722 -1.4893 -1.2093
 1829SOL     OW17119   2.428   0.628   6.662  0.1879  0.4056 -0.1858
 1829SOL    HW117120   2.455   0.536   6.663  1.2377  0.7280  1.8078
 1829SOL    HW217121   2.498   0.677   6.706  0.0411  1.5368 -1.2201
 1830SOL     OW17122   3.443   3.403   2.824 -0.5088  0.1231  0.2607
 1830SOL    HW117123   3.362   3.430   2.781 -0.4522 -0.1568 -0.0137
 1830SOL    HW217124   3.416   3.321   2.867  0.9296 -0.9526 -0.9200
 1831SOL     OW17125   2.681   0.323  11.167  0.1843 -0.1654  0.5415
 1831SOL    HW117126   2.690   0.232  11.197 -0.6169  0.6937  3.3558
 1831SOL    HW217127   2.713   0.377  11.239 -2.3061  0.1774  1.3950
 1832SOL     OW17128   0.833   2.865   8.669 -0.5903 -0.1030 -0.1208
 1832SOL    HW117129   0.831   2.783   8.718 -1.3131  1.0304  1.7463
 1832SOL    HW217130   0.788   2.920   8.733  1.2895  0.1802  0.9571
 1833SOL     OW17131   3.199   1.160  16.949 -0.4383  0.3854  0.5448
 1833SOL    HW117132   3.225   1.111  17.027 -3.3665 -1.9510  0.0115
 1833SOL    HW217133   3.283   1.170  16.904  0.1499 -1.6063  1.1827
 1834SOL     OW17134   3.561   2.886   7.945  0.0752 -0.0906 -0.3907
 1834SOL    HW117135   3.547   2.865   7.853  0.1730 -1.1324 -0.1772
 1834SOL    HW217136   3.626   2.821   7.973 -1.2394 -0.7542  1.0855
 1835SOL     OW17137   0.105   0.097   4.986  0.7118  0.4735  0.2345
 1835SOL    HW117138   0.032   0.037   4.972  1.1978  0.3020 -1.5947
 1835SOL    HW217139   0.056   0.173   4.956 -2.3526 -0.4221  2.8611
 1836SOL     OW17140   1.741   0.215   9.203 -0.0523 -0.5914 -0.2350
 1836SOL    HW117141   1.810   0.271   9.167 -0.2726 -0.3376 -0.2594
 1836SOL    HW217142   1.754   0.135   9.152  1.2955 -0.8771  0.5575
 1837SOL     OW17143   0.010   3.384   7.570  0.1877  0.6285 -0.2263
 1837SOL    HW117144   4.672   3.326   7.552 -1.3512  1.5015  3.1557
 1837SOL    HW217145   0.041   3.414   7.485  0.5339 -0.2452 -0.4114
 1838SOL     OW17146   3.390   2.794  12.394 -0.2518 -0.7972  0.4175
 1838SOL    HW117147   3.309   2.805  12.343 -0.3205 -0.1247  0.6770
 1838SOL    HW217148   3.389   2.865  12.458 -0.2637  0.9737 -1.5380
 1839SOL     OW17149   2.313   4.615   7.996 -0.4166  0.4070 -0.0028
 1839SOL    HW117150   2.364   4.606   7.915  0.7514  1.1186  0.6600
 1839SOL    HW217151   2.306   4.709   8.010 -2.0394  0.2536  0.3144
 1840SOL     OW17152   2.135   1.364  14.877  0.3696  0.4211 -0.3703
 1840SOL    HW117153   2.098   1.355  14.965  1.5409 -0.1537  0.0652
 1840SOL    HW217154   2.075   1.308  14.828  1.0932 -0.6284 -0.0543
 1841SOL     OW17155   4.255   2.706   7.879  0.1672 -0.2018 -0.2885
 1841SOL    HW117156   4.251   2.789   7.831  0.2601  0.2835  0.5251
 1841SOL    HW217157   4.163   2.683   7.882 -0.5749  2.5736 -1.9610
 1842SOL     OW17158   0.771   1.235   4.268  0.1869 -0.3622 -0.0017
 1842SOL    HW117159   0.816   1.159   4.304 -0.4894  0.7389  3.1292
 1842SOL    HW217160   0.682   1.215   4.299  0.1133 -1.0426 -0.6583
 1843SOL     OW17161   0.070   1.918   9.061  0.5333  0.3169 -0.9904
 1843SOL    HW117162   0.159   1.912   9.025  1.2246  1.8039  0.5034
 1843SOL    HW217163   0.055   1.841   9.116 -0.3887  0.3454 -1.2041
 1844SOL     OW17164   3.363   1.919  12.392  0.1981  0.0004  0.1974
 1844SOL    HW117165   3.387   1.982  12.324 -1.2546  1.7889  1.3409
 1844SOL    HW217166   3.433   1.930  12.457  1.4313 -1.1380 -0.9278
 1845SOL     OW17167   0.344   2.353  17.171 -0.2934  0.0410 -0.0505
 1845SOL    HW117168   0.404   2.290  17.132 -0.5074 -1.0873  1.4795
 1845SOL    HW217169   0.346   2.329  17.263  0.3110 -0.8844 -0.3102
 1846SOL     OW17170   0.940   1.086  14.575 -0.5144  0.2481 -0.1065
 1846SOL    HW117171   0.966   1.131  14.495  3.9793 -0.2637  1.0817
 1846SOL    HW217172   0.932   1.161  14.635  2.1461 -0.4946  1.1608
 1847SOL     OW17173   0.214   2.441  14.902 -0.5786  0.4776 -0.2523
 1847SOL    HW117174   0.159   2.494  14.959 -0.6263 -0.2965  0.4274
 1847SOL    HW217175   0.254   2.386  14.969 -0.6160 -1.0367 -1.4498
 1848SOL     OW17176   2.880   4.610   6.386  0.1310 -0.1340 -0.2776
 1848SOL    HW117177   2.792   4.573   6.394 -0.4454  1.3079 -0.0251
 1848SOL    HW217178   2.909   4.613   6.477 -1.7500  0.9160  0.2842
 1849SOL     OW17179   1.668   4.659   0.034 -0.1488 -0.0185 -0.3688
 1849SOL    HW117180   1.603   4.628   0.097  0.6569  0.5206  0.7147
 1849SOL    HW217181   1.746   4.625   0.077  0.3194  0.4023 -0.8804
 1850SOL     OW17182   3.833   2.992   2.928  0.2925  0.3597  0.0162
 1850SOL    HW117183   3.839   3.069   2.985  1.8891 -0.7998  1.4447
 1850SOL    HW217184   3.746   2.961   2.952  1.9970 -4.3091  0.1631
 1851SOL     OW17185   3.729   4.432   0.615 -0.4581  0.1843  0.2944
 1851SOL    HW117186   3.776   4.389   0.544  1.9102 -2.9873  3.7375
 1851SOL    HW217187   3.716   4.517   0.574  1.8094 -0.5102 -1.8406
 1852SOL     OW17188   3.016   0.163   2.637  0.2704 -0.3831  0.1245
 1852SOL    HW117189   2.929   0.166   2.679 -1.8248 -2.0066 -4.0967
 1852SOL    HW217190   3.058   0.123   2.713 -0.9003 -0.6567  0.6417
 1853SOL     OW17191   3.669   1.391  15.926 -0.2937 -0.5117 -0.6523
 1853SOL    HW117192   3.682   1.298  15.908 -1.4518 -0.8038  0.0363
 1853SOL    HW217193   3.708   1.423  15.845 -2.5567 -1.0114 -1.9568
 1854SOL     OW17194   3.758   4.318   9.862 -0.5057 -0.0854  0.4546
 1854SOL    HW117195   3.780   4.399   9.908 -1.1155  0.3793 -0.0697
 1854SOL    HW217196   3.777   4.339   9.771 -1.1650  1.0871  0.5848
 1855SOL     OW17197   3.663   4.502   6.690 -0.2781  0.2183 -0.8378
 1855SOL    HW117198   3.577   4.486   6.652  0.5091 -1.5938 -1.8699
 1855SOL    HW217199   3.670   4.423   6.743 -0.0457  0.9508  0.2178
 1856SOL     OW17200   2.445   1.257   8.908 -0.5123 -0.3754  0.2673
 1856SOL    HW117201   2.539   1.267   8.920 -0.5106  1.5860 -1.3663
 1856SOL    HW217202   2.415   1.191   8.971  0.4345 -0.4264  0.6660
 1857SOL     OW17203   0.636   2.365   6.459  0.2565  0.1632  0.7948
 1857SOL    HW117204   0.718   2.404   6.490  0.2498 -0.3366  1.4238
 1857SOL    HW217205   0.586   2.441   6.491 -0.3969 -1.3996  3.4160
 1858SOL     OW17206   3.095   4.613  11.617 -0.3277  0.3685 -0.5635
 1858SOL    HW117207   3.014   4.570  11.591 -0.5202 -0.7939  1.9472
 1858SOL    HW217208   3.094   4.675  11.544 -1.9130  2.3839  1.1433
 1859SOL     OW17209   1.313   4.625   3.094  0.5592 -0.5187 -0.2836
 1859SOL    HW117210   1.314   4.619   3.189  1.1910 -1.7489 -0.3726
 1859SOL    HW217211   1.366   4.705   3.084 -0.7898  0.3330 -0.6298
 1860SOL     OW17212   2.785   2.032   7.612  0.4337  0.4663  0.4217
 1860SOL    HW117213   2.784   2.113   7.561  1.8235 -1.0566 -1.9990
 1860SOL    HW217214   2.693   2.003   7.608  0.7271 -0.2172 -1.0731
 1861SOL     OW17215   3.572   0.053   0.349  0.4378  0.0068 -0.1570
 1861SOL    HW117216   3.524   0.069   0.430 -0.6088  1.4719 -1.0398
 1861SOL    HW217217   3.623   0.134   0.348 -0.2050  0.4170  0.7558
 1862SOL     OW17218   3.478   0.785   5.916  0.1659  0.1610  0.6291
 1862SOL    HW117219   3.404   0.724   5.907  1.6085 -1.3112 -1.1936
 1862SOL    HW217220   3.459   0.858   5.858  0.0327 -0.2764  0.1153
 1863SOL     OW17221   4.673   3.988   4.431 -0.3166  1.0387  0.6069
 1863SOL    HW117222   0.019   3.995   4.384 -0.5847  2.2445  0.2888
 1863SOL    HW217223   4.682   3.901   4.469 -0.6251  1.6846  2.1747
 1864SOL     OW17224   3.508   0.617  16.613  0.0759  0.0408  0.0177
 1864SOL    HW117225   3.533   0.709  16.620  1.3833 -0.5983  3.4456
 1864SOL    HW217226   3.520   0.608  16.518  1.7245 -0.1417  0.2570
 1865SOL     OW17227   4.491   4.446  12.382  0.2497  0.2397 -0.2826
 1865SOL    HW117228   4.534   4.532  12.379 -0.4238  0.6247  1.0362
 1865SOL    HW217229   4.491   4.455  12.477 -0.2528  1.1013 -0.3638
 1866SOL     OW17230   3.327   2.253   3.340  0.6275  0.1628  0.4960
 1866SOL    HW117231   3.307   2.291   3.425  2.1664 -0.9525  1.3513
 1866SOL    HW217232   3.257   2.300   3.294 -0.2987 -1.7947 -0.1073
 1867SOL     OW17233   0.759   2.175   2.636  0.1617 -0.1740 -0.1608
 1867SOL    HW117234   0.719   2.230   2.568  0.1680 -0.7746 -0.6488
 1867SOL    HW217235   0.723   2.089   2.615  0.2995 -0.4128  0.6059
 1868SOL     OW17236   3.855   2.800  17.311 -0.3775  0.1092 -0.7312
 1868SOL    HW117237   3.870   2.832  17.400  2.1357  0.8209 -1.4238
 1868SOL    HW217238   3.935   2.827  17.267 -0.6172  0.6262 -0.8485
 1869SOL     OW17239   0.606   3.390   9.328  0.1325  0.2398  0.8515
 1869SOL    HW117240   0.569   3.466   9.374  1.0515  1.4219 -0.3713
 1869SOL    HW217241   0.580   3.409   9.238  0.9160 -0.9497  0.3719
 1870SOL     OW17242   4.306   3.437   8.904  0.2485 -0.5425  0.0093
 1870SOL    HW117243   4.383   3.493   8.899 -0.6180  0.5895 -0.5113
 1870SOL    HW217244   4.284   3.424   8.812 -1.9115 -0.3960  0.5006
 1871SOL     OW17245   0.725   0.892  11.028  0.3598  0.0604 -0.1354
 1871SOL    HW117246   0.736   0.854  11.115  1.8817 -1.3301 -0.9384
 1871SOL    HW217247   0.700   0.816  10.975 -0.4358  0.9521 -1.0266
 1872SOL     OW17248   3.345   1.646   1.346 -0.8016  0.1125  0.1844
 1872SOL    HW117249   3.262   1.603   1.324 -1.8941  2.1274  0.3711
 1872SOL    HW217250   3.349   1.717   1.282 -3.7361  0.8754  0.8704
 1873SOL     OW17251   1.070   4.277   2.230  0.3522 -0.1965  0.8444
 1873SOL    HW117252   0.998   4.281   2.166  1.0597  0.0003  0.0626
 1873SOL    HW217253   1.127   4.206   2.203  0.8205  0.0090  1.2881
 1874SOL     OW17254   3.691   2.661  12.024  0.2470 -0.2114  0.9882
 1874SOL    HW117255   3.734   2.576  12.029  2.2807  0.7878  0.4630
 1874SOL    HW217256   3.620   2.651  12.088 -0.2921  0.4706  0.4992
 1875SOL     OW17257   4.563   4.263   0.943 -0.6331 -0.7098 -0.4432
 1875SOL    HW117258   4.612   4.326   0.994 -1.0277 -0.8061  0.0485
 1875SOL    HW217259   4.471   4.282   0.962  0.0953  0.6172  1.6475
 1876SOL     OW17260   3.071   1.581   2.169  0.5328 -0.3595  0.4897
 1876SOL    HW117261   3.048   1.638   2.096  1.1299 -0.0415  0.5529
 1876SOL    HW217262   3.163   1.563   2.147 -0.1206 -3.6636  0.3956
 1877SOL     OW17263   2.574   2.060   7.998 -0.8580  0.6822 -0.3162
 1877SOL    HW117264   2.655   2.097   7.964  0.7979 -2.2887  0.3796
 1877SOL    HW217265   2.597   1.969   7.979 -0.6482  0.7376 -0.3264
 1878SOL     OW17266   2.930   0.621   5.222  0.5138  0.2313  0.5003
 1878SOL    HW117267   2.895   0.640   5.309 -0.4314 -1.1345  0.4205
 1878SOL    HW217268   2.959   0.532   5.243  2.9016  1.0404  0.6775
 1879SOL     OW17269   2.112   4.123   4.742  0.0724 -0.1193 -0.0277
 1879SOL    HW117270   2.107   4.030   4.721 -0.7262  0.2345 -1.3788
 1879SOL    HW217271   2.193   4.134   4.691  1.8353 -1.2690  2.5308
 1880SOL     OW17272   3.995   1.821  11.940 -0.0486 -0.0672  0.3065
 1880SOL    HW117273   3.913   1.804  11.984  0.2436  1.2905  1.3634
 1880SOL    HW217274   4.055   1.802  12.012 -0.2029 -0.7347  0.2568
 1881SOL     OW17275   0.126   1.296  17.504  0.4663  0.2646  0.0444
 1881SOL    HW117276   0.057   1.328  17.446  0.7561  1.5644  0.4154
 1881SOL    HW217277   0.161   1.224  17.452  0.9750  0.3729  0.2340
 1882SOL     OW17278   2.308   3.811   8.978  0.3549 -0.1607  0.5241
 1882SOL    HW117279   2.376   3.805   8.911 -0.0139 -0.9792  0.2145
 1882SOL    HW217280   2.312   3.720   9.007  1.5932 -0.0414  0.7377
 1883SOL     OW17281   0.247   2.447   6.205  0.0939 -0.5108  0.3156
 1883SOL    HW117282   0.152   2.435   6.208 -0.1024  1.0403  0.1388
 1883SOL    HW217283   0.271   2.412   6.119  1.3361  2.2911 -0.4844
 1884SOL     OW17284   2.856   3.428   9.523  0.2158 -0.5329 -0.0081
 1884SOL    HW117285   2.879   3.340   9.491  0.7550 -1.0060  1.6827
 1884SOL    HW217286   2.857   3.476   9.441 -2.3884 -1.9325 -0.8545
 1885SOL     OW17287   3.260   3.582   4.868  0.1161  0.2616  0.0550
 1885SOL    HW117288   3.328   3.518   4.849 -0.9431 -0.3041 -1.8098
 1885SOL    HW217289   3.298   3.664   4.835  0.4809 -0.2610 -0.8108
 1886SOL     OW17290   3.841   0.738   5.568 -0.7589  0.4271  0.0092
 1886SOL    HW117291   3.849   0.651   5.606 -1.0971 -0.2717 -1.5042
 1886SOL    HW217292   3.896   0.737   5.489  0.7653 -1.3278  1.1093
 1887SOL     OW17293   2.026   2.820   6.461 -0.5601 -0.2029  0.0983
 1887SOL    HW117294   2.069   2.760   6.521  0.9278  0.6958 -0.0673
 1887SOL    HW217295   2.057   2.908   6.483  2.2036 -0.9800 -0.7030
 1888SOL     OW17296   1.552   3.053   0.587 -0.2257  0.7147 -0.2495
 1888SOL    HW117297   1.615   3.029   0.655 -1.6331 -1.1854  0.3867
 1888SOL    HW217298   1.541   3.145   0.610  0.4994  0.6765  0.2414
 1889SOL     OW17299   3.813   3.661  14.559  0.6771 -0.3703  0.0671
 1889SOL    HW117300   3.850   3.631  14.642  1.3967  0.7549  0.1522
 1889SOL    HW217301   3.885   3.660  14.496  0.9616 -0.0941  0.3885
 1890SOL     OW17302   3.995   3.419   2.392 -0.3310  0.1199  0.9291
 1890SOL    HW117303   4.067   3.404   2.330  1.0231 -0.5242  2.6607
 1890SOL    HW217304   3.922   3.427   2.330 -0.8113  1.5658  1.6701
 1891SOL     OW17305   2.764   4.403  14.889  1.1384  0.0157  0.1460
 1891SOL    HW117306   2.718   4.319  14.893 -4.4148  3.0655  1.0361
 1891SOL    HW217307   2.735   4.437  14.974 -2.3427 -0.6173 -0.7892
 1892SOL     OW17308   2.278   1.522  12.123  0.2706 -0.4101 -0.5867
 1892SOL    HW117309   2.253   1.546  12.034  1.3432 -0.4116 -0.8880
 1892SOL    HW217310   2.336   1.595  12.145  0.4078 -0.3853 -1.0385
 1893SOL     OW17311   1.539   4.397  16.712  0.0918 -0.0317  0.0075
 1893SOL    HW117312   1.463   4.338  16.717  1.7384 -2.0172  1.8761
 1893SOL    HW217313   1.584   4.353  16.640 -0.9198  0.2181 -0.7827
 1894SOL     OW17314   2.618   3.712   5.281  0.2174 -0.1936  0.2065
 1894SOL    HW117315   2.691   3.746   5.333  0.8436  0.2938 -0.9920
 1894SOL    HW217316   2.611   3.629   5.329  0.1613  0.2857  1.0216
 1895SOL     OW17317   0.979   0.400   3.266 -0.4665 -0.0446  0.1155
 1895SOL    HW117318   0.916   0.471   3.252  1.3401  2.2049  3.5682
 1895SOL    HW217319   0.965   0.369   3.356  0.9153 -0.4896  0.1690
 1896SOL     OW17320   3.402   1.334  16.024  0.5585  0.3303 -0.1214
 1896SOL    HW117321   3.462   1.381  15.965  0.2175 -0.0979 -0.8070
 1896SOL    HW217322   3.437   1.363  16.108  1.0211  0.4336 -0.3478
 1897SOL     OW17323   0.745   3.765   0.902 -0.0254  0.5105  0.1655
 1897SOL    HW117324   0.729   3.827   0.973 -0.4426  0.0110  0.5087
 1897SOL    HW217325   0.656   3.748   0.871  0.3664  0.0458 -0.6919
 1898SOL     OW17326   1.245   3.578   6.701  0.2215 -0.4140  0.3252
 1898SOL    HW117327   1.316   3.584   6.765  1.1383  0.6191 -0.7915
 1898SOL    HW217328   1.174   3.542   6.755  0.0528 -1.7535 -0.8005
 1899SOL     OW17329   1.277   3.316  16.462  0.1612 -1.0586  0.3764
 1899SOL    HW117330   1.220   3.328  16.538 -1.9227  0.6920 -1.4484
 1899SOL    HW217331   1.342   3.251  16.486  1.7208 -0.6962 -2.9957
 1900SOL     OW17332   2.239   0.415   1.218  0.1119 -0.2402 -0.2156
 1900SOL    HW117333   2.244   0.498   1.265 -2.6827 -0.5566  0.6211
 1900SOL    HW217334   2.328   0.417   1.181 -0.1674  0.8916 -0.8377
 1901SOL     OW17335   0.783   2.832   5.907 -0.0531  0.1899 -0.1419
 1901SOL    HW117336   0.776   2.758   5.847 -0.1983 -1.2129  1.6102
 1901SOL    HW217337   0.730   2.797   5.978  1.8633 -2.8631 -0.2161
 1902SOL     OW17338   3.541   4.732   7.246 -0.4056  0.2596  0.5921
 1902SOL    HW117339   3.588   0.078   7.252  1.2289 -0.6311 -0.1378
 1902SOL    HW217340   3.576   4.678   7.317  2.8733  0.8068 -0.6126
 1903SOL     OW17341   0.906   3.692   5.738  0.5065 -0.1149 -0.1499
 1903SOL    HW117342   0.815   3.668   5.754  0.1657  0.2624 -1.5141
 1903SOL    HW217343   0.950   3.677   5.822  2.3479  1.9052 -0.7854
 1904SOL     OW17344   4.066   3.451   5.029 -0.0949  0.0700 -0.2256
 1904SOL    HW117345   4.032   3.518   5.088  2.6795  1.2646  0.0191
 1904SOL    HW217346   4.149   3.433   5.075 -1.5297 -1.2621  1.8567
 1905SOL     OW17347   0.847   0.630   7.831  0.7566  0.1704 -0.0085
 1905SOL    HW117348   0.909   0.558   7.844 -0.8229 -1.5298 -1.9748
 1905SOL    HW217349   0.762   0.586   7.826  0.6585  0.1480  1.6150
 1906SOL     OW17350   1.733   2.370   8.400  0.2031 -0.4224 -0.5999
 1906SOL    HW117351   1.722   2.411   8.314  2.8730  1.4672 -0.0448
 1906SOL    HW217352   1.824   2.385   8.426 -0.9263  0.3114  2.9339
 1907SOL     OW17353   2.344   3.940   8.366 -0.1632 -0.8247  0.5742
 1907SOL    HW117354   2.335   3.867   8.427 -1.2040  0.6610  2.2082
 1907SOL    HW217355   2.335   3.906   8.277  0.3330 -1.2352  0.6834
 1908SOL     OW17356   1.314   2.483   7.621 -0.3063 -0.2471  0.2232
 1908SOL    HW117357   1.409   2.474   7.629  0.2004  4.5191 -0.6038
 1908SOL    HW217358   1.280   2.457   7.707 -0.3114 -3.3244 -0.7179
 1909SOL     OW17359   2.439   4.607   0.932 -0.3646  0.4026 -0.4064
 1909SOL    HW117360   2.443   4.514   0.956 -1.7747  0.6685  0.8855
 1909SOL    HW217361   2.483   4.605   0.847  0.8647  0.1973  0.2348
 1910SOL     OW17362   2.528   2.386  12.394 -0.3142 -0.1547  0.2191
 1910SOL    HW117363   2.498   2.337  12.470 -1.1653  0.0292  0.0007
 1910SOL    HW217364   2.623   2.397  12.404 -0.2259 -1.0836  0.3710
 1911SOL     OW17365   1.504   0.631  11.054 -0.1144  0.1074 -0.7502
 1911SOL    HW117366   1.592   0.598  11.075 -0.7947 -1.4909 -0.4334
 1911SOL    HW217367   1.526   0.723  11.039  1.6732 -0.1002  0.6156
 1912SOL     OW17368   1.929   0.169   4.905  0.0648  0.5492 -0.3410
 1912SOL    HW117369   1.963   0.087   4.870 -1.5265 -0.4745  0.4975
 1912SOL    HW217370   1.842   0.160   4.864 -0.2839  1.2409  0.2390
 1913SOL     OW17371   4.271   3.793   7.918 -0.3587 -0.1164  1.1072
 1913SOL    HW117372   4.215   3.720   7.890 -1.5064  1.5670 -0.9550
 1913SOL    HW217373   4.340   3.745   7.964  0.4081  0.7419  0.8312
 1914SOL     OW17374   1.566   0.335   3.527  0.5952 -0.5237 -0.0411
 1914SOL    HW117375   1.550   0.419   3.570  0.3505  0.4454 -2.0208
 1914SOL    HW217376   1.501   0.332   3.457  0.8337 -2.0006 -0.2076
 1915SOL     OW17377   2.114   4.607   5.067  0.3121 -0.6693 -0.8439
 1915SOL    HW117378   2.152   4.688   5.102 -0.8772  0.0745 -1.2441
 1915SOL    HW217379   2.094   4.635   4.977 -0.5483  2.0291  0.1870
 1916SOL     OW17380   1.520   1.862   6.469 -0.3247  0.1953 -0.1486
 1916SOL    HW117381   1.487   1.837   6.555  0.6196  0.2693  0.2338
 1916SOL    HW217382   1.486   1.788   6.419 -0.4964 -1.5369  2.5708
 1917SOL     OW17383   1.024   1.917  16.576  0.1120 -0.1594 -0.4836
 1917SOL    HW117384   0.986   1.952  16.657 -0.9474 -1.1687 -0.5421
 1917SOL    HW217385   1.086   1.855  16.614  0.9630  0.3084 -1.1082
 1918SOL     OW17386   0.070   0.292  11.177  0.2807  0.2908  0.0018
 1918SOL    HW117387   0.129   0.294  11.253 -1.6634  0.3725  1.5116
 1918SOL    HW217388   0.089   0.377  11.139 -0.9329  1.3711  1.8345
 1919SOL     OW17389   2.117   1.251   3.872  0.1513 -0.3596 -0.7437
 1919SOL    HW117390   2.073   1.224   3.952 -0.3410  0.8780 -0.5910
 1919SOL    HW217391   2.170   1.175   3.850  1.9700  0.1886  1.7885
 1920SOL     OW17392   0.460   3.926   7.720  0.1400 -0.3412 -0.3228
 1920SOL    HW117393   0.412   3.854   7.761 -0.2893 -0.4829 -1.0819
 1920SOL    HW217394   0.395   3.953   7.655  0.4222 -2.8554 -1.6208
 1921SOL     OW17395   3.249   4.398  11.689  0.2552 -0.0089 -0.0797
 1921SOL    HW117396   3.194   4.476  11.677  2.4970  1.1781 -2.7313
 1921SOL    HW217397   3.257   4.400  11.784  0.5485  1.7508 -0.1438
 1922SOL     OW17398   3.997   3.555  14.075  0.0338 -0.3892  0.3398
 1922SOL    HW117399   3.995   3.472  14.124 -0.2076  0.0863  1.1383
 1922SOL    HW217400   3.903   3.554  14.060 -0.2322 -2.6885  2.1547
 1923SOL     OW17401   2.475   4.243   6.279  0.2043  0.4026 -0.5207
 1923SOL    HW117402   2.464   4.323   6.227  0.4211 -0.1152 -1.3734
 1923SOL    HW217403   2.461   4.162   6.230  1.5316  0.0770 -0.3648
 1924SOL     OW17404   2.819   3.167   7.372 -0.4424 -0.4302  0.0304
 1924SOL    HW117405   2.802   3.182   7.465 -0.3014 -0.1455  0.0093
 1924SOL    HW217406   2.898   3.219   7.358 -0.7745  0.5573  1.8758
 1925SOL     OW17407   0.687   2.971   7.539  0.4059  0.2701 -0.0190
 1925SOL    HW117408   0.761   3.031   7.532  2.9086 -2.5488  1.7777
 1925SOL    HW217409   0.695   2.939   7.449  0.6828 -0.4552  0.2585
 1926SOL     OW17410   4.291   3.772   4.497  0.0817 -0.2675 -0.8164
 1926SOL    HW117411   4.231   3.844   4.481  2.2031  1.8157  0.6558
 1926SOL    HW217412   4.280   3.748   4.589 -1.1829  0.4793 -0.7859
 1927SOL     OW17413   0.803   0.094   4.867 -0.5241 -0.3793  0.0008
 1927SOL    HW117414   0.794   0.018   4.810 -1.8513 -0.7218  0.6573
 1927SOL    HW217415   0.890   0.075   4.901 -0.8831 -0.3259  0.9616
 1928SOL     OW17416   0.521   1.785   0.329  0.0015  0.5607  0.3868
 1928SOL    HW117417   0.448   1.814   0.383 -0.0261  1.4605 -0.1432
 1928SOL    HW217418   0.522   1.849   0.258  1.6875  0.9026  0.7235
 1929SOL     OW17419   4.733   2.655   8.762 -0.2186 -0.4924  0.5673
 1929SOL    HW117420   0.054   2.671   8.837 -0.1442  0.3271  0.3356
 1929SOL    HW217421   4.674   2.598   8.810 -1.4911  0.2375 -0.1155
 1930SOL     OW17422   0.337   3.614   2.816 -1.3590  0.0896  0.4093
 1930SOL    HW117423   0.349   3.695   2.865  0.1665  0.9854 -1.4448
 1930SOL    HW217424   0.274   3.643   2.750  0.3239  0.1685 -1.1487
 1931SOL     OW17425   4.106   4.380   9.048  0.2654  0.4310  0.1760
 1931SOL    HW117426   4.161   4.431   9.107  1.1739 -1.1728  0.6982
 1931SOL    HW217427   4.037   4.443   9.028 -1.3028 -1.5328 -0.5131
 1932SOL     OW17428   4.223   4.603   0.740 -0.4176 -0.1442 -0.6643
 1932SOL    HW117429   4.176   4.687   0.731 -1.3120 -0.4281  1.3351
 1932SOL    HW217430   4.298   4.629   0.792 -0.7429 -0.9906  0.2236
 1933SOL     OW17431   2.762   0.029  14.275  0.1581  0.3088  0.1295
 1933SOL    HW117432   2.722   0.047  14.360  0.8185  3.1282 -0.1517
 1933SOL    HW217433   2.697   0.063  14.213  2.6624 -0.2165 -2.8091
 1934SOL     OW17434   0.347   2.400   2.788 -0.3275 -0.4352  0.4277
 1934SOL    HW117435   0.428   2.353   2.806 -1.0552 -1.0358  2.1640
 1934SOL    HW217436   0.379   2.491   2.792 -2.8574  0.4978 -0.4329
 1935SOL     OW17437   0.916   4.371  16.048  0.6266  0.1525  0.1754
 1935SOL    HW117438   0.934   4.392  15.957 -0.1935 -1.1220 -0.2781
 1935SOL    HW217439   0.861   4.293  16.050 -1.2336  1.3542 -3.5993
 1936SOL     OW17440   1.641   0.745   1.512  0.3032  0.0306 -0.1336
 1936SOL    HW117441   1.698   0.817   1.540 -0.4250  0.6257 -0.1510
 1936SOL    HW217442   1.699   0.685   1.465  0.1551  0.9646 -1.5197
 1937SOL     OW17443   0.792   3.292   2.536 -0.2498 -0.0306  0.0120
 1937SOL    HW117444   0.807   3.199   2.552  1.4321  0.5480  1.8465
 1937SOL    HW217445   0.697   3.294   2.551 -0.2425 -0.8639  0.1718
 1938SOL     OW17446   0.072   3.541   4.413  0.2860 -0.0317 -0.4637
 1938SOL    HW117447   0.052   3.519   4.322  1.4127 -2.0891 -0.2116
 1938SOL    HW217448   0.007   3.606   4.438 -0.7265 -1.5570  0.8321
 1939SOL     OW17449   0.898   2.000   5.647 -0.3550  0.1135 -0.6335
 1939SOL    HW117450   0.841   2.073   5.621  0.1462  1.5336  2.1512
 1939SOL    HW217451   0.941   2.025   5.729 -0.5226 -0.2137 -0.4479
 1940SOL     OW17452   3.776   4.653   7.868 -0.0481 -0.7038 -0.6601
 1940SOL    HW117453   3.837   4.726   7.860 -1.2128  0.4716  1.2815
 1940SOL    HW217454   3.834   4.580   7.844 -0.3080 -0.7767 -1.0824
 1941SOL     OW17455   4.181   2.956   2.389  0.1405 -0.0652  0.5106
 1941SOL    HW117456   4.195   2.881   2.332 -0.0642  0.3191 -0.0427
 1941SOL    HW217457   4.169   2.909   2.472 -1.2778 -0.0720  0.2944
 1942SOL     OW17458   2.986   2.640   1.526 -0.2790  0.2772 -0.6740
 1942SOL    HW117459   3.052   2.705   1.552  0.6357 -0.8650 -0.1645
 1942SOL    HW217460   3.008   2.569   1.586 -0.5010  0.1103 -0.7925
 1943SOL     OW17461   2.018   0.796   3.895 -0.4159 -0.2903  0.4384
 1943SOL    HW117462   2.100   0.749   3.881  0.2282  1.0681 -0.4199
 1943SOL    HW217463   2.029   0.841   3.979  0.0347 -3.4006  2.0309
 1944SOL     OW17464   0.567   0.030  11.649  0.2008  0.0743  0.0763
 1944SOL    HW117465   0.651   4.722  11.653 -0.1712 -0.4942  1.4089
 1944SOL    HW217466   0.553   0.041  11.743 -0.7737 -2.0781  0.1997
 1945SOL     OW17467   3.552   0.129   5.281 -0.0213  0.3063 -0.4392
 1945SOL    HW117468   3.582   0.047   5.241 -1.3087 -0.1807 -0.4240
 1945SOL    HW217469   3.603   0.197   5.237 -2.5086  1.3565 -1.7547
 1946SOL     OW17470   2.585   3.215  11.322 -0.2687  0.5779  0.2746
 1946SOL    HW117471   2.496   3.220  11.356 -0.1739  1.2949  0.4234
 1946SOL    HW217472   2.595   3.120  11.316  1.3946  0.7037  0.7676
 1947SOL     OW17473   3.408   0.693  11.175  0.5159  0.2636  0.1590
 1947SOL    HW117474   3.466   0.687  11.251  0.1181 -0.9826  0.3707
 1947SOL    HW217475   3.452   0.760  11.123 -1.4003  0.7291 -0.8839
 1948SOL     OW17476   3.825   3.229   8.672 -0.0364  0.3132  0.4147
 1948SOL    HW117477   3.895   3.276   8.719  1.0086 -0.6589 -0.1802
 1948SOL    HW217478   3.747   3.256   8.721 -1.6897  0.1747 -2.2061
 1949SOL     OW17479   3.276   0.908  15.503 -0.1718 -0.4695  0.1960
 1949SOL    HW117480   3.227   0.975  15.454 -1.2582 -0.3563  1.4380
 1949SOL    HW217481   3.243   0.825  15.472 -0.0724 -0.5992  0.4345
 1950SOL     OW17482   3.927   1.874  11.438 -0.5475 -0.3727 -0.4513
 1950SOL    HW117483   3.892   1.839  11.356  0.3516  0.2486 -1.1021
 1950SOL    HW217484   3.926   1.967  11.417  0.0799 -0.1376  0.5910
 1951SOL     OW17485   4.527   3.271   3.933 -0.3914  0.2219 -0.1277
 1951SOL    HW117486   4.598   3.333   3.950  0.8203 -0.8145 -1.3568
 1951SOL    HW217487   4.530   3.215   4.011 -3.7408  1.2466  0.7330
 1952SOL     OW17488   0.050   4.573   6.908 -0.3050  0.5751  0.3661
 1952SOL    HW117489   0.038   4.506   6.976  2.0772  2.3242  2.5336
 1952SOL    HW217490   0.010   4.528   6.834  0.6052  1.5705 -0.7379
 1953SOL     OW17491   0.114   3.405   8.477  0.5027 -0.3476  0.2108
 1953SOL    HW117492   0.094   3.318   8.444  0.9924 -0.0261 -0.9443
 1953SOL    HW217493   0.033   3.412   8.527  0.9858  2.2016  0.6781
 1954SOL     OW17494   1.030   1.694  11.198 -0.0906 -0.2958 -0.0296
 1954SOL    HW117495   1.059   1.785  11.206 -1.4543  0.0907  0.4498
 1954SOL    HW217496   1.103   1.648  11.156 -1.3765  1.0882 -3.8031
 1955SOL     OW17497   4.145   3.359   0.550  0.2440  0.5884 -0.3592
 1955SOL    HW117498   4.200   3.433   0.578  0.2795  0.5155 -0.2358
 1955SOL    HW217499   4.118   3.399   0.467  1.2151  0.5943 -0.6691
 1956SOL     OW17500   1.411   0.203   7.158 -0.1805  0.2464 -0.0694
 1956SOL    HW117501   1.448   0.226   7.244  0.1802 -0.3088 -0.0762
 1956SOL    HW217502   1.327   0.249   7.162 -1.4679 -1.9190 -2.3852
 1957SOL     OW17503   1.509   2.608   2.364  0.8417 -0.4482 -0.0181
 1957SOL    HW117504   1.495   2.536   2.303  0.5067 -0.3488 -0.0557
 1957SOL    HW217505   1.435   2.660   2.333 -0.0838 -1.3939  0.6080
 1958SOL     OW17506   3.477   2.224   7.901 -0.1492  0.9174 -0.6864
 1958SOL    HW117507   3.490   2.198   7.992 -0.6053 -1.1959 -1.2251
 1958SOL    HW217508   3.560   2.193   7.864 -0.1896 -0.2546  0.2074
 1959SOL     OW17509   3.358   4.476   2.831  0.0134  0.5225 -0.9157
 1959SOL    HW117510   3.422   4.545   2.809  0.6534  0.5919  1.2287
 1959SOL    HW217511   3.379   4.426   2.752  1.9994  1.5443 -1.0445
 1960SOL     OW17512   4.007   3.525  11.644  0.4027  0.6859 -0.4503
 1960SOL    HW117513   3.962   3.582  11.581  0.0668  0.8024 -0.1062
 1960SOL    HW217514   4.035   3.586  11.712  1.7959 -0.1954 -0.2284
 1961SOL     OW17515   3.338   0.123  16.446  0.6126  0.4579  0.0567
 1961SOL    HW117516   3.346   0.218  16.448  2.3444  0.2725  2.1437
 1961SOL    HW217517   3.364   0.092  16.533 -2.4303  1.0659  1.1808
 1962SOL     OW17518   3.939   3.657   9.915 -0.5719  0.8447 -0.1337
 1962SOL    HW117519   3.911   3.732   9.968  2.6847  0.2199  2.4946
 1962SOL    HW217520   3.859   3.638   9.866 -0.6153 -0.4605  0.4688
 1963SOL     OW17521   2.966   3.844   9.528  0.0029 -0.1048  0.5984
 1963SOL    HW117522   3.004   3.758   9.545 -0.9153 -0.6897 -0.2754
 1963SOL    HW217523   3.035   3.895   9.570  0.0383  1.5627 -1.4912
 1964SOL     OW17524   0.822   2.421   5.836  0.0572 -0.8083 -0.0065
 1964SOL    HW117525   0.916   2.437   5.846 -0.2925  0.4054  1.3415
 1964SOL    HW217526   0.805   2.330   5.860 -4.0286 -0.3127 -1.0034
 1965SOL     OW17527   4.617   2.294  10.595  0.5219 -0.2877 -0.1159
 1965SOL    HW117528   4.699   2.255  10.565  1.2240  0.6621  0.5647
 1965SOL    HW217529   4.640   2.387  10.599 -1.4921  0.1459  1.7533
 1966SOL     OW17530   0.746   0.766  12.088  0.7301 -0.6288 -0.6529
 1966SOL    HW117531   0.688   0.822  12.036 -0.1757  0.2586  1.2978
 1966SOL    HW217532   0.687   0.731  12.155 -0.1734  1.6256 -0.2885
 1967SOL     OW17533   0.370   0.324   3.679  0.0149 -0.1787  0.2127
 1967SOL    HW117534   0.351   0.289   3.766  2.5420 -1.1860  0.3629
 1967SOL    HW217535   0.465   0.325   3.678  0.0212 -2.1885 -0.7950
 1968SOL     OW17536   3.516   4.171   4.902  0.6810  0.2590 -0.1164
 1968SOL    HW117537   3.510   4.171   4.997 -0.6740 -0.6686 -0.2035
 1968SOL    HW217538   3.565   4.252   4.886  1.2721  0.3783  2.3336
 1969SOL     OW17539   1.166   1.938   6.458  0.1219 -0.6781  0.5170
 1969SOL    HW117540   1.130   1.852   6.482  0.1394 -0.9204 -0.3260
 1969SOL    HW217541   1.155   1.934   6.363  1.1851  1.7243  0.3048
 1970SOL     OW17542   1.968   2.870   5.455 -0.1036 -0.0696  0.3062
 1970SOL    HW117543   1.958   2.847   5.363 -0.8018 -0.3205  0.4441
 1970SOL    HW217544   1.883   2.909   5.476  0.3078 -0.2935  2.3686
 1971SOL     OW17545   0.414   3.412   6.090  0.0523 -0.0999  0.5518
 1971SOL    HW117546   0.330   3.405   6.046  0.4775 -0.1916 -0.2405
 1971SOL    HW217547   0.399   3.485   6.151 -1.4275 -0.3432  0.4674
 1972SOL     OW17548   2.233   4.422   4.533  0.5962  0.3903  0.2336
 1972SOL    HW117549   2.188   4.445   4.452 -0.5671 -1.5273  0.3338
 1972SOL    HW217550   2.154   4.420   4.587  0.1087  0.6429 -0.4739
 1973SOL     OW17551   1.616   1.985  17.160  0.6513  0.2047  0.6541
 1973SOL    HW117552   1.570   1.901  17.160  1.0685 -0.0344 -1.6703
 1973SOL    HW217553   1.646   1.996  17.069  0.0843 -2.2688  0.1413
 1974SOL     OW17554   3.454   0.900   1.875  0.0601  0.5118  0.1921
 1974SOL    HW117555   3.406   0.902   1.958  0.3307 -1.6150  0.3875
 1974SOL    HW217556   3.470   0.806   1.869 -1.9877  0.1710  0.0406
 1975SOL     OW17557   2.759   3.583   9.970  0.0384 -0.3718  0.1920
 1975SOL    HW117558   2.702   3.636   9.914 -1.1579 -0.4544  1.3327
 1975SOL    HW217559   2.765   3.510   9.909 -2.2941  0.3567 -0.8920
 1976SOL     OW17560   0.260   0.175   9.380 -0.0160 -0.8816  0.0116
 1976SOL    HW117561   0.337   0.119   9.382 -0.5770 -1.6431  0.1416
 1976SOL    HW217562   0.195   0.114   9.414  0.3543 -1.0793  0.3607
 1977SOL     OW17563   0.769   2.187   4.662  0.2865 -0.0061  0.0119
 1977SOL    HW117564   0.832   2.260   4.664  0.5356 -0.1689 -1.7138
 1977SOL    HW217565   0.768   2.166   4.569  1.5914 -0.5616  0.1139
 1978SOL     OW17566   3.750   0.923   8.190 -0.1611  0.0441 -0.1245
 1978SOL    HW117567   3.780   0.893   8.104  1.2640  0.2150  0.3059
 1978SOL    HW217568   3.797   1.006   8.201 -0.1846  0.0268  0.1047
 1979SOL     OW17569   1.024   4.483   3.952 -0.3731 -0.6311  0.3392
 1979SOL    HW117570   1.011   4.462   3.860 -1.4326  0.9140  0.1325
 1979SOL    HW217571   1.112   4.520   3.958 -1.4850  2.3371 -2.0060
 1980SOL     OW17572   2.537   0.079  14.881 -0.1736 -0.1664  0.3569
 1980SOL    HW117573   2.483   0.158  14.877  0.8234  0.4877 -0.3750
 1980SOL    HW217574   2.468   0.020  14.910 -0.6797 -0.8459 -2.1750
 1981SOL     OW17575   4.571   0.791   0.342  0.4970 -0.1932 -0.1808
 1981SOL    HW117576   4.611   0.734   0.276  2.4190  0.0908  0.7301
 1981SOL    HW217577   4.481   0.761   0.331  1.6114 -2.6645 -2.3662
 1982SOL     OW17578   3.031   1.958  14.580  0.2638 -0.1957 -0.0411
 1982SOL    HW117579   2.952   1.931  14.532  1.6673 -0.0934 -2.3933
 1982SOL    HW217580   3.006   2.047  14.604  2.1796 -0.4472  2.8311
 1983SOL     OW17581   1.397   4.159   8.378 -0.1936 -0.0265 -0.2433
 1983SOL    HW117582   1.403   4.167   8.473 -1.4395  0.4929 -0.2094
 1983SOL    HW217583   1.372   4.068   8.369  1.7584 -0.8193  2.2084
 1984SOL     OW17584   0.572   0.494   7.723  0.1281  0.3530  0.0057
 1984SOL    HW117585   0.588   0.544   7.643 -2.1586  0.4437 -0.3860
 1984SOL    HW217586   0.477   0.497   7.728  0.0336 -1.2308 -0.9642
 1985SOL     OW17587   0.183   3.587  11.866  0.6407  0.3016  0.4337
 1985SOL    HW117588   0.145   3.627  11.788  0.7163  0.2480  0.3688
 1985SOL    HW217589   0.236   3.519  11.824  1.6319  1.0903  0.3827
 1986SOL     OW17590   3.297   1.161   0.942  0.0629  0.0672  0.2565
 1986SOL    HW117591   3.294   1.124   1.030 -1.4649  0.2592  0.2840
 1986SOL    HW217592   3.368   1.110   0.903  0.5788 -0.4828  1.9322
 1987SOL     OW17593   2.373   3.386   2.441  0.6416  0.2573  0.2767
 1987SOL    HW117594   2.296   3.440   2.425 -1.0775 -2.2427  0.1171
 1987SOL    HW217595   2.445   3.446   2.423 -0.9434  1.4150 -2.2082
 1988SOL     OW17596   3.369   0.165   3.796  0.0289 -0.5106  0.3169
 1988SOL    HW117597   3.438   0.167   3.862 -0.9842 -1.5348  1.4401
 1988SOL    HW217598   3.303   0.114   3.844 -0.9060  1.1870  0.8153
 1989SOL     OW17599   2.774   3.301   6.791  0.4715  0.2666 -0.1522
 1989SOL    HW117600   2.760   3.345   6.708 -1.3784 -1.5204 -0.7881
 1989SOL    HW217601   2.693   3.320   6.838 -0.8910 -1.0824 -1.9473
 1990SOL     OW17602   0.457   0.618  11.604  0.9680 -0.3121  0.0062
 1990SOL    HW117603   0.543   0.628  11.563  0.9549 -1.9967 -0.4263
 1990SOL    HW217604   0.437   0.524  11.604 -0.0053 -0.1127 -0.7278
 1991SOL     OW17605   4.318   0.540   2.612  0.4163 -0.3245  0.2515
 1991SOL    HW117606   4.340   0.448   2.598 -2.3585 -1.4379  3.1518
 1991SOL    HW217607   4.379   0.561   2.683 -2.5969  0.8610  2.5023
 1992SOL     OW17608   2.523   1.599   8.739  0.3544  0.0942 -0.7849
 1992SOL    HW117609   2.474   1.522   8.709 -1.9717  1.4499 -0.4557
 1992SOL    HW217610   2.513   1.603   8.834  0.1509  2.4231 -0.9035
 1993SOL     OW17611   2.507   0.684  12.123 -0.4227 -0.0703 -0.4239
 1993SOL    HW117612   2.551   0.622  12.065  2.6945  2.0453 -0.3002
 1993SOL    HW217613   2.450   0.717  12.053 -1.6074  1.1758  1.1312
 1994SOL     OW17614   2.916   0.028   6.962  0.4025  0.2913  0.8438
 1994SOL    HW117615   2.985   0.062   7.019  0.8798 -0.0084  0.4358
 1994SOL    HW217616   2.948   0.036   6.872 -1.4615 -0.2475  0.1343
 1995SOL     OW17617   2.566   4.014  14.760  0.1365  0.3536  0.2421
 1995SOL    HW117618   2.489   4.063  14.734  1.0424  1.1869 -0.9089
 1995SOL    HW217619   2.591   4.074  14.830 -0.9254  0.0283  0.8936
 1996SOL     OW17620   0.127   4.240   6.900  0.6362  0.0251 -0.1632
 1996SOL    HW117621   0.073   4.243   6.821 -0.9703 -1.9346  0.8618
 1996SOL    HW217622   0.187   4.169   6.878 -0.7453 -0.7598 -1.4154
 1997SOL     OW17623   1.285   3.473   4.768 -0.3442  0.3770  0.3213
 1997SOL    HW117624   1.223   3.483   4.841 -2.8722 -1.0838 -1.6339
 1997SOL    HW217625   1.251   3.390   4.734  1.6853 -0.2116 -0.2823
 1998SOL     OW17626   0.454   4.676   4.797 -0.3421  0.4086 -0.0268
 1998SOL    HW117627   0.543   4.647   4.775 -0.0798 -1.1110  2.9855
 1998SOL    HW217628   0.408   4.636   4.723  0.1524  2.8381 -1.6219
 1999SOL     OW17629   2.548   3.797   4.552  0.3873  0.0857 -0.4819
 1999SOL    HW117630   2.535   3.854   4.628  0.4576  0.4585 -0.7484
 1999SOL    HW217631   2.483   3.729   4.569 -0.4069  1.1139  0.6001
 2000SOL     OW17632   3.211   1.017   2.789  0.4902 -0.0944 -0.2803
 2000SOL    HW117633   3.197   1.105   2.826 -1.7617 -0.5357 -0.0921
 2000SOL    HW217634   3.151   1.022   2.715  1.0816 -1.6840 -0.8484
 2001SOL     OW17635   3.173   2.246  16.890  0.0124 -0.2205 -0.1298
 2001SOL    HW117636   3.245   2.299  16.926  0.2776  0.8611 -2.2473
 2001SOL    HW217637   3.094   2.291  16.918  0.5939  1.2252 -0.8213
 2002SOL     OW17638   3.613   4.080   7.016 -0.5452 -0.0463  0.4598
 2002SOL    HW117639   3.664   4.158   6.995  0.9189 -1.4538 -1.2371
 2002SOL    HW217640   3.685   4.018   7.023 -1.1317 -0.8327 -0.4789
 2003SOL     OW17641   1.803   1.565   6.563 -0.2844  0.5094  0.6263
 2003SOL    HW117642   1.838   1.599   6.481 -1.9410 -1.3788 -0.8384
 2003SOL    HW217643   1.884   1.544   6.610  1.1696  1.8325 -1.2901
 2004SOL     OW17644   1.482   4.072  12.279  0.3311  0.6338  0.2255
 2004SOL    HW117645   1.572   4.086  12.308  1.2368 -1.7630 -1.4978
 2004SOL    HW217646   1.482   3.976  12.274 -0.5121  0.7063 -1.1225
 2005SOL     OW17647   3.339   3.953   9.398 -0.0923 -0.3024  0.4654
 2005SOL    HW117648   3.291   3.998   9.328  0.8507 -2.0044 -1.2766
 2005SOL    HW217649   3.270   3.932   9.460 -1.9460 -1.4214 -1.9883
 2006SOL     OW17650   3.413   2.134   2.199 -0.1465  0.3830 -0.4054
 2006SOL    HW117651   3.394   2.179   2.117  0.8001 -1.1104 -1.4508
 2006SOL    HW217652   3.356   2.171   2.267  1.2681 -0.5216  1.2776
 2007SOL     OW17653   3.483   3.717   4.318  0.3089  0.2317 -0.2080
 2007SOL    HW117654   3.431   3.793   4.345  1.4877  1.6696 -1.8754
 2007SOL    HW217655   3.466   3.650   4.383 -1.3757  0.0473 -0.8428
 2008SOL     OW17656   2.678   4.516  13.198  0.6948 -0.0985 -0.1104
 2008SOL    HW117657   2.761   4.563  13.196 -0.0128  1.1497 -0.6596
 2008SOL    HW217658   2.665   4.480  13.285 -1.6159  0.4867 -0.2065
 2009SOL     OW17659   2.218   1.999   6.659  0.6039 -0.4807  0.3967
 2009SOL    HW117660   2.206   1.972   6.750 -0.8488  2.3162  1.0568
 2009SOL    HW217661   2.133   1.973   6.624  0.8829 -0.1321 -0.5486
 2010SOL     OW17662   4.418   3.171   8.079  0.2482 -0.3533 -0.1523
 2010SOL    HW117663   4.433   3.180   8.173 -2.1331 -1.3261  0.3247
 2010SOL    HW217664   4.325   3.196   8.079  0.8802  1.9768  0.0343
 2011SOL     OW17665   2.370   0.158   8.047  0.2633  0.0992 -0.3343
 2011SOL    HW117666   2.431   0.164   8.121 -0.8679  0.7335  0.5440
 2011SOL    HW217667   2.363   0.251   8.024 -1.7383 -0.2810 -1.2018
 2012SOL     OW17668   3.821   4.720   0.523 -0.1030  0.5751  0.8937
 2012SOL    HW117669   3.899   4.701   0.471 -1.3662 -1.2140 -0.3968
 2012SOL    HW217670   3.786   0.061   0.479 -1.7707 -0.6458  0.0328
 2013SOL     OW17671   1.719   1.783  14.169 -0.7496 -0.6771  0.0658
 2013SOL    HW117672   1.748   1.739  14.089  0.5023  0.7173 -0.2426
 2013SOL    HW217673   1.636   1.742  14.191 -0.5910 -1.2202 -0.3405
 2014SOL     OW17674   0.225   1.417   3.283  0.1910  1.2454 -0.2442
 2014SOL    HW117675   0.192   1.480   3.347  0.4508  1.1861 -0.0496
 2014SOL    HW217676   0.249   1.343   3.339 -0.7396  1.4595  0.4317
 2015SOL     OW17677   2.577   0.390  11.866  0.1480 -0.6570 -0.1890
 2015SOL    HW117678   2.631   0.386  11.787  0.8764 -1.5932  0.3543
 2015SOL    HW217679   2.641   0.397  11.936 -0.1569 -0.6864  0.0937
 2016SOL     OW17680   3.322   0.149   9.933 -0.0681 -0.8703  0.1700
 2016SOL    HW117681   3.332   0.071   9.987  0.0329  1.0492  2.9132
 2016SOL    HW217682   3.359   0.212   9.994 -0.7191 -1.8074  1.5277
 2017SOL     OW17683   4.473   3.710   8.088  0.1941 -0.1593  0.0049
 2017SOL    HW117684   4.444   3.619   8.086  0.0187 -0.0234 -3.6172
 2017SOL    HW217685   4.404   3.748   8.141  0.9829 -0.5030  1.2692
 2018SOL     OW17686   0.192   3.240   7.046  0.2333  0.3840  0.3385
 2018SOL    HW117687   0.260   3.256   6.980  0.9207 -0.2623  0.9006
 2018SOL    HW217688   0.223   3.296   7.117  1.2198 -0.7727  0.8145
 2019SOL     OW17689   1.473   3.969  13.809 -0.0572  0.1491 -0.0387
 2019SOL    HW117690   1.444   4.018  13.732  0.4425  2.6522  1.3705
 2019SOL    HW217691   1.463   4.031  13.881 -0.0741 -0.2809  0.3265
 2020SOL     OW17692   2.913   3.053   7.867  0.1827  0.2090  0.6203
 2020SOL    HW117693   2.970   2.985   7.831  1.3025  1.7458 -0.4884
 2020SOL    HW217694   2.834   3.006   7.894  2.3331 -3.5379  0.3766
 2021SOL     OW17695   3.920   1.136  17.121 -0.1938 -0.0265 -0.1029
 2021SOL    HW117696   3.921   1.084  17.202 -0.3076  1.5791  0.9255
 2021SOL    HW217697   3.870   1.074  17.068 -1.0859  0.2310  0.4344
 2022SOL     OW17698   2.247   1.438   8.960 -0.2134  0.2212  0.0097
 2022SOL    HW117699   2.325   1.383   8.949 -0.6819 -0.7407  1.6241
 2022SOL    HW217700   2.251   1.470   9.050 -1.5762 -1.3353  0.6215
 2023SOL     OW17701   3.233   1.367   8.722  0.4817 -0.2019 -0.3560
 2023SOL    HW117702   3.158   1.334   8.672 -0.5542  3.0879 -1.0324
 2023SOL    HW217703   3.280   1.411   8.651 -0.4054  0.5004 -0.5154
 2024SOL     OW17704   1.763   4.218   5.265  0.1895  0.5299  0.3065
 2024SOL    HW117705   1.774   4.247   5.175 -0.1523  0.5048  0.2542
 2024SOL    HW217706   1.747   4.297   5.317  2.4108 -0.5014  2.5286
 2025SOL     OW17707   1.008   0.171   6.264 -0.0044 -0.2564 -0.4437
 2025SOL    HW117708   1.052   0.247   6.300 -1.1093 -0.3478  1.0659
 2025SOL    HW217709   1.036   0.107   6.330  0.8539 -0.7109 -1.2387
 2026SOL     OW17710   4.274   2.180   4.256  0.0932  0.0973 -0.2764
 2026SOL    HW117711   4.297   2.269   4.228 -2.7335  1.3731  1.5176
 2026SOL    HW217712   4.334   2.124   4.207  1.4862  0.8165  0.6186
 2027SOL     OW17713   3.411   2.623   2.585 -0.4684  0.2167 -0.3841
 2027SOL    HW117714   3.319   2.639   2.604 -0.0824  1.5216  0.3435
 2027SOL    HW217715   3.425   2.650   2.494  4.0560 -0.8580 -0.0029
 2028SOL     OW17716   0.739   4.382  17.271 -0.0157  0.3025 -0.3605
 2028SOL    HW117717   0.774   4.321  17.335  0.2275 -0.9124 -1.6513
 2028SOL    HW217718   0.677   4.431  17.324  0.8583  0.8891  0.1271
 2029SOL     OW17719   1.184   1.788   1.741  0.3686  0.1543 -0.1276
 2029SOL    HW117720   1.168   1.776   1.835 -0.6100 -2.3031 -0.6275
 2029SOL    HW217721   1.166   1.881   1.726  1.3011  0.4115  0.2779
 2030SOL     OW17722   1.615   1.719  16.844 -0.4620  0.1164  0.0452
 2030SOL    HW117723   1.693   1.725  16.900 -0.1335 -0.3856 -0.3507
 2030SOL    HW217724   1.655   1.773  16.776  2.0038  1.0312  2.2144
 2031SOL     OW17725   0.183   0.094   9.114  0.2963  0.0600 -0.5718
 2031SOL    HW117726   0.219   0.143   9.188  0.9881 -1.1207 -0.1251
 2031SOL    HW217727   0.101   0.141   9.102 -0.6735 -1.7611 -0.9980
 2032SOL     OW17728   2.757   0.545  10.629 -0.1010  0.1561 -0.1828
 2032SOL    HW117729   2.848   0.537  10.659 -0.0809 -2.4634 -0.9918
 2032SOL    HW217730   2.715   0.497  10.700 -0.5885 -2.6911 -2.4075
 2033SOL     OW17731   0.540   0.941   4.159  0.4537 -0.3952  0.0772
 2033SOL    HW117732   0.535   0.873   4.226  1.4373 -1.1246 -0.5842
 2033SOL    HW217733   0.592   0.891   4.096  1.4069  1.1120 -0.3208
 2034SOL     OW17734   0.162   0.009  17.367  0.5116 -0.3255 -0.0711
 2034SOL    HW117735   0.093   4.719  17.428  1.7906 -1.9454  0.6765
 2034SOL    HW217736   0.161   0.104  17.367 -0.0364 -0.3303  0.4796
 2035SOL     OW17737   3.323   3.689   9.385  0.3449 -0.2109 -0.2004
 2035SOL    HW117738   3.387   3.657   9.448  0.8998 -2.0255 -1.6575
 2035SOL    HW217739   3.337   3.783   9.380 -1.5823  0.0536 -0.6716
 2036SOL     OW17740   0.434   3.671   8.687  0.1056 -0.1239 -0.3090
 2036SOL    HW117741   0.420   3.578   8.665  0.1779 -0.2101  0.0180
 2036SOL    HW217742   0.443   3.708   8.599  2.2648 -0.9693 -0.4686
 2037SOL     OW17743   1.331   0.256  16.310  0.3146  0.3628 -0.0765
 2037SOL    HW117744   1.256   0.205  16.339 -1.3700  2.2801 -1.0776
 2037SOL    HW217745   1.298   0.345  16.326  0.5206  0.5103 -0.4750
 2038SOL     OW17746   1.490   0.932  10.863 -0.5826 -0.2353 -0.1214
 2038SOL    HW117747   1.563   0.993  10.851  0.0840 -1.0018  0.0433
 2038SOL    HW217748   1.466   0.923  10.771  2.6715  1.2676 -1.1440
 2039SOL     OW17749   0.552   2.478   5.324 -0.0019  0.1007  0.4374
 2039SOL    HW117750   0.532   2.497   5.415 -1.2048 -2.1594  0.6352
 2039SOL    HW217751   0.540   2.557   5.271  0.2280 -0.7691 -0.9407
 2040SOL     OW17752   4.207   3.619   3.902  0.1736 -0.4104  0.2169
 2040SOL    HW117753   4.136   3.559   3.878  1.3307 -1.1920 -1.2896
 2040SOL    HW217754   4.289   3.568   3.904  1.0926  1.0168 -1.0311
 2041SOL     OW17755   2.638   3.747   0.387 -0.1455  0.4701 -0.1328
 2041SOL    HW117756   2.648   3.716   0.297 -0.8881  1.8382 -0.6969
 2041SOL    HW217757   2.644   3.843   0.386 -0.2986  0.4700 -1.2958
 2042SOL     OW17758   2.837   2.133   8.850  0.4102 -0.0891 -0.1749
 2042SOL    HW117759   2.831   2.092   8.936 -0.5888 -2.2267 -1.2604
 2042SOL    HW217760   2.892   2.073   8.798 -0.1756 -0.2845 -0.5704
 2043SOL     OW17761   0.600   2.240   5.059  0.4425 -0.5483 -0.1825
 2043SOL    HW117762   0.608   2.185   5.137 -0.2712  2.0830  1.7288
 2043SOL    HW217763   0.590   2.168   4.996 -0.5987 -1.1001  0.6212
 2044SOL     OW17764   4.356   3.875   2.109  0.3276 -0.2762 -0.1843
 2044SOL    HW117765   4.395   3.793   2.139 -1.6602 -1.7382 -1.5914
 2044SOL    HW217766   4.431   3.930   2.087  1.1381 -0.9704  0.8837
 2045SOL     OW17767   0.185   3.911  17.612  0.3182  0.1189  0.4532
 2045SOL    HW117768   0.268   3.902  17.657 -0.4496 -0.6352  1.7139
 2045SOL    HW217769   0.115   3.889  17.674 -0.5710 -0.1112 -0.6240
 2046SOL     OW17770   1.070   0.303  10.232  0.2701  0.0694  0.0167
 2046SOL    HW117771   0.999   0.367  10.241  0.1603 -0.0845  0.2280
 2046SOL    HW217772   1.083   0.259  10.315  0.0590  0.2716  0.1548
 2047SOL     OW17773   3.947   2.993   5.002 -0.2535  0.0195 -0.8900
 2047SOL    HW117774   3.853   3.011   5.000 -0.4071 -0.7128 -0.0075
 2047SOL    HW217775   3.972   3.053   4.932 -0.7197 -0.5568 -1.5500
 2048SOL     OW17776   3.990   3.685   7.446 -0.3465 -0.1495  0.6900
 2048SOL    HW117777   4.085   3.695   7.437 -0.5885  0.8961 -0.6539
 2048SOL    HW217778   3.990   3.708   7.539  3.0561  1.2152  0.3454
 2049SOL     OW17779   4.672   4.345   5.666  0.6007  0.3446  0.1801
 2049SOL    HW117780   4.674   4.325   5.760 -1.2562  1.5318  0.4772
 2049SOL    HW217781   4.655   4.260   5.626 -0.4474  0.7275 -0.1768
 2050SOL     OW17782   2.251   0.425  14.365  0.1820 -0.2442  0.1843
 2050SOL    HW117783   2.175   0.464  14.322  2.0611  1.8215 -1.2173
 2050SOL    HW217784   2.277   0.364  14.296 -0.2557  1.2225 -1.2474
 2051SOL     OW17785   0.870   4.027   1.517 -0.4687 -0.0512  0.0342
 2051SOL    HW117786   0.830   4.103   1.475  0.8164 -0.3127 -1.6940
 2051SOL    HW217787   0.956   4.014   1.476 -0.7458  0.3703 -0.6776
 2052SOL     OW17788   3.023   2.516   6.451 -0.1693 -0.1360 -0.2608
 2052SOL    HW117789   3.008   2.526   6.357  1.0729  0.5260 -0.3848
 2052SOL    HW217790   3.108   2.473   6.455 -0.2320 -0.3225 -0.9063
 2053SOL     OW17791   1.508   2.310  14.130  0.1487  0.1754  0.0453
 2053SOL    HW117792   1.560   2.368  14.075 -0.9648  0.6159 -0.5522
 2053SOL    HW217793   1.552   2.226  14.129  2.2699  1.2182  2.7903
 2054SOL     OW17794   0.949   3.797  11.261 -0.0632  0.1814  0.1504
 2054SOL    HW117795   1.006   3.855  11.310 -1.8327  0.4156  1.9180
 2054SOL    HW217796   1.014   3.747  11.210  1.6778  1.3462  1.2495
 2055SOL     OW17797   0.477   1.147   8.104  0.1831 -0.7467 -0.0477
 2055SOL    HW117798   0.430   1.226   8.077  0.3604 -1.0199 -1.1325
 2055SOL    HW217799   0.567   1.176   8.115  0.3030 -1.4850  0.9219
 2056SOL     OW17800   3.973   0.691   4.615 -0.1083  0.1778 -0.0353
 2056SOL    HW117801   3.940   0.602   4.609  1.0175 -0.1739 -0.9503
 2056SOL    HW217802   4.064   0.686   4.586 -0.8086 -0.4916 -2.1532
 2057SOL     OW17803   2.137   1.812   4.157 -0.3211 -0.3072  0.0196
 2057SOL    HW117804   2.218   1.802   4.207 -0.1012 -0.7864 -0.4370
 2057SOL    HW217805   2.113   1.902   4.180 -0.6162 -0.3905  0.0436
 2058SOL     OW17806   2.193   1.754   2.164  0.5121 -0.1383  0.1654
 2058SOL    HW117807   2.239   1.670   2.175 -0.1009 -0.4641  0.2607
 2058SOL    HW217808   2.248   1.805   2.104  1.2621 -2.3805 -1.0712
 2059SOL     OW17809   3.801   4.403   2.285  0.6281  0.2760  0.0185
 2059SOL    HW117810   3.893   4.405   2.259  0.9174 -0.2740  1.0151
 2059SOL    HW217811   3.759   4.449   2.212  1.0253  0.7006  0.0544
 2060SOL     OW17812   0.573   3.127   6.825 -0.1188  0.0144 -0.3525
 2060SOL    HW117813   0.522   3.058   6.781  0.9573 -0.6953 -0.4974
 2060SOL    HW217814   0.510   3.193   6.852  0.9809  0.5680  0.8347
 2061SOL     OW17815   0.846   2.510  14.516 -0.1595 -0.4033  0.6521
 2061SOL    HW117816   0.784   2.576  14.547 -1.0408 -0.4768 -0.9352
 2061SOL    HW217817   0.783   2.445  14.484  1.4039 -2.2353  1.3202
 2062SOL     OW17818   2.789   2.308  10.667 -0.0781 -0.2234 -0.1228
 2062SOL    HW117819   2.707   2.288  10.711  0.8353  0.3286  1.8672
 2062SOL    HW217820   2.828   2.223  10.647  1.2079  0.4283 -0.4171
 2063SOL     OW17821   4.032   4.485   3.309  0.4824 -0.2038 -0.0766
 2063SOL    HW117822   4.067   4.460   3.224 -0.8377  0.2548 -0.7422
 2063SOL    HW217823   4.062   4.576   3.308  0.4356 -0.1869  0.0085
 2064SOL     OW17824   2.443   1.216  15.013 -0.1604 -0.0452  0.4408
 2064SOL    HW117825   2.395   1.136  14.991  0.7781 -0.6583  0.6034
 2064SOL    HW217826   2.371   1.276  15.032  0.3044  0.3470  0.9516
 2065SOL     OW17827   0.903   2.115   7.507  0.3565  0.4522  0.0026
 2065SOL    HW117828   0.922   2.069   7.589  1.2392 -0.3183 -0.6256
 2065SOL    HW217829   0.963   2.063   7.453 -0.4987 -0.5685  0.0498
 2066SOL     OW17830   2.273   4.405   7.157 -1.3033  0.2789 -0.3566
 2066SOL    HW117831   2.314   4.408   7.243  1.9339  2.7255 -1.9628
 2066SOL    HW217832   2.275   4.500   7.143 -0.9945  0.2048 -0.8476
 2067SOL     OW17833   3.876   2.021   2.323 -0.4875 -0.1065  0.0190
 2067SOL    HW117834   3.962   2.000   2.287 -1.5276 -0.2156 -2.4619
 2067SOL    HW217835   3.843   2.075   2.251  0.9543 -1.6702 -1.8396
 2068SOL     OW17836   1.760   2.168  16.967  0.3930  0.0194 -0.4266
 2068SOL    HW117837   1.696   2.222  17.014 -0.8839 -0.6856 -1.3779
 2068SOL    HW217838   1.835   2.178  17.026  0.5441  1.0668 -0.7899
 2069SOL     OW17839   0.766   3.569   6.588 -0.6890 -0.0090 -0.2285
 2069SOL    HW117840   0.772   3.474   6.577  0.9319 -0.0396  0.9033
 2069SOL    HW217841   0.855   3.603   6.579  0.1412 -1.8214  1.1291
 2070SOL     OW17842   3.323   3.390   0.249 -0.3693 -0.2234 -0.4421
 2070SOL    HW117843   3.378   3.453   0.203  0.7780  0.0236  1.2776
 2070SOL    HW217844   3.329   3.424   0.338  0.3956 -0.8618 -0.2496
 2071SOL     OW17845   0.419   0.849   6.082 -0.6577 -0.5700 -0.1035
 2071SOL    HW117846   0.403   0.940   6.059 -1.6148 -1.0329 -1.2373
 2071SOL    HW217847   0.421   0.858   6.177  2.6647  0.9494 -0.3068
 2072SOL     OW17848   4.543   0.402   6.720  0.4192 -0.0865 -0.3377
 2072SOL    HW117849   4.561   0.353   6.640  0.9440  0.9991 -0.8747
 2072SOL    HW217850   4.634   0.403   6.750  0.4634 -2.4790 -0.3536
 2073SOL     OW17851   4.707   3.464   8.987  0.3085  0.2030  0.2395
 2073SOL    HW117852   4.672   3.460   9.076  1.1908  1.1449  0.6223
 2073SOL    HW217853   4.662   3.542   8.954 -1.7516 -0.4327  1.5178
 2074SOL     OW17854   0.433   0.579  15.138  0.7677 -0.1786  0.0123
 2074SOL    HW117855   0.400   0.669  15.141 -0.6067 -0.6902 -0.0628
 2074SOL    HW217856   0.428   0.567  15.043 -2.8513  0.4716  0.1468
 2075SOL     OW17857   1.106   4.252   6.471  0.3065 -0.1745 -0.1168
 2075SOL    HW117858   1.051   4.176   6.490  2.2017 -1.5474 -0.0514
 2075SOL    HW217859   1.148   4.269   6.555  0.1225 -1.2806  0.2009
 2076SOL     OW17860   0.528   1.664   3.531 -0.2405  0.2284 -0.0750
 2076SOL    HW117861   0.476   1.585   3.546  1.8040 -0.8873  1.0047
 2076SOL    HW217862   0.476   1.724   3.585  1.3397  1.3452  0.2142
 2077SOL     OW17863   3.591   2.726   4.882 -0.0332  0.3411  0.4810
 2077SOL    HW117864   3.677   2.691   4.906 -0.3248 -0.5203  0.2561
 2077SOL    HW217865   3.550   2.670   4.948  0.8294 -0.5608  0.2529
 2078SOL     OW17866   0.042   3.872   7.786  0.1501 -0.1302 -0.0217
 2078SOL    HW117867   0.017   3.874   7.879 -0.5624  0.4914 -0.2191
 2078SOL    HW217868   0.124   3.827   7.802 -0.2150 -0.4598  0.9490
 2079SOL     OW17869   1.689   2.231  13.733  0.2006 -0.3145  0.4694
 2079SOL    HW117870   1.729   2.243  13.647 -0.9506 -0.3773 -0.0613
 2079SOL    HW217871   1.743   2.157  13.763  2.6557  1.5062  0.6126
 2080SOL     OW17872   3.418   3.704   5.607 -0.2164 -0.1847  0.1498
 2080SOL    HW117873   3.325   3.689   5.623  0.1422 -1.9718  0.6310
 2080SOL    HW217874   3.419   3.799   5.601  2.2505 -0.1018  1.7750
 2081SOL     OW17875   0.922   2.148   0.823  0.0093  0.3946 -0.9896
 2081SOL    HW117876   0.930   2.221   0.762 -2.4564  0.4018 -1.2826
 2081SOL    HW217877   0.891   2.082   0.762  0.0656 -0.7488  0.2205
 2082SOL     OW17878   1.264   4.478   0.785  0.2439 -0.4761 -0.1198
 2082SOL    HW117879   1.353   4.512   0.796 -0.5884  1.1897  1.4324
 2082SOL    HW217880   1.263   4.422   0.707  1.8574 -1.1677  0.3504
 2083SOL     OW17881   1.356   2.813  13.224  0.1060  0.5765 -0.3398
 2083SOL    HW117882   1.391   2.773  13.144  2.4729 -0.7446  1.3777
 2083SOL    HW217883   1.432   2.820  13.282  1.5589 -2.2160 -1.9144
 2084SOL     OW17884   1.677   3.068  13.675  0.7493  0.0735 -0.0749
 2084SOL    HW117885   1.674   2.992  13.734  0.4068  1.2439  1.4023
 2084SOL    HW217886   1.771   3.076  13.687  0.7071 -0.5217  0.6430
 2085SOL     OW17887   4.608   0.279   5.259  0.0184  0.1733 -0.0833
 2085SOL    HW117888   4.641   0.196   5.227 -0.3179 -0.4455  1.1898
 2085SOL    HW217889   4.559   0.255   5.338 -0.8184 -0.5628 -0.8247
 2086SOL     OW17890   0.663   3.038   0.206  0.3148 -0.5517  0.0660
 2086SOL    HW117891   0.615   3.047   0.123 -1.7036 -0.6143  1.2233
 2086SOL    HW217892   0.614   3.083   0.274 -1.5252 -1.5279 -0.6153
 2087SOL     OW17893   3.222   4.315   5.186 -0.2335 -0.1236 -0.1683
 2087SOL    HW117894   3.165   4.269   5.248  0.3399 -1.2991 -0.5068
 2087SOL    HW217895   3.248   4.390   5.239 -1.5639 -0.4210  0.9083
 2088SOL     OW17896   4.361   1.716   6.556 -0.1576  0.3685  0.7049
 2088SOL    HW117897   4.407   1.635   6.579 -0.2673  0.1208  0.0614
 2088SOL    HW217898   4.332   1.710   6.465  0.4411 -0.0205  0.5419
 2089SOL     OW17899   2.062   2.481   5.331 -0.2297  0.3676 -0.1616
 2089SOL    HW117900   1.978   2.445   5.360 -0.8463  0.9209 -1.2821
 2089SOL    HW217901   2.067   2.550   5.398 -0.5068 -0.0774  0.3220
 2090SOL     OW17902   0.865   1.630   6.655  0.4032  0.5100  0.0991
 2090SOL    HW117903   0.873   1.543   6.693 -2.6486 -0.7177 -2.1214
 2090SOL    HW217904   0.936   1.633   6.592  0.0092  0.8392 -0.3330
 2091SOL     OW17905   3.713   3.065   6.891  0.2885 -0.8496  0.0429
 2091SOL    HW117906   3.681   3.067   6.801 -0.8034  1.1953  0.4616
 2091SOL    HW217907   3.729   2.974   6.916  0.3784 -0.5669  1.0182
 2092SOL     OW17908   2.655   0.054   7.407  0.0531 -0.2167  0.2346
 2092SOL    HW117909   2.664   0.130   7.348 -2.7643 -0.1104 -0.0671
 2092SOL    HW217910   2.711   4.721   7.373  1.6929  2.0257 -1.7166
 2093SOL     OW17911   1.765   1.682  12.047  0.0266 -0.1615 -0.0292
 2093SOL    HW117912   1.691   1.742  12.056  0.4707  0.2930  0.6382
 2093SOL    HW217913   1.843   1.730  12.077 -0.3281  0.8965 -0.8073
 2094SOL     OW17914   2.886   4.512  15.296  0.2951  0.6252 -0.7039
 2094SOL    HW117915   2.972   4.496  15.256  0.6573  1.2493 -0.1589
 2094SOL    HW217916   2.899   4.570  15.370  0.7359 -0.3148 -0.0384
 2095SOL     OW17917   4.013   2.457   4.920  0.2120 -0.2411  0.0346
 2095SOL    HW117918   3.935   2.438   4.868  0.9457  0.3987 -1.3131
 2095SOL    HW217919   3.999   2.391   4.987  0.7200  0.2496  0.6232
 2096SOL     OW17920   1.919   1.977   3.012 -0.3273  0.3798  0.1434
 2096SOL    HW117921   1.852   2.045   3.022 -0.1378  0.5952 -0.0370
 2096SOL    HW217922   1.979   2.025   2.954 -0.9276 -0.0284 -0.8139
 2097SOL     OW17923   3.231   4.663   2.252 -0.3030 -0.0674 -0.5105
 2097SOL    HW117924   3.208   4.726   2.184 -1.5752  0.5405  0.5000
 2097SOL    HW217925   3.209   4.714   2.330 -1.0597  1.3120 -1.6472
 2098SOL     OW17926   4.120   1.100   8.051  0.4418  0.8477 -0.6640
 2098SOL    HW117927   4.027   1.121   8.044  0.0057 -1.1930 -0.9222
 2098SOL    HW217928   4.129   1.011   8.086 -0.5619  0.8935 -0.3090
 2099SOL     OW17929   4.355   4.291   1.408 -0.4240  0.4111 -0.0820
 2099SOL    HW117930   4.369   4.196   1.402 -0.6808  0.2603  1.6675
 2099SOL    HW217931   4.438   4.316   1.367 -0.0744  0.9785  0.9725
 2100SOL     OW17932   3.822   2.894   8.953  0.1988 -0.1377 -0.5400
 2100SOL    HW117933   3.741   2.930   8.915  0.0842  2.5193  2.2583
 2100SOL    HW217934   3.886   2.946   8.905  0.3461 -0.3467 -0.5709
 2101SOL     OW17935   1.077   1.832   4.930  0.3909 -0.2488  0.1866
 2101SOL    HW117936   1.013   1.847   4.860 -0.3157 -0.0540  0.8834
 2101SOL    HW217937   1.037   1.774   4.994 -0.7446 -0.5984 -0.8263
 2102SOL     OW17938   2.002   4.387   4.730 -0.3300  0.5316  0.0208
 2102SOL    HW117939   1.918   4.360   4.693  0.5353  1.1323 -2.4114
 2102SOL    HW217940   2.042   4.302   4.748 -2.4033 -0.4722 -0.0741
 2103SOL     OW17941   0.324   1.040  15.435 -0.3543 -0.4165 -0.0622
 2103SOL    HW117942   0.341   1.134  15.424 -1.8349 -0.2466 -0.8849
 2103SOL    HW217943   0.265   1.042  15.510 -0.1046  0.0385  0.1221
 2104SOL     OW17944   3.937   0.269  13.726 -0.1597  0.4038 -0.3911
 2104SOL    HW117945   4.032   0.274  13.741  0.0163 -1.2952 -0.8998
 2104SOL    HW217946   3.896   0.206  13.786  0.1154  0.8921  0.3148
 2105SOL     OW17947   1.160   2.472   5.657 -0.4078  0.0696 -0.4772
 2105SOL    HW117948   1.087   2.447   5.600  1.1608 -0.8276 -2.0895
 2105SOL    HW217949   1.195   2.553   5.622 -0.1509  0.9198  1.7900
 2106SOL     OW17950   2.714   3.935   2.914 -0.1435 -0.2737  0.2995
 2106SOL    HW117951   2.687   3.862   2.859  0.9374 -0.5001  0.0598
 2106SOL    HW217952   2.713   4.006   2.849  0.8926 -0.2271  0.3281
 2107SOL     OW17953   4.431   2.356   0.793  0.1539  0.5434 -0.2291
 2107SOL    HW117954   4.499   2.289   0.801  2.0573  2.6764  1.2638
 2107SOL    HW217955   4.413   2.385   0.882 -0.5836  0.0835 -0.2271
 2108SOL     OW17956   3.193   0.840   6.982 -0.0636 -0.7441  0.0043
 2108SOL    HW117957   3.099   0.832   6.999  0.2347 -2.3673  0.8555
 2108SOL    HW217958   3.209   0.746   6.978 -0.5620 -0.8359  0.2044
 2109SOL     OW17959   0.037   3.328   1.961  0.1546 -0.3392  0.1316
 2109SOL    HW117960   0.109   3.303   2.018 -0.3928  1.0204  1.4313
 2109SOL    HW217961   0.065   3.419   1.954  1.2280 -0.8256 -1.8128
 2110SOL     OW17962   2.933   4.044   8.831  0.0888 -0.7576 -0.2369
 2110SOL    HW117963   2.885   4.040   8.914 -2.2492 -1.6675 -1.6162
 2110SOL    HW217964   2.854   4.056   8.778 -0.2595 -0.0827  0.4200
 2111SOL     OW17965   2.664   2.297   4.753 -0.2571 -0.0821  0.2234
 2111SOL    HW117966   2.710   2.378   4.776  1.5307 -1.4339  1.4539
 2111SOL    HW217967   2.731   2.228   4.751 -2.7738 -2.5335  0.5797
 2112SOL     OW17968   2.212   4.613   9.250 -0.3240  0.0120 -0.4437
 2112SOL    HW117969   2.153   4.640   9.320  1.1418 -0.0272  0.8338
 2112SOL    HW217970   2.293   4.603   9.301  0.3475  0.3591 -1.4538
 2113SOL     OW17971   0.966   2.796   0.863  0.0008  0.1503  0.2531
 2113SOL    HW117972   1.048   2.806   0.814 -0.4183  0.3424 -0.4127
 2113SOL    HW217973   0.932   2.728   0.805  1.2603  0.1975 -0.5646
 2114SOL     OW17974   3.583   0.421   6.173  0.0385 -0.1456  0.2920
 2114SOL    HW117975   3.618   0.332   6.179  0.1371 -0.0058  1.7509
 2114SOL    HW217976   3.514   0.422   6.107 -0.4851  1.0378  0.8535
 2115SOL     OW17977   2.713   3.518   2.930 -0.4940 -0.6456 -0.0519
 2115SOL    HW117978   2.714   3.594   2.873  1.1084 -1.2790 -0.8800
 2115SOL    HW217979   2.804   3.488   2.924  0.5650  2.5388 -0.0181
 2116SOL     OW17980   1.223   2.858   9.676  0.4067 -0.8548 -0.6728
 2116SOL    HW117981   1.271   2.837   9.756 -2.0203  1.9182  1.5395
 2116SOL    HW217982   1.132   2.864   9.706  1.4803  4.0381  1.6365
 2117SOL     OW17983   4.582   3.040  12.772  0.4524  0.8161 -0.4033
 2117SOL    HW117984   4.652   2.986  12.809 -0.6685  1.5598  2.7852
 2117SOL    HW217985   4.595   3.040  12.677 -2.9031 -0.0646 -0.8890
 2118SOL     OW17986   4.656   3.479   7.292 -0.0772 -0.4124  0.0907
 2118SOL    HW117987   4.625   3.567   7.315 -0.5184 -0.4031 -0.5372
 2118SOL    HW217988   4.665   3.474   7.197 -2.6218  1.0667 -0.2338
 2119SOL     OW17989   2.772   3.485   6.595 -0.0916 -0.1112 -0.0038
 2119SOL    HW117990   2.678   3.468   6.586  0.6445 -2.8222 -2.2896
 2119SOL    HW217991   2.765   3.576   6.625 -0.4728  0.1111 -0.7659
 2120SOL     OW17992   1.642   4.460  16.945  0.6006 -0.2071  0.3586
 2120SOL    HW117993   1.730   4.470  16.907  0.3717 -1.4231 -0.4733
 2120SOL    HW217994   1.593   4.443  16.865 -0.7205  1.6048  0.7719
 2121SOL     OW17995   1.177   1.710  16.627  0.2099 -0.8731  0.3628
 2121SOL    HW117996   1.268   1.684  16.616  0.5038 -0.8367  2.9118
 2121SOL    HW217997   1.134   1.630  16.597  0.6865 -0.9219 -0.1837
 2122SOL     OW17998   2.406   0.270   3.338 -0.1690  0.4448 -0.0272
 2122SOL    HW117999   2.420   0.356   3.376  1.6911 -0.1344  0.6036
 2122SOL    HW218000   2.497   0.268   3.306 -0.4148  1.1464 -0.7806
 2123SOL     OW18001   2.806   0.693   3.043  0.0771  0.3624  0.4061
 2123SOL    HW118002   2.722   0.693   2.998  1.4047 -0.6690 -2.0873
 2123SOL    HW218003   2.875   0.682   2.977  0.4893 -1.6987  1.1664
 2124SOL     OW18004   2.226   1.001  12.598  0.1410  0.0301 -0.3517
 2124SOL    HW118005   2.148   1.057  12.595 -1.4047 -2.1802 -1.8151
 2124SOL    HW218006   2.292   1.063  12.568  0.3295  0.1353  0.2837
 2125SOL     OW18007   3.452   2.323   5.809 -0.6065  0.4900  0.2924
 2125SOL    HW118008   3.394   2.393   5.779  0.5523  1.9947  1.5861
 2125SOL    HW218009   3.453   2.319   5.905  3.8649  2.0272  0.2985
 2126SOL     OW18010   4.481   2.306   7.388 -0.3307 -0.0178  0.1101
 2126SOL    HW118011   4.555   2.288   7.445 -1.5611 -0.5239  1.5428
 2126SOL    HW218012   4.436   2.221   7.384  0.6617 -0.4577 -1.5602
 2127SOL     OW18013   0.443   2.131   0.534  0.1321  0.0570  0.2822
 2127SOL    HW118014   0.411   2.215   0.503  1.4982  0.2469 -0.6373
 2127SOL    HW218015   0.435   2.157   0.625  0.9592  0.3776  0.2633
 2128SOL     OW18016   2.534   2.860   5.869  0.2302 -0.3694 -0.1188
 2128SOL    HW118017   2.544   2.772   5.903 -0.2625 -0.3988 -0.0510
 2128SOL    HW218018   2.620   2.869   5.829 -0.3000 -0.2045 -1.2392
 2129SOL     OW18019   1.956   3.503   0.684  0.0501 -0.2798 -0.4155
 2129SOL    HW118020   1.892   3.547   0.740  1.0048 -2.0483  2.0510
 2129SOL    HW218021   1.907   3.429   0.647 -2.3036  0.6216  0.9076
 2130SOL     OW18022   3.323   2.919   3.020 -0.4585  0.5410 -0.1124
 2130SOL    HW118023   3.264   2.908   2.946  0.4297 -0.6239 -0.6619
 2130SOL    HW218024   3.255   2.909   3.086 -0.0767  0.2587  0.2377
 2131SOL     OW18025   3.851   2.619  10.817 -0.2260 -0.0738 -0.3114
 2131SOL    HW118026   3.821   2.681  10.750 -0.9801 -0.8445 -0.7061
 2131SOL    HW218027   3.859   2.537  10.768  2.1669  0.4732 -0.8480
 2132SOL     OW18028   2.602   0.989  11.843  0.2159 -0.1029  0.4151
 2132SOL    HW118029   2.626   0.920  11.780 -0.6900 -1.4257  1.5058
 2132SOL    HW218030   2.673   1.052  11.837  0.9181 -0.9059  0.2774
 2133SOL     OW18031   0.184   1.417   7.372  0.1521  0.1259 -0.1230
 2133SOL    HW118032   0.273   1.447   7.388  0.3835  0.4676 -2.0596
 2133SOL    HW218033   0.150   1.395   7.458 -0.9932  1.2071 -0.3041
 2134SOL     OW18034   4.248   1.020  11.817 -0.6218  0.2608 -0.1589
 2134SOL    HW118035   4.231   0.990  11.728  0.0456  2.4193 -1.0169
 2134SOL    HW218036   4.228   1.114  11.810  1.0872  0.7787  1.8637
 2135SOL     OW18037   4.329   2.459   7.186 -0.1321 -0.3797  0.6610
 2135SOL    HW118038   4.251   2.407   7.205 -0.5722  0.4217  1.0743
 2135SOL    HW218039   4.381   2.420   7.256 -0.9604 -0.8188  1.0433
 2136SOL     OW18040   1.716   0.774   5.246  0.2996 -0.0994 -0.2369
 2136SOL    HW118041   1.757   0.765   5.332  2.4546  2.6029 -0.9998
 2136SOL    HW218042   1.780   0.811   5.185 -0.6876  2.3448  0.2428
 2137SOL     OW18043   1.043   2.554   1.196  0.7831  0.0500 -0.1113
 2137SOL    HW118044   1.045   2.649   1.210 -0.3271 -0.1075  1.0329
 2137SOL    HW218045   0.951   2.539   1.175  0.8241 -2.8747  1.8933
 2138SOL     OW18046   2.540   0.989  10.812  0.1339  0.0093  0.0746
 2138SOL    HW118047   2.535   1.005  10.907 -0.8933 -1.5843  0.2936
 2138SOL    HW218048   2.533   0.894  10.815 -0.8294  0.1289  1.7452
 2139SOL     OW18049   4.182   0.898   2.526 -0.4292  0.0700  0.1383
 2139SOL    HW118050   4.192   0.990   2.550  0.5312  0.3855 -1.4609
 2139SOL    HW218051   4.089   0.877   2.538 -0.3250 -1.6499 -1.9376
 2140SOL     OW18052   4.249   2.970  13.290  0.1152  0.2469 -1.0187
 2140SOL    HW118053   4.247   3.009  13.378  1.6660 -1.9755 -0.0135
 2140SOL    HW218054   4.179   2.906  13.298  0.4015 -0.1288 -1.5271
 2141SOL     OW18055   1.413   1.579  16.948 -0.0833 -0.5038 -0.2541
 2141SOL    HW118056   1.362   1.549  16.872 -0.7957 -0.8350  0.3563
 2141SOL    HW218057   1.490   1.623  16.912 -1.9123  1.6541 -1.5469
 2142SOL     OW18058   0.511   3.140   8.785  0.0515 -0.8822 -0.0099
 2142SOL    HW118059   0.423   3.162   8.756  0.6663  1.9307  0.3061
 2142SOL    HW218060   0.517   3.052   8.747  1.3633 -0.4470 -0.8123
 2143SOL     OW18061   2.385   4.378   9.713  0.3455  0.1894  0.2793
 2143SOL    HW118062   2.311   4.354   9.768  0.5094  1.5918  1.1253
 2143SOL    HW218063   2.440   4.309   9.749  0.7145  0.6329  0.5745
 2144SOL     OW18064   1.409   4.628  14.000  0.8348  0.3530 -0.3735
 2144SOL    HW118065   1.361   4.569  14.059 -4.1482  2.7447 -1.9899
 2144SOL    HW218066   1.341   4.662  13.942  0.4202  0.4442  0.1593
 2145SOL     OW18067   3.367   2.663   7.766  0.1821  1.2967 -0.2141
 2145SOL    HW118068   3.383   2.596   7.832 -0.5483  0.3704 -0.9724
 2145SOL    HW218069   3.272   2.674   7.771 -0.1680 -1.0452 -1.8863
 2146SOL     OW18070   2.476   4.606   5.293 -0.1465 -0.2677  0.2264
 2146SOL    HW118071   2.506   4.677   5.350 -2.4746  0.9195 -0.0306
 2146SOL    HW218072   2.498   4.641   5.207  1.4324  2.2868  1.6725
 2147SOL     OW18073   3.691   0.751   3.235 -0.4185 -0.2112 -0.1263
 2147SOL    HW118074   3.721   0.681   3.178  1.1130 -0.3411  0.8384
 2147SOL    HW218075   3.688   0.821   3.170 -1.7522 -0.6034 -0.5004
 2148SOL     OW18076   2.637   1.893   1.998  0.3851  0.1157  0.3608
 2148SOL    HW118077   2.710   1.950   1.973 -0.2268  0.7391 -0.0127
 2148SOL    HW218078   2.586   1.953   2.054  0.7144  1.3860 -0.6896
 2149SOL     OW18079   0.779   1.772   0.315  0.1513  0.3806  0.0663
 2149SOL    HW118080   0.690   1.762   0.351  0.0064 -1.8024 -0.8978
 2149SOL    HW218081   0.843   1.738   0.378  0.7677  0.2296 -0.6544
 2150SOL     OW18082   3.177   0.949   8.486 -0.1801  0.0182 -0.1676
 2150SOL    HW118083   3.109   0.914   8.428 -1.1403  1.7688 -0.1035
 2150SOL    HW218084   3.186   0.875   8.545 -3.2841  0.1632  0.4914
 2151SOL     OW18085   3.014   4.535   6.725  0.0097  0.2888 -0.6647
 2151SOL    HW118086   3.098   4.575   6.746 -0.4941  0.7167  0.5591
 2151SOL    HW218087   3.033   4.453   6.771  0.5347  2.0677  2.3257
 2152SOL     OW18088   4.548   1.777   5.520  0.1679 -0.2735 -0.3108
 2152SOL    HW118089   4.487   1.710   5.552 -1.4915  1.0191 -0.7538
 2152SOL    HW218090   4.502   1.839   5.463 -0.3010 -1.1730 -0.9300
 2153SOL     OW18091   1.358   3.631   4.535  0.1199  0.5704  0.1493
 2153SOL    HW118092   1.303   3.592   4.602  1.9232  0.0793  1.3422
 2153SOL    HW218093   1.393   3.704   4.587 -0.5330  1.5743 -0.8142
 2154SOL     OW18094   4.480   3.296  15.708  0.6253 -0.0112 -0.5846
 2154SOL    HW118095   4.491   3.326  15.799 -0.3868 -1.7280  0.0939
 2154SOL    HW218096   4.531   3.357  15.654 -1.0240  2.7460  0.9728
 2155SOL     OW18097   1.035   1.726   3.468  0.3452  0.2616  0.3343
 2155SOL    HW118098   0.959   1.673   3.444  0.8058 -0.7401  1.0843
 2155SOL    HW218099   1.023   1.805   3.416 -2.2711 -0.5063 -0.2329
 2156SOL     OW18100   4.702   1.810   4.804 -1.1092 -1.0286  0.3786
 2156SOL    HW118101   0.055   1.839   4.786 -1.3325 -1.0225 -0.6853
 2156SOL    HW218102   4.658   1.832   4.722 -0.3718 -0.2572  0.1890
 2157SOL     OW18103   1.868   1.518   4.671 -0.1549  0.0450  0.4094
 2157SOL    HW118104   1.815   1.517   4.591 -1.2154  2.6759  1.0748
 2157SOL    HW218105   1.878   1.610   4.696 -0.7737  0.5936 -1.3385
 2158SOL     OW18106   4.602   0.459   9.517  0.0426  0.1742  0.3817
 2158SOL    HW118107   4.556   0.376   9.526 -1.3392  0.9681  0.6725
 2158SOL    HW218108   4.664   0.463   9.591 -1.3415  0.3084  1.5429
 2159SOL     OW18109   3.509   0.006   7.605  0.1184  0.9609 -0.2550
 2159SOL    HW118110   3.449   0.068   7.563 -2.4832 -0.6011  1.1704
 2159SOL    HW218111   3.588   0.023   7.554 -0.4435 -0.6597 -1.6710
 2160SOL     OW18112   2.644   0.310   3.203  0.4055  0.4888 -0.2910
 2160SOL    HW118113   2.680   0.387   3.246 -0.8258  1.4388 -0.9657
 2160SOL    HW218114   2.714   0.308   3.137  1.0188 -3.3687  0.4952
 2161SOL     OW18115   2.744   1.756   9.300 -0.5811  0.1683  0.2126
 2161SOL    HW118116   2.653   1.727   9.305 -0.6686  0.2469 -0.9442
 2161SOL    HW218117   2.751   1.839   9.348  2.1425 -0.9554  1.7624
 2162SOL     OW18118   2.706   3.631  16.807 -0.2416 -0.0928 -0.2452
 2162SOL    HW118119   2.699   3.724  16.829 -1.0400  0.1740 -1.6251
 2162SOL    HW218120   2.727   3.647  16.715 -0.5649 -0.0807 -0.3162
 2163SOL     OW18121   4.539   1.602   2.305  0.1645 -0.3697 -0.4074
 2163SOL    HW118122   4.589   1.683   2.297 -1.3907  0.9698  3.3007
 2163SOL    HW218123   4.582   1.546   2.370  1.9594  1.1527 -0.2659
 2164SOL     OW18124   2.033   4.445  14.644  0.0086 -0.2943  0.0241
 2164SOL    HW118125   2.073   4.522  14.684 -0.9711 -0.1172  0.6458
 2164SOL    HW218126   1.989   4.481  14.567 -0.8328  1.1979  1.2305
 2165SOL     OW18127   1.549   1.345  12.472  0.4544  0.5949 -0.4826
 2165SOL    HW118128   1.509   1.432  12.480  0.6827  0.4710  1.9653
 2165SOL    HW218129   1.586   1.338  12.560  2.2202 -1.8285 -1.4257
 2166SOL     OW18130   3.567   3.110   7.705 -0.1071 -0.2521  0.5407
 2166SOL    HW118131   3.613   3.026   7.706  0.5507  0.1010 -0.6101
 2166SOL    HW218132   3.545   3.120   7.613 -0.6738  0.2514  0.7270
 2167SOL     OW18133   3.657   0.642   9.773  0.4909  0.3380  0.0344
 2167SOL    HW118134   3.687   0.573   9.714  0.0247  1.4764 -1.5265
 2167SOL    HW218135   3.601   0.597   9.837  1.9045 -1.5029 -0.0355
 2168SOL     OW18136   2.629   2.292   0.361 -0.3004 -0.0082 -0.3844
 2168SOL    HW118137   2.595   2.203   0.350  1.4778 -0.7284 -0.0137
 2168SOL    HW218138   2.722   2.272   0.354  0.0244  0.8362  1.5071
 2169SOL     OW18139   4.460   3.823   9.396  0.0457  0.0447  0.6119
 2169SOL    HW118140   4.439   3.748   9.451 -0.2865 -0.5156 -0.2768
 2169SOL    HW218141   4.399   3.885   9.436 -0.0076  0.1836  0.3152
 2170SOL     OW18142   2.478   4.189   2.890  0.5333 -0.4787 -0.0371
 2170SOL    HW118143   2.548   4.186   2.825 -0.9257 -1.0330 -1.6019
 2170SOL    HW218144   2.408   4.140   2.847  1.7480 -1.4254 -0.9202
 2171SOL     OW18145   4.481   2.721   9.770  0.2011 -0.0858 -0.1860
 2171SOL    HW118146   4.573   2.743   9.782  0.4193 -0.0833 -1.8216
 2171SOL    HW218147   4.451   2.792   9.714 -1.3721 -1.0958 -0.6475
 2172SOL     OW18148   1.270   1.599  17.313  0.2293  0.1783 -0.0789
 2172SOL    HW118149   1.268   1.645  17.397 -0.3217 -0.0885  0.0544
 2172SOL    HW218150   1.180   1.617  17.285  0.2594 -0.7935 -0.8249
 2173SOL     OW18151   0.970   4.647   5.969  0.7875  0.0632 -0.4201
 2173SOL    HW118152   0.991   4.588   5.897 -2.1472 -0.0023 -1.2139
 2173SOL    HW218153   0.997   4.728   5.926 -2.5212  1.1696 -0.3727
 2174SOL     OW18154   3.882   0.826  16.409 -0.1535 -0.0484 -0.0612
 2174SOL    HW118155   3.818   0.880  16.455  0.2476 -0.9530  1.5636
 2174SOL    HW218156   3.904   0.754  16.468 -2.9620  0.2662  1.3346
 2175SOL     OW18157   0.185   1.328   9.937 -0.7553  0.5295 -0.2395
 2175SOL    HW118158   0.170   1.246   9.890 -0.1336 -1.0314  2.2783
 2175SOL    HW218159   0.273   1.316   9.974 -1.5559 -0.2142  1.4241
 2176SOL     OW18160   0.021   1.907  11.424  0.3533 -0.2622 -0.3908
 2176SOL    HW118161   4.677   1.957  11.437  2.6033  3.4903 -0.7492
 2176SOL    HW218162   0.016   1.875  11.334 -0.1221  1.1775 -0.8796
 2177SOL     OW18163   2.609   1.665   5.202 -1.4358 -0.0671 -0.4640
 2177SOL    HW118164   2.517   1.683   5.222 -1.4931 -0.1895 -0.6178
 2177SOL    HW218165   2.641   1.752   5.176 -0.9675  0.0956  0.6569
 2178SOL     OW18166   2.281   2.475   4.285  0.6215 -0.1010 -0.1299
 2178SOL    HW118167   2.363   2.517   4.259 -0.2645  0.1412 -2.5806
 2178SOL    HW218168   2.260   2.424   4.206 -0.4103  1.5855 -0.9365
 2179SOL     OW18169   3.276   1.458   4.080 -0.0643 -0.0432  0.1626
 2179SOL    HW118170   3.197   1.493   4.039 -1.2020 -2.1802  0.5434
 2179SOL    HW218171   3.293   1.537   4.132 -1.3162  1.4069 -1.6250
 2180SOL     OW18172   4.713   4.474   7.213  0.2908 -0.0412 -0.0078
 2180SOL    HW118173   4.705   4.568   7.195 -0.0334 -0.2554 -1.0126
 2180SOL    HW218174   0.012   4.462   7.301  0.5095  1.2796  0.0829
 2181SOL     OW18175   0.219   1.128   6.644 -0.3068 -0.1956  0.1367
 2181SOL    HW118176   0.194   1.049   6.596  1.5341 -1.2245  0.8858
 2181SOL    HW218177   0.137   1.166   6.676  0.7494  1.9848  0.2394
 2182SOL     OW18178   4.588   3.557   3.790 -0.0681 -0.1126 -0.6178
 2182SOL    HW118179   4.665   3.613   3.788  0.1742 -0.3483  1.5575
 2182SOL    HW218180   4.565   3.558   3.883 -2.2257 -0.1174 -1.1411
 2183SOL     OW18181   4.635   0.891   6.870 -0.2545 -0.1152  0.0168
 2183SOL    HW118182   4.580   0.933   6.936 -2.5094 -1.4800 -0.9834
 2183SOL    HW218183   4.726   0.905   6.894  0.1967  0.7878 -2.1992
 2184SOL     OW18184   1.360   0.349  12.514  0.1857 -0.4009  0.1159
 2184SOL    HW118185   1.368   0.277  12.452  0.9912  0.9256 -1.3175
 2184SOL    HW218186   1.369   0.428  12.461 -0.2841 -1.3714 -1.4092
 2185SOL     OW18187   3.896   0.096   6.428  0.2381  0.3779 -0.0242
 2185SOL    HW118188   3.985   0.130   6.415  0.4602  0.3006  1.2488
 2185SOL    HW218189   3.906   0.071   6.520 -0.2330 -1.3725 -0.4585
 2186SOL     OW18190   2.087   1.518   3.801 -0.0169 -0.2000  0.1231
 2186SOL    HW118191   2.117   1.428   3.814  0.5473 -0.0817 -0.3779
 2186SOL    HW218192   2.115   1.536   3.711 -0.3200  0.2750  0.1210
 2187SOL     OW18193   3.667   0.219   0.936 -0.3051 -0.2735  0.1354
 2187SOL    HW118194   3.687   0.131   0.903  0.1612  0.6172 -1.9187
 2187SOL    HW218195   3.740   0.274   0.908 -0.1766 -0.0864  0.8534
 2188SOL     OW18196   2.597   2.934   1.690  0.3047  1.0540 -0.9076
 2188SOL    HW118197   2.600   2.974   1.603  0.4580  1.1039 -0.8796
 2188SOL    HW218198   2.687   2.952   1.718  1.2793 -1.6572 -2.3060
 2189SOL     OW18199   1.842   1.681  16.476  0.0646  0.4157 -0.9669
 2189SOL    HW118200   1.840   1.586  16.491 -2.1850  0.8215  1.4147
 2189SOL    HW218201   1.926   1.694  16.433 -0.0820 -0.3869 -1.4812
 2190SOL     OW18202   2.349   0.422   4.256 -0.1185  0.1873  0.0460
 2190SOL    HW118203   2.434   0.379   4.249  0.5001  1.4212 -0.1470
 2190SOL    HW218204   2.319   0.430   4.347 -0.3097  0.6354 -0.0553
 2191SOL     OW18205   3.280   4.723   3.109  0.3187  0.0058  0.6531
 2191SOL    HW118206   3.270   4.629   3.093  0.9893 -0.2219  1.5615
 2191SOL    HW218207   3.375   4.725   3.121  0.6517 -0.7108 -1.9779
 2192SOL     OW18208   1.432   1.616  16.477  0.2215 -0.4934  0.0940
 2192SOL    HW118209   1.458   1.707  16.463  0.0264 -0.4442  0.0549
 2192SOL    HW218210   1.460   1.570  16.398  0.5831 -0.7910  0.3972
 2193SOL     OW18211   1.443   1.796   7.208  0.5165  0.6791 -0.0947
 2193SOL    HW118212   1.377   1.741   7.249  0.3404  0.4756 -0.6529
 2193SOL    HW218213   1.414   1.877   7.249 -0.1137  0.9513 -1.0878
 2194SOL     OW18214   0.570   1.354   1.556  0.4390 -0.0587 -0.0567
 2194SOL    HW118215   0.584   1.307   1.474  0.8992 -1.8646  1.0525
 2194SOL    HW218216   0.477   1.376   1.563  0.6273  0.2376  1.7323
 2195SOL     OW18217   3.524   1.428   2.354  0.1666  0.2725 -0.1283
 2195SOL    HW118218   3.588   1.487   2.313  0.5099 -1.6987 -2.4234
 2195SOL    HW218219   3.496   1.385   2.273 -1.4634 -0.6156  0.9091
 2196SOL     OW18220   0.835   4.482   2.578 -1.2367  0.2022 -0.6318
 2196SOL    HW118221   0.785   4.498   2.498 -1.4355  1.3646 -0.2810
 2196SOL    HW218222   0.856   4.572   2.602  0.3473 -0.4548  0.4786
 2197SOL     OW18223   1.961   4.534   8.945  0.3039  0.0562 -0.4151
 2197SOL    HW118224   2.006   4.461   8.987 -1.2125 -1.6942 -1.8031
 2197SOL    HW218225   2.037   4.582   8.914  0.3071  0.9745  1.0693
 2198SOL     OW18226   0.450   1.236   2.935  0.3143 -0.2228  0.1474
 2198SOL    HW118227   0.363   1.240   2.974  0.7523 -0.0368  1.0939
 2198SOL    HW218228   0.459   1.141   2.931  0.0991 -0.2061 -0.8574
 2199SOL     OW18229   4.117   1.641  11.440 -0.2610  0.3881  0.2629
 2199SOL    HW118230   4.079   1.728  11.444  0.9627  0.9979 -1.6311
 2199SOL    HW218231   4.042   1.585  11.421 -0.1359  0.8293 -1.4766
 2200SOL     OW18232   4.346   3.214   6.705  0.4539 -0.1356 -0.2463
 2200SOL    HW118233   4.429   3.261   6.709  0.6411 -0.4762 -0.2214
 2200SOL    HW218234   4.367   3.144   6.643  1.9126 -0.0092  0.1108
 2201SOL     OW18235   0.988   3.382   6.064  0.5404  0.0501  0.6511
 2201SOL    HW118236   0.969   3.297   6.104  0.3876  0.7528  2.0596
 2201SOL    HW218237   1.057   3.372   5.998  0.6870  0.9283  0.6720
 2202SOL     OW18238   0.813   2.497  14.847 -0.2924 -0.5523 -0.3896
 2202SOL    HW118239   0.831   2.513  14.754  0.2920 -1.1815 -0.3830
 2202SOL    HW218240   0.876   2.425  14.848 -0.7477 -0.9539 -0.8030
 2203SOL     OW18241   4.380   3.776   4.206 -0.4111 -0.8489 -0.1562
 2203SOL    HW118242   4.357   3.785   4.299  3.1405 -2.5964  0.8950
 2203SOL    HW218243   4.384   3.869   4.185 -1.3272 -0.6951  0.3400
 2204SOL     OW18244   3.654   3.147   9.521 -0.5317  0.3987 -0.3785
 2204SOL    HW118245   3.648   3.104   9.436 -0.9108  0.0405 -0.1691
 2204SOL    HW218246   3.651   3.069   9.577 -1.3021 -0.4113 -1.5462
 2205SOL     OW18247   3.734   2.708   8.010 -0.1378  0.4360  0.2478
 2205SOL    HW118248   3.756   2.698   8.103  1.1784 -2.4010 -0.3528
 2205SOL    HW218249   3.758   2.620   7.981  0.1658 -0.1501  2.2346
 2206SOL     OW18250   4.401   0.248  10.317  0.5020  0.0495 -0.0018
 2206SOL    HW118251   4.367   0.297  10.391 -2.1400 -1.9631  0.0806
 2206SOL    HW218252   4.490   0.284  10.315  0.1403  0.9233 -0.4241
 2207SOL     OW18253   4.155   3.191   6.878  0.6782 -0.5187  1.1661
 2207SOL    HW118254   4.218   3.203   6.807  1.2508 -2.4593  1.3353
 2207SOL    HW218255   4.087   3.257   6.869  1.5080 -0.0017 -1.2786
 2208SOL     OW18256   2.255   0.965   6.677 -0.4316  0.5007  0.3283
 2208SOL    HW118257   2.235   0.911   6.754  1.6081 -3.0254 -1.6260
 2208SOL    HW218258   2.345   0.983   6.703  0.5441  1.6361 -3.8679
 2209SOL     OW18259   0.889   4.276   4.119 -0.3822 -0.5232  0.3020
 2209SOL    HW118260   0.892   4.299   4.212 -0.2403  0.0903  0.1440
 2209SOL    HW218261   0.916   4.358   4.078  0.7695 -1.6768 -1.2450
 2210SOL     OW18262   0.847   3.904   7.657  0.0389  0.5852  0.5502
 2210SOL    HW118263   0.936   3.868   7.648 -0.0825  1.0249 -2.3919
 2210SOL    HW218264   0.852   3.955   7.577 -1.8502  2.8106  1.8707
 2211SOL     OW18265   3.613   0.622   2.266 -0.0623 -0.2047 -0.4762
 2211SOL    HW118266   3.594   0.701   2.318 -1.1853 -0.5085 -0.4142
 2211SOL    HW218267   3.644   0.560   2.332 -1.3633  1.7993  2.0661
 2212SOL     OW18268   3.638   4.425   4.838 -0.3849 -0.0562  0.0267
 2212SOL    HW118269   3.627   4.451   4.929  2.1137  0.4547  0.2067
 2212SOL    HW218270   3.729   4.393   4.844  0.4680  2.3075 -0.2849
 2213SOL     OW18271   3.673   1.120  16.126  1.4093 -0.4285 -0.3788
 2213SOL    HW118272   3.683   1.028  16.102 -1.3519 -0.7406 -0.2954
 2213SOL    HW218273   3.613   1.107  16.199 -0.7045 -3.4943 -2.6919
 2214SOL     OW18274   3.908   3.036   8.515 -0.4992 -0.6482 -0.1023
 2214SOL    HW118275   3.873   3.106   8.571  0.0314 -1.1003  0.7767
 2214SOL    HW218276   3.827   2.990   8.495 -1.8256  1.0033  1.4086
 2215SOL     OW18277   2.343   3.666   0.138 -0.2970  0.4056  0.1964
 2215SOL    HW118278   2.366   3.576   0.118 -1.8453  0.3827 -1.5302
 2215SOL    HW218279   2.429   3.703   0.121 -0.0600  0.8282  2.3344
 2216SOL     OW18280   0.897   4.060   5.548  0.2161 -0.3407  0.7574
 2216SOL    HW118281   0.935   4.108   5.621  2.0948 -2.8304  1.3803
 2216SOL    HW218282   0.809   4.042   5.581 -0.3715  1.3649  0.1446
 2217SOL     OW18283   0.885   4.124   6.708 -0.5420 -0.1318 -0.0835
 2217SOL    HW118284   0.901   4.034   6.736  0.5293 -0.1902 -0.8908
 2217SOL    HW218285   0.967   4.173   6.711  0.5064 -1.9707  1.1812
 2218SOL     OW18286   4.117   1.098   1.622 -1.0644  0.1586  0.9443
 2218SOL    HW118287   4.024   1.109   1.605 -1.1790 -1.0232  0.7808
 2218SOL    HW218288   4.126   1.022   1.680 -0.2717 -0.8590 -0.5023
 2219SOL     OW18289   2.308   0.826   8.946  0.3309 -0.0614 -0.2839
 2219SOL    HW118290   2.346   0.825   8.858  1.3387  0.9436  0.1265
 2219SOL    HW218291   2.307   0.736   8.979  2.1623 -0.1014 -0.3226
 2220SOL     OW18292   0.690   1.216   4.611 -0.2092  0.3353 -0.1449
 2220SOL    HW118293   0.699   1.181   4.700 -0.3713 -0.9263 -0.6315
 2220SOL    HW218294   0.611   1.267   4.629  0.0609  0.5772  0.3804
 2221SOL     OW18295   2.075   2.493  14.104 -0.0488  0.2430 -0.0386
 2221SOL    HW118296   2.045   2.583  14.120 -3.5363 -0.5111 -2.4090
 2221SOL    HW218297   2.081   2.461  14.194 -0.6273 -0.9621 -0.4362
 2222SOL     OW18298   0.763   1.385   2.851  0.7573 -0.0592  0.3797
 2222SOL    HW118299   0.680   1.386   2.802  1.0638 -0.0395 -0.1351
 2222SOL    HW218300   0.735   1.356   2.938  0.9163 -0.4859  0.2869
 2223SOL     OW18301   2.546   2.732   4.713  0.6765 -0.7687 -0.0562
 2223SOL    HW118302   2.463   2.732   4.665  0.4435 -1.6207  0.3509
 2223SOL    HW218303   2.615   2.744   4.647  1.2933  1.9391  1.0648
 2224SOL     OW18304   3.078   2.993   0.277  0.1166  0.1934  0.0472
 2224SOL    HW118305   3.152   3.048   0.300  1.2939 -0.1331 -2.9089
 2224SOL    HW218306   3.018   3.062   0.247 -0.8002 -0.6127  0.0101
 2225SOL     OW18307   1.519   4.513   5.208 -0.2550 -0.5900  0.4604
 2225SOL    HW118308   1.532   4.424   5.240  0.2081  0.0698  2.0891
 2225SOL    HW218309   1.610   4.543   5.199 -0.1448 -0.4671  1.9735
 2226SOL     OW18310   2.644   0.728   9.178 -0.4359 -0.7382  0.8445
 2226SOL    HW118311   2.614   0.657   9.122 -0.5581  1.9070 -2.4959
 2226SOL    HW218312   2.708   0.691   9.240 -0.6263  0.8065  1.9588
 2227SOL     OW18313   0.260   1.320   4.571 -0.0289 -0.3270  0.6061
 2227SOL    HW118314   0.204   1.313   4.648 -0.5289 -0.2221  0.2502
 2227SOL    HW218315   0.196   1.335   4.501 -0.5625 -1.8434  0.7661
 2228SOL     OW18316   4.601   3.449   9.230 -0.3442 -0.2658 -0.3990
 2228SOL    HW118317   4.684   3.488   9.260 -0.8531  1.0200 -0.6455
 2228SOL    HW218318   4.536   3.479   9.293  1.1683  0.8283  0.6573
 2229SOL     OW18319   1.319   4.390   2.960  0.0166  0.6119  0.0739
 2229SOL    HW118320   1.290   4.461   3.017 -4.1146 -1.8328  1.0049
 2229SOL    HW218321   1.380   4.439   2.906  1.1296 -1.8953 -0.9358
 2230SOL     OW18322   4.630   2.143   4.504  0.0341  0.0874 -0.2114
 2230SOL    HW118323   4.639   2.077   4.435 -1.0855 -0.7407  0.4426
 2230SOL    HW218324   4.591   2.210   4.448  1.2730  0.9927 -0.0061
 2231SOL     OW18325   4.661   1.969   1.399  0.6100 -0.1630 -0.2473
 2231SOL    HW118326   4.573   1.981   1.437  0.4736 -0.3757 -0.5026
 2231SOL    HW218327   4.709   2.011   1.471  0.1221  2.7344 -1.5995
 2232SOL     OW18328   1.767   3.845  13.507 -1.3221  0.4231 -0.2180
 2232SOL    HW118329   1.791   3.937  13.494 -3.7611  0.9963 -0.7682
 2232SOL    HW218330   1.830   3.798  13.452 -1.3670  1.6938 -1.3798
 2233SOL     OW18331   2.553   2.913   9.360 -0.0373 -0.0560  0.3008
 2233SOL    HW118332   2.464   2.884   9.341  0.0639  0.9354 -1.7413
 2233SOL    HW218333   2.538   2.944   9.449  0.1889  0.6975  0.0860
 2234SOL     OW18334   1.944   4.470   6.643  0.6850  0.0076  0.1693
 2234SOL    HW118335   1.947   4.447   6.736 -1.1661  2.4320  0.8328
 2234SOL    HW218336   1.855   4.443   6.619  0.9636 -1.3348  0.6681
 2235SOL     OW18337   4.510   4.435  12.661  0.2316  0.1530  0.3843
 2235SOL    HW118338   4.423   4.422  12.699  0.3359 -2.0101 -0.0976
 2235SOL    HW218339   4.558   4.433  12.743  3.5563 -2.0415 -1.6028
 2236SOL     OW18340   1.353   3.511   3.311  0.1781  0.6813 -0.0913
 2236SOL    HW118341   1.292   3.438   3.302  0.2506  0.8245 -1.7273
 2236SOL    HW218342   1.322   3.574   3.246 -2.1300  1.5165  1.8214
 2237SOL     OW18343   0.016   2.579   1.760  0.7508 -0.4876  0.2555
 2237SOL    HW118344   4.681   2.635   1.730  0.6986 -0.1450  1.0072
 2237SOL    HW218345   4.699   2.503   1.782 -1.1642  0.4490 -1.2211
 2238SOL     OW18346   1.162   4.100   4.397 -0.0353  0.1155 -0.2207
 2238SOL    HW118347   1.168   4.077   4.490 -1.4097  0.9943  0.0776
 2238SOL    HW218348   1.233   4.163   4.391  0.5519 -0.4448  0.8085
 2239SOL     OW18349   1.570   1.031   7.459 -0.3513  0.0207  0.0661
 2239SOL    HW118350   1.536   0.942   7.453  1.9523 -0.9490  1.0430
 2239SOL    HW218351   1.657   1.027   7.419 -0.3312  1.7504 -0.0479
 2240SOL     OW18352   3.588   3.102   2.119  0.0516 -0.1136 -0.0566
 2240SOL    HW118353   3.637   3.180   2.092  0.1141  0.0521  0.5206
 2240SOL    HW218354   3.560   3.133   2.206  1.2873 -0.2016  0.3602
 2241SOL     OW18355   2.323   0.432   7.052 -0.8205  0.0197 -0.1570
 2241SOL    HW118356   2.294   0.484   6.977  2.3027  1.5030 -0.3433
 2241SOL    HW218357   2.394   0.484   7.090  0.5733 -0.2756 -2.3826
 2242SOL     OW18358   1.147   1.849  13.376  0.4095  0.1489 -0.2689
 2242SOL    HW118359   1.218   1.902  13.340 -0.4759  0.4240 -1.5826
 2242SOL    HW218360   1.172   1.811  13.460 -0.6173  0.7306  0.3076
 2243SOL     OW18361   1.535   3.006  13.429  0.7301  0.0914  0.3850
 2243SOL    HW118362   1.593   3.027  13.502  0.0439  1.1251  0.6299
 2243SOL    HW218363   1.561   2.919  13.398 -1.0977 -0.6673  0.9849
 2244SOL     OW18364   2.263   1.157   8.244 -0.6213  0.3515 -0.1370
 2244SOL    HW118365   2.258   1.198   8.157  3.2829  0.9355 -0.0809
 2244SOL    HW218366   2.325   1.216   8.287 -1.1139  1.8304 -1.4514
 2245SOL     OW18367   0.292   3.701   4.463  0.1762  0.1815 -0.1637
 2245SOL    HW118368   0.253   3.714   4.550 -0.2336 -0.5622 -0.2358
 2245SOL    HW218369   0.232   3.634   4.432 -1.9775  1.5046  1.1331
 2246SOL     OW18370   0.893   4.375   7.528 -0.2051 -0.0562  0.2440
 2246SOL    HW118371   0.917   4.407   7.615  2.1806 -0.1600 -0.3770
 2246SOL    HW218372   0.977   4.368   7.483 -0.1661  0.9096  0.1651
 2247SOL     OW18373   0.806   2.541   7.042  0.2806 -0.2154 -0.0768
 2247SOL    HW118374   0.871   2.471   7.052  0.8910  0.6220  1.8882
 2247SOL    HW218375   0.867   2.614   7.053 -0.1836  0.0311  0.8341
 2248SOL     OW18376   1.563   3.364   4.698  0.3068 -0.1854 -0.3865
 2248SOL    HW118377   1.486   3.420   4.683  1.3118  1.2468 -0.1872
 2248SOL    HW218378   1.527   3.298   4.758 -1.0989  0.8516 -0.0729
 2249SOL     OW18379   4.364   2.367   8.267  0.0063 -0.6160  0.3346
 2249SOL    HW118380   4.427   2.422   8.314 -1.0787  0.2473  0.7904
 2249SOL    HW218381   4.307   2.437   8.235  1.7835 -0.3744 -2.3069
 2250SOL     OW18382   0.922   4.585   5.160  0.2798 -0.0274 -0.4108
 2250SOL    HW118383   0.969   4.660   5.197 -0.4136 -1.5492  3.5896
 2250SOL    HW218384   0.837   4.620   5.132 -1.2758 -2.4101  1.2570
 2251SOL     OW18385   1.684   0.495   5.544 -0.0159  0.2932  0.2341
 2251SOL    HW118386   1.673   0.400   5.538  1.5358  0.1158  0.2405
 2251SOL    HW218387   1.659   0.518   5.455 -0.8882 -0.2856  0.3259
 2252SOL     OW18388   1.276   0.562   8.386  0.4337 -0.0750  0.4464
 2252SOL    HW118389   1.216   0.495   8.352  1.3337 -0.0014 -1.2516
 2252SOL    HW218390   1.234   0.569   8.472 -2.2108  3.3399 -1.1364
 2253SOL     OW18391   4.208   4.595   6.747 -0.2057  0.1407  0.3342
 2253SOL    HW118392   4.209   4.544   6.667 -0.3017 -2.3945  1.9608
 2253SOL    HW218393   4.128   4.646   6.734  0.6459  1.4965  0.4432
 2254SOL     OW18394   3.263   0.313   6.074 -0.9512 -0.3137  0.2750
 2254SOL    HW118395   3.168   0.315   6.090 -1.1633 -3.0176 -0.7275
 2254SOL    HW218396   3.272   0.269   5.989  0.9892  1.9907 -0.7081
 2255SOL     OW18397   1.975   2.139   8.520  0.4300  0.1582  0.0818
 2255SOL    HW118398   1.975   2.233   8.542 -0.0302  0.6348 -1.9819
 2255SOL    HW218399   1.998   2.110   8.608  1.0117  3.4246  1.0267
 2256SOL     OW18400   1.013   3.184   6.559  0.3932  0.2582 -0.3019
 2256SOL    HW118401   0.918   3.199   6.564  0.4005 -0.9380  3.8021
 2256SOL    HW218402   1.029   3.096   6.594 -0.4901 -0.4327 -1.6248
 2257SOL     OW18403   3.297   4.403   5.967 -0.1791  0.0127  0.5068
 2257SOL    HW118404   3.269   4.435   5.882 -0.0313  1.8459  1.1437
 2257SOL    HW218405   3.290   4.308   5.959  2.0251 -0.2706  1.7276
 2258SOL     OW18406   1.608   0.432   7.602 -0.0659 -0.3139 -0.7573
 2258SOL    HW118407   1.615   0.515   7.649  1.5758 -1.7655  1.5068
 2258SOL    HW218408   1.699   0.418   7.579 -0.2532 -0.8083 -1.1898
 2259SOL     OW18409   1.320   2.178  16.775 -0.2903  0.1792 -0.0128
 2259SOL    HW118410   1.388   2.125  16.734  0.1640 -0.0192  0.9940
 2259SOL    HW218411   1.321   2.135  16.861 -0.9735  1.6498  0.7400
 2260SOL     OW18412   3.729   2.901   1.319  0.3264  0.2208 -0.3352
 2260SOL    HW118413   3.762   2.858   1.399 -0.3362 -0.7053 -0.5535
 2260SOL    HW218414   3.793   2.972   1.320  0.2628  0.2751  0.0319
 2261SOL     OW18415   0.416   4.495   1.886  0.7364 -0.1169 -0.1563
 2261SOL    HW118416   0.350   4.428   1.869  1.7911 -0.2262 -3.9042
 2261SOL    HW218417   0.491   4.457   1.841  1.1015 -0.1518  0.4792
 2262SOL     OW18418   0.222   4.607   7.663  0.2988  0.3294  0.1277
 2262SOL    HW118419   0.255   4.695   7.682  0.5298  0.0016  1.2113
 2262SOL    HW218420   0.248   4.564   7.744  4.2438  1.0032 -0.7613
 2263SOL     OW18421   1.222   2.483   9.716 -0.0152 -0.7056  0.6839
 2263SOL    HW118422   1.222   2.468   9.811 -0.0950  1.5338  1.0237
 2263SOL    HW218423   1.231   2.392   9.688 -0.7100 -0.5771  0.0312
 2264SOL     OW18424   1.427   3.982   6.924 -0.0620 -0.0701  0.4606
 2264SOL    HW118425   1.436   4.058   6.867 -2.1951  0.0884  0.3168
 2264SOL    HW218426   1.441   3.913   6.860 -1.2090 -0.3595  0.5225
 2265SOL     OW18427   2.792   2.334   3.070 -0.2505  0.1597 -0.0342
 2265SOL    HW118428   2.712   2.286   3.048 -0.1555 -0.5299  1.1490
 2265SOL    HW218429   2.795   2.313   3.163  2.4101  0.7691 -0.0025
 2266SOL     OW18430   0.758   2.277  16.877  0.8162 -0.1044 -0.2619
 2266SOL    HW118431   0.830   2.262  16.938  0.2720  2.1020  0.9517
 2266SOL    HW218432   0.710   2.194  16.872  2.5429 -1.2245  1.5478
 2267SOL     OW18433   1.056   2.283   8.239 -0.2409 -0.1187 -0.5962
 2267SOL    HW118434   1.070   2.263   8.146 -0.0738  0.4362 -0.6883
 2267SOL    HW218435   0.986   2.220   8.260  1.1585 -1.9938 -1.6012
 2268SOL     OW18436   0.705   4.464   4.421 -0.6281  0.0741 -0.6091
 2268SOL    HW118437   0.753   4.382   4.413 -0.2974  0.3877 -1.7077
 2268SOL    HW218438   0.612   4.441   4.426 -0.6422  0.6671  2.4351
 2269SOL     OW18439   0.688   0.746   6.093  0.2905  0.2604 -0.0262
 2269SOL    HW118440   0.730   0.751   6.007 -3.1663  0.0654 -1.7506
 2269SOL    HW218441   0.596   0.767   6.077  0.6004  1.6653  0.0150
 2270SOL     OW18442   0.552   3.033   3.919  0.0828 -0.1461  0.6038
 2270SOL    HW118443   0.494   3.098   3.960  2.3377  2.6386 -0.5719
 2270SOL    HW218444   0.542   2.957   3.976 -1.6417 -2.6952 -3.0864
 2271SOL     OW18445   0.336   4.255   3.402 -0.2493  0.1205 -0.8391
 2271SOL    HW118446   0.380   4.170   3.409 -0.5753 -0.0636 -1.0339
 2271SOL    HW218447   0.245   4.232   3.419 -1.0756  2.9058 -1.3485
 2272SOL     OW18448   2.594   3.128   6.550  0.6128  0.4292  0.1067
 2272SOL    HW118449   2.570   3.066   6.482  1.2650 -0.1496  0.3974
 2272SOL    HW218450   2.563   3.089   6.631  2.7769 -0.7126  0.3942
 2273SOL     OW18451   3.846   0.056   1.706  0.1741  0.1888  0.2161
 2273SOL    HW118452   3.861   0.125   1.772  1.1962 -0.0909  0.2736
 2273SOL    HW218453   3.933   0.017   1.710 -0.7216 -1.6961  1.3085
 2274SOL     OW18454   0.526   4.121   8.191  0.4070 -0.0719  0.1605
 2274SOL    HW118455   0.514   4.031   8.222  0.3329 -0.0478  0.2010
 2274SOL    HW218456   0.437   4.155   8.193  0.6318  0.6540 -1.5791
 2275SOL     OW18457   4.052   1.687   9.314 -0.2475 -0.4719  0.1941
 2275SOL    HW118458   4.112   1.748   9.358 -2.1160  1.2285  0.3990
 2275SOL    HW218459   4.091   1.676   9.227  1.3921 -0.1546  0.8818
 2276SOL     OW18460   2.562   3.823   7.889  0.3066  0.0275 -0.0389
 2276SOL    HW118461   2.508   3.744   7.890  1.6292 -0.8677  0.9073
 2276SOL    HW218462   2.583   3.820   7.796  1.7971  0.8019  0.2712
 2277SOL     OW18463   3.182   2.116  12.477  0.3987  0.0001  0.7517
 2277SOL    HW118464   3.234   2.049  12.432 -1.7422 -0.0930 -1.5938
 2277SOL    HW218465   3.165   2.180  12.408  1.8147  0.4176  0.7835
 2278SOL     OW18466   4.638   2.617   2.185 -0.0477 -0.6884  0.0038
 2278SOL    HW118467   4.624   2.605   2.279  0.1854  1.9864  0.3583
 2278SOL    HW218468   4.726   2.584   2.167  0.8929  1.7563  0.2389
 2279SOL     OW18469   0.489   2.340   7.745 -0.0372  0.2819 -0.0293
 2279SOL    HW118470   0.412   2.395   7.760  2.0339  2.6722  1.9897
 2279SOL    HW218471   0.553   2.412   7.739  1.5798 -1.0312  1.4519
 2280SOL     OW18472   2.299   0.823   5.397  0.4634 -0.0233 -0.2680
 2280SOL    HW118473   2.351   0.766   5.454  0.6667 -1.5146 -1.9319
 2280SOL    HW218474   2.307   0.901   5.452  2.6876  0.0555 -0.6822
 2281SOL     OW18475   1.348   2.022  13.276  0.1548  0.2452  0.0476
 2281SOL    HW118476   1.310   2.101  13.237  0.5031  0.8065  0.8255
 2281SOL    HW218477   1.426   2.016  13.220 -0.0440  0.3420 -0.2360
 2282SOL     OW18478   0.555   2.683  13.799  0.6283 -0.5645 -0.0191
 2282SOL    HW118479   0.564   2.778  13.797  2.8880 -0.7607  1.1400
 2282SOL    HW218480   0.646   2.660  13.818  0.8898  0.5278  0.0688
 2283SOL     OW18481   1.107   3.344   3.233  0.2334  0.5142  0.4833
 2283SOL    HW118482   1.108   3.388   3.148 -0.9056 -0.8841 -0.2531
 2283SOL    HW218483   1.155   3.266   3.206 -0.0884  0.7866 -0.8615
 2284SOL     OW18484   3.690   3.190   4.338 -0.2063 -0.4735 -0.6525
 2284SOL    HW118485   3.631   3.153   4.273 -0.8716 -0.2488 -0.1762
 2284SOL    HW218486   3.770   3.179   4.287  0.7307 -0.5437  0.8397
 2285SOL     OW18487   0.502   3.144   6.440  0.2059  0.0337 -0.3313
 2285SOL    HW118488   0.458   3.204   6.501  2.2621  0.1163  1.0896
 2285SOL    HW218489   0.463   3.144   6.353  1.8552  0.5819 -1.0832
 2286SOL     OW18490   1.135   1.864   2.449  0.1870 -0.2953 -0.2338
 2286SOL    HW118491   1.220   1.891   2.484  0.1053 -0.6928  0.2851
 2286SOL    HW218492   1.142   1.780   2.403  2.0389 -0.4160  0.2713
 2287SOL     OW18493   3.417   3.656   7.596 -0.3445 -0.0466 -0.2308
 2287SOL    HW118494   3.487   3.672   7.532 -1.6696  1.8692 -1.2127
 2287SOL    HW218495   3.359   3.728   7.569 -2.3467  0.0652  4.3942
 2288SOL     OW18496   0.605   3.044   5.638  0.0113  0.6249  0.0165
 2288SOL    HW118497   0.543   3.083   5.700 -0.2669  1.0419 -0.5224
 2288SOL    HW218498   0.570   2.956   5.625  0.8388  0.0919  1.3428
 2289SOL     OW18499   3.874   0.674   3.943 -0.4773  0.4599 -0.9341
 2289SOL    HW118500   3.888   0.582   3.918 -0.4944  0.2054  0.0061
 2289SOL    HW218501   3.781   0.681   3.962 -0.6262 -0.5339 -1.2930
 2290SOL     OW18502   3.991   0.776   5.823  0.2557 -0.0593 -0.0469
 2290SOL    HW118503   4.022   0.866   5.821 -0.9131  0.3254 -0.9025
 2290SOL    HW218504   3.899   0.784   5.849  0.1982 -0.3335 -0.1556
 2291SOL     OW18505   4.632   3.688   8.363  0.2172  0.1363 -0.1188
 2291SOL    HW118506   4.679   3.756   8.412 -1.5654  1.2566  0.0364
 2291SOL    HW218507   4.549   3.735   8.357 -1.6778 -3.3126 -0.9786
 2292SOL     OW18508   2.112   0.597  11.750 -0.9830 -0.5067 -0.1276
 2292SOL    HW118509   2.057   0.624  11.824 -0.9317 -1.3219  0.2065
 2292SOL    HW218510   2.190   0.567  11.795  0.0200 -0.2742 -1.7072
 2293SOL     OW18511   3.518   3.971   3.382  0.1993  0.4206  0.5544
 2293SOL    HW118512   3.454   4.031   3.344  0.5268  0.6304  0.3396
 2293SOL    HW218513   3.597   4.022   3.366 -0.0736  0.6239 -0.1247
 2294SOL     OW18514   0.039   1.819   8.144 -0.8394  0.0476 -0.1383
 2294SOL    HW118515   4.683   1.797   8.149 -0.6823 -0.0628  2.6419
 2294SOL    HW218516   0.060   1.810   8.237  0.8471 -0.4991 -0.5647
 2295SOL     OW18517   0.076   3.675   7.561 -0.2359 -0.2059 -0.0855
 2295SOL    HW118518   0.075   3.744   7.627  0.8837 -0.7302  0.4708
 2295SOL    HW218519   0.072   3.595   7.614  0.0850  0.0163  0.2679
 2296SOL     OW18520   3.682   2.310   6.788  0.2851 -0.2131 -0.6817
 2296SOL    HW118521   3.662   2.216   6.786  1.8598 -0.5544 -0.3473
 2296SOL    HW218522   3.638   2.340   6.708 -1.0947  0.1840  0.2319
 2297SOL     OW18523   4.415   3.887   5.420 -0.4298 -0.7733 -0.6825
 2297SOL    HW118524   4.459   3.865   5.502 -1.6318 -0.7370 -0.0286
 2297SOL    HW218525   4.484   3.920   5.361  0.4432 -1.3554  0.0258
 2298SOL     OW18526   0.263   0.311   1.657  0.7743 -0.2187 -0.0211
 2298SOL    HW118527   0.265   0.361   1.739 -1.3146  0.8990 -0.6497
 2298SOL    HW218528   0.353   0.280   1.667  1.0537  0.4155 -0.6064
 2299SOL     OW18529   3.023   0.285   3.330 -0.5048  0.5948 -0.1376
 2299SOL    HW118530   2.986   0.356   3.277 -1.7485 -0.5526 -0.8032
 2299SOL    HW218531   3.015   0.322   3.418 -2.8649  0.4419 -0.2813
 2300SOL     OW18532   1.093   2.709  15.895  0.1152  0.4630 -1.0205
 2300SOL    HW118533   1.164   2.773  15.908 -0.0590  0.4454 -0.0196
 2300SOL    HW218534   1.146   2.639  15.856 -0.0593  0.7016 -1.6942
 2301SOL     OW18535   4.152   2.925   9.022 -0.1894 -0.1582 -0.4027
 2301SOL    HW118536   4.134   2.975   8.942  0.7329  1.3371  0.3255
 2301SOL    HW218537   4.247   2.914   9.014 -0.3660  0.3043 -3.1937
 2302SOL     OW18538   4.401   1.035   9.418  0.1112 -0.5692  0.1655
 2302SOL    HW118539   4.323   0.996   9.379  0.4389 -1.9492  0.8875
 2302SOL    HW218540   4.364   1.123   9.415 -0.6742 -0.9303 -0.6616
 2303SOL     OW18541   2.873   3.889   6.483 -0.0713 -0.0959  0.3726
 2303SOL    HW118542   2.788   3.901   6.441 -0.6353  0.1530  1.5847
 2303SOL    HW218543   2.922   3.959   6.439 -0.1152 -0.4682 -0.2675
 2304SOL     OW18544   4.245   2.352  11.382  0.1690  0.5084 -0.1731
 2304SOL    HW118545   4.277   2.307  11.304 -1.9596  0.0529 -0.7929
 2304SOL    HW218546   4.249   2.275  11.438  0.4084  0.8961  0.3470
 2305SOL     OW18547   0.348   3.948   8.344 -0.4033 -0.1545 -0.6844
 2305SOL    HW118548   0.352   4.039   8.375  0.2849 -0.0315 -1.1240
 2305SOL    HW218549   0.423   3.906   8.386  0.3618  0.4730 -1.4094
 2306SOL     OW18550   1.043   1.569   0.770  0.0091  0.7285 -0.5890
 2306SOL    HW118551   1.081   1.529   0.848 -1.6588  0.9694  0.3457
 2306SOL    HW218552   1.110   1.559   0.702  2.0582  0.0076  1.5471
 2307SOL     OW18553   2.608   4.508  14.475  0.2811 -0.1605 -0.5109
 2307SOL    HW118554   2.609   4.414  14.456 -2.8489 -0.3954  0.4404
 2307SOL    HW218555   2.698   4.536  14.458  1.2322 -1.2363  2.8704
 2308SOL     OW18556   4.554   4.268   7.436  0.8470 -0.3777  0.1346
 2308SOL    HW118557   4.535   4.183   7.476 -1.1215 -0.8594 -1.8588
 2308SOL    HW218558   4.553   4.246   7.343 -0.1056 -0.8192  0.2459
 2309SOL     OW18559   3.304   1.997   4.329  0.0787 -0.9036  0.7554
 2309SOL    HW118560   3.376   2.055   4.355  0.1483 -0.4618 -0.3997
 2309SOL    HW218561   3.287   1.951   4.411 -0.5037 -1.3541  0.3771
 2310SOL     OW18562   2.952   0.557   2.828 -0.1205 -0.0940  0.1752
 2310SOL    HW118563   2.870   0.588   2.789  1.7765  2.5815 -1.6674
 2310SOL    HW218564   3.007   0.569   2.750 -0.7380 -2.2384 -0.5790
 2311SOL     OW18565   0.414   0.370   6.231 -0.5289 -0.4756  0.4932
 2311SOL    HW118566   0.394   0.381   6.138 -0.5836  1.7196  0.7639
 2311SOL    HW218567   0.436   0.460   6.254 -1.1956 -0.0992 -0.3644
 2312SOL     OW18568   2.823   3.637   3.374  0.2291  0.4052  0.3575
 2312SOL    HW118569   2.801   3.645   3.467 -1.6688 -0.9839  0.0403
 2312SOL    HW218570   2.743   3.677   3.341  0.5161  0.2082 -0.5774
 2313SOL     OW18571   3.421   3.416   2.472 -0.9964 -0.4313  0.9455
 2313SOL    HW118572   3.399   3.459   2.389  0.4692 -2.6271 -0.6237
 2313SOL    HW218573   3.461   3.490   2.516  2.9279 -0.3280 -2.7250
 2314SOL     OW18574   3.219   2.141   5.050 -0.4086 -0.1751  0.1280
 2314SOL    HW118575   3.313   2.149   5.036 -0.1633 -1.2562  1.1923
 2314SOL    HW218576   3.220   2.080   5.124  0.7722  3.9106  3.4721
 2315SOL     OW18577   3.160   0.443   9.144 -0.1946  0.2223  0.0917
 2315SOL    HW118578   3.071   0.418   9.170  0.6349 -1.3300  1.4472
 2315SOL    HW218579   3.178   0.385   9.070  1.8969 -0.8936  1.4583
 2316SOL     OW18580   0.668   3.903   0.070 -0.0049 -0.2520 -0.0840
 2316SOL    HW118581   0.583   3.873   0.039 -0.1734  0.2883 -0.1519
 2316SOL    HW218582   0.663   3.907   0.165 -2.3133  2.5505 -0.3376
 2317SOL     OW18583   2.813   2.001   2.289 -0.3669  0.8553 -0.0132
 2317SOL    HW118584   2.731   2.015   2.336 -0.7305 -0.1109 -0.3580
 2317SOL    HW218585   2.867   2.060   2.340 -0.3068  3.1678 -2.7654
 2318SOL     OW18586   0.831   0.393   5.565  0.2145  0.2060 -0.2941
 2318SOL    HW118587   0.789   0.409   5.480 -2.3293 -0.8536  0.7789
 2318SOL    HW218588   0.757   0.439   5.603 -0.6991 -1.8518  0.3721
 2319SOL     OW18589   3.418   0.982   6.412  0.1618 -0.1365 -1.0894
 2319SOL    HW118590   3.506   0.945   6.404  0.4495  0.2179  0.3215
 2319SOL    HW218591   3.397   0.987   6.319  2.2925 -1.1280 -1.6362
 2320SOL     OW18592   3.675   0.369   7.481  0.8997  0.4783  0.7384
 2320SOL    HW118593   3.721   0.319   7.550 -0.7913 -0.0724  1.4740
 2320SOL    HW218594   3.592   0.386   7.526  0.2030 -0.4273 -0.1912
 2321SOL     OW18595   1.522   3.005  16.051 -0.2443 -0.2612 -0.7602
 2321SOL    HW118596   1.543   3.099  16.046 -2.4498  0.2483 -0.9081
 2321SOL    HW218597   1.601   2.963  16.085  0.9375  2.1558 -0.5239
 2322SOL     OW18598   3.212   1.407   3.224  0.2827 -0.0446 -0.3352
 2322SOL    HW118599   3.300   1.391   3.258  0.6879 -0.5229 -1.5689
 2322SOL    HW218600   3.196   1.501   3.236 -0.8004 -0.1329 -1.0673
 2323SOL     OW18601   2.261   0.215  15.364 -0.2612 -0.1490  0.1828
 2323SOL    HW118602   2.184   0.271  15.351 -2.0754 -2.7696 -0.3187
 2323SOL    HW218603   2.312   0.249  15.290  1.8612 -0.6769  1.4244
 2324SOL     OW18604   3.239   1.534   2.911 -0.5528 -0.0593  0.5048
 2324SOL    HW118605   3.243   1.622   2.948  1.2437  0.3311 -0.5903
 2324SOL    HW218606   3.149   1.524   2.881 -0.2929 -0.7732 -0.0374
 2325SOL     OW18607   4.655   2.206   6.299 -0.0022  0.6236 -0.4538
 2325SOL    HW118608   4.676   2.263   6.373 -2.0045  1.1197 -0.2732
 2325SOL    HW218609   4.659   2.119   6.339  0.6282 -0.6129 -3.1784
 2326SOL     OW18610   1.536   2.919  16.532 -0.7270 -0.0651 -0.2900
 2326SOL    HW118611   1.530   2.980  16.606  2.8633  1.8301 -1.5158
 2326SOL    HW218612   1.497   2.970  16.460 -0.1825 -0.2869 -0.7450
 2327SOL     OW18613   1.567   2.064  16.761  0.1205  0.0213 -0.1014
 2327SOL    HW118614   1.607   1.983  16.729  0.4134  0.2951 -0.4364
 2327SOL    HW218615   1.635   2.105  16.814  1.9978 -2.2277 -0.7717
 2328SOL     OW18616   3.592   3.882   3.988 -0.0662 -0.1581  0.2362
 2328SOL    HW118617   3.507   3.911   4.020 -0.1884  0.1675 -0.3711
 2328SOL    HW218618   3.582   3.904   3.895 -1.9008 -0.8642  0.2669
 2329SOL     OW18619   0.211   0.459   2.187  0.6042  0.3856 -0.6287
 2329SOL    HW118620   0.158   0.538   2.189 -3.3107 -2.2593 -0.0932
 2329SOL    HW218621   0.279   0.478   2.252  0.1339  0.4740 -0.1563
 2330SOL     OW18622   0.718   2.818  15.767 -0.1797 -0.0092 -0.0284
 2330SOL    HW118623   0.706   2.873  15.845 -1.5904 -1.3179  0.6694
 2330SOL    HW218624   0.786   2.763  15.806 -1.6352 -1.3573  0.5859
 2331SOL     OW18625   3.042   0.011   4.376 -0.6533 -0.4135  0.5481
 2331SOL    HW118626   2.978   0.032   4.309 -0.1524  2.5078  0.9973
 2331SOL    HW218627   3.122   4.728   4.327 -0.8693  0.1256 -0.0183
 2332SOL     OW18628   3.420   1.791  16.029 -0.4283 -0.3859  1.1042
 2332SOL    HW118629   3.406   1.708  15.983 -0.1435  1.0628 -1.6189
 2332SOL    HW218630   3.382   1.850  15.963  1.5852  0.3824  0.6426
 2333SOL     OW18631   2.893   3.980   7.646  0.1851 -0.2426 -0.0440
 2333SOL    HW118632   2.882   4.065   7.604 -1.1345 -0.1297  0.5373
 2333SOL    HW218633   2.906   3.927   7.567  1.2995  0.7233 -0.5004
 2334SOL     OW18634   2.205   1.209   1.721 -0.0339  0.4728 -0.4177
 2334SOL    HW118635   2.230   1.193   1.812 -0.7757  2.2958  0.1051
 2334SOL    HW218636   2.277   1.159   1.683  0.6340  2.4474 -1.7215
 2335SOL     OW18637   0.126   0.792   3.343  0.5530 -0.3794 -0.0518
 2335SOL    HW118638   0.064   0.831   3.281  0.8981 -1.7983 -1.2856
 2335SOL    HW218639   0.118   0.857   3.413 -1.6917 -1.0472  0.2984
 2336SOL     OW18640   3.383   4.223   6.997 -0.0095  0.0828 -0.4596
 2336SOL    HW118641   3.414   4.294   7.054 -0.8328 -0.6891  0.9520
 2336SOL    HW218642   3.461   4.169   6.982  0.9615  1.4871 -0.4736
 2337SOL     OW18643   3.106   4.153  11.632 -0.4521 -0.2450  0.3920
 2337SOL    HW118644   3.144   4.240  11.624  2.7940 -1.7601 -0.8592
 2337SOL    HW218645   3.157   4.126  11.709 -2.0914 -0.3044  1.4519
 2338SOL     OW18646   0.875   1.385   1.271  0.4022  1.2016  1.0136
 2338SOL    HW118647   0.865   1.392   1.366  0.0442 -0.0772  1.0756
 2338SOL    HW218648   0.818   1.452   1.236 -0.3429  0.9062  1.6669
 2339SOL     OW18649   3.430   0.079   0.571 -0.9164  0.1059 -0.8415
 2339SOL    HW118650   3.344   0.120   0.577 -0.4506  0.5235  3.2147
 2339SOL    HW218651   3.399   4.725   0.576  0.6624 -0.4525 -1.3425
 2340SOL     OW18652   3.322   1.205  14.566  0.1492  0.3031  0.0216
 2340SOL    HW118653   3.368   1.233  14.645  3.4045  0.3019 -1.8703
 2340SOL    HW218654   3.361   1.254  14.493 -2.6943  0.5355 -1.3534
 2341SOL     OW18655   0.238   1.181   1.698  0.3097  0.2991  0.7571
 2341SOL    HW118656   0.248   1.258   1.641 -1.2526  1.6963  2.3910
 2341SOL    HW218657   0.152   1.160   1.662 -0.5903  3.2831  1.2201
 2342SOL     OW18658   2.796   0.145  14.957  0.4308 -0.9432  0.3022
 2342SOL    HW118659   2.769   0.146  15.049  1.2958 -0.5547  0.5527
 2342SOL    HW218660   2.710   0.118  14.927 -0.0402 -0.8444  1.5622
 2343SOL     OW18661   1.891   1.666   3.452 -0.2843  0.3187  0.0964
 2343SOL    HW118662   1.805   1.688   3.488 -0.2145 -1.9219  1.6312
 2343SOL    HW218663   1.908   1.736   3.389  1.7566  0.1186  0.4509
 2344SOL     OW18664   2.227   4.484  16.987  0.1838 -0.6155 -0.5816
 2344SOL    HW118665   2.184   4.408  16.947  1.1456 -1.3337 -0.2597
 2344SOL    HW218666   2.196   4.549  16.923 -0.7872 -1.2307 -0.7366
 2345SOL     OW18667   0.856   2.913   3.695 -0.1520 -0.3204  0.3692
 2345SOL    HW118668   0.949   2.891   3.695 -0.2732 -0.8315  1.7408
 2345SOL    HW218669   0.847   2.944   3.785 -0.8932 -0.7564  0.4418
 2346SOL     OW18670   1.838   2.806  16.677 -0.3720 -0.2103 -0.3226
 2346SOL    HW118671   1.772   2.754  16.631  1.2272 -1.5471 -1.1193
 2346SOL    HW218672   1.917   2.770  16.637 -0.2174 -0.4802  0.2383
 2347SOL     OW18673   2.646   0.584   6.278  0.2543 -0.6058 -0.0315
 2347SOL    HW118674   2.685   0.628   6.354 -1.8645  1.6194 -0.2472
 2347SOL    HW218675   2.570   0.640   6.262  0.8285  0.1629 -0.0584
 2348SOL     OW18676   3.689   3.810  11.967 -0.0737 -0.6144 -0.3055
 2348SOL    HW118677   3.632   3.795  11.891 -0.5792 -3.5829  0.6785
 2348SOL    HW218678   3.764   3.756  11.940 -0.2496 -1.7411  1.5020
 2349SOL     OW18679   3.973   0.430   2.314  0.0062 -0.6174 -0.3727
 2349SOL    HW118680   4.000   0.339   2.310  0.3143 -0.4595 -2.1416
 2349SOL    HW218681   3.886   0.423   2.354  0.6260  0.0785  1.0996
 2350SOL     OW18682   0.552   2.315   1.538 -0.5199  0.4584 -0.2981
 2350SOL    HW118683   0.567   2.360   1.455  0.6807  3.3134  1.4442
 2350SOL    HW218684   0.528   2.229   1.505  1.6368 -0.7728  1.3893
 2351SOL     OW18685   3.480   2.198  12.297 -0.0299 -0.0191 -0.2137
 2351SOL    HW118686   3.510   2.249  12.372  2.1436 -0.8868 -0.4898
 2351SOL    HW218687   3.400   2.248  12.283  0.0322  0.6085  1.7151
 2352SOL     OW18688   1.599   2.420   7.606  0.3982  0.2499  0.0121
 2352SOL    HW118689   1.682   2.376   7.590 -0.1311  0.1601 -2.4569
 2352SOL    HW218690   1.629   2.498   7.653  1.2564  0.1630 -0.3952
 2353SOL     OW18691   0.343   4.428   6.510 -0.0245 -0.2826  0.1994
 2353SOL    HW118692   0.393   4.352   6.541  0.3383  0.2345  0.8646
 2353SOL    HW218693   0.416   4.481   6.477 -0.1300  0.8310  1.8161
 2354SOL     OW18694   2.276   4.721  15.009  0.3493  0.8758 -0.1788
 2354SOL    HW118695   2.270   4.662  15.084 -3.1154  0.4795 -0.7587
 2354SOL    HW218696   2.190   0.027  15.007  0.7719  1.8120  2.3211
 2355SOL     OW18697   1.343   4.523   2.072  0.2868  0.0448 -0.0618
 2355SOL    HW118698   1.382   4.464   2.136 -0.3014 -2.3641 -1.9332
 2355SOL    HW218699   1.396   4.596   2.103 -1.5711  1.3527 -0.0153
 2356SOL     OW18700   0.796   3.187   8.290 -0.1238  0.1992  0.2933
 2356SOL    HW118701   0.729   3.210   8.227 -1.1188  0.3116  1.3967
 2356SOL    HW218702   0.818   3.275   8.321  0.2243 -0.1156  0.9319
 2357SOL     OW18703   1.962   2.700   0.481  0.1133 -0.0988 -0.9290
 2357SOL    HW118704   1.954   2.721   0.574  2.8855 -0.1450 -0.6744
 2357SOL    HW218705   2.019   2.772   0.454  0.8417 -0.3879 -0.1956
 2358SOL     OW18706   0.594   0.051   3.857  0.0956  0.1415 -0.0913
 2358SOL    HW118707   0.591   0.040   3.762 -0.7927  0.3935 -0.0852
 2358SOL    HW218708   0.563   4.706   3.896  2.3857 -1.8768 -2.5038
 2359SOL     OW18709   0.070   1.402  13.444 -0.1307  0.4168 -0.2279
 2359SOL    HW118710   0.014   1.369  13.515  0.4147 -0.2258 -0.1037
 2359SOL    HW218711   0.013   1.373  13.372 -0.3883 -0.8793  0.4994
 2360SOL     OW18712   2.665   1.343  15.263  0.0967 -0.2024 -0.1114
 2360SOL    HW118713   2.601   1.298  15.207 -1.3636  0.9811  0.6285
 2360SOL    HW218714   2.747   1.357  15.215  0.4802  2.3979  1.3558
 2361SOL     OW18715   0.733   3.822  11.099  0.0456 -0.5292 -0.2084
 2361SOL    HW118716   0.665   3.765  11.133  0.4012  0.2292  1.7290
 2361SOL    HW218717   0.803   3.789  11.154 -0.0678  1.7643  1.3095
 2362SOL     OW18718   2.518   0.978   7.457 -0.0394  0.0842  0.2789
 2362SOL    HW118719   2.586   0.958   7.521  1.8719 -2.7901 -2.6398
 2362SOL    HW218720   2.541   1.065   7.425  0.3276 -0.6189 -1.3905
 2363SOL     OW18721   4.554   0.909   7.798 -0.1786 -0.0547  0.1634
 2363SOL    HW118722   4.469   0.928   7.836 -0.0533 -0.9219  0.8923
 2363SOL    HW218723   4.548   0.818   7.767 -0.4315  0.0536 -0.1011
 2364SOL     OW18724   1.815   1.813   3.237  0.2090 -0.2227 -0.0472
 2364SOL    HW118725   1.740   1.856   3.276 -1.0666 -1.2697 -1.3397
 2364SOL    HW218726   1.830   1.838   3.145 -0.8545 -0.6725 -0.3360
 2365SOL     OW18727   2.004   0.503   9.424 -0.0547  0.6006  0.2588
 2365SOL    HW118728   2.014   0.598   9.421  1.4454  0.4752  0.9339
 2365SOL    HW218729   1.965   0.492   9.511  0.6158  1.4879  0.6631
 2366SOL     OW18730   3.322   2.416   8.233 -0.6585 -0.4155  0.1569
 2366SOL    HW118731   3.380   2.390   8.304  1.5689  2.2774 -0.6954
 2366SOL    HW218732   3.261   2.474   8.279  0.7627  1.6198 -0.5125
 2367SOL     OW18733   3.855   2.162   1.426 -0.1569 -0.8510  0.4521
 2367SOL    HW118734   3.836   2.194   1.514 -0.8245  0.9104 -0.3245
 2367SOL    HW218735   3.791   2.091   1.420  0.3556 -1.4081  1.8190
 2368SOL     OW18736   1.962   3.842   4.267 -0.8233  0.2618 -0.3709
 2368SOL    HW118737   1.982   3.918   4.322  1.0031 -1.0545  0.8085
 2368SOL    HW218738   1.965   3.769   4.330  2.4650  0.7366  0.0459
 2369SOL     OW18739   1.457   2.223   7.452 -0.5901  0.4815  0.2674
 2369SOL    HW118740   1.503   2.295   7.496  1.5001  0.1029 -1.3251
 2369SOL    HW218741   1.429   2.170   7.526  0.2509 -1.8049 -1.0607
 2370SOL     OW18742   3.343   0.271   1.964 -0.3724 -0.4629  0.1975
 2370SOL    HW118743   3.346   0.366   1.951  0.3603 -0.6267 -0.8246
 2370SOL    HW218744   3.436   0.253   1.950 -0.2782 -0.2378  0.5088
 2371SOL     OW18745   0.487   2.553  17.048 -0.2399  0.2081  0.0859
 2371SOL    HW118746   0.431   2.478  17.069 -0.7933 -0.4893 -3.8839
 2371SOL    HW218747   0.461   2.576  16.959 -0.1600 -0.3977 -0.0940
 2372SOL     OW18748   3.562   3.347   6.057  0.0975  0.3338 -0.2232
 2372SOL    HW118749   3.528   3.344   5.968 -1.2641 -0.4465  0.3255
 2372SOL    HW218750   3.573   3.253   6.067  1.3842  0.5634  0.4667
 2373SOL     OW18751   2.484   1.531   5.920 -0.3452 -0.4949 -0.0771
 2373SOL    HW118752   2.446   1.530   5.832 -1.3190  0.4718  0.3242
 2373SOL    HW218753   2.568   1.491   5.899 -0.1276  0.3661 -0.8434
 2374SOL     OW18754   3.945   0.783   8.014  0.1678 -0.0142 -0.0031
 2374SOL    HW118755   4.032   0.753   7.989 -0.8571 -1.3259 -2.0056
 2374SOL    HW218756   3.923   0.709   8.069  0.5388 -1.3171 -1.6184
 2375SOL     OW18757   2.772   1.118   3.666  0.5316  0.1203 -0.1602
 2375SOL    HW118758   2.858   1.077   3.664 -0.5938 -2.3912  2.0858
 2375SOL    HW218759   2.750   1.110   3.573 -1.2702 -1.0356  0.3622
 2376SOL     OW18760   1.628   2.390   2.784 -0.5159 -0.4031 -0.8604
 2376SOL    HW118761   1.647   2.415   2.693 -0.4706 -1.1543 -1.0586
 2376SOL    HW218762   1.659   2.467   2.832 -0.5223 -1.0414  0.1639
 2377SOL     OW18763   1.722   0.903   8.202 -0.7363 -0.5775  0.3995
 2377SOL    HW118764   1.721   0.830   8.264  1.4377 -1.3292 -0.4481
 2377SOL    HW218765   1.812   0.929   8.223  0.1317 -1.4746 -2.2682
 2378SOL     OW18766   1.212   0.847  15.871  0.3944  0.1205  0.0105
 2378SOL    HW118767   1.127   0.879  15.903  2.1119  2.7086  2.0876
 2378SOL    HW218768   1.222   0.886  15.784  0.9532  0.2742  0.1421
 2379SOL     OW18769   1.332   4.083   7.536  0.7233 -0.3672 -0.2862
 2379SOL    HW118770   1.353   4.051   7.624 -0.9654 -0.0646  0.2239
 2379SOL    HW218771   1.313   4.173   7.562  3.1819 -0.4120  1.6494
 2380SOL     OW18772   3.187   3.383  10.275  1.0940 -0.0314 -0.1138
 2380SOL    HW118773   3.280   3.405  10.276  0.9633  0.4823  0.3997
 2380SOL    HW218774   3.164   3.373  10.368  0.1737 -1.0391 -0.4513
 2381SOL     OW18775   2.241   0.587   6.836 -0.1087  0.4747  0.2189
 2381SOL    HW118776   2.171   0.554   6.780 -1.0771  0.4176  1.4709
 2381SOL    HW218777   2.310   0.608   6.773  0.5258 -3.0175 -0.2694
 2382SOL     OW18778   0.311   1.619  15.000  0.1098 -0.0326 -0.4423
 2382SOL    HW118779   0.362   1.571  14.935 -0.3073  0.9820 -1.5171
 2382SOL    HW218780   0.248   1.550  15.019  0.9235 -0.7739 -0.4652
 2383SOL     OW18781   2.917   1.666  15.119  0.0552  0.5334 -0.1241
 2383SOL    HW118782   2.916   1.572  15.140  2.5956  0.3238 -0.8987
 2383SOL    HW218783   2.823   1.678  15.121  0.0887  0.6525  1.0972
 2384SOL     OW18784   2.891   2.579   8.148  0.2803 -0.3781  0.2628
 2384SOL    HW118785   2.900   2.497   8.197 -0.9214 -0.6140  0.0818
 2384SOL    HW218786   2.795   2.582   8.143  0.3837 -0.9858 -2.2020
 2385SOL     OW18787   3.453   0.279   9.550 -0.1326  0.2726  0.5777
 2385SOL    HW118788   3.429   0.306   9.461 -0.3302  2.0612  1.1797
 2385SOL    HW218789   3.364   0.285   9.586  0.2162  0.2998  1.4283
 2386SOL     OW18790   4.558   1.112   5.091  0.3319  0.6020  0.0101
 2386SOL    HW118791   4.557   1.183   5.027 -0.1625 -0.1358 -0.7979
 2386SOL    HW218792   4.469   1.076   5.093  0.7742 -0.4394  1.5907
 2387SOL     OW18793   3.649   2.885   9.645  0.0058  0.6397 -0.6091
 2387SOL    HW118794   3.718   2.900   9.710  1.1697 -0.3700 -1.6225
 2387SOL    HW218795   3.580   2.881   9.711 -0.4203  1.6998 -0.9934
 2388SOL     OW18796   0.710   4.169   2.918  0.0804  0.0459  0.3772
 2388SOL    HW118797   0.785   4.111   2.921  0.6556  0.7733 -0.0321
 2388SOL    HW218798   0.632   4.132   2.960 -0.1855  0.1257 -0.0416
 2389SOL     OW18799   0.474   1.250  17.283 -0.0164  0.2812  0.1005
 2389SOL    HW118800   0.396   1.195  17.281 -0.5083  1.0159 -1.2259
 2389SOL    HW218801   0.436   1.316  17.342  1.9849  1.0655  0.5096
 2390SOL     OW18802   3.882   0.832   0.671 -0.2569 -0.2888 -0.1402
 2390SOL    HW118803   3.803   0.876   0.639  0.0404  2.2366  2.5906
 2390SOL    HW218804   3.920   0.914   0.702 -0.9758 -0.3923  1.0198
 2391SOL     OW18805   0.119   2.609   3.272  0.9746 -0.7403  0.3095
 2391SOL    HW118806   0.176   2.663   3.326  1.0729  1.0614 -1.6049
 2391SOL    HW218807   0.032   2.642   3.292  1.4040  1.5848 -1.7431
 2392SOL     OW18808   4.033   4.091   4.836 -0.0368  0.1608  0.4319
 2392SOL    HW118809   3.957   4.042   4.804 -0.5173  0.5814  0.9295
 2392SOL    HW218810   4.076   4.013   4.871  1.3962  1.2350  1.0657
 2393SOL     OW18811   0.768   2.735   9.622 -0.9077 -0.7766  0.7355
 2393SOL    HW118812   0.834   2.666   9.627  0.4822  0.4553 -0.4652
 2393SOL    HW218813   0.749   2.747   9.529 -0.1003 -2.6349  0.3302
 2394SOL     OW18814   0.881   2.973   8.150 -1.0794 -0.8275 -0.1845
 2394SOL    HW118815   0.877   2.897   8.207 -2.5380  0.5674  1.5518
 2394SOL    HW218816   0.857   3.044   8.210  2.5094  0.2825 -0.0253
 2395SOL     OW18817   4.468   0.812   1.605  0.3454  0.3879 -0.1765
 2395SOL    HW118818   4.548   0.847   1.646  1.4575 -2.1076 -0.2234
 2395SOL    HW218819   4.440   0.753   1.675  0.5620 -0.2681 -0.6429
 2396SOL     OW18820   1.457   0.049  13.682 -0.5315  0.1251  0.4588
 2396SOL    HW118821   1.383   0.001  13.720 -1.4304  0.9538 -0.2374
 2396SOL    HW218822   1.514   4.722  13.639 -0.9067  1.5318 -2.1168
 2397SOL     OW18823   4.685   0.434   2.700 -0.0537  0.4564  0.2514
 2397SOL    HW118824   4.623   0.499   2.731 -1.3868 -0.9812  0.5705
 2397SOL    HW218825   0.021   0.446   2.761  0.9006 -3.7368 -0.0713
 2398SOL     OW18826   0.366   2.236   0.770  0.2099  0.2858 -0.2275
 2398SOL    HW118827   0.351   2.330   0.761 -0.0481  0.3200  0.6159
 2398SOL    HW218828   0.280   2.197   0.756  1.7194 -2.3680 -2.1755
 2399SOL     OW18829   0.059   3.760   6.198 -0.0942 -0.0234 -0.0197
 2399SOL    HW118830   0.143   3.791   6.162 -0.1102  0.8988  0.7562
 2399SOL    HW218831   0.025   3.837   6.242 -0.5925 -0.6309  0.6519
 2400SOL     OW18832   1.206   4.320   7.008  0.2722 -0.1495 -0.2006
 2400SOL    HW118833   1.121   4.365   7.008 -1.9663 -4.4565  3.1210
 2400SOL    HW218834   1.256   4.396   6.977 -1.2022  0.8564 -0.1224
 2401SOL     OW18835   4.611   2.410   2.008 -0.1528  0.3571 -0.5570
 2401SOL    HW118836   4.600   2.481   2.072  1.0772  0.7898 -0.8136
 2401SOL    HW218837   4.661   2.347   2.060 -2.2780 -1.1170 -0.3250
 2402SOL     OW18838   2.992   2.454   7.511  0.1290 -0.1677  0.3596
 2402SOL    HW118839   2.926   2.385   7.509  1.3018 -1.3859  2.3012
 2402SOL    HW218840   3.040   2.430   7.591 -1.6270 -2.0895  0.8069
 2403SOL     OW18841   3.666   0.039  13.579  0.5127  0.2792 -0.1467
 2403SOL    HW118842   3.661   4.702  13.641 -1.8688  0.7471  0.2245
 2403SOL    HW218843   3.711   0.102  13.636  2.1228  1.5155 -2.7946
 2404SOL     OW18844   1.635   2.730   1.485  0.5698 -0.1228  0.3731
 2404SOL    HW118845   1.601   2.640   1.485 -0.9498  0.4559  1.9695
 2404SOL    HW218846   1.566   2.773   1.433  1.3817 -0.3107 -0.8559
 2405SOL     OW18847   2.419   1.278   9.391  0.1574 -0.3349 -0.1697
 2405SOL    HW118848   2.420   1.216   9.464 -1.9901  0.1702  0.2782
 2405SOL    HW218849   2.325   1.296   9.399 -0.0169 -1.3874  0.1220
 2406SOL     OW18850   2.510   0.750   4.454  0.5851 -0.2212  0.6207
 2406SOL    HW118851   2.524   0.730   4.362  0.1798  1.6632  0.1432
 2406SOL    HW218852   2.425   0.795   4.450  1.5101  1.2858 -2.2089
 2407SOL     OW18853   0.455   0.164   0.222 -0.6042 -0.2944 -0.0994
 2407SOL    HW118854   0.444   0.188   0.314  3.2947  0.0848  0.2689
 2407SOL    HW218855   0.373   0.192   0.181 -1.1738  0.3625  1.4846
 2408SOL     OW18856   3.512   4.252   5.155 -0.1729 -0.3037  0.5383
 2408SOL    HW118857   3.550   4.199   5.225 -1.3628 -0.6481  0.9356
 2408SOL    HW218858   3.439   4.294   5.201  1.5159 -1.0621  3.8859
 2409SOL     OW18859   3.620   0.004  16.063 -0.2551 -0.2996  0.1146
 2409SOL    HW118860   3.683   4.698  16.121 -2.2161 -1.7507  1.1834
 2409SOL    HW218861   3.540   4.716  16.109 -0.7257  1.5776  0.3346
 2410SOL     OW18862   0.845   3.054   2.618  0.1247  0.1594 -0.0108
 2410SOL    HW118863   0.926   3.041   2.569  0.3817 -0.3365  0.5495
 2410SOL    HW218864   0.812   2.967   2.639 -0.2177  0.2260 -0.2631
 2411SOL     OW18865   3.790   1.659   1.171 -0.4907 -0.0189 -0.4233
 2411SOL    HW118866   3.824   1.617   1.249  0.6437 -1.2297 -1.5598
 2411SOL    HW218867   3.766   1.583   1.118 -0.2052  0.2113 -0.8866
 2412SOL     OW18868   0.996   4.024  12.403 -0.1815  0.1883  0.8710
 2412SOL    HW118869   0.909   4.030  12.443 -0.2039 -0.9118  0.9878
 2412SOL    HW218870   1.010   3.930  12.401  2.9085  0.6932 -0.4071
 2413SOL     OW18871   3.254   3.196   2.542 -0.1638 -0.0863 -0.4993
 2413SOL    HW118872   3.331   3.247   2.518  0.3246 -0.4065  0.3835
 2413SOL    HW218873   3.221   3.170   2.455  2.5139 -3.0760 -0.6002
 2414SOL     OW18874   0.582   2.620   6.500  0.3872 -0.0157  0.5552
 2414SOL    HW118875   0.518   2.651   6.436 -0.9995 -1.1093  1.3954
 2414SOL    HW218876   0.633   2.698   6.524  1.4340  0.2593 -2.6195
 2415SOL     OW18877   3.334   1.313   5.967  0.7101 -0.3468 -0.1580
 2415SOL    HW118878   3.378   1.244   5.918  0.6830 -1.2680  1.1217
 2415SOL    HW218879   3.284   1.258   6.027  1.4902 -1.0717 -0.1875
 2416SOL     OW18880   2.697   1.371   1.101 -0.3722 -0.4460 -0.4555
 2416SOL    HW118881   2.733   1.359   1.014  2.1639  3.6429  0.0600
 2416SOL    HW218882   2.635   1.298   1.101  0.5699 -1.2497 -0.0296
 2417SOL     OW18883   2.108   2.463   5.054 -0.0373  0.0484 -0.5288
 2417SOL    HW118884   2.072   2.550   5.039 -0.1335  0.4622  2.0469
 2417SOL    HW218885   2.096   2.459   5.149 -1.8006  1.8979 -0.6707
 2418SOL     OW18886   2.447   4.485   5.644 -0.4189 -0.4131  0.3232
 2418SOL    HW118887   2.382   4.478   5.574  0.8068 -0.9720 -0.7535
 2418SOL    HW218888   2.439   4.577   5.669  0.8513  0.0095 -0.8138
 2419SOL     OW18889   0.646   2.641  12.475  0.6527  0.2430 -0.2334
 2419SOL    HW118890   0.610   2.557  12.502 -0.1888  0.6756 -0.0128
 2419SOL    HW218891   0.664   2.616  12.385  1.2762  2.5316 -0.7621
 2420SOL     OW18892   2.535   0.438   3.930  0.0128  0.3920  0.1281
 2420SOL    HW118893   2.504   0.429   4.020  1.6161  1.7814  0.8217
 2420SOL    HW218894   2.612   0.492   3.949  1.0140 -1.0412  0.1333
 2421SOL     OW18895   0.862   1.471   0.346  0.2852  0.0154  0.0148
 2421SOL    HW118896   0.947   1.469   0.303 -0.9294 -0.5880 -2.3468
 2421SOL    HW218897   0.821   1.545   0.300  1.5624  0.4596 -0.4229
 2422SOL     OW18898   1.818   4.580  10.067 -0.8435 -0.9272  0.2531
 2422SOL    HW118899   1.861   4.591  10.151  0.5651  0.1989 -0.6187
 2422SOL    HW218900   1.765   4.501  10.075  0.1457 -1.3106  2.8688
 2423SOL     OW18901   2.848   2.079   0.665 -0.1669  0.2145  1.0033
 2423SOL    HW118902   2.903   2.000   0.662  1.0558  1.0681  0.8920
 2423SOL    HW218903   2.880   2.126   0.588  2.1504 -1.3954  0.9783
 2424SOL     OW18904   0.636   3.765  16.933  0.0324 -0.0252  0.2777
 2424SOL    HW118905   0.617   3.825  17.005 -0.9744 -0.9429  0.7720
 2424SOL    HW218906   0.574   3.697  16.959  0.9763 -0.6373  0.9168
 2425SOL     OW18907   3.519   3.986   7.805 -0.2254  0.0621 -0.4576
 2425SOL    HW118908   3.501   4.077   7.784  1.2552  0.2530 -0.8732
 2425SOL    HW218909   3.481   3.950   7.724  2.0032 -2.2863 -0.4368
 2426SOL     OW18910   1.830   2.085   0.217 -0.1305 -0.3144 -0.1969
 2426SOL    HW118911   1.768   2.149   0.253 -0.2967  0.1172 -1.2379
 2426SOL    HW218912   1.771   2.011   0.207 -1.6969  0.7023  1.6163
 2427SOL     OW18913   3.463   0.992   2.901 -0.3751  0.3414  0.3499
 2427SOL    HW118914   3.378   0.996   2.859 -0.3302 -0.4493  0.1680
 2427SOL    HW218915   3.484   1.084   2.888  0.8446  0.0032 -0.1595
 2428SOL     OW18916   0.995   2.848   4.658  0.0614 -0.3202  0.7745
 2428SOL    HW118917   1.044   2.901   4.722  1.2726 -2.8086  1.9360
 2428SOL    HW218918   0.910   2.836   4.700 -1.0081  0.5034 -1.1765
 2429SOL     OW18919   3.858   0.393   1.676  0.4566  0.3925 -0.5141
 2429SOL    HW118920   3.918   0.323   1.651 -0.1444 -0.2003 -0.3103
 2429SOL    HW218921   3.801   0.397   1.599  0.5190  2.0688 -0.4840
 2430SOL     OW18922   0.843   0.334   8.281  0.3899  0.1941  0.2385
 2430SOL    HW118923   0.823   0.383   8.360  0.5839 -0.6052  0.7860
 2430SOL    HW218924   0.828   0.406   8.220 -0.6930  0.2123  0.5202
 2431SOL     OW18925   2.743   2.145  15.014 -0.9135  0.0990  0.0070
 2431SOL    HW118926   2.684   2.089  15.065  1.0462  0.5269  2.7710
 2431SOL    HW218927   2.812   2.084  14.987  0.5263  1.9842 -0.5795
 2432SOL     OW18928   1.748   3.313   3.238  0.2233 -0.2885  0.0678
 2432SOL    HW118929   1.792   3.245   3.290 -0.4541 -0.3396  0.5825
 2432SOL    HW218930   1.743   3.389   3.297 -2.2934  0.3008 -0.8987
 2433SOL     OW18931   3.273   0.590   6.030 -0.7760  0.3448  0.1752
 2433SOL    HW118932   3.188   0.616   6.066 -0.8936  1.3596 -0.8287
 2433SOL    HW218933   3.285   0.499   6.058 -0.5625  0.5561  0.7734
 2434SOL     OW18934   0.120   3.026   4.117  0.5931  0.2899  0.2653
 2434SOL    HW118935   0.213   3.033   4.136  0.2575  1.3032  1.5642
 2434SOL    HW218936   0.105   3.089   4.046 -0.0583 -0.5147 -0.3127
 2435SOL     OW18937   4.681   1.927   4.332  0.0719  0.6001 -0.4659
 2435SOL    HW118938   4.652   1.837   4.347 -1.1533  1.1245  0.3485
 2435SOL    HW218939   0.039   1.912   4.342 -0.0119 -0.0242 -0.5819
 2436SOL     OW18940   1.339   3.280  16.814 -0.2529 -0.1607  0.4964
 2436SOL    HW118941   1.255   3.294  16.770  1.1001 -2.1484 -2.7415
 2436SOL    HW218942   1.383   3.363  16.791  0.9167 -1.1874 -1.0350
 2437SOL     OW18943   1.917   2.190   2.557 -0.3685  0.5460 -0.2741
 2437SOL    HW118944   1.924   2.284   2.540 -1.5141  0.5311 -0.8606
 2437SOL    HW218945   1.958   2.149   2.481 -1.3176 -1.7538  0.4422
 2438SOL     OW18946   1.345   2.018  12.185  0.1104  0.0097 -0.4142
 2438SOL    HW118947   1.333   2.071  12.264 -0.9677 -2.0252  0.7635
 2438SOL    HW218948   1.357   2.083  12.115  0.2000  1.1508  0.6570
 2439SOL     OW18949   3.244   2.641  15.693 -0.2099 -0.3260  0.5081
 2439SOL    HW118950   3.172   2.655  15.755 -0.0646  0.6754  0.4449
 2439SOL    HW218951   3.257   2.546  15.686  1.9145  0.0738 -0.8289
 2440SOL     OW18952   1.932   4.312   2.365 -0.3380  0.6159  0.2956
 2440SOL    HW118953   1.848   4.301   2.411 -0.6701  3.0724  0.2642
 2440SOL    HW218954   1.905   4.275   2.281 -2.8152  0.5575  1.1127
 2441SOL     OW18955   1.302   4.644   5.318  0.2443  0.2479  0.1683
 2441SOL    HW118956   1.381   4.597   5.289 -0.0495  0.1326 -0.4478
 2441SOL    HW218957   1.261   4.601   5.393  1.6246  0.2194  0.8965
 2442SOL     OW18958   3.840   1.462   6.088 -0.2386 -0.1958  0.2074
 2442SOL    HW118959   3.760   1.444   6.137  1.2629 -1.8541  2.0462
 2442SOL    HW218960   3.844   1.384   6.033  1.4749  0.2652 -0.3231
 2443SOL     OW18961   3.388   0.904   7.938  0.1940  0.2387 -0.1528
 2443SOL    HW118962   3.468   0.950   7.912  0.0543  0.9095  0.6217
 2443SOL    HW218963   3.388   0.894   8.033 -0.9733  0.4184 -0.1376
 2444SOL     OW18964   2.692   1.837  16.761  0.1407 -0.1987 -0.0880
 2444SOL    HW118965   2.610   1.875  16.793 -0.1538  0.0559 -1.1363
 2444SOL    HW218966   2.698   1.749  16.799 -0.3030 -0.1077  0.2004
 2445SOL     OW18967   2.027   0.140  16.000 -0.1846 -0.2585 -0.4945
 2445SOL    HW118968   2.088   0.132  15.927 -1.7871 -2.0363 -1.6640
 2445SOL    HW218969   2.006   0.233  16.007 -0.3653 -0.3759  0.5412
 2446SOL     OW18970   2.410   4.377   8.585  0.0881 -0.4052  0.4017
 2446SOL    HW118971   2.339   4.433   8.554  0.9758 -0.0290 -0.9238
 2446SOL    HW218972   2.367   4.292   8.573 -1.8459  0.5620  0.5033
 2447SOL     OW18973   3.859   0.460   8.960 -0.0984  0.5422  0.4061
 2447SOL    HW118974   3.817   0.470   9.045  0.1006  0.0495  0.5589
 2447SOL    HW218975   3.950   0.469   8.988  0.2280 -0.4308 -0.3264
 2448SOL     OW18976   0.884   1.776  11.653  0.7101  0.0649  0.0912
 2448SOL    HW118977   0.875   1.722  11.732  0.4081  1.5915  1.0889
 2448SOL    HW218978   0.898   1.722  11.575  1.7629  1.8559 -0.9475
 2449SOL     OW18979   2.113   0.273  12.101  0.0254  0.6469 -0.1539
 2449SOL    HW118980   2.045   0.281  12.168  1.7121 -0.5206  1.7101
 2449SOL    HW218981   2.124   0.179  12.089 -1.6750  0.3725  0.3860
 2450SOL     OW18982   4.537   1.340  11.845  0.3365  0.3015 -0.4904
 2450SOL    HW118983   4.533   1.327  11.940 -1.1625  1.9436 -0.3262
 2450SOL    HW218984   4.529   1.246  11.831 -2.8470  0.5683 -0.4129
 2451SOL     OW18985   3.930   4.296  15.325  0.1796  0.0253 -0.1784
 2451SOL    HW118986   3.922   4.341  15.241 -0.2157 -0.6497 -0.4989
 2451SOL    HW218987   3.968   4.360  15.386  1.0108  0.2186 -0.9013
 2452SOL     OW18988   0.476   0.053   6.787  0.5101  0.6947  0.5026
 2452SOL    HW118989   0.498   0.121   6.723 -0.0192  0.1476 -0.2650
 2452SOL    HW218990   0.498   4.706   6.745 -0.4873  1.1075 -0.8746
 2453SOL     OW18991   0.140   1.381   8.425 -0.7813  0.2476 -0.0493
 2453SOL    HW118992   0.200   1.377   8.499 -0.0966  1.3345 -0.5486
 2453SOL    HW218993   0.056   1.377   8.470 -0.1334 -1.4325  1.0294
 2454SOL     OW18994   1.601   2.778   2.661 -0.1033  0.1183  0.0372
 2454SOL    HW118995   1.536   2.720   2.702  0.6281 -0.1517  0.7997
 2454SOL    HW218996   1.559   2.856   2.623  1.0867  0.9242  0.3865
 2455SOL     OW18997   2.297   2.854  12.731 -0.6595  0.7463  0.6764
 2455SOL    HW118998   2.370   2.891  12.781  2.1016 -0.2981 -2.5211
 2455SOL    HW218999   2.272   2.924  12.671  0.4997  0.9194  0.3952
 2456SOL     OW19000   1.061   2.175   0.268 -0.0796 -0.0759 -0.1677
 2456SOL    HW119001   1.153   2.201   0.267 -0.2869  0.6594 -0.3333
 2456SOL    HW219002   1.027   2.220   0.191 -1.0099 -1.0349 -0.3214
 2457SOL     OW19003   1.653   2.741   4.860 -0.3150  0.3103 -0.1546
 2457SOL    HW119004   1.731   2.788   4.830 -0.7429  2.1636  1.6458
 2457SOL    HW219005   1.591   2.776   4.796 -1.5812 -1.4654  0.0878
 2458SOL     OW19006   3.776   1.513  14.011  0.2097  0.0446  1.0304
 2458SOL    HW119007   3.796   1.538  13.921 -0.2555 -0.1978  0.8614
 2458SOL    HW219008   3.799   1.583  14.073 -0.4412  0.3929  0.8772
 2459SOL     OW19009   2.809   3.244  12.633 -0.0887 -0.3084  0.5124
 2459SOL    HW119010   2.788   3.239  12.726 -1.5438 -1.8037  0.1180
 2459SOL    HW219011   2.725   3.273  12.596 -0.0416 -0.3965  0.3327
 2460SOL     OW19012   2.524   2.864   7.396 -0.0671  0.3994 -0.1898
 2460SOL    HW119013   2.611   2.896   7.372 -0.3784  1.8144  0.5355
 2460SOL    HW219014   2.495   2.814   7.320  1.2496 -1.7618  0.7271
 2461SOL     OW19015   1.065   3.071   5.266  0.1280  0.2318  0.4662
 2461SOL    HW119016   1.120   3.000   5.233 -1.7435 -0.3465 -1.3845
 2461SOL    HW219017   1.127   3.144   5.260 -1.7393  1.9609  2.5597
 2462SOL     OW19018   1.339   4.312   4.406  0.5360 -0.7329 -0.1301
 2462SOL    HW119019   1.414   4.313   4.347 -0.5647  2.1528 -1.4968
 2462SOL    HW219020   1.365   4.362   4.483  2.8438  0.1590 -1.4790
 2463SOL     OW19021   3.852   4.143   9.130 -0.6841  0.7177  0.3098
 2463SOL    HW119022   3.889   4.224   9.166  0.6080 -0.0143  0.6504
 2463SOL    HW219023   3.834   4.106   9.217  3.0794  0.7516  1.0941
 2464SOL     OW19024   0.994   2.995   6.886 -0.1602  0.2838  0.1026
 2464SOL    HW119025   1.006   2.983   6.791  1.4816 -1.0722  0.4812
 2464SOL    HW219026   0.899   2.986   6.894  0.0619 -1.3755  0.8286
 2465SOL     OW19027   3.814   3.784   2.895  0.1288 -0.1334 -0.4937
 2465SOL    HW119028   3.894   3.771   2.947  1.4036 -0.7470 -2.6043
 2465SOL    HW219029   3.787   3.693   2.881  1.1467 -0.6985  1.1176
 2466SOL     OW19030   3.037   4.247   5.387  0.4055  0.2024  0.0867
 2466SOL    HW119031   3.033   4.156   5.416 -1.2226 -0.2829 -1.6311
 2466SOL    HW219032   2.942   4.259   5.382  0.3147 -1.3129 -1.8736
 2467SOL     OW19033   4.170   2.160  10.357 -0.2713 -0.4195 -0.3678
 2467SOL    HW119034   4.118   2.148  10.437  1.5858 -0.4345  0.8378
 2467SOL    HW219035   4.252   2.189  10.395 -0.1087 -2.0090  0.5185
 2468SOL     OW19036   2.788   1.691   8.687  0.7762  0.2254 -0.3094
 2468SOL    HW119037   2.852   1.623   8.707 -1.1722 -1.1435  1.3296
 2468SOL    HW219038   2.701   1.655   8.707  0.4697 -0.1276 -2.3310
 2469SOL     OW19039   3.603   3.084   7.247  0.1754  0.4667  0.5465
 2469SOL    HW119040   3.563   3.001   7.221 -2.1978  1.5486  0.7531
 2469SOL    HW219041   3.670   3.053   7.308  2.9766  4.6544 -0.3924
 2470SOL     OW19042   0.380   2.753  13.576  0.2001  0.2611 -0.4743
 2470SOL    HW119043   0.436   2.713  13.642 -1.6101 -2.0330 -0.3345
 2470SOL    HW219044   0.293   2.759  13.615  0.3544 -3.1932  0.4492
 2471SOL     OW19045   3.625   0.744   9.324 -0.2670 -0.4071 -0.0169
 2471SOL    HW119046   3.627   0.714   9.233 -0.6152  2.0344 -0.8344
 2471SOL    HW219047   3.702   0.699   9.359  0.5549  0.7413 -0.3609
 2472SOL     OW19048   3.959   1.586   2.194 -0.2181  0.1727 -0.0472
 2472SOL    HW119049   3.979   1.553   2.106  0.8359  1.4854 -0.2962
 2472SOL    HW219050   4.048   1.600   2.227 -0.2121  0.0472 -0.0092
 2473SOL     OW19051   3.479   1.142   3.539  0.0697 -0.4285 -0.6235
 2473SOL    HW119052   3.441   1.059   3.511  0.8497 -1.1556  0.4626
 2473SOL    HW219053   3.550   1.105   3.592 -0.3983 -2.0735 -1.1605
 2474SOL     OW19054   4.273   4.611   8.199 -0.2542  0.6176 -0.4580
 2474SOL    HW119055   4.180   4.593   8.210  0.1095 -1.4013 -0.7787
 2474SOL    HW219056   4.274   4.704   8.174 -0.5457  0.4424 -1.1223
 2475SOL     OW19057   2.951   1.963   3.738  0.0697  0.0885 -0.4330
 2475SOL    HW119058   3.022   1.930   3.792 -0.3772 -0.1740 -0.0004
 2475SOL    HW219059   2.891   1.888   3.730 -0.5633  0.7804 -2.1673
 2476SOL     OW19060   0.011   2.114   5.267 -0.3718 -0.3246 -0.0223
 2476SOL    HW119061   0.033   2.058   5.194 -0.1246  0.9445 -0.9274
 2476SOL    HW219062   0.090   2.117   5.321 -1.2937  3.6923  1.1733
 2477SOL     OW19063   4.713   0.591   6.982  0.0092  0.2507  0.2561
 2477SOL    HW119064   0.034   0.545   6.922  2.0833  3.2064  0.0239
 2477SOL    HW219065   0.031   0.661   7.017  1.8238 -1.0172 -0.0589
 2478SOL     OW19066   2.317   3.198  14.344 -0.1754 -0.0590  0.0068
 2478SOL    HW119067   2.277   3.219  14.259 -0.0338  0.6057  0.1032
 2478SOL    HW219068   2.279   3.114  14.369 -0.0483  0.2793  1.3165
 2479SOL     OW19069   0.125   4.530   5.992  0.3253  0.4304 -0.5945
 2479SOL    HW119070   0.221   4.526   5.985  0.3808 -0.4242  0.4887
 2479SOL    HW219071   0.098   4.517   5.901  0.0657  0.5725 -0.5381
 2480SOL     OW19072   0.784   3.676   7.142 -0.2224  0.1159  0.1826
 2480SOL    HW119073   0.779   3.730   7.220  0.6057 -0.0068  0.3212
 2480SOL    HW219074   0.859   3.710   7.092 -0.4418  0.4657  0.0928
 2481SOL     OW19075   3.632   2.072   1.127  0.0526  0.0500  0.1229
 2481SOL    HW119076   3.631   2.009   1.198 -0.3204 -0.1445 -0.0540
 2481SOL    HW219077   3.543   2.074   1.091  0.1812  1.2210 -0.1280
 2482SOL     OW19078   1.875   1.242  14.726 -0.0706  0.2169 -0.2300
 2482SOL    HW119079   1.795   1.256  14.777  1.3837  2.5832  1.3970
 2482SOL    HW219080   1.888   1.148  14.719 -1.1887  0.0710 -0.3692
 2483SOL     OW19081   0.809   3.392   8.906 -0.3563 -0.0780  0.7087
 2483SOL    HW119082   0.715   3.382   8.920 -0.4901 -0.2209 -0.2530
 2483SOL    HW219083   0.836   3.398   8.997  0.0752 -1.4110  0.6754
 2484SOL     OW19084   0.076   1.294  11.228  0.0166 -0.1041  0.0256
 2484SOL    HW119085   0.079   1.303  11.323 -0.0983  0.6867 -0.0431
 2484SOL    HW219086   0.161   1.254  11.208 -0.7999 -1.6429 -0.3664
 2485SOL     OW19087   4.388   1.599   5.083 -0.7223  0.4030  0.4626
 2485SOL    HW119088   4.335   1.561   5.013 -1.3706  0.7710  0.7578
 2485SOL    HW219089   4.333   1.658   5.134 -1.5401 -1.0197  1.2223
 2486SOL     OW19090   3.123   1.093   4.927 -0.0737  0.4131  0.3892
 2486SOL    HW119091   3.085   1.044   5.000 -1.1055 -0.4202 -0.7042
 2486SOL    HW219092   3.083   1.048   4.852 -0.6061 -0.5485  1.2519
 2487SOL     OW19093   0.795   1.173  10.374 -0.5100  0.3944  0.6104
 2487SOL    HW119094   0.781   1.248  10.316 -1.2130 -2.0793 -2.3889
 2487SOL    HW219095   0.706   1.160  10.407 -0.8616  0.9257 -0.1364
 2488SOL     OW19096   1.767   2.340   6.968 -0.2556  0.1369  0.4299
 2488SOL    HW119097   1.780   2.248   6.944 -0.0137  0.2803  0.0038
 2488SOL    HW219098   1.857   2.372   6.977 -0.6763  0.9884  1.5812
 2489SOL     OW19099   4.348   4.526   8.842  0.1482 -0.1593 -0.5917
 2489SOL    HW119100   4.318   4.507   8.753 -0.4938  0.8416 -0.5850
 2489SOL    HW219101   4.394   4.448   8.874  1.2323 -0.3535 -2.5969
 2490SOL     OW19102   0.746   1.600   1.098 -0.2959 -0.0382 -0.2954
 2490SOL    HW119103   0.797   1.650   1.034 -0.7017 -0.1060 -0.6701
 2490SOL    HW219104   0.660   1.588   1.060 -0.8600 -0.4646  1.0975
 2491SOL     OW19105   1.054   4.010   3.916 -0.0034 -0.2324  0.0438
 2491SOL    HW119106   1.149   4.003   3.928 -0.1131  1.7940  2.0209
 2491SOL    HW219107   1.030   4.004   4.008 -0.4304 -0.8391 -0.1030
 2492SOL     OW19108   1.331   1.863  14.357  0.4004 -1.0545 -0.6363
 2492SOL    HW119109   1.333   1.921  14.433  0.9695 -0.8683 -0.7970
 2492SOL    HW219110   1.285   1.909  14.286  3.4273 -0.8084 -2.4501
 2493SOL     OW19111   3.081   3.816   3.537  0.5822  0.1161  0.3555
 2493SOL    HW119112   3.082   3.835   3.443  1.5927  0.0823  0.3599
 2493SOL    HW219113   3.149   3.873   3.574  0.1394  0.5518  0.4986
 2494SOL     OW19114   0.754   0.250   4.472  0.1078  0.9848 -0.5826
 2494SOL    HW119115   0.788   0.338   4.488 -0.6803  1.4206 -1.2987
 2494SOL    HW219116   0.744   0.242   4.377 -1.4657  1.6747 -0.4763
 2495SOL     OW19117   4.573   1.010   3.433  0.4699  0.4601  0.5956
 2495SOL    HW119118   4.550   1.051   3.516  0.5174  0.8582  0.4126
 2495SOL    HW219119   4.664   1.040   3.425  0.5110 -0.3333 -2.0327
 2496SOL     OW19120   0.872   1.451   3.728  0.2125 -0.2348 -0.2512
 2496SOL    HW119121   0.806   1.519   3.746  0.6104 -0.3171  1.5037
 2496SOL    HW219122   0.840   1.371   3.769  0.3807 -0.1811 -0.0155
 2497SOL     OW19123   2.835   4.352   6.212 -0.1235 -0.5682  0.2211
 2497SOL    HW119124   2.802   4.419   6.272 -0.6059  0.0348 -0.7173
 2497SOL    HW219125   2.907   4.389   6.161  0.7949 -1.6553  0.7247
 2498SOL     OW19126   3.469   2.597  17.452  0.5488 -0.3973 -0.5717
 2498SOL    HW119127   3.547   2.583  17.505  0.6442  1.4015 -0.2391
 2498SOL    HW219128   3.422   2.652  17.514 -0.3257 -2.6102  0.7296
 2499SOL     OW19129   4.734   0.583  11.639  0.1099  0.4064  0.3593
 2499SOL    HW119130   0.043   0.585  11.723 -0.5354  0.4015  0.7176
 2499SOL    HW219131   4.690   0.667  11.651 -0.0105  0.4108 -0.1028
 2500SOL     OW19132   4.141   0.910   0.423  0.5652  0.0107  0.3861
 2500SOL    HW119133   4.103   0.975   0.364  2.5279  1.9600  1.2322
 2500SOL    HW219134   4.126   0.949   0.510  0.9931  1.2798 -0.1061
 2501SOL     OW19135   0.331   3.311   1.777  0.2356  0.1973 -0.0840
 2501SOL    HW119136   0.371   3.237   1.823  0.6625  0.4480 -0.0558
 2501SOL    HW219137   0.253   3.269   1.741 -0.8968  0.7832  1.6859
 2502SOL     OW19138   3.342   1.879   3.667  0.0423  0.2800 -0.0720
 2502SOL    HW119139   3.349   1.893   3.573  0.2030  1.9372  0.1883
 2502SOL    HW219140   3.273   1.813   3.673  2.7632 -2.4783  1.4841
 2503SOL     OW19141   3.762   3.630   6.574  0.1034 -0.4894 -0.2474
 2503SOL    HW119142   3.796   3.552   6.531  1.1227 -0.5618  0.6802
 2503SOL    HW219143   3.674   3.628   6.536  0.1083 -1.5079 -0.1827
 2504SOL     OW19144   1.322   0.198   6.424 -0.7425 -0.3133  0.3330
 2504SOL    HW119145   1.256   0.129   6.413 -0.9782 -0.1811  0.9233
 2504SOL    HW219146   1.317   0.190   6.519  2.3538  1.5270  0.6083
 2505SOL     OW19147   2.446   4.161  17.009 -0.0999  0.0295  0.1926
 2505SOL    HW119148   2.386   4.151  17.083 -0.6855  3.7058  0.2495
 2505SOL    HW219149   2.427   4.246  16.968 -3.3725 -1.3530 -1.1142
 2506SOL     OW19150   0.034   4.341   9.385  0.2172  0.2879  0.3052
 2506SOL    HW119151   0.100   4.317   9.321  1.3208  2.1703  0.7267
 2506SOL    HW219152   4.703   4.274   9.376  0.0749  0.4742 -0.0049
 2507SOL     OW19153   0.882   2.982   4.225 -0.6550  0.5664  0.8854
 2507SOL    HW119154   0.869   3.043   4.298 -1.4366  1.5950 -0.1195
 2507SOL    HW219155   0.822   2.911   4.249  0.2805 -0.2851  0.6742
 2508SOL     OW19156   3.737   1.151   6.235  0.1300  0.1523 -0.6423
 2508SOL    HW119157   3.758   1.096   6.310 -1.2572  0.6583  0.1153
 2508SOL    HW219158   3.705   1.227   6.284 -0.4012 -1.2860  1.2594
 2509SOL     OW19159   2.344   1.611   7.408  0.3987 -0.2847 -0.4178
 2509SOL    HW119160   2.383   1.524   7.405  1.9595  0.4774 -1.9247
 2509SOL    HW219161   2.290   1.605   7.486  3.2842  1.3828  1.6830
 2510SOL     OW19162   3.844   4.321   7.735 -0.7770 -0.1522  0.2097
 2510SOL    HW119163   3.866   4.264   7.808  1.7988  0.9323  0.2506
 2510SOL    HW219164   3.925   4.311   7.685 -0.9137 -0.7068  0.1004
 2511SOL     OW19165   1.855   0.465  11.922 -0.6946  0.1549 -0.1131
 2511SOL    HW119166   1.906   0.394  11.962 -0.0033  0.8406  0.2159
 2511SOL    HW219167   1.879   0.533  11.985  0.0892 -1.0701  0.9115
 2512SOL     OW19168   2.612   1.772   2.834  0.1261  0.5342 -0.2946
 2512SOL    HW119169   2.617   1.837   2.904  2.5673 -0.8552  0.8261
 2512SOL    HW219170   2.705   1.749   2.829 -0.3855 -1.1813 -1.6923
 2513SOL     OW19171   0.641   2.923  15.543  0.2635  0.1341  0.5129
 2513SOL    HW119172   0.677   2.886  15.623  1.3112 -2.7479 -1.2683
 2513SOL    HW219173   0.673   3.011  15.563  0.3045  0.1987  0.1600
 2514SOL     OW19174   3.393   4.723   4.535  0.2031 -1.0781  0.0099
 2514SOL    HW119175   3.484   4.731   4.507 -0.9119  2.0938 -2.6912
 2514SOL    HW219176   3.395   0.060   4.597 -0.7910  1.4289 -2.9240
 2515SOL     OW19177   4.710   2.916  11.781  0.2079 -0.8107 -0.0916
 2515SOL    HW119178   0.036   2.867  11.727  2.2653  1.1736  0.4960
 2515SOL    HW219179   4.628   2.868  11.769  0.8061 -1.8159 -0.1712
 2516SOL     OW19180   3.290   1.872   6.798 -0.3742  0.1145  0.0501
 2516SOL    HW119181   3.324   1.798   6.747  0.4294  0.6794 -0.2143
 2516SOL    HW219182   3.295   1.935   6.727 -1.0924 -0.8804 -0.8939
 2517SOL     OW19183   4.414   1.299   7.738  0.5596 -0.0702 -0.4898
 2517SOL    HW119184   4.497   1.344   7.722 -0.2738  1.6198 -0.0400
 2517SOL    HW219185   4.421   1.219   7.686 -0.6117  0.6416 -1.7328
 2518SOL     OW19186   0.950   2.047  16.351 -0.4335 -1.2597  0.5878
 2518SOL    HW119187   0.869   2.086  16.384 -0.2238 -0.7303  0.4779
 2518SOL    HW219188   0.979   2.002  16.431  3.5464 -1.1649 -0.8263
 2519SOL     OW19189   2.620   1.244  15.964 -0.0143  0.5725  0.5355
 2519SOL    HW119190   2.635   1.309  15.895 -0.1785  0.3383  0.2785
 2519SOL    HW219191   2.685   1.179  15.937 -1.2982 -1.0060  1.2000
 2520SOL     OW19192   0.080   1.247   0.213  0.3566 -0.2863 -0.1791
 2520SOL    HW119193   0.103   1.313   0.147  1.2369 -0.2648  0.1534
 2520SOL    HW219194   0.166   1.223   0.246  1.0441  0.1812 -1.6226
 2521SOL     OW19195   1.572   3.010  15.006 -0.7752 -0.4016 -0.1839
 2521SOL    HW119196   1.536   3.021  14.917 -2.5764 -0.7732  0.4917
 2521SOL    HW219197   1.495   2.998  15.062  0.1218 -0.8928  0.9259
 2522SOL     OW19198   2.668   2.393   5.522 -0.5062 -0.0306 -0.0578
 2522SOL    HW119199   2.736   2.366   5.583  0.2875  0.4069 -0.7524
 2522SOL    HW219200   2.656   2.309   5.479 -0.3583  0.2326 -0.6097
 2523SOL     OW19201   2.737   3.986   6.949 -0.3640 -0.4186  0.0389
 2523SOL    HW119202   2.794   3.979   6.873  0.2802 -3.0647  0.7831
 2523SOL    HW219203   2.661   3.968   6.893  0.9891  1.0168 -2.2650
 2524SOL     OW19204   1.603   4.581   4.506  0.3120  0.1690  0.2974
 2524SOL    HW119205   1.526   4.534   4.538 -0.0732 -0.6043 -1.7216
 2524SOL    HW219206   1.642   4.599   4.591  1.1254  0.3648 -0.1100
 2525SOL     OW19207   2.107   0.188  13.574 -0.3044  0.2363  0.2872
 2525SOL    HW119208   2.124   0.132  13.650 -2.2499  0.8877  1.2279
 2525SOL    HW219209   2.024   0.149  13.545  0.2527  0.2143 -1.2354
 2526SOL     OW19210   1.988   3.518   3.267  0.0144  0.2083 -0.2587
 2526SOL    HW119211   1.996   3.464   3.188  0.1087 -2.1190  1.3519
 2526SOL    HW219212   1.892   3.519   3.276 -0.0199  0.1450 -0.5927
 2527SOL     OW19213   2.966   2.655   6.863  0.4924  0.0428  0.1095
 2527SOL    HW119214   2.984   2.746   6.841 -1.1909  0.5398  0.7837
 2527SOL    HW219215   2.898   2.663   6.931 -0.9901 -0.3966 -1.3171
 2528SOL     OW19216   3.520   4.042   8.534 -0.4989 -0.4814 -0.1676
 2528SOL    HW119217   3.570   3.969   8.570  1.0001  0.2804 -0.7205
 2528SOL    HW219218   3.558   4.033   8.447 -0.2717  1.8834 -0.3094
 2529SOL     OW19219   3.931   1.278   8.841 -0.7380 -0.0289  0.3815
 2529SOL    HW119220   3.980   1.277   8.923  1.7627 -0.1825 -1.0972
 2529SOL    HW219221   3.900   1.369   8.842  0.7080  0.4936 -2.3312
 2530SOL     OW19222   0.455   2.413  13.894  0.6361  0.0884  0.4979
 2530SOL    HW119223   0.490   2.481  13.837  0.5848 -0.5215 -0.2586
 2530SOL    HW219224   0.377   2.378  13.851 -0.0144  0.6243  1.2441
 2531SOL     OW19225   4.675   4.234   0.239 -0.7872 -0.1940  0.2398
 2531SOL    HW119226   4.615   4.196   0.175 -1.2136  1.2717 -0.2286
 2531SOL    HW219227   4.724   4.153   0.250 -1.3444 -0.8492 -2.3331
 2532SOL     OW19228   0.874   0.778   3.697 -0.4512 -0.5109 -0.0443
 2532SOL    HW119229   0.872   0.697   3.748 -2.8915 -1.2266 -1.2898
 2532SOL    HW219230   0.962   0.815   3.702 -0.3613 -0.7457  0.0784
 2533SOL     OW19231   4.640   3.214   8.776  0.2372 -0.1379 -0.0377
 2533SOL    HW119232   4.625   3.122   8.753  1.5640  0.6663 -4.0602
 2533SOL    HW219233   4.658   3.199   8.869  0.7331  1.2227  0.0735
 2534SOL     OW19234   0.596   4.116   1.886 -0.0438  0.4296 -0.6015
 2534SOL    HW119235   0.625   4.030   1.856 -0.9053  0.0038 -0.2189
 2534SOL    HW219236   0.605   4.174   1.811  1.3958  0.7878 -0.1398
 2535SOL     OW19237   4.670   0.742  15.385  0.0191 -0.4320 -1.0009
 2535SOL    HW119238   4.683   0.658  15.341 -1.2620 -0.8106 -0.6469
 2535SOL    HW219239   4.693   0.804  15.316  3.7914 -0.0590  0.5787
 2536SOL     OW19240   1.350   3.480   8.111  0.2775 -0.2162 -0.0789
 2536SOL    HW119241   1.316   3.395   8.084  1.6832 -0.9919  0.6300
 2536SOL    HW219242   1.290   3.527   8.169  0.9754 -0.1399  0.5952
 2537SOL     OW19243   4.633   1.814   3.307  0.2990  0.6865 -0.0279
 2537SOL    HW119244   4.638   1.751   3.379 -3.4209 -1.4003 -1.6230
 2537SOL    HW219245   4.711   1.784   3.260 -0.5173  0.1764 -1.0443
 2538SOL     OW19246   4.327   1.196   3.423 -0.1613  0.3868  0.1950
 2538SOL    HW119247   4.371   1.162   3.346 -0.3822  0.9756 -0.1899
 2538SOL    HW219248   4.339   1.129   3.491 -1.2484  0.7743  0.7814
 2539SOL     OW19249   4.129   1.793   1.895 -0.0767 -0.5272  0.5170
 2539SOL    HW119250   4.142   1.887   1.910  0.4495 -0.9471  2.7671
 2539SOL    HW219251   4.212   1.754   1.923 -0.7794 -2.0667  0.4676
 2540SOL     OW19252   1.216   0.357   3.083 -0.3294 -0.4951  0.2180
 2540SOL    HW119253   1.136   0.366   3.135  1.0677 -1.1841  2.4719
 2540SOL    HW219254   1.225   0.438   3.032  0.8395 -0.6689  0.1588
 2541SOL     OW19255   3.917   2.489   9.408  0.0981 -0.1994  0.6201
 2541SOL    HW119256   3.999   2.450   9.380 -0.5195 -1.3009  0.3529
 2541SOL    HW219257   3.951   2.535   9.484  2.1662 -0.3535 -0.2213
 2542SOL     OW19258   3.865   0.109   2.188 -0.4352 -0.5023  0.2630
 2542SOL    HW119259   3.929   0.093   2.257  0.5882 -1.2119 -0.8678
 2542SOL    HW219260   3.893   0.046   2.122 -0.4612 -0.7873  0.5209
 2543SOL     OW19261   2.417   3.547  16.807  0.0271  0.1038 -0.1080
 2543SOL    HW119262   2.382   3.559  16.719  0.6262  0.4140 -0.2985
 2543SOL    HW219263   2.507   3.573  16.791 -0.0445  1.8282  2.3009
 2544SOL     OW19264   4.285   4.726   2.008  0.5638 -0.1888 -0.4004
 2544SOL    HW119265   4.301   0.063   1.949  3.4992 -1.0966 -0.7305
 2544SOL    HW219266   4.350   4.668   1.968 -1.3961 -2.1584 -0.7731
 2545SOL     OW19267   4.044   4.310   1.029 -0.2949  0.8464  0.0634
 2545SOL    HW119268   4.091   4.307   1.112 -1.2098 -1.4042  0.4922
 2545SOL    HW219269   4.095   4.239   0.990 -1.3688 -0.2898  0.7598
 2546SOL     OW19270   3.623   1.552  12.458  0.7137  0.1864 -0.3741
 2546SOL    HW119271   3.536   1.549  12.497  0.5002  1.1892 -0.7751
 2546SOL    HW219272   3.651   1.462  12.442  3.1485  0.7810  0.4512
 2547SOL     OW19273   1.293   0.098   4.006  0.3796  0.2313  0.0303
 2547SOL    HW119274   1.345   0.159   3.953  1.6223  0.5034  1.5631
 2547SOL    HW219275   1.251   0.057   3.931 -0.3698  0.4557  0.3263
 2548SOL     OW19276   0.706   2.000   9.214  0.0515 -0.3343 -0.0605
 2548SOL    HW119277   0.745   1.938   9.276 -0.2397 -0.4192  0.0360
 2548SOL    HW219278   0.672   2.057   9.283  0.8097 -0.8047  0.7104
 2549SOL     OW19279   1.426   3.917   7.792  0.4564 -0.1267  0.0594
 2549SOL    HW119280   1.467   3.834   7.765 -0.0538 -0.0508 -0.9490
 2549SOL    HW219281   1.500   3.965   7.830 -0.9403 -0.6328  3.4019
 2550SOL     OW19282   0.775   1.050  17.302 -0.1238 -0.2934  0.4898
 2550SOL    HW119283   0.744   1.106  17.373  0.5170 -2.6213  2.5713
 2550SOL    HW219284   0.741   1.088  17.221  0.7807 -1.6984 -0.5532
 2551SOL     OW19285   2.449   2.240   7.548 -0.3478  0.0993  0.5721
 2551SOL    HW119286   2.420   2.240   7.456 -0.1916 -4.2469  0.5554
 2551SOL    HW219287   2.418   2.155   7.579 -0.6006 -0.1072 -0.2367
 2552SOL     OW19288   0.024   0.230   3.762  0.0134 -0.5021 -0.1522
 2552SOL    HW119289   0.063   0.257   3.680  1.4341  0.9096  0.9923
 2552SOL    HW219290   0.010   0.316   3.802 -0.9923  0.4573 -2.5569
 2553SOL     OW19291   2.080   1.284   3.592  0.0727  0.4564 -0.1813
 2553SOL    HW119292   2.052   1.248   3.676 -2.1623  1.3355 -0.5517
 2553SOL    HW219293   2.163   1.238   3.581 -0.9529 -1.7602  1.4620
 2554SOL     OW19294   4.596   2.180   0.988  0.0872  0.0844  0.2088
 2554SOL    HW119295   4.601   2.091   0.952 -1.1412 -0.5656  1.6574
 2554SOL    HW219296   4.667   2.174   1.052 -1.0981 -1.9045  1.3319
 2555SOL     OW19297   2.399   2.109   9.571  0.7444 -0.2064 -0.0501
 2555SOL    HW119298   2.354   2.034   9.608 -1.6531  0.1942 -2.2127
 2555SOL    HW219299   2.334   2.156   9.519  0.0474  0.9041  1.8247
 2556SOL     OW19300   1.475   3.188   6.140  0.0382  0.3981  0.5288
 2556SOL    HW119301   1.544   3.255   6.143  1.6462 -1.1953 -1.0838
 2556SOL    HW219302   1.394   3.237   6.129 -0.7670 -0.8555  0.9317
 2557SOL     OW19303   0.347   4.655   7.028 -0.0338 -0.4383  0.4252
 2557SOL    HW119304   0.427   4.659   6.976 -0.4752 -1.0780 -0.3012
 2557SOL    HW219305   0.334   4.561   7.040  1.9643 -0.5641  1.6626
 2558SOL     OW19306   3.337   1.205   4.828 -0.1717  0.3146  0.2242
 2558SOL    HW119307   3.269   1.156   4.874 -0.7275  0.3031 -0.6072
 2558SOL    HW219308   3.414   1.149   4.838  0.4345  1.2903  1.1331
 2559SOL     OW19309   0.585   1.067   6.748  0.1961  0.1571  0.1975
 2559SOL    HW119310   0.614   1.084   6.658  1.6451 -1.4405  0.3728
 2559SOL    HW219311   0.585   0.972   6.746  1.7941  0.1389  1.5589
 2560SOL     OW19312   1.855   1.717  16.964  0.5522  0.1284 -0.4406
 2560SOL    HW119313   1.909   1.751  16.892  1.3120 -0.1957 -0.0166
 2560SOL    HW219314   1.874   1.785  17.028  0.2527  1.0985 -1.3692
 2561SOL     OW19315   0.512   4.445   2.724 -0.1565 -0.0899 -0.0114
 2561SOL    HW119316   0.489   4.416   2.812 -1.6193 -0.1060 -0.4055
 2561SOL    HW219317   0.600   4.408   2.717  0.3631  1.5750 -2.2407
 2562SOL     OW19318   3.114   2.798   4.054  0.5273 -0.2970  0.6373
 2562SOL    HW119319   3.083   2.831   3.969  0.9552  1.0804  1.0172
 2562SOL    HW219320   3.200   2.765   4.029  1.3995  0.2872  2.9190
 2563SOL     OW19321   0.691   2.951   8.894 -0.0528 -0.3796  0.2101
 2563SOL    HW119322   0.609   2.903   8.895  1.0910 -2.2968  2.6069
 2563SOL    HW219323   0.663   3.043   8.891  0.9644 -0.1328 -1.7804
 2564SOL     OW19324   4.238   1.612   8.445  0.0976 -0.1342  0.2679
 2564SOL    HW119325   4.302   1.682   8.449  2.2348 -2.1612  1.7179
 2564SOL    HW219326   4.237   1.591   8.539  1.4267  3.1706  1.0054
 2565SOL     OW19327   0.017   3.090   1.847  0.2462  0.0725 -0.3382
 2565SOL    HW119328   0.025   3.184   1.864  0.4573 -0.1231  0.6128
 2565SOL    HW219329   4.717   3.098   1.758 -1.9653  1.7230  0.7271
 2566SOL     OW19330   3.611   0.625   2.852 -0.4285 -0.0121 -0.1281
 2566SOL    HW119331   3.528   0.577   2.848 -0.3246 -0.4066  2.4486
 2566SOL    HW219332   3.606   0.682   2.775  0.5764  2.4166  1.6023
 2567SOL     OW19333   1.285   0.485   6.906  0.0981 -0.0724  0.0108
 2567SOL    HW119334   1.216   0.473   6.971  0.6394 -1.0062  0.4147
 2567SOL    HW219335   1.313   0.575   6.924  1.6236 -0.9195  1.9481
 2568SOL     OW19336   4.720   3.784   1.838 -0.3683  0.3463 -0.0029
 2568SOL    HW119337   4.640   3.739   1.813  1.6143 -2.4771 -1.2327
 2568SOL    HW219338   0.004   3.719   1.904 -0.8800  1.3295  1.1282
 2569SOL     OW19339   0.097   1.308   5.655  0.2518  0.0029 -0.5516
 2569SOL    HW119340   0.009   1.271   5.653  0.9081 -1.5254 -0.8681
 2569SOL    HW219341   0.119   1.331   5.565  3.6490 -2.3009 -0.3018
 2570SOL     OW19342   4.697   3.037   4.712 -0.1576  0.1167  0.6790
 2570SOL    HW119343   0.035   3.014   4.657  0.0780  1.9728  0.2309
 2570SOL    HW219344   4.628   3.027   4.647 -0.0889 -2.3001  0.9707
 2571SOL     OW19345   1.537   1.548   8.394  0.1137  0.5977 -0.3514
 2571SOL    HW119346   1.442   1.540   8.383 -0.0343 -1.1758  2.2313
 2571SOL    HW219347   1.554   1.642   8.386  0.6441  0.6575  1.4916
 2572SOL     OW19348   2.272   1.895  11.014 -0.2624  0.4433 -0.1760
 2572SOL    HW119349   2.290   1.872  11.105  0.6325 -0.7855 -0.6601
 2572SOL    HW219350   2.296   1.987  11.026  2.0066 -0.0790 -0.8157
 2573SOL     OW19351   0.081   4.127   7.453  0.2939 -0.7801 -0.7884
 2573SOL    HW119352   0.124   4.212   7.448  0.1744 -0.7018 -0.4620
 2573SOL    HW219353   0.049   4.127   7.543 -2.2981 -0.1299 -1.7158
 2574SOL     OW19354   2.530   1.267   6.839  0.9989  0.1210 -0.3069
 2574SOL    HW119355   2.443   1.258   6.876  0.9967  0.1794 -0.2974
 2574SOL    HW219356   2.530   1.361   6.819  4.8511  0.3007  0.6191
 2575SOL     OW19357   1.544   1.233  15.266  0.2067  0.7196  0.4683
 2575SOL    HW119358   1.519   1.308  15.211  1.5134 -0.0905 -1.2240
 2575SOL    HW219359   1.633   1.260  15.288  0.4745  2.2736 -2.5292
 2576SOL     OW19360   4.655   2.203   6.610 -0.3680  0.3644  0.0259
 2576SOL    HW119361   0.012   2.223   6.608 -0.1030 -0.8408  0.5081
 2576SOL    HW219362   4.641   2.145   6.685  2.2717  0.6588  0.7390
 2577SOL     OW19363   1.433   1.601   0.209  0.1589  0.1994 -0.4301
 2577SOL    HW119364   1.461   1.692   0.215  1.4329 -0.1404 -1.0372
 2577SOL    HW219365   1.422   1.591   0.114 -2.4508 -2.1840  0.1017
 2578SOL     OW19366   0.277   0.077   8.080 -0.6016 -0.2744 -0.6443
 2578SOL    HW119367   0.204   0.070   8.141 -1.4723 -1.5510 -1.8432
 2578SOL    HW219368   0.296   4.720   8.084 -0.2057 -0.2074 -0.9151
 2579SOL     OW19369   1.535   1.759  17.732 -0.0796 -0.0409  0.0158
 2579SOL    HW119370   1.596   1.701  17.687 -0.0495  0.5637 -0.7396
 2579SOL    HW219371   1.587   1.791   0.061 -1.2980 -0.8251  1.2083
 2580SOL     OW19372   1.869   0.115  17.085 -0.0983 -0.0881  0.9118
 2580SOL    HW119373   1.775   0.126  17.103 -0.4716 -0.3328 -0.9394
 2580SOL    HW219374   1.877   0.024  17.113  2.9398 -0.2520 -0.4906
 2581SOL     OW19375   1.531   0.792   4.242 -0.4640 -0.6938  0.2559
 2581SOL    HW119376   1.556   0.878   4.276  1.6361 -1.6690  1.1883
 2581SOL    HW219377   1.541   0.810   4.148  0.2846  1.0381  0.6784
 2582SOL     OW19378   2.159   0.257   9.765  0.1649  0.1173  0.2724
 2582SOL    HW119379   2.189   0.223   9.849 -0.3803  2.2100  1.3091
 2582SOL    HW219380   2.076   0.209   9.764  0.7465 -0.8274 -1.6343
 2583SOL     OW19381   3.316   0.866   8.777 -0.1791 -0.1922 -0.4179
 2583SOL    HW119382   3.387   0.832   8.832 -0.6681  0.6561  0.7164
 2583SOL    HW219383   3.251   0.798   8.763 -0.2136  0.0265 -1.3302
 2584SOL     OW19384   1.680   1.533   2.806 -0.5202 -0.0470  0.5181
 2584SOL    HW119385   1.615   1.522   2.737  1.4571  0.6325 -1.4480
 2584SOL    HW219386   1.729   1.608   2.772 -0.9059  0.6047  1.4007
 2585SOL     OW19387   1.753   4.624   5.152 -0.3516  0.4832 -0.0549
 2585SOL    HW119388   1.686   4.675   5.106  2.3979  3.0093 -1.2820
 2585SOL    HW219389   1.805   4.686   5.205  0.4841 -0.2113 -0.0601
 2586SOL     OW19390   3.543   2.161  15.836  0.6424 -0.3505 -0.1415
 2586SOL    HW119391   3.555   2.198  15.923 -3.2322  0.3726  0.1013
 2586SOL    HW219392   3.629   2.124  15.820 -0.0358 -0.8246 -2.7249
 2587SOL     OW19393   0.616   2.071   4.147 -0.5458 -1.0370 -0.4562
 2587SOL    HW119394   0.623   1.975   4.155 -1.0080 -0.9507  0.9250
 2587SOL    HW219395   0.621   2.073   4.051  3.0196 -0.2586 -0.2329
 2588SOL     OW19396   2.087   0.776   8.646 -0.0311 -0.2122 -0.2991
 2588SOL    HW119397   2.122   0.706   8.701 -0.7902  0.0247  0.4839
 2588SOL    HW219398   1.993   0.778   8.664  0.2543  1.1086  1.1039
 2589SOL     OW19399   4.519   1.805   2.880 -0.2343 -0.7578 -0.0905
 2589SOL    HW119400   4.577   1.880   2.888 -0.8960 -0.3614  0.9682
 2589SOL    HW219401   4.448   1.829   2.939  0.0338  0.8465 -0.4259
 2590SOL     OW19402   1.701   3.382   3.703 -0.0631  0.5715  0.0087
 2590SOL    HW119403   1.629   3.426   3.657 -1.1629  1.3133  2.4781
 2590SOL    HW219404   1.758   3.457   3.720 -2.0604  1.7280  1.5762
 2591SOL     OW19405   0.924   2.038   2.056 -0.4542 -0.4292 -0.3711
 2591SOL    HW119406   0.832   2.040   2.031 -0.6460 -2.1534  0.1281
 2591SOL    HW219407   0.934   1.946   2.081  0.3623 -0.1012  0.5038
 2592SOL     OW19408   1.873   3.127  13.347  0.7229  0.1267  0.3895
 2592SOL    HW119409   1.795   3.166  13.307  0.8090  0.3744  0.4650
 2592SOL    HW219410   1.886   3.057  13.283 -0.9158  0.1558  0.0096
 2593SOL     OW19411   1.651   2.144  17.679 -0.3485  0.0264 -0.2086
 2593SOL    HW119412   1.677   2.124  17.589  1.0205 -0.7044  0.3421
 2593SOL    HW219413   1.592   2.219  17.671  0.0681  0.2836 -0.8584
 2594SOL     OW19414   0.404   0.700   5.852  0.1072  0.7391  0.5159
 2594SOL    HW119415   0.366   0.724   5.936 -0.1708  1.6500  0.1197
 2594SOL    HW219416   0.468   0.768   5.832  1.0124 -0.0226  0.7585
 2595SOL     OW19417   1.242   4.450  14.140  0.2897 -0.0194  0.2361
 2595SOL    HW119418   1.219   4.443  14.048  1.5980 -2.2928  0.0809
 2595SOL    HW219419   1.179   4.517  14.166 -0.2777 -0.1507 -0.8184
 2596SOL     OW19420   2.015   2.841   3.865 -0.0456  0.5595  0.1373
 2596SOL    HW119421   2.080   2.782   3.825  0.4173  0.1921  1.4435
 2596SOL    HW219422   1.937   2.786   3.859  0.8373 -0.5427 -1.2193
 2597SOL     OW19423   3.345   0.909   2.105 -0.1765  0.1076 -0.1033
 2597SOL    HW119424   3.290   0.834   2.127 -0.0576  0.3049  0.8711
 2597SOL    HW219425   3.279   0.978   2.114 -0.0414  0.1238  0.7063
 2598SOL     OW19426   3.947   3.387  11.328  0.0996 -0.0974 -0.2591
 2598SOL    HW119427   3.877   3.323  11.314  0.4636 -0.3950 -0.7163
 2598SOL    HW219428   3.898   3.459  11.367 -2.0878 -0.4247 -2.4621
 2599SOL     OW19429   0.315   2.398   0.461  0.3970 -0.0914  0.1647
 2599SOL    HW119430   0.276   2.477   0.498  1.6404 -0.3547  1.9885
 2599SOL    HW219431   0.405   2.422   0.440  0.3923  1.2851  1.8092
 2600SOL     OW19432   0.305   4.002   8.807 -0.5477 -0.3406  0.4015
 2600SOL    HW119433   0.245   4.003   8.733 -1.8145  0.8848  1.4375
 2600SOL    HW219434   0.300   4.093   8.838  0.2271  0.0830 -0.7107
 2601SOL     OW19435   3.429   0.573   5.660 -0.1567  0.2098 -0.1616
 2601SOL    HW119436   3.399   0.663   5.645 -1.7817 -0.4149 -0.6702
 2601SOL    HW219437   3.344   0.531   5.674 -2.0666  2.4557 -4.8223
 2602SOL     OW19438   0.350   3.777  10.281  0.6039 -0.2712  0.1217
 2602SOL    HW119439   0.334   3.701  10.337 -0.0233  0.7525  1.3425
 2602SOL    HW219440   0.413   3.822  10.338  0.9551  0.5325 -0.9122
 2603SOL     OW19441   4.131   1.154   2.583  0.4702 -0.2700 -0.0003
 2603SOL    HW119442   4.038   1.171   2.567  0.4427 -2.4244 -2.1338
 2603SOL    HW219443   4.160   1.212   2.653  0.4862  0.3440 -0.5100
 2604SOL     OW19444   1.333   2.471   4.643  0.2957 -0.1143 -0.2409
 2604SOL    HW119445   1.385   2.514   4.711 -0.0961 -1.9475  1.2323
 2604SOL    HW219446   1.252   2.446   4.689  0.7617 -0.1505  0.5626
 2605SOL     OW19447   3.537   1.470  14.665 -0.3481  0.3105 -0.1773
 2605SOL    HW119448   3.451   1.471  14.708 -0.9196  1.8530 -1.3636
 2605SOL    HW219449   3.521   1.535  14.597  1.6874 -2.0372 -2.8600
 2606SOL     OW19450   4.180   3.958   1.696  0.2962 -0.2997 -0.2792
 2606SOL    HW119451   4.116   3.890   1.718 -1.6169  1.8474  0.8534
 2606SOL    HW219452   4.139   4.036   1.735  1.9930 -0.6120  2.1848
 2607SOL     OW19453   4.319   4.518   8.557  0.0415 -0.2451 -0.1553
 2607SOL    HW119454   4.334   4.612   8.554  1.8191 -0.5690 -1.5946
 2607SOL    HW219455   4.376   4.490   8.485  0.2203  0.0745 -0.1353
 2608SOL     OW19456   0.946   3.874  13.395  0.3624  0.2164 -0.0044
 2608SOL    HW119457   1.029   3.905  13.430  0.9859 -0.2576 -1.0424
 2608SOL    HW219458   0.981   3.850  13.309  1.7480 -1.1534  0.9434
 2609SOL     OW19459   2.263   3.772   5.926  0.8957 -0.1204 -0.4453
 2609SOL    HW119460   2.235   3.827   5.999  0.1340 -1.0764 -0.0184
 2609SOL    HW219461   2.242   3.834   5.856  5.2160  0.9136 -0.8021
 2610SOL     OW19462   1.658   0.906   2.308 -0.6016 -0.5784  0.4257
 2610SOL    HW119463   1.631   0.821   2.341  0.8687 -1.8823 -1.7255
 2610SOL    HW219464   1.670   0.882   2.216  0.4877 -3.0768  1.2153
 2611SOL     OW19465   0.399   2.142   5.550 -0.1127  0.3810  0.1092
 2611SOL    HW119466   0.313   2.129   5.591 -0.6150  0.7017 -0.8373
 2611SOL    HW219467   0.402   2.238   5.555  0.9935  0.3950 -0.9943
 2612SOL     OW19468   3.646   0.327   0.622  0.0911  0.1497 -0.2551
 2612SOL    HW119469   3.688   0.341   0.707  0.1597  1.4050 -0.5007
 2612SOL    HW219470   3.594   0.248   0.640  1.2896 -0.2677  1.3428
 2613SOL     OW19471   1.647   1.958   5.720 -0.2614  0.3116 -0.0614
 2613SOL    HW119472   1.649   1.985   5.812  1.7994  1.4760 -0.4507
 2613SOL    HW219473   1.734   1.921   5.708  0.3078  1.1302  1.5012
 2614SOL     OW19474   2.815   0.888  16.056  0.4284 -0.1608  0.1564
 2614SOL    HW119475   2.880   0.818  16.068  2.1496  1.3076 -0.6381
 2614SOL    HW219476   2.821   0.926  16.144 -3.8052  0.0005  0.3544
 2615SOL     OW19477   4.109   4.082   8.478  0.3031 -0.0285 -0.2515
 2615SOL    HW119478   4.050   4.122   8.414 -2.0176  0.6383  2.2842
 2615SOL    HW219479   4.049   4.010   8.500 -1.1202  0.7320 -1.5982
 2616SOL     OW19480   2.925   3.041   5.957  0.1629  0.0781 -0.1476
 2616SOL    HW119481   2.950   3.089   6.035 -1.7306 -0.8701  1.0441
 2616SOL    HW219482   2.909   2.956   5.998  3.0876  0.3185  1.5128
 2617SOL     OW19483   4.668   2.882   7.715  0.4919 -0.1884  0.0191
 2617SOL    HW119484   4.734   2.950   7.723  0.0970  0.4103 -1.6960
 2617SOL    HW219485   4.598   2.911   7.773  1.0661  0.4991  0.3616
 2618SOL     OW19486   3.045   0.523   1.863 -0.5532  0.3156  0.9810
 2618SOL    HW119487   3.135   0.499   1.888 -0.1574 -0.4653 -1.1514
 2618SOL    HW219488   3.076   0.577   1.790  0.5120 -1.2997  0.2228
 2619SOL     OW19489   2.032   4.085  12.666 -0.2614 -0.7809  0.6564
 2619SOL    HW119490   2.083   4.015  12.708 -2.4110 -0.2148  4.1765
 2619SOL    HW219491   1.990   4.125  12.742  0.2188 -0.9279  1.0087
 2620SOL     OW19492   0.961   2.232  14.345 -0.3361  0.4847 -0.6392
 2620SOL    HW119493   0.888   2.294  14.352  0.0465  0.9485 -0.7090
 2620SOL    HW219494   1.001   2.273  14.268  1.9504  0.0811  0.3301
 2621SOL     OW19495   1.160   1.364   3.963  0.1469 -0.4319 -0.0755
 2621SOL    HW119496   1.247   1.401   3.978 -0.5104  0.8711  0.5353
 2621SOL    HW219497   1.145   1.399   3.876 -0.4078  1.9556  0.9902
 2622SOL     OW19498   1.465   1.762   8.149 -0.5189 -0.2979 -0.6710
 2622SOL    HW119499   1.413   1.827   8.102 -1.7004 -1.3998 -0.8877
 2622SOL    HW219500   1.401   1.691   8.152 -0.1592 -0.6714 -2.1388
 2623SOL     OW19501   1.368   0.097   0.731 -0.1277  0.2934 -0.4502
 2623SOL    HW119502   1.374   0.151   0.653  1.3364 -0.5569 -0.9160
 2623SOL    HW219503   1.385   0.006   0.705 -1.8203 -1.1224  3.2636
 2624SOL     OW19504   3.921   0.011   4.526  0.0908  0.6301 -0.8275
 2624SOL    HW119505   3.963   0.040   4.607  1.6314 -0.4651 -1.2403
 2624SOL    HW219506   3.987   4.732   4.458 -0.8315  0.9097 -1.7915
 2625SOL     OW19507   3.650   0.260   7.223 -0.1506 -0.2350  0.5655
 2625SOL    HW119508   3.647   0.301   7.309  2.2187 -0.0865  0.5744
 2625SOL    HW219509   3.742   0.268   7.198 -0.7178  1.3437 -1.0498
 2626SOL     OW19510   2.880   3.421   2.309  0.4192  0.7347  0.1134
 2626SOL    HW119511   2.820   3.354   2.277  0.8527 -0.2095  1.2979
 2626SOL    HW219512   2.843   3.445   2.394  1.0784  2.2830 -0.0433
 2627SOL     OW19513   3.558   2.110   6.369 -0.0177  0.6961  0.5225
 2627SOL    HW119514   3.527   2.189   6.324  1.1400  0.7527 -0.1779
 2627SOL    HW219515   3.644   2.136   6.400  0.3656 -0.6109  0.5320
 2628SOL     OW19516   2.874   4.733   5.171  0.4113  0.7949  0.1285
 2628SOL    HW119517   2.787   0.030   5.150 -0.5623 -0.8352  1.4665
 2628SOL    HW219518   2.918   0.001   5.087  0.5704 -2.4815  0.0393
 2629SOL     OW19519   1.709   2.111   6.746  0.6471 -0.1000 -0.3575
 2629SOL    HW119520   1.734   2.091   6.656  2.0484  2.0530 -0.4564
 2629SOL    HW219521   1.678   2.025   6.774 -0.9205  0.6620  0.2003
 2630SOL     OW19522   2.635   0.696   5.365  0.5084 -0.5370  0.0893
 2630SOL    HW119523   2.629   0.626   5.301  2.8447 -3.0860  2.6368
 2630SOL    HW219524   2.630   0.783   5.325  0.0434 -0.6207 -0.0302
 2631SOL     OW19525   4.134   1.840   3.704  0.0960  0.5425  0.1573
 2631SOL    HW119526   4.205   1.806   3.649 -0.2738 -0.1774  0.1144
 2631SOL    HW219527   4.181   1.877   3.778  0.6142 -1.9648  1.1059
 2632SOL     OW19528   4.489   3.798  11.222 -0.2716  0.3167 -0.2654
 2632SOL    HW119529   4.502   3.709  11.256  0.3984  0.1443 -0.9673
 2632SOL    HW219530   4.398   3.818  11.243 -0.1986 -1.9628  2.2320
 2633SOL     OW19531   2.486   1.693   8.196 -0.4806  0.1817  0.3299
 2633SOL    HW119532   2.423   1.624   8.215  0.1522 -0.7231 -0.7990
 2633SOL    HW219533   2.446   1.760   8.251  0.0464  1.2437 -0.5894
 2634SOL     OW19534   1.971   0.531   3.092  0.0276  0.7254 -0.4328
 2634SOL    HW119535   1.930   0.556   3.175 -0.8003 -0.5021 -0.4813
 2634SOL    HW219536   1.937   0.596   3.030 -0.0270 -0.3848 -1.5723
 2635SOL     OW19537   3.143   3.291  15.208  0.5907 -0.2535 -0.3379
 2635SOL    HW119538   3.216   3.229  15.217  0.1680 -0.7301 -0.1259
 2635SOL    HW219539   3.076   3.264  15.270 -0.8985 -0.0195 -1.8545
 2636SOL     OW19540   2.460   3.451  12.288 -0.0832  0.3925  0.2523
 2636SOL    HW119541   2.393   3.471  12.353 -0.3755 -0.6101  0.2627
 2636SOL    HW219542   2.539   3.482  12.331  0.0600 -0.5510  0.6471
 2637SOL     OW19543   3.121   3.273   3.245  0.4656 -0.8044  0.1260
 2637SOL    HW119544   3.040   3.308   3.283  0.6457 -1.8103  1.4275
 2637SOL    HW219545   3.154   3.227   3.322 -1.1594  0.1328  1.3823
 2638SOL     OW19546   0.274   3.684  17.480  0.3827 -0.0672 -0.0510
 2638SOL    HW119547   0.335   3.731  17.423 -0.7927  0.8459 -0.5846
 2638SOL    HW219548   0.234   3.759  17.525 -0.6963 -0.1587 -0.8581
 2639SOL     OW19549   2.648   0.856   3.467  0.0159  0.2189 -0.6103
 2639SOL    HW119550   2.576   0.912   3.438  1.1569  1.6722 -0.6901
 2639SOL    HW219551   2.694   0.839   3.384 -0.7864  0.5600 -1.1290
 2640SOL     OW19552   3.431   1.239  16.562  0.4602  0.4716  0.0707
 2640SOL    HW119553   3.470   1.320  16.528 -2.2884  2.2502  1.1918
 2640SOL    HW219554   3.358   1.221  16.503 -0.0917 -0.3331  0.9893
 2641SOL     OW19555   0.721   3.728   2.503 -0.2634 -0.1503 -0.1811
 2641SOL    HW119556   0.672   3.650   2.530  0.7626 -0.1288  1.6996
 2641SOL    HW219557   0.649   3.790   2.501  0.3811  0.5476 -2.5331
 2642SOL     OW19558   2.097   4.261   4.054  0.4312  0.2699  0.0178
 2642SOL    HW119559   2.065   4.340   4.098  0.5093 -0.0597  0.6619
 2642SOL    HW219560   2.020   4.231   4.006 -0.0355 -2.0330  2.2103
 2643SOL     OW19561   3.835   1.804   6.248  0.3644 -0.4199  0.5380
 2643SOL    HW119562   3.847   1.899   6.258  0.1545 -0.5302  1.9030
 2643SOL    HW219563   3.907   1.770   6.195  1.1747 -0.7712  1.8516
 2644SOL     OW19564   4.590   2.144   9.271 -0.6185  0.0394  0.4055
 2644SOL    HW119565   4.679   2.169   9.296 -0.2580  0.3227 -1.1212
 2644SOL    HW219566   4.527   2.194   9.323 -0.3133  0.9570 -0.1083
 2645SOL     OW19567   2.612   1.270   9.794 -0.1515  0.1182 -0.5505
 2645SOL    HW119568   2.518   1.256   9.786 -0.2568 -0.2938  1.3853
 2645SOL    HW219569   2.653   1.187   9.770  0.1746 -0.3295  1.5495
 2646SOL     OW19570   3.479   2.849   9.452 -0.3690  0.3713  0.2043
 2646SOL    HW119571   3.549   2.874   9.512 -0.6311  3.1006 -0.6580
 2646SOL    HW219572   3.522   2.773   9.413 -2.4585 -0.4570 -0.5370
 2647SOL     OW19573   3.355   1.903   6.175 -0.2269 -0.1835  0.4713
 2647SOL    HW119574   3.289   1.835   6.159 -0.7719 -0.0282  2.0618
 2647SOL    HW219575   3.426   1.889   6.113  0.3327 -1.6994  1.4454
 2648SOL     OW19576   3.772   2.766  11.046  0.0982 -0.0330  0.1110
 2648SOL    HW119577   3.787   2.856  11.020  1.6101 -0.1656  0.5609
 2648SOL    HW219578   3.818   2.725  10.972  2.0266  2.4127 -0.0252
 2649SOL     OW19579   2.584   4.351   8.825 -0.3905 -0.9088  0.1406
 2649SOL    HW119580   2.576   4.339   8.731 -0.1898 -1.0886  0.1463
 2649SOL    HW219581   2.558   4.443   8.826  0.6725 -0.5951 -1.4616
 2650SOL     OW19582   1.963   1.059   5.646 -0.1869 -0.4483 -0.0044
 2650SOL    HW119583   1.999   1.065   5.557 -0.5171 -0.8172 -0.1619
 2650SOL    HW219584   1.877   1.019   5.632 -1.1446  0.9806  1.8767
 2651SOL     OW19585   3.653   2.953   4.708  0.3238  0.4885  0.0108
 2651SOL    HW119586   3.682   2.902   4.633  2.4082  0.4166  0.8637
 2651SOL    HW219587   3.623   2.878   4.759 -0.7027 -0.9386 -2.6893
 2652SOL     OW19588   0.285   4.472   8.861 -0.4189 -0.1002 -0.1203
 2652SOL    HW119589   0.228   4.549   8.866  1.0805  1.0203 -0.3577
 2652SOL    HW219590   0.330   4.491   8.778  0.3175 -0.1661  0.2605
 2653SOL     OW19591   1.418   3.363   8.404 -0.1388  0.2617 -0.0363
 2653SOL    HW119592   1.431   3.357   8.499  1.0194  1.2616 -0.1323
 2653SOL    HW219593   1.417   3.458   8.389  0.0089  0.3628  0.5666
 2654SOL     OW19594   4.147   3.824   6.794  0.1235 -0.2149 -0.4309
 2654SOL    HW119595   4.085   3.788   6.731  1.3863 -0.3368 -1.6118
 2654SOL    HW219596   4.086   3.829   6.868  0.4299  1.2092 -0.2859
 2655SOL     OW19597   4.523   3.253   7.492 -0.3033 -0.0141 -0.2236
 2655SOL    HW119598   4.541   3.322   7.427 -1.4473  0.0130 -0.5259
 2655SOL    HW219599   4.553   3.181   7.437 -0.9959  1.2934 -2.3269
 2656SOL     OW19600   1.816   0.940   3.716  0.0334 -0.6689 -0.6059
 2656SOL    HW119601   1.841   0.924   3.625  0.1279  1.0746 -0.8723
 2656SOL    HW219602   1.893   0.922   3.769 -1.2494  0.7931  1.7302
 2657SOL     OW19603   2.110   3.076   4.862  0.1455 -0.0416  0.5606
 2657SOL    HW119604   2.078   3.128   4.936  0.2387 -0.5830  0.9797
 2657SOL    HW219605   2.050   3.103   4.793 -1.0119 -0.3969  1.4356
 2658SOL     OW19606   0.157   4.380   2.870  0.3133 -0.0641 -0.2045
 2658SOL    HW119607   0.231   4.406   2.924  1.0879 -0.9940 -0.8051
 2658SOL    HW219608   0.199   4.318   2.810  0.4693 -1.7931  1.6914
 2659SOL     OW19609   4.642   1.776  12.669  0.5872 -0.2068 -0.2053
 2659SOL    HW119610   0.000   1.776  12.655  0.2183 -0.6623 -2.6942
 2659SOL    HW219611   4.606   1.814  12.589  0.5970  1.5788  0.6405
 2660SOL     OW19612   1.584   1.944   7.844  0.6469 -0.3662 -0.0782
 2660SOL    HW119613   1.656   1.904   7.893 -0.0069 -1.0167  0.3549
 2660SOL    HW219614   1.502   1.899   7.865  2.0754 -2.8948  0.0065
 2661SOL     OW19615   0.557   1.715  10.021  0.4034  0.4437  0.1156
 2661SOL    HW119616   0.507   1.634  10.026 -0.5540  1.1824  2.6258
 2661SOL    HW219617   0.606   1.707   9.940 -0.1175 -2.3243  0.0972
 2662SOL     OW19618   3.412   0.537   0.463 -0.4462  0.5906 -0.4984
 2662SOL    HW119619   3.471   0.468   0.434 -3.3664 -1.0881 -2.5155
 2662SOL    HW219620   3.365   0.510   0.542  3.8211 -1.5923  1.2873
 2663SOL     OW19621   1.556   2.465  12.303 -0.3274 -0.3211  0.6224
 2663SOL    HW119622   1.585   2.374  12.295  1.7566  0.3580  0.3448
 2663SOL    HW219623   1.464   2.452  12.325 -0.2153  0.0520  1.3185
 2664SOL     OW19624   2.840   1.126   7.559 -0.8596 -0.7466  0.5993
 2664SOL    HW119625   2.903   1.157   7.624  0.3040  0.3236 -1.0412
 2664SOL    HW219626   2.758   1.159   7.594 -0.0674  1.1190  0.6902
 2665SOL     OW19627   3.396   0.908  16.690 -0.2890  0.3300  0.6096
 2665SOL    HW119628   3.338   0.834  16.709  0.6840  0.1544  2.7879
 2665SOL    HW219629   3.370   0.920  16.598 -0.8389  1.6758  0.9336
 2666SOL     OW19630   2.077   1.138   7.331  0.2560 -0.0716  0.4591
 2666SOL    HW119631   2.056   1.107   7.243 -1.4223 -1.2845  1.3074
 2666SOL    HW219632   2.173   1.139   7.330  0.2560  0.2441  0.9097
 2667SOL     OW19633   3.597   3.458  11.543  0.5223  0.0235  0.1592
 2667SOL    HW119634   3.665   3.524  11.527 -0.9628  1.4078 -0.4296
 2667SOL    HW219635   3.575   3.440  11.451 -0.9151 -0.2197  0.5642
 2668SOL     OW19636   0.365   4.083   5.633  0.2574 -0.2394 -0.0892
 2668SOL    HW119637   0.299   4.045   5.576 -0.3571  1.2618 -0.3817
 2668SOL    HW219638   0.344   4.174   5.614 -1.3178 -0.6212 -0.2053
 2669SOL     OW19639   2.482   4.146  13.321  0.2966  0.0457 -0.4831
 2669SOL    HW119640   2.405   4.183  13.364 -0.8831  1.3535 -3.6734
 2669SOL    HW219641   2.444   4.058  13.322 -0.2197  0.2808  0.5764
 2670SOL     OW19642   4.475   0.604   8.943 -0.0799 -0.2075  0.0600
 2670SOL    HW119643   4.434   0.565   8.865 -0.5630 -1.0844  0.7555
 2670SOL    HW219644   4.411   0.574   9.008  1.2059  0.2515  1.5139
 2671SOL     OW19645   1.798   3.452   9.378  0.0284 -0.7279 -0.0983
 2671SOL    HW119646   1.800   3.508   9.456 -3.8829  1.2834 -1.4521
 2671SOL    HW219647   1.756   3.371   9.407  1.1287 -0.8727  1.0957
 2672SOL     OW19648   2.103   2.800  15.820  0.7426 -0.0576 -0.1900
 2672SOL    HW119649   2.073   2.889  15.801 -1.1782 -0.2158  2.0369
 2672SOL    HW219650   2.196   2.815  15.802  1.1702 -1.3510  0.9512
 2673SOL     OW19651   0.168   1.203   0.624 -0.2894 -0.3272 -0.5026
 2673SOL    HW119652   0.233   1.166   0.564 -1.4553  0.8873 -2.5002
 2673SOL    HW219653   0.226   1.245   0.688 -0.5908 -0.4332 -0.1587
 2674SOL     OW19654   2.885   2.164   7.270 -0.1207 -0.1144  0.6456
 2674SOL    HW119655   2.831   2.200   7.199  0.6203  1.8278  1.0750
 2674SOL    HW219656   2.845   2.214   7.341  2.1356 -0.4848  2.1688
 2675SOL     OW19657   1.684   3.977   4.705 -0.5141 -0.3878 -0.1803
 2675SOL    HW119658   1.647   4.007   4.789 -1.3422  1.7090 -1.2768
 2675SOL    HW219659   1.615   3.916   4.681  1.0122 -1.3077 -2.1883
 2676SOL     OW19660   2.519   0.630  13.275  0.3034 -0.7242  0.0273
 2676SOL    HW119661   2.456   0.659  13.208  0.6272  0.6788  0.3330
 2676SOL    HW219662   2.585   0.582  13.225 -1.7411 -2.6613 -0.8332
 2677SOL     OW19663   1.554   0.277   6.865  0.1478 -0.1035  0.4453
 2677SOL    HW119664   1.550   0.355   6.920  1.0653 -0.0226  0.3877
 2677SOL    HW219665   1.460   0.263   6.854  0.7026 -2.0723 -1.7580
 2678SOL     OW19666   3.036   2.703  11.695 -0.0754  0.4594 -0.2621
 2678SOL    HW119667   2.983   2.781  11.679  1.1185  0.9140 -2.0136
 2678SOL    HW219668   3.081   2.695  11.611  1.0221  2.3807  0.1339
 2679SOL     OW19669   1.316   1.682   4.175 -0.3802 -0.4717  0.4770
 2679SOL    HW119670   1.297   1.693   4.269 -2.0545 -0.9488  0.1981
 2679SOL    HW219671   1.360   1.767   4.166  0.5526 -1.3411 -2.8175
 2680SOL     OW19672   4.450   2.185   2.978  0.2853 -0.1341 -0.4707
 2680SOL    HW119673   4.542   2.211   2.974  0.0488  0.6262 -0.8278
 2680SOL    HW219674   4.449   2.148   3.066  3.8655 -1.0200 -0.7819
 2681SOL     OW19675   0.932   4.093  13.611  0.0493 -0.3439  0.2923
 2681SOL    HW119676   1.017   4.064  13.576  0.3230  2.2625 -1.2323
 2681SOL    HW219677   0.953   4.187  13.606 -2.6630  0.2156 -0.3299
 2682SOL     OW19678   2.524   0.385   1.206 -0.2552  0.2257  0.0763
 2682SOL    HW119679   2.554   0.355   1.120 -0.5458 -0.1181  0.0964
 2682SOL    HW219680   2.570   0.324   1.262  0.1245  0.3732 -0.0762
 2683SOL     OW19681   3.690   1.160   0.025  0.0336 -0.0088 -0.5414
 2683SOL    HW119682   3.744   1.227   0.067 -2.0120  1.3420 -0.1007
 2683SOL    HW219683   3.630   1.196  17.705  1.1148  1.5247 -0.6937
 2684SOL     OW19684   1.228   2.292   1.778  0.8274 -0.1661  0.2321
 2684SOL    HW119685   1.157   2.354   1.759 -0.9072 -1.6459  2.0187
 2684SOL    HW219686   1.303   2.352   1.784  0.4182  0.2406  1.3003
 2685SOL     OW19687   0.410   0.836  14.899 -0.5216  0.4046  0.0268
 2685SOL    HW119688   0.374   0.846  14.987  2.3456 -1.2605  1.4070
 2685SOL    HW219689   0.423   0.741  14.899 -1.6337  0.2461 -0.0229
 2686SOL     OW19690   4.111   3.454   1.587 -0.1000  0.1979 -0.3384
 2686SOL    HW119691   4.205   3.470   1.579 -0.1294  0.9695  0.8427
 2686SOL    HW219692   4.069   3.486   1.507  3.5621  1.4230 -1.8095
 2687SOL     OW19693   2.306   3.242   1.749  0.5719  0.0184  0.1313
 2687SOL    HW119694   2.264   3.171   1.700 -1.7734  1.3493  0.2224
 2687SOL    HW219695   2.332   3.188   1.823 -2.1739  1.7158  2.2972
 2688SOL     OW19696   3.025   3.313   2.605 -0.3470 -0.1758  0.3127
 2688SOL    HW119697   3.109   3.290   2.565  1.1308  0.5852  2.9740
 2688SOL    HW219698   3.050   3.351   2.690  0.0759 -1.0750  0.5940
 2689SOL     OW19699   1.459   1.679   6.153 -0.5562 -0.0863 -0.4734
 2689SOL    HW119700   1.459   1.585   6.135 -0.0230 -0.3006  0.6324
 2689SOL    HW219701   1.493   1.714   6.071  0.1441 -0.9140 -0.5415
 2690SOL     OW19702   1.821   2.674   7.420 -0.0631 -0.2984  0.2694
 2690SOL    HW119703   1.745   2.686   7.478  0.2190 -1.2322  0.8248
 2690SOL    HW219704   1.851   2.586   7.441 -2.4321 -0.5331  2.7591
 2691SOL     OW19705   3.581   1.563   5.072 -0.5376  0.6032 -0.2288
 2691SOL    HW119706   3.530   1.491   5.109  1.1750  0.0288  1.0359
 2691SOL    HW219707   3.655   1.561   5.132 -0.6281 -1.8180 -0.2103
 2692SOL     OW19708   3.238   1.652   5.604  0.1138 -0.3086 -0.1164
 2692SOL    HW119709   3.225   1.580   5.665  1.0846 -0.7170 -0.3916
 2692SOL    HW219710   3.207   1.726   5.656 -0.0446 -0.8529  0.5529
 2693SOL     OW19711   0.002   0.504   3.783 -0.2645  0.1318 -0.0278
 2693SOL    HW119712   0.083   0.551   3.803 -1.0136  1.2113  0.4415
 2693SOL    HW219713   4.702   0.560   3.715  1.5950  0.7934 -0.4971
 2694SOL     OW19714   4.523   3.005   2.722  0.3347  0.3646  0.2193
 2694SOL    HW119715   4.507   2.923   2.675  3.1689  0.0204 -0.1404
 2694SOL    HW219716   4.582   2.965   2.785  0.0487 -0.3371  0.0395
 2695SOL     OW19717   2.144   1.700   7.857  0.1555 -0.1224  0.9469
 2695SOL    HW119718   2.154   1.735   7.945  2.9633  0.7889  0.2443
 2695SOL    HW219719   2.067   1.751   7.830  0.4621 -0.8583 -1.3386
 2696SOL     OW19720   2.917   3.840   8.005  0.3111 -0.6869 -0.5919
 2696SOL    HW119721   2.968   3.791   7.940  1.1855  1.4178 -1.4984
 2696SOL    HW219722   2.905   3.785   8.082 -0.9304  2.1599  1.2441
 2697SOL     OW19723   3.455   0.481   8.004 -0.4033 -0.3970  0.3429
 2697SOL    HW119724   3.469   0.535   7.926  1.8372 -0.8948  0.4069
 2697SOL    HW219725   3.523   0.414   8.004  2.7607  2.8697 -1.0914
 2698SOL     OW19726   0.143   1.710   7.454  0.5800 -0.3199  0.3958
 2698SOL    HW119727   0.148   1.745   7.364 -0.5262 -1.1984 -0.0080
 2698SOL    HW219728   0.051   1.682   7.447  1.1270 -2.0363  0.1572
 2699SOL     OW19729   2.583   2.408  15.066  0.1437  0.1320 -0.7802
 2699SOL    HW119730   2.648   2.359  15.015 -0.1907  1.4407 -2.4788
 2699SOL    HW219731   2.580   2.355  15.145  3.0718  0.7873 -0.2393
 2700SOL     OW19732   1.350   3.040   3.989 -0.1320  0.1866  0.5614
 2700SOL    HW119733   1.354   2.960   4.041  0.4503  0.0032  0.2331
 2700SOL    HW219734   1.393   3.008   3.909 -1.8407  0.5513 -0.4935
 2701SOL     OW19735   2.429   2.157   5.704  0.3358  0.5935 -0.0641
 2701SOL    HW119736   2.381   2.185   5.783  1.6780  0.6726  0.7213
 2701SOL    HW219737   2.362   2.094   5.678 -1.2671  1.4992  1.8422
 2702SOL     OW19738   0.503   0.688  12.697  0.2591 -0.0389 -0.2467
 2702SOL    HW119739   0.563   0.621  12.730  0.1955 -0.3887 -0.8403
 2702SOL    HW219740   0.423   0.637  12.687 -0.8332  1.6144 -0.0014
 2703SOL     OW19741   4.258   0.148   1.324 -0.0593 -0.5236 -0.6082
 2703SOL    HW119742   4.247   0.086   1.252 -0.7151 -2.1871  0.9194
 2703SOL    HW219743   4.217   0.227   1.289 -0.5249 -0.9247 -0.9598
 2704SOL     OW19744   0.633   4.099   4.881  0.1458  0.1946 -0.1369
 2704SOL    HW119745   0.567   4.095   4.950  1.3205  1.2672  1.0289
 2704SOL    HW219746   0.713   4.094   4.933 -0.1953  0.1479  0.3774
 2705SOL     OW19747   0.116   2.808  13.618 -0.1876 -0.1636 -0.6925
 2705SOL    HW119748   0.081   2.863  13.548 -1.5565 -0.9028 -0.5781
 2705SOL    HW219749   0.127   2.877  13.684  0.6289 -2.0694  1.1617
 2706SOL     OW19750   0.842   3.064  10.649 -0.1897 -0.2526  0.1824
 2706SOL    HW119751   0.832   2.980  10.605  0.9759 -0.2340 -0.1289
 2706SOL    HW219752   0.869   3.041  10.738  0.3192  3.2875  0.9641
 2707SOL     OW19753   3.941   1.494   4.902  0.4595  0.2602  0.1736
 2707SOL    HW119754   3.997   1.571   4.888 -0.8696  1.1112 -0.4812
 2707SOL    HW219755   3.983   1.422   4.855 -0.1135 -0.3326  0.5675
 2708SOL     OW19756   2.007   2.236   5.799 -0.6906 -0.1989  0.0902
 2708SOL    HW119757   1.948   2.260   5.871 -1.8095 -0.4392 -0.7481
 2708SOL    HW219758   2.089   2.209   5.839 -1.2444  0.0302  1.3713
 2709SOL     OW19759   3.758   0.063  13.238  0.4443 -0.5641 -0.1430
 2709SOL    HW119760   3.841   0.024  13.267  0.2169  0.2819  1.6606
 2709SOL    HW219761   3.786   0.153  13.259 -0.3479 -0.3922  0.1794
 2710SOL     OW19762   2.282   1.689   6.482 -0.0690 -0.4500 -0.1521
 2710SOL    HW119763   2.359   1.727   6.440 -0.7406  1.5241  0.4325
 2710SOL    HW219764   2.296   1.712   6.573 -0.0764  1.7317 -0.6989
 2711SOL     OW19765   2.006   2.411   7.081 -0.0325  0.2464 -0.1613
 2711SOL    HW119766   2.098   2.386   7.072 -0.4762 -1.1031 -0.9302
 2711SOL    HW219767   2.015   2.499   7.045 -0.6522 -0.3393 -1.7243
 2712SOL     OW19768   2.566   2.677   8.355 -0.5384  0.0873  0.1970
 2712SOL    HW119769   2.618   2.733   8.413  1.2077 -1.7354  0.4094
 2712SOL    HW219770   2.600   2.589   8.372 -0.3076  0.3369  1.0286
 2713SOL     OW19771   4.420   1.993   7.713 -0.3299  0.6252  0.7325
 2713SOL    HW119772   4.403   2.084   7.738  2.5728  1.9636 -2.2135
 2713SOL    HW219773   4.516   1.993   7.719 -0.3298 -3.7193  0.9280
 2714SOL     OW19774   4.083   4.687   2.789 -0.1512  0.3929  0.3023
 2714SOL    HW119775   4.010   4.632   2.818 -0.5941  1.5395  1.3317
 2714SOL    HW219776   4.053   0.012   2.723 -0.2229  0.6568  0.5847
 2715SOL     OW19777   1.500   0.752   2.969 -0.4707 -0.1548 -0.2354
 2715SOL    HW119778   1.462   0.763   3.056  0.8093 -1.1254  0.4592
 2715SOL    HW219779   1.533   0.841   2.954  1.6755 -0.7209  1.0084
 2716SOL     OW19780   2.319   0.804  13.130  1.0433  0.4762 -0.1954
 2716SOL    HW119781   2.302   0.713  13.153  0.1946  0.7993  0.4312
 2716SOL    HW219782   2.237   0.835  13.169  1.4310  2.0478 -0.6442
 2717SOL     OW19783   2.772   0.334   7.964  0.1132 -0.7442  0.5318
 2717SOL    HW119784   2.761   0.241   7.985  3.1091 -1.3361 -0.4731
 2717SOL    HW219785   2.763   0.379   8.048  1.3626  0.1393  0.1992
 2718SOL     OW19786   3.943   4.077   7.451  0.2920  0.4391  0.0010
 2718SOL    HW119787   3.948   4.158   7.400 -0.5700  1.5079  1.6035
 2718SOL    HW219788   3.884   4.024   7.398  1.1123 -0.2047 -0.2550
 2719SOL     OW19789   0.936   1.486   5.599  0.2091  0.4171 -0.1833
 2719SOL    HW119790   0.933   1.578   5.627  0.9338  0.9430 -1.8378
 2719SOL    HW219791   1.007   1.480   5.535 -0.2518 -0.1808 -0.6340
 2720SOL     OW19792   3.441   3.731   4.741  0.1478  0.2354 -0.0113
 2720SOL    HW119793   3.464   3.820   4.715  3.4729 -0.7003 -0.2452
 2720SOL    HW219794   3.514   3.706   4.797  1.6855  1.8049 -1.3174
 2721SOL     OW19795   2.716   0.760   7.193 -0.1406  0.6759  0.2772
 2721SOL    HW119796   2.729   0.726   7.282 -1.0133 -1.9599 -0.6022
 2721SOL    HW219797   2.766   0.841   7.202 -0.6273  1.0194 -0.1380
 2722SOL     OW19798   0.164   1.615   5.049  0.1839  0.0289 -0.3919
 2722SOL    HW119799   0.088   1.656   5.089  1.0129  1.2440 -0.0431
 2722SOL    HW219800   0.122   1.564   4.980  0.6677 -1.2764  0.2641
 2723SOL     OW19801   2.331   1.092   9.094 -0.1175  0.1681  0.5913
 2723SOL    HW119802   2.382   1.073   9.172 -1.7507 -0.9792  1.3666
 2723SOL    HW219803   2.316   1.000   9.076 -1.1964  0.5370 -0.3938
 2724SOL     OW19804   1.177   2.818  11.859  0.3646  0.4893  0.4425
 2724SOL    HW119805   1.206   2.903  11.890 -0.0064  0.2710  1.3596
 2724SOL    HW219806   1.210   2.827  11.769 -0.4858 -1.8089 -0.1034
 2725SOL     OW19807   3.687   1.022   7.505  0.0891 -0.0984 -0.2130
 2725SOL    HW119808   3.612   1.012   7.565  0.0289  0.2187 -0.2377
 2725SOL    HW219809   3.664   1.106   7.465  0.1229  0.2282  0.4587
 2726SOL     OW19810   2.355   1.552   3.313  0.2187  0.3026  0.0144
 2726SOL    HW119811   2.350   1.624   3.250  0.7389  0.4899  0.1920
 2726SOL    HW219812   2.264   1.548   3.343  0.1552 -1.5107 -0.4448
 2727SOL     OW19813   4.332   3.470   9.371 -0.1766  0.3685  0.2375
 2727SOL    HW119814   4.253   3.492   9.420  0.1976  0.3653  0.8440
 2727SOL    HW219815   4.289   3.490   9.287 -0.0963 -1.0217 -0.1309
 2728SOL     OW19816   4.016   3.706   3.098  0.5660 -0.3152  0.0255
 2728SOL    HW119817   4.062   3.758   3.164 -0.1835 -1.0151  1.1116
 2728SOL    HW219818   3.931   3.701   3.142  0.0314 -1.7092 -1.1657
 2729SOL     OW19819   3.137   0.406   7.872  0.0185  0.0539 -0.2690
 2729SOL    HW119820   3.158   0.317   7.899 -1.1848 -0.7888 -2.1032
 2729SOL    HW219821   3.224   0.443   7.883  0.7821 -2.0912  0.8261
 2730SOL     OW19822   0.500   0.222   0.668 -0.6951 -0.0381  0.0374
 2730SOL    HW119823   0.536   0.281   0.734 -2.0621  0.3782  0.4056
 2730SOL    HW219824   0.535   0.261   0.588  0.3520  0.7491  0.8766
 2731SOL     OW19825   2.307   0.137   6.133  0.1071 -0.0157  0.1984
 2731SOL    HW119826   2.308   0.067   6.198 -0.8849 -0.4261 -0.2359
 2731SOL    HW219827   2.220   0.134   6.094  0.1753 -1.6404  0.1736
 2732SOL     OW19828   1.401   2.897   6.181  0.0909 -0.1249 -0.3397
 2732SOL    HW119829   1.347   2.974   6.202  2.2003  1.8944 -2.3006
 2732SOL    HW219830   1.344   2.829   6.217 -1.7153  1.1642 -0.7525
 2733SOL     OW19831   2.995   3.377  15.755 -0.0403  0.5336 -0.2050
 2733SOL    HW119832   2.953   3.395  15.839 -0.0995  2.9473 -0.7552
 2733SOL    HW219833   2.959   3.446  15.699 -1.6625 -1.0048 -1.0441
 2734SOL     OW19834   2.716   0.882   8.863  0.1816  0.3991  0.3967
 2734SOL    HW119835   2.664   0.850   8.937 -0.4596 -2.0452 -1.1302
 2734SOL    HW219836   2.651   0.885   8.794 -0.2353  2.3519  0.8748
 2735SOL     OW19837   1.393   0.774   6.419 -0.2469 -0.6138  0.0990
 2735SOL    HW119838   1.352   0.708   6.475  0.3802 -0.9806  0.1315
 2735SOL    HW219839   1.485   0.754   6.438  0.4657  1.0957 -1.6312
 2736SOL     OW19840   0.957   4.546   5.702 -0.0357 -0.4781  0.2422
 2736SOL    HW119841   1.021   4.551   5.632 -0.2261 -1.3395  0.0055
 2736SOL    HW219842   0.888   4.594   5.657  1.9545  0.8060 -1.4524
 2737SOL     OW19843   3.611   0.523   1.558 -0.4144 -0.2638  0.7435
 2737SOL    HW119844   3.532   0.498   1.510  0.5641 -0.0442 -0.9712
 2737SOL    HW219845   3.678   0.533   1.492 -1.4782  0.5862 -0.2033
 2738SOL     OW19846   3.162   1.047  11.670  0.6535 -0.1531  0.4232
 2738SOL    HW119847   3.209   0.986  11.726 -0.4892 -1.7267 -0.3550
 2738SOL    HW219848   3.195   1.036  11.581 -0.9661  1.6149 -0.4233
 2739SOL     OW19849   1.858   0.629  13.340  0.1883  0.2547 -0.5527
 2739SOL    HW119850   1.939   0.577  13.349 -0.1342 -0.1919 -0.2444
 2739SOL    HW219851   1.799   0.592  13.405 -1.1666 -0.6467 -2.2755
 2740SOL     OW19852   3.733   1.439   1.013 -0.4708 -0.4846 -0.0938
 2740SOL    HW119853   3.705   1.473   0.928  0.8429 -0.9315 -0.6981
 2740SOL    HW219854   3.662   1.376   1.022  1.0127 -2.2310 -0.6041
 2741SOL     OW19855   2.546   2.889   5.287  0.3124  0.8036  0.9243
 2741SOL    HW119856   2.534   2.829   5.214  1.3159  1.6319  0.0791
 2741SOL    HW219857   2.503   2.844   5.360 -3.9189  1.6552 -1.0609
 2742SOL     OW19858   2.230   0.844   6.948  0.3994  0.0506  0.1767
 2742SOL    HW119859   2.277   0.894   7.014 -1.4614  0.7846  0.9580
 2742SOL    HW219860   2.266   0.755   6.954 -0.7332 -0.2688  2.3496
 2743SOL     OW19861   3.352   0.387  16.677  0.2439  0.0425  0.0407
 2743SOL    HW119862   3.354   0.399  16.772 -2.3701 -1.0019  0.2433
 2743SOL    HW219863   3.425   0.444  16.652 -0.5714 -0.3731 -3.2534
 2744SOL     OW19864   2.125   4.510   2.377 -0.3785 -0.2752 -0.2664
 2744SOL    HW119865   2.176   4.548   2.306  0.4828  0.6391  0.8297
 2744SOL    HW219866   2.072   4.436   2.348 -0.0640 -0.1202 -1.2423
 2745SOL     OW19867   2.974   2.554   3.822 -0.9493  0.1402  0.0792
 2745SOL    HW119868   3.003   2.634   3.779 -1.1625  0.7797  1.1060
 2745SOL    HW219869   2.891   2.587   3.857 -0.9085  0.3862 -0.0581
 2746SOL     OW19870   4.509   1.588   6.332 -0.6545 -0.2529 -0.4343
 2746SOL    HW119871   4.506   1.555   6.422  1.7924 -0.7183 -0.5185
 2746SOL    HW219872   4.417   1.584   6.308 -0.9037 -1.9855  0.7910
 2747SOL     OW19873   4.420   3.256   9.072 -0.0065 -0.0248  0.2962
 2747SOL    HW119874   4.367   3.313   9.016 -0.1574 -0.1449  0.3191
 2747SOL    HW219875   4.488   3.315   9.104 -1.5975  2.0048 -0.0542
 2748SOL     OW19876   3.060   2.338   8.830  0.0364  0.0789 -0.1513
 2748SOL    HW119877   3.094   2.286   8.757 -1.5008 -0.4979 -0.4651
 2748SOL    HW219878   2.969   2.310   8.833  0.5032 -1.3193  0.5130
 2749SOL     OW19879   2.002   0.201  12.361  0.1959  0.5002  0.1721
 2749SOL    HW119880   2.083   0.233  12.401  0.2795  2.4656 -1.6225
 2749SOL    HW219881   2.003   0.109  12.389  2.2602  0.5003  0.1231
 2750SOL     OW19882   4.367   1.286   1.100 -0.1685 -0.1529 -0.3903
 2750SOL    HW119883   4.427   1.277   1.026  0.9684  0.7358  0.4089
 2750SOL    HW219884   4.414   1.234   1.166 -0.1350  2.3852  1.5804
 2751SOL     OW19885   1.585   1.589   9.829 -0.1961  0.0712 -0.0214
 2751SOL    HW119886   1.514   1.551   9.777 -0.1796  0.5812 -0.4133
 2751SOL    HW219887   1.665   1.553   9.790 -0.4292  2.0210 -2.3119
 2752SOL     OW19888   0.478   1.620   7.096  0.5447 -0.0091  0.5278
 2752SOL    HW119889   0.450   1.528   7.099 -1.8893  0.7380  0.4835
 2752SOL    HW219890   0.540   1.622   7.023 -1.5475 -3.9933 -1.3797
 2753SOL     OW19891   2.968   3.599   8.189  0.7040  0.0499  0.2810
 2753SOL    HW119892   2.912   3.583   8.264 -0.3398 -1.3440 -0.7884
 2753SOL    HW219893   2.908   3.565   8.122 -1.2186 -2.6065  3.3761
 2754SOL     OW19894   3.673   2.738  14.474 -0.1187  0.3105  0.3004
 2754SOL    HW119895   3.615   2.691  14.534 -0.1573 -0.0119  0.0157
 2754SOL    HW219896   3.755   2.741  14.523 -0.8176 -1.5192  1.5998
 2755SOL     OW19897   1.568   3.029  17.327 -0.1607 -0.2921 -0.2654
 2755SOL    HW119898   1.645   3.014  17.272  0.3777  0.0001  0.4007
 2755SOL    HW219899   1.578   2.958  17.389 -3.7036 -1.9061 -1.5498
 2756SOL     OW19900   2.075   2.123   3.477  0.2821  0.0417  0.4192
 2756SOL    HW119901   2.016   2.180   3.526  0.2203 -0.9493  1.4898
 2756SOL    HW219902   2.063   2.047   3.534 -3.5409 -0.8665 -1.5605
 2757SOL     OW19903   1.164   2.994  10.142  0.0087 -0.1419  0.1128
 2757SOL    HW119904   1.259   2.983  10.146  0.1238  0.0174 -2.1365
 2757SOL    HW219905   1.150   3.040  10.059 -1.5919  0.0325  0.4808
 2758SOL     OW19906   0.639   1.330  11.134  0.1511  0.1467 -0.0118
 2758SOL    HW119907   0.700   1.332  11.207  0.1590  0.0787 -0.0171
 2758SOL    HW219908   0.568   1.385  11.168 -0.3894  0.3917 -1.5091
 2759SOL     OW19909   4.433   3.535   4.041 -0.3384  0.1671 -0.1035
 2759SOL    HW119910   4.438   3.613   4.096  1.3879 -0.3801  0.5146
 2759SOL    HW219911   4.357   3.486   4.069  0.4398 -0.6597  0.5618
 2760SOL     OW19912   1.662   2.175  11.980 -0.3072 -0.5284 -0.1315
 2760SOL    HW119913   1.704   2.204  12.061  1.0445  2.6935 -2.0006
 2760SOL    HW219914   1.581   2.225  11.989 -1.9719 -2.8722 -2.1422
 2761SOL     OW19915   2.937   0.207   2.235  0.0625  0.4772 -0.4715
 2761SOL    HW119916   3.012   0.157   2.264 -0.7447 -0.4294  0.0564
 2761SOL    HW219917   2.961   0.216   2.143 -0.3965  2.1178 -0.4293
 2762SOL     OW19918   1.985   4.062   7.971  0.2478  0.5902 -0.1492
 2762SOL    HW119919   1.903   4.032   8.009 -0.1981  1.1619 -0.6635
 2762SOL    HW219920   2.039   3.989   7.940  0.2155  0.5515 -0.1148
 2763SOL     OW19921   0.900   2.549   0.744 -0.4229  0.3167 -0.3107
 2763SOL    HW119922   0.931   2.465   0.709  1.0775  0.2835  1.1177
 2763SOL    HW219923   0.960   2.558   0.818 -1.6763 -2.1753  1.0387
 2764SOL     OW19924   3.013   1.069   5.464  0.0401  0.3806 -0.4875
 2764SOL    HW119925   2.937   1.030   5.507 -1.0203  2.0107 -0.8778
 2764SOL    HW219926   3.057   0.997   5.419  2.4016  1.5564 -0.0853
 2765SOL     OW19927   4.402   4.371   2.967  0.2666 -0.7911  0.1548
 2765SOL    HW119928   4.498   4.374   2.960  0.1042  1.0869 -1.2621
 2765SOL    HW219929   4.393   4.295   2.911 -0.7847  1.1123 -2.2425
 2766SOL     OW19930   2.574   3.975  13.617  1.0487  0.3036  0.2209
 2766SOL    HW119931   2.572   4.011  13.706  1.4994  1.9003 -0.4325
 2766SOL    HW219932   2.667   3.967  13.593  0.5058 -2.2962 -1.0827
 2767SOL     OW19933   0.593   3.776   7.436 -0.0278 -0.2092  0.3140
 2767SOL    HW119934   0.547   3.838   7.492 -1.0225 -1.2092  0.6139
 2767SOL    HW219935   0.614   3.705   7.496 -1.1310 -2.3092 -1.7514
 2768SOL     OW19936   2.173   1.051  12.261  0.4096 -0.3018  0.0961
 2768SOL    HW119937   2.159   1.137  12.300 -1.1615 -1.1114  1.2921
 2768SOL    HW219938   2.232   1.065  12.186  1.0355  0.3403  0.7086
 2769SOL     OW19939   3.143   4.483   6.373  0.2731 -0.3989 -0.6327
 2769SOL    HW119940   3.136   4.449   6.283 -0.6632 -0.9913 -0.3399
 2769SOL    HW219941   3.074   4.549   6.372  0.6246 -0.0252 -0.1579
 2770SOL     OW19942   2.404   0.332  16.972  0.5595 -0.0183  0.7079
 2770SOL    HW119943   2.374   0.396  17.036 -2.9090 -1.2414  0.3155
 2770SOL    HW219944   2.484   0.374  16.939 -1.1336 -0.6277 -4.2079
 2771SOL     OW19945   4.550   1.157   6.528 -0.1910 -0.1621 -0.1970
 2771SOL    HW119946   4.603   1.149   6.608 -2.3419 -1.9894  1.0514
 2771SOL    HW219947   4.591   1.226   6.476 -0.8772  0.0509 -0.4515
 2772SOL     OW19948   2.132   2.579  12.790 -0.0298  0.4498  0.1075
 2772SOL    HW119949   2.108   2.665  12.757 -1.6859 -0.0978 -0.1015
 2772SOL    HW219950   2.207   2.550  12.737 -0.7721 -3.1278  0.9997
 2773SOL     OW19951   4.176   3.941   8.164 -0.2135 -0.4434 -0.0187
 2773SOL    HW119952   4.117   3.985   8.102  0.0274  0.3165  0.2893
 2773SOL    HW219953   4.114   3.902   8.225 -2.2565  1.8011 -0.6542
 2774SOL     OW19954   4.446   4.196   5.785  0.0796  0.5010  0.4804
 2774SOL    HW119955   4.437   4.287   5.812 -1.4761  0.1128  1.2384
 2774SOL    HW219956   4.409   4.150   5.860 -1.4959  2.8244  1.1453
 2775SOL     OW19957   3.146   3.155   2.297  0.2263  0.2077 -0.0532
 2775SOL    HW119958   3.190   3.096   2.237  1.0325 -0.0091  0.7535
 2775SOL    HW219959   3.056   3.130   2.274 -0.2547  0.8078  1.1418
 2776SOL     OW19960   0.405   2.950   3.198 -1.0780 -0.1502  0.0567
 2776SOL    HW119961   0.403   2.934   3.292  0.8895 -0.3503  0.0732
 2776SOL    HW219962   0.454   3.032   3.208  1.5761 -1.7699  0.5156
 2777SOL     OW19963   1.645   1.702  11.733  0.6537 -0.2190  0.3109
 2777SOL    HW119964   1.551   1.710  11.745  0.9649  2.1570  1.1553
 2777SOL    HW219965   1.656   1.608  11.716  2.9140  0.0085  0.4342
 2778SOL     OW19966   3.370   0.612   4.735 -0.7942  0.4770 -0.5803
 2778SOL    HW119967   3.367   0.563   4.652  0.1647  1.7799 -1.3820
 2778SOL    HW219968   3.383   0.534   4.788 -0.4531  1.1954  0.3768
 2779SOL     OW19969   1.715   3.930   7.332  0.3420  0.1921  0.2592
 2779SOL    HW119970   1.690   3.999   7.393  0.8375  1.6426 -1.1735
 2779SOL    HW219971   1.663   3.973   7.263  0.8080 -0.4858 -0.5124
 2780SOL     OW19972   4.153   3.437  15.243 -0.8834  0.0612  0.2319
 2780SOL    HW119973   4.213   3.363  15.253  0.4870  1.3683  1.7497
 2780SOL    HW219974   4.213   3.512  15.246 -1.2397  0.3394  0.3931
 2781SOL     OW19975   2.632   2.684  12.345  0.3142 -0.2126  0.4685
 2781SOL    HW119976   2.564   2.632  12.388 -0.1164 -0.5986 -0.6860
 2781SOL    HW219977   2.571   2.748  12.308 -0.9488 -1.2629  0.7316
 2782SOL     OW19978   0.333   1.045   5.509  0.6448 -0.8448 -0.5078
 2782SOL    HW119979   0.394   1.117   5.527 -0.0464  0.1173 -1.9479
 2782SOL    HW219980   0.293   1.055   5.595  0.7287  0.0467 -0.5618
 2783SOL     OW19981   0.415   2.884   8.882  0.3508 -0.2785 -0.4404
 2783SOL    HW119982   0.378   2.827   8.815 -0.6464  0.9964 -0.9499
 2783SOL    HW219983   0.339   2.925   8.923  1.6744 -0.8184  2.5738
 2784SOL     OW19984   2.643   4.052   0.905 -0.7197  0.1803  0.1450
 2784SOL    HW119985   2.703   4.003   0.961 -0.7959  2.8896  2.6025
 2784SOL    HW219986   2.558   4.016   0.931 -0.1473 -0.4003  1.2211
 2785SOL     OW19987   3.732   4.680   0.871  0.2112  0.1859 -0.1168
 2785SOL    HW119988   3.788   4.608   0.899 -0.0804  0.2556  0.6396
 2785SOL    HW219989   3.662   4.644   0.816  0.7157 -0.4405 -0.3494
 2786SOL     OW19990   0.986   4.162   3.183  0.1504 -0.1278 -0.4178
 2786SOL    HW119991   0.938   4.081   3.166  1.0146 -0.7174 -0.0761
 2786SOL    HW219992   1.066   4.148   3.132 -0.4051 -0.7021 -1.1178
 2787SOL     OW19993   1.980   3.784   9.452 -0.0984  0.4222 -0.0624
 2787SOL    HW119994   1.965   3.705   9.504 -0.7701  1.1818  0.8916
 2787SOL    HW219995   2.004   3.742   9.370  2.3671  0.5517  0.6031
 2788SOL     OW19996   1.135   3.506  12.810  0.1923 -0.2418  0.4416
 2788SOL    HW119997   1.101   3.430  12.762  0.8032 -0.7346  0.7930
 2788SOL    HW219998   1.139   3.471  12.899 -1.4324 -0.3759  0.4534
 2789SOL     OW19999   0.514   2.103  17.104  0.3954 -0.8959 -0.1782
 2789SOL    HW120000   0.595   2.100  17.155 -0.2200 -1.0622  0.7680
 2789SOL    HW220001   0.468   2.027  17.140  1.5396 -0.7594  1.5515
 2790SOL     OW20002   3.531   1.161   7.952 -0.0893 -0.1123  0.1549
 2790SOL    HW120003   3.576   1.169   7.867 -0.5755  0.3200 -0.0615
 2790SOL    HW220004   3.596   1.208   8.004  0.4048 -0.8431  0.2037
 2791SOL     OW20005   1.311   4.174  12.493  0.7240 -0.1154 -0.5999
 2791SOL    HW120006   1.360   4.158  12.412 -1.7821  0.7346 -2.2574
 2791SOL    HW220007   1.382   4.176  12.557 -1.4688 -1.6923  1.8540
 2792SOL     OW20008   2.576   0.416   5.652 -0.3967 -0.6007  0.0007
 2792SOL    HW120009   2.613   0.380   5.733  2.3095 -2.6440 -2.1444
 2792SOL    HW220010   2.642   0.385   5.590  0.1470 -0.0258  0.2902
 2793SOL     OW20011   0.411   0.889   6.360 -0.1278 -0.3069 -0.1762
 2793SOL    HW120012   0.471   0.954   6.397 -1.0134  1.1324 -1.2835
 2793SOL    HW220013   0.332   0.897   6.413 -1.4878  1.3534 -2.4552
 2794SOL     OW20014   1.662   4.035   0.341 -0.0340  0.5260 -0.0601
 2794SOL    HW120015   1.754   4.052   0.322 -0.2430  1.0025 -0.6282
 2794SOL    HW220016   1.660   3.947   0.380  1.0962  1.0336  1.1176
 2795SOL     OW20017   0.346   2.750   3.418 -0.4237 -0.5650 -0.2571
 2795SOL    HW120018   0.406   2.731   3.346  0.9581 -0.3074  0.8271
 2795SOL    HW220019   0.381   2.832   3.452  1.3838 -1.0742 -0.8801
 2796SOL     OW20020   3.492   2.034   4.975  0.0851  0.6165  0.1007
 2796SOL    HW120021   3.471   1.975   4.903 -0.2889  1.4006 -0.4422
 2796SOL    HW220022   3.582   2.059   4.955 -0.2083  2.8549  1.5184
 2797SOL     OW20023   0.316   3.228   7.676 -0.6635  0.6360  0.3989
 2797SOL    HW120024   0.224   3.237   7.698 -0.9129 -1.4423  0.2156
 2797SOL    HW220025   0.292   3.196   7.589 -1.0123 -0.1990  0.8050
 2798SOL     OW20026   3.970   4.283   4.243  0.0715  0.6595  0.0818
 2798SOL    HW120027   3.985   4.296   4.336 -0.0928 -0.9768  0.3207
 2798SOL    HW220028   4.062   4.292   4.218 -0.0171 -1.7582 -1.0436
 2799SOL     OW20029   3.817   4.167   1.011 -0.0323 -0.5339  0.5226
 2799SOL    HW120030   3.786   4.200   0.927 -0.0150  0.5487  0.9420
 2799SOL    HW220031   3.903   4.209   1.017 -0.2105  0.0065 -0.7720
 2800SOL     OW20032   0.245   3.873   5.499 -0.3087  0.1222 -0.2210
 2800SOL    HW120033   0.170   3.848   5.445 -0.7761  1.7923 -0.3247
 2800SOL    HW220034   0.301   3.857   5.423  0.3153 -0.5237  0.3743
 2801SOL     OW20035   0.173   3.611   6.866 -0.4069  0.1526  0.0700
 2801SOL    HW120036   0.252   3.594   6.916  0.1875 -2.3473 -1.6901
 2801SOL    HW220037   0.149   3.700   6.891 -2.4219 -1.0435  2.4163
 2802SOL     OW20038   3.022   0.106   8.391  0.4961 -0.0407  0.4240
 2802SOL    HW120039   3.044   0.199   8.380 -1.1397  0.4407  1.2025
 2802SOL    HW220040   3.088   0.072   8.452 -1.2291  0.4035  2.5517
 2803SOL     OW20041   0.212   1.365  12.023  0.2211 -0.9361  0.2238
 2803SOL    HW120042   0.180   1.313  12.097 -0.8978  0.4037  0.6616
 2803SOL    HW220043   0.184   1.455  12.039  0.2049 -0.6384 -1.5021
 2804SOL     OW20044   1.255   0.049  16.500 -0.3791 -0.4115  0.2605
 2804SOL    HW120045   1.259   4.694  16.528 -3.0415 -0.8843 -0.9635
 2804SOL    HW220046   1.317   0.090  16.561 -2.1099  2.5326  0.0254
 2805SOL     OW20047   3.036   4.711   6.036 -0.2393 -0.1416 -0.0688
 2805SOL    HW120048   2.952   0.018   6.044  0.4109  1.2131 -0.6846
 2805SOL    HW220049   3.103   0.032   6.073  0.6204 -2.6127  2.2912
 2806SOL     OW20050   3.505   4.579   6.949 -0.7716  0.2467 -0.2800
 2806SOL    HW120051   3.509   4.540   7.036 -1.1441  0.4767 -0.1624
 2806SOL    HW220052   3.465   4.507   6.901  1.1132 -0.2025 -1.1944
 2807SOL     OW20053   0.903   1.820   9.341 -0.0374  0.0991 -0.0849
 2807SOL    HW120054   0.942   1.749   9.291  1.5614  0.3435  0.8266
 2807SOL    HW220055   0.972   1.886   9.348  1.0461 -1.1896  1.1330
 2808SOL     OW20056   3.453   1.110  10.256  0.6053  0.2114 -0.0865
 2808SOL    HW120057   3.487   1.191  10.294  0.9724  0.3480 -0.6924
 2808SOL    HW220058   3.412   1.140  10.175 -0.2147 -1.5723 -0.3335
 2809SOL     OW20059   2.089   4.194  14.684  0.0986 -0.1216 -0.4650
 2809SOL    HW120060   2.081   4.287  14.666  0.5035 -0.3140 -1.6609
 2809SOL    HW220061   2.008   4.162  14.644 -0.0164  1.4678 -1.5243
 2810SOL     OW20062   0.823   0.808   4.374  0.8670  0.1993  0.1312
 2810SOL    HW120063   0.797   0.900   4.377  0.3508  0.0848 -0.7798
 2810SOL    HW220064   0.878   0.788   4.450 -0.1436 -1.4019  0.4310
 2811SOL     OW20065   2.365   4.008   7.032 -0.1111 -0.0278 -0.3157
 2811SOL    HW120066   2.356   4.101   7.050  0.5752  0.3108 -1.7511
 2811SOL    HW220067   2.275   3.978   7.040  0.5059 -1.4599  1.5054
 2812SOL     OW20068   2.398   2.778   5.478  0.2329  0.2981 -0.3917
 2812SOL    HW120069   2.312   2.745   5.505  0.3856  1.1473  1.1086
 2812SOL    HW220070   2.443   2.694   5.465 -1.9582 -0.3444 -3.7551
 2813SOL     OW20071   0.980   4.067   2.434  0.2065 -0.4632  0.0377
 2813SOL    HW120072   0.926   4.117   2.494  0.3387 -0.7113  0.3612
 2813SOL    HW220073   1.012   4.134   2.373 -0.6928  0.1446  0.2464
 2814SOL     OW20074   3.478   2.384   2.910  0.2042 -0.0733  0.0948
 2814SOL    HW120075   3.507   2.402   2.820 -0.7998 -1.3606 -0.4939
 2814SOL    HW220076   3.426   2.463   2.922 -0.5019 -0.1988 -2.0804
 2815SOL     OW20077   2.804   4.664   8.553 -0.0566 -0.3539 -0.0570
 2815SOL    HW120078   2.881   4.673   8.497  0.0138  0.3575  0.1528
 2815SOL    HW220079   2.844   4.605   8.616 -0.5007 -1.4122 -0.7628
 2816SOL     OW20080   2.754   2.755   6.432 -0.1285  0.0071 -0.3626
 2816SOL    HW120081   2.708   2.821   6.380  0.7125  0.0121 -1.0876
 2816SOL    HW220082   2.688   2.727   6.496 -0.0572  1.6895  0.4353
 2817SOL     OW20083   2.312   3.178   1.146 -0.2459  0.3411 -0.4713
 2817SOL    HW120084   2.293   3.096   1.101 -0.1745  0.1576 -0.1674
 2817SOL    HW220085   2.408   3.184   1.149 -0.2840  0.9154 -0.2858
 2818SOL     OW20086   2.280   1.583  14.955  0.7111 -0.4251 -0.6363
 2818SOL    HW120087   2.227   1.516  14.912 -1.8627  1.1204  0.1331
 2818SOL    HW220088   2.302   1.640  14.881 -3.4497  1.7301 -0.2393
 2819SOL     OW20089   3.162   0.465   7.278 -0.4736 -0.3186 -0.3675
 2819SOL    HW120090   3.103   0.516   7.333  0.2861 -1.0093  1.1083
 2819SOL    HW220091   3.173   0.382   7.324 -1.5248 -1.0401 -1.4165
 2820SOL     OW20092   1.530   0.633   2.138  0.3154 -0.8165  0.1088
 2820SOL    HW120093   1.460   0.638   2.204  1.0281 -2.1974  0.9540
 2820SOL    HW220094   1.479   0.627   2.057  0.0763  0.3253  0.1665
 2821SOL     OW20095   3.173   1.422  17.003 -0.4550  0.2414 -0.5132
 2821SOL    HW120096   3.199   1.330  16.999  1.4523  0.8236 -1.6261
 2821SOL    HW220097   3.250   1.456  17.049 -0.1476 -0.4568 -0.5158
 2822SOL     OW20098   4.017   4.338   5.874 -0.5030 -0.7202 -0.0449
 2822SOL    HW120099   4.049   4.251   5.899 -1.8620 -1.2451 -0.1614
 2822SOL    HW220100   4.096   4.388   5.892 -1.1560  0.2887 -0.0019
 2823SOL     OW20101   2.098   3.952   4.012 -0.6018 -0.0361  0.2222
 2823SOL    HW120102   2.061   3.927   4.096 -1.1078  0.3154  0.0974
 2823SOL    HW220103   2.039   4.018   3.976 -1.1680 -0.3716  0.5345
 2824SOL     OW20104   1.317   1.482   2.151  0.7117 -1.0399  0.0548
 2824SOL    HW120105   1.272   1.548   2.204  0.1726 -0.8000 -0.7134
 2824SOL    HW220106   1.357   1.428   2.220  0.1548 -1.2936  0.1793
 2825SOL     OW20107   0.997   2.791   5.028 -0.2320 -0.3256  0.2173
 2825SOL    HW120108   0.922   2.844   5.058  0.7220  0.1614  1.7459
 2825SOL    HW220109   0.953   2.706   5.031 -1.3957  0.3540  3.0091
 2826SOL     OW20110   1.106   4.065   5.379 -0.1642  0.2945 -0.0330
 2826SOL    HW120111   1.170   4.028   5.440 -0.2133 -2.1524 -1.4762
 2826SOL    HW220112   1.026   4.066   5.431 -0.4794 -0.7780 -0.5022
 2827SOL     OW20113   4.571   3.279   6.995 -0.0199  0.4300 -0.2782
 2827SOL    HW120114   4.555   3.295   6.902 -1.5997 -0.5650 -0.1677
 2827SOL    HW220115   4.636   3.340   7.029  1.3965  0.0234 -2.2578
 2828SOL     OW20116   1.624   0.617  12.832  0.1820  0.2614 -0.2520
 2828SOL    HW120117   1.586   0.555  12.769 -0.5315  0.7822 -0.3348
 2828SOL    HW220118   1.571   0.588  12.906 -0.7088  0.5674 -0.7625
 2829SOL     OW20119   4.043   4.523  15.219 -0.0458  0.3539  0.0218
 2829SOL    HW120120   4.064   4.444  15.170 -0.7041 -1.3515  2.5078
 2829SOL    HW220121   4.052   4.592  15.153  1.6210  0.8334  0.7614
 2830SOL     OW20122   2.998   1.604   5.404 -0.1638  0.5516 -0.1073
 2830SOL    HW120123   2.991   1.514   5.436 -0.5371  0.8062  0.5252
 2830SOL    HW220124   3.087   1.623   5.435  0.3163 -0.5530 -0.8172
 2831SOL     OW20125   0.279   3.171  17.636  0.1757  0.4005  0.1579
 2831SOL    HW120126   0.223   3.184  17.712 -2.2105 -2.0504 -1.1945
 2831SOL    HW220127   0.300   3.260  17.607 -2.6095  1.3162  0.9555
 2832SOL     OW20128   0.262   0.177   2.025 -0.6288 -0.2726 -0.6913
 2832SOL    HW120129   0.247   0.242   1.955 -0.8495 -1.1874 -1.4927
 2832SOL    HW220130   0.355   0.160   2.014 -0.6877  0.1476 -1.8525
 2833SOL     OW20131   0.716   1.310   5.689 -0.0686 -0.0296  0.7003
 2833SOL    HW120132   0.766   1.231   5.672 -1.5856 -0.5469 -1.3345
 2833SOL    HW220133   0.787   1.372   5.670  1.2940 -0.8245  3.2212
 2834SOL     OW20134   3.844   3.174   3.113  0.3647  0.1507 -0.0235
 2834SOL    HW120135   3.808   3.162   3.201  1.8928 -2.7097  0.1950
 2834SOL    HW220136   3.937   3.177   3.135 -0.0250  0.4174  1.5846
 2835SOL     OW20137   0.476   4.160  12.438  0.4096  0.2924 -0.3160
 2835SOL    HW120138   0.401   4.132  12.491 -0.8247  2.0168 -1.1766
 2835SOL    HW220139   0.434   4.189  12.357 -1.5278  1.0969  0.9952
 2836SOL     OW20140   3.521   4.652  14.535 -0.4539 -0.4399 -0.4406
 2836SOL    HW120141   3.553   4.596  14.605 -0.7690 -0.8720 -0.6464
 2836SOL    HW220142   3.487   4.729  14.581 -0.1753 -0.6811  0.1570
 2837SOL     OW20143   2.664   0.329  10.796  0.1589  0.5470  0.3959
 2837SOL    HW120144   2.657   0.279  10.714  1.0036 -1.9823  1.8501
 2837SOL    HW220145   2.623   0.265  10.855  1.4316 -0.3580  0.2997
 2838SOL     OW20146   1.040   0.501   5.987  0.1248  0.2370 -0.2753
 2838SOL    HW120147   1.014   0.516   5.896  4.0310 -2.4927 -1.8299
 2838SOL    HW220148   0.975   0.554   6.033  0.0059  0.0452 -0.2251
 2839SOL     OW20149   0.365   2.281  17.428  0.0104  0.4101  0.4374
 2839SOL    HW120150   0.296   2.277  17.494 -0.4182  1.4122  0.0489
 2839SOL    HW220151   0.450   2.275  17.471  0.8175 -0.3049 -1.2576
 2840SOL     OW20152   4.670   3.363  10.006  0.1019 -0.9067 -0.5291
 2840SOL    HW120153   4.627   3.398  10.084  0.7388  0.5987 -0.8467
 2840SOL    HW220154   0.017   3.409   9.997 -0.1310  0.0246  2.1137
 2841SOL     OW20155   1.103   2.166   2.556  0.7877 -0.1204  0.8070
 2841SOL    HW120156   1.033   2.143   2.494  1.7419 -2.5686  0.6639
 2841SOL    HW220157   1.171   2.101   2.539  0.8065  0.4145 -1.2570
 2842SOL     OW20158   2.049   1.653   9.983 -0.2407  0.1684 -0.4874
 2842SOL    HW120159   1.970   1.701  10.009 -1.0031  0.1694 -2.7795
 2842SOL    HW220160   2.065   1.681   9.893 -2.5669  0.3984 -0.8417
 2843SOL     OW20161   4.306   0.875   5.762 -0.0649 -0.0040  0.2139
 2843SOL    HW120162   4.233   0.930   5.792 -0.0709  0.3146 -0.3823
 2843SOL    HW220163   4.358   0.878   5.842  0.3740  1.7598 -0.1275
 2844SOL     OW20164   0.877   1.114   5.594  0.0624 -0.2475  0.5475
 2844SOL    HW120165   0.834   1.038   5.557  0.9404 -0.1243 -0.7438
 2844SOL    HW220166   0.935   1.143   5.523  0.4234 -1.6474  0.2727
 2845SOL     OW20167   3.470   3.974   2.336 -0.7000  0.1953  0.3505
 2845SOL    HW120168   3.466   3.971   2.432 -1.5254 -1.4068  0.2631
 2845SOL    HW220169   3.388   3.938   2.304  0.1307  0.0029 -1.5339
 2846SOL     OW20170   4.304   2.545   5.995  0.2643  0.7124 -0.3326
 2846SOL    HW120171   4.292   2.603   6.070  3.8615 -1.0965  1.5812
 2846SOL    HW220172   4.213   2.531   5.969 -0.2337  0.1741  1.7458
 2847SOL     OW20173   3.223   1.331  11.624 -0.0101  0.1004  0.2589
 2847SOL    HW120174   3.268   1.291  11.697 -0.0578  1.0666  0.8237
 2847SOL    HW220175   3.151   1.269  11.614  0.6422 -0.6677  0.3965
 2848SOL     OW20176   1.361   2.027   7.274 -0.8644  0.5878 -0.4411
 2848SOL    HW120177   1.401   2.102   7.319  1.1741  0.9915 -2.9836
 2848SOL    HW220178   1.318   2.082   7.208 -2.8856 -0.1565  0.2479
 2849SOL     OW20179   1.322   0.118  12.336  0.2875  0.0904 -0.2523
 2849SOL    HW120180   1.400   0.066  12.315  0.9025  0.7661  0.3659
 2849SOL    HW220181   1.300   0.148  12.248  1.5853 -0.6473 -0.8305
 2850SOL     OW20182   4.333   3.591  15.553 -0.5096  0.1595 -0.1649
 2850SOL    HW120183   4.418   3.547  15.561 -0.2946  0.7808  0.9839
 2850SOL    HW220184   4.285   3.531  15.610 -0.8883  2.0891  1.5309
 2851SOL     OW20185   1.201   0.780   1.391 -0.7237  0.2666  0.3271
 2851SOL    HW120186   1.183   0.737   1.475 -1.2184 -1.0265 -0.4342
 2851SOL    HW220187   1.286   0.743   1.368 -1.4794  1.5140 -4.4597
 2852SOL     OW20188   2.099   4.059   0.649 -0.1675 -0.1869  0.2036
 2852SOL    HW120189   2.062   4.145   0.629 -0.6205 -0.1330  1.2743
 2852SOL    HW220190   2.017   4.011   0.639 -1.3454  1.8051  0.1925
 2853SOL     OW20191   2.375   2.431   1.225 -0.3279 -0.3452 -0.6937
 2853SOL    HW120192   2.311   2.446   1.295  0.5542 -1.5416  0.3731
 2853SOL    HW220193   2.424   2.364   1.273  0.6739  0.0439 -1.1900
 2854SOL     OW20194   3.189   2.193   3.814 -0.4170 -0.0766 -0.1294
 2854SOL    HW120195   3.213   2.131   3.883 -1.9970 -0.5360  0.0274
 2854SOL    HW220196   3.129   2.133   3.769 -0.0985 -1.5258  1.4063
 2855SOL     OW20197   1.784   0.361  14.456 -0.4716 -0.1486 -0.2928
 2855SOL    HW120198   1.847   0.419  14.413 -0.7685  1.9183  2.0468
 2855SOL    HW220199   1.712   0.348  14.394 -2.5640  1.4775  1.8072
 2856SOL     OW20200   3.403   2.185  16.491  0.4217  0.0149  0.4236
 2856SOL    HW120201   3.371   2.211  16.404 -0.9356  4.2462  2.2038
 2856SOL    HW220202   3.441   2.268  16.522 -0.8519 -0.1187  2.3082
 2857SOL     OW20203   0.147   1.737   0.095 -0.2288 -0.5136  0.1218
 2857SOL    HW120204   0.158   1.832   0.101  1.7282 -0.6067 -2.1350
 2857SOL    HW220205   0.172   1.707   0.183  0.2536 -0.0374  0.1466
 2858SOL     OW20206   1.233   1.914   4.430  0.4848 -0.1790  0.5183
 2858SOL    HW120207   1.138   1.905   4.423  0.6310 -2.0668  0.9620
 2858SOL    HW220208   1.248   1.857   4.506 -0.8518  0.1440  1.0339
 2859SOL     OW20209   0.153   1.440   0.016 -0.5018 -0.1811 -0.3013
 2859SOL    HW120210   0.118   1.419  17.674 -1.1123 -1.3640  0.2277
 2859SOL    HW220211   0.116   1.527   0.033  1.1496  0.7971 -1.7050
 2860SOL     OW20212   0.062   2.324  17.090  0.1872 -0.4870 -0.1112
 2860SOL    HW120213   0.068   2.286  17.002  2.1107  0.6221 -0.4358
 2860SOL    HW220214   0.156   2.334  17.101  0.3791 -2.0656 -0.2202
 2861SOL     OW20215   3.639   0.505  12.889 -0.0334  0.3292  0.1184
 2861SOL    HW120216   3.605   0.430  12.841  2.0302 -0.4988 -0.0197
 2861SOL    HW220217   3.566   0.528  12.947  0.4092  0.8490  0.4744
 2862SOL     OW20218   1.794   1.478   9.672  0.1543 -0.5463 -1.0161
 2862SOL    HW120219   1.854   1.417   9.628  2.4921 -0.8668  2.6023
 2862SOL    HW220220   1.832   1.462   9.758  0.5076  0.6517 -0.9423
 2863SOL     OW20221   3.125   4.526   5.481  0.2319 -0.0141 -0.1416
 2863SOL    HW120222   3.129   4.438   5.445  0.8068  0.5101 -1.3832
 2863SOL    HW220223   3.039   4.554   5.448  0.3470  0.5036 -0.0003
 2864SOL     OW20224   3.596   0.844   1.232  0.0896 -0.4723  0.1228
 2864SOL    HW120225   3.654   0.786   1.281  1.8385 -0.0399 -1.4025
 2864SOL    HW220226   3.544   0.874   1.306 -0.0160  1.0786 -0.5880
 2865SOL     OW20227   1.596   2.262   3.600 -0.0608 -0.2417 -0.2421
 2865SOL    HW120228   1.539   2.338   3.602 -1.0963 -1.0062 -0.4641
 2865SOL    HW220229   1.536   2.193   3.571 -1.2536  0.4700  0.5745
 2866SOL     OW20230   1.036   1.044   7.116  0.1988  0.6094 -0.7035
 2866SOL    HW120231   0.991   1.003   7.042 -1.2971 -1.2247  1.2338
 2866SOL    HW220232   0.991   1.022   7.197 -0.7487  0.0517 -1.3648
 2867SOL     OW20233   2.931   0.280   6.330  0.1309 -0.5815 -0.1427
 2867SOL    HW120234   2.952   0.365   6.369  0.9152  0.0874 -2.0596
 2867SOL    HW220235   2.877   0.255   6.406 -0.0100 -1.0368 -0.3930
 2868SOL     OW20236   1.017   0.932   2.687  0.5834  0.0799 -0.0745
 2868SOL    HW120237   0.993   0.859   2.744  1.5084 -0.0741  0.1169
 2868SOL    HW220238   0.948   0.997   2.700  0.3336  0.1027 -1.5195
 2869SOL     OW20239   3.291   1.822   8.283 -0.1497  0.3178  0.2015
 2869SOL    HW120240   3.378   1.798   8.253 -1.7452 -1.8496 -2.6249
 2869SOL    HW220241   3.242   1.740   8.281 -1.7497  1.2522  0.3806
 2870SOL     OW20242   3.322   3.786   8.601 -0.1448  0.1064 -0.1981
 2870SOL    HW120243   3.391   3.770   8.537  0.7589  0.7648  0.6093
 2870SOL    HW220244   3.243   3.812   8.553  0.0455 -1.2805 -1.2382
 2871SOL     OW20245   1.221   1.164  13.887  0.1675 -0.2175  0.3058
 2871SOL    HW120246   1.295   1.206  13.843  1.1835 -3.2431 -0.8487
 2871SOL    HW220247   1.264   1.139  13.969 -0.8054 -0.4414  0.7469
 2872SOL     OW20248   3.209   2.398   3.159 -0.6451  0.0038 -0.5850
 2872SOL    HW120249   3.231   2.491   3.166  1.3673 -0.4279 -1.2612
 2872SOL    HW220250   3.135   2.398   3.097 -0.8312 -0.5959 -0.3610
 2873SOL     OW20251   2.868   4.554   5.422 -0.1068 -0.3591 -0.7706
 2873SOL    HW120252   2.817   4.477   5.447  0.0725  0.2264  1.3953
 2873SOL    HW220253   2.820   4.607   5.359 -0.0562 -0.7664 -1.1499
 2874SOL     OW20254   3.555   1.005   4.860  0.7957 -0.1109 -0.1017
 2874SOL    HW120255   3.505   0.925   4.878  2.5540 -1.0349  0.7199
 2874SOL    HW220256   3.616   0.968   4.796  0.5669  0.2066 -0.4937
 2875SOL     OW20257   2.642   3.361   1.606  0.2309  0.3250  0.4025
 2875SOL    HW120258   2.613   3.333   1.693 -2.7127 -0.3419 -0.8338
 2875SOL    HW220259   2.560   3.381   1.563 -0.0590  0.1976  0.8918
 2876SOL     OW20260   2.332   1.031  12.962 -0.0485  0.1656 -0.2240
 2876SOL    HW120261   2.320   0.966  13.030 -0.8573 -1.1069 -1.5718
 2876SOL    HW220262   2.298   1.117  12.987 -2.2794 -0.8280  0.1192
 2877SOL     OW20263   0.724   2.286  16.396 -0.1811  0.1212 -0.0776
 2877SOL    HW120264   0.702   2.213  16.454  1.8594 -2.1078 -2.1365
 2877SOL    HW220265   0.636   2.321  16.381  0.1855  1.7311  1.5653
 2878SOL     OW20266   1.750   4.269   7.494 -0.4917 -0.2167  0.1400
 2878SOL    HW120267   1.791   4.218   7.424 -0.3514 -1.5754  1.2074
 2878SOL    HW220268   1.657   4.271   7.470 -0.4652 -0.4693  0.0199
 2879SOL     OW20269   2.273   4.143   8.540 -0.5131 -0.9225  0.0525
 2879SOL    HW120270   2.261   4.107   8.452 -1.0423 -0.2391 -0.1481
 2879SOL    HW220271   2.276   4.064   8.594 -0.4833 -0.1742  1.1491
 2880SOL     OW20272   3.351   3.274   5.181 -0.6589  0.7549 -0.2721
 2880SOL    HW120273   3.370   3.314   5.266 -0.6863 -1.6042  0.8694
 2880SOL    HW220274   3.313   3.355   5.147 -0.2468  0.3362 -1.7314
 2881SOL     OW20275   4.355   1.281   4.143  0.0938 -0.3737  0.0367
 2881SOL    HW120276   4.261   1.259   4.146  0.7849 -3.3408 -0.1379
 2881SOL    HW220277   4.347   1.376   4.131 -3.0748 -0.2616  2.9204
 2882SOL     OW20278   1.283   2.540   8.449 -0.2610 -0.1155  0.3875
 2882SOL    HW120279   1.188   2.534   8.439 -0.1649 -1.0493  0.0591
 2882SOL    HW220280   1.302   2.490   8.528  0.2655  1.0628  1.0038
 2883SOL     OW20281   4.662   0.307   8.837  0.6853  0.5622 -0.5105
 2883SOL    HW120282   4.636   0.345   8.753 -2.4030 -0.2777  0.0663
 2883SOL    HW220283   0.019   0.295   8.820  0.5377 -0.3958 -0.6535
 2884SOL     OW20284   4.419   0.630   6.949 -0.7098  0.3945  0.2364
 2884SOL    HW120285   4.512   0.622   6.929 -1.1831  0.1966 -1.9744
 2884SOL    HW220286   4.423   0.690   7.023  1.7449  0.4511  0.0489
 2885SOL     OW20287   2.104   1.411   8.343 -0.1584  0.1863  0.0703
 2885SOL    HW120288   2.105   1.347   8.415  1.6010 -0.8662 -0.8990
 2885SOL    HW220289   2.130   1.482   8.401 -0.9229 -1.6545  2.6853
 2886SOL     OW20290   1.467   1.327   7.116  0.2135  0.0877  0.1708
 2886SOL    HW120291   1.499   1.399   7.171 -0.3290 -0.2457  0.9170
 2886SOL    HW220292   1.456   1.258   7.182  1.2326  0.1709  0.4394
 2887SOL     OW20293   4.602   0.489  17.409 -0.0363 -0.7177 -0.1574
 2887SOL    HW120294   4.592   0.583  17.418  0.8920 -0.5457 -0.9736
 2887SOL    HW220295   4.569   0.465  17.496 -0.2031  0.8924  0.2236
 2888SOL     OW20296   1.712   3.650  14.303  0.1539  0.0725  0.5823
 2888SOL    HW120297   1.765   3.724  14.331  0.1856  0.7832 -1.3316
 2888SOL    HW220298   1.678   3.630  14.390  1.3845 -1.0807  0.7907
 2889SOL     OW20299   2.691   0.745   4.859  0.5886  0.2576  0.1872
 2889SOL    HW120300   2.726   0.677   4.800 -0.5606  0.2664 -0.5120
 2889SOL    HW220301   2.683   0.821   4.800 -0.5151  0.3337  0.4343
 2890SOL     OW20302   0.203   0.323  11.670  0.2690 -0.1676 -0.4335
 2890SOL    HW120303   0.196   0.415  11.697  3.1167  0.3507 -1.4569
 2890SOL    HW220304   0.287   0.307  11.713 -1.5208 -0.0746  3.0460
 2891SOL     OW20305   0.301   3.323   2.100  0.0046 -0.1829  0.5185
 2891SOL    HW120306   0.311   3.331   2.195 -0.0664  1.5956  0.3819
 2891SOL    HW220307   0.393   3.322   2.072  0.2951  2.0682  1.3841
 2892SOL     OW20308   1.413   0.803  17.415 -0.5123 -0.0063 -0.0204
 2892SOL    HW120309   1.406   0.880  17.471  0.2046 -0.5760  0.8399
 2892SOL    HW220310   1.429   0.737  17.482  0.1362 -0.1901 -0.3556
 2893SOL     OW20311   0.278   1.843   2.640 -0.5070 -0.2873  0.8768
 2893SOL    HW120312   0.308   1.787   2.711  3.1304  2.8767  1.8990
 2893SOL    HW220313   0.356   1.838   2.585 -2.7730  0.2141 -2.3756
 2894SOL     OW20314   1.894   3.998   5.653 -0.1273 -0.4299 -0.3317
 2894SOL    HW120315   1.879   3.903   5.659 -0.6464 -0.3177  0.1281
 2894SOL    HW220316   1.888   3.996   5.557 -0.2430 -2.7316 -0.2922
 2895SOL     OW20317   1.760   2.782   4.544 -0.1649 -0.2756  0.7156
 2895SOL    HW120318   1.780   2.695   4.577  0.0810 -0.2707  0.5827
 2895SOL    HW220319   1.788   2.842   4.613  1.7434  2.5739 -2.5074
 2896SOL     OW20320   0.525   1.048  14.322  0.2999 -0.0912 -0.5814
 2896SOL    HW120321   0.535   1.116  14.389  0.5295 -0.2401 -0.4671
 2896SOL    HW220322   0.567   1.085  14.245  2.0275 -3.1737 -1.1124
 2897SOL     OW20323   3.845   3.208   9.107  0.3652  0.2158  0.3270
 2897SOL    HW120324   3.853   3.280   9.170 -1.1584  0.7546 -0.0986
 2897SOL    HW220325   3.902   3.242   9.037  2.0120 -0.4546  1.3387
 2898SOL     OW20326   0.817   3.929  16.016 -0.1373 -0.0920 -0.0024
 2898SOL    HW120327   0.855   3.894  16.097 -2.0474 -0.1467  0.8686
 2898SOL    HW220328   0.781   3.845  15.985  1.0022 -0.5026 -0.2270
 2899SOL     OW20329   1.047   3.066   7.960 -0.5162  0.0205  0.0415
 2899SOL    HW120330   1.039   3.059   8.055 -1.8327  0.4252 -0.0237
 2899SOL    HW220331   0.981   3.004   7.929 -1.3247  0.1862  1.4332
 2900SOL     OW20332   3.295   3.430   9.327  0.2685 -0.4992 -0.3054
 2900SOL    HW120333   3.309   3.425   9.232  3.8312 -0.5052  0.2231
 2900SOL    HW220334   3.307   3.521   9.353  0.3412 -0.1474 -1.5555
 2901SOL     OW20335   2.904   3.423  13.142  0.0411 -0.5240  0.2553
 2901SOL    HW120336   2.951   3.494  13.099  0.7511 -0.4054  1.2445
 2901SOL    HW220337   2.884   3.375  13.061 -0.8641 -0.4836  0.4506
 2902SOL     OW20338   2.492   1.952   4.702 -0.0816  0.3350 -0.3321
 2902SOL    HW120339   2.548   1.924   4.774  0.2625  1.8463 -0.0129
 2902SOL    HW220340   2.431   2.009   4.749  0.6205  0.5231  0.3558
 2903SOL     OW20341   4.541   0.143   6.257 -0.0648  0.0475 -0.2343
 2903SOL    HW120342   4.517   0.146   6.164  2.1369 -0.5656 -0.8270
 2903SOL    HW220343   4.615   0.083   6.250  0.5749  0.8065  0.0593
 2904SOL     OW20344   3.477   1.103   5.840  0.9405  0.3024  0.4219
 2904SOL    HW120345   3.568   1.085   5.862  0.8813  0.3930  0.7362
 2904SOL    HW220346   3.475   1.079   5.747  2.5104  0.0904  0.4411
 2905SOL     OW20347   1.919   1.225   8.213 -0.4228 -0.5508 -0.0213
 2905SOL    HW120348   1.906   1.320   8.207 -3.3203 -0.9978 -1.0489
 2905SOL    HW220349   1.990   1.233   8.276  0.8254  0.8568 -1.6192
 2906SOL     OW20350   0.585   3.517  13.538 -0.1688 -0.1388 -0.1514
 2906SOL    HW120351   0.658   3.566  13.501  0.2301 -0.9844 -0.4672
 2906SOL    HW220352   0.628   3.483  13.616  2.9042  0.6559 -1.5014
 2907SOL     OW20353   2.456   1.358   7.391  0.0465  0.2494 -0.3509
 2907SOL    HW120354   2.483   1.324   7.476 -1.7915 -2.2863 -0.7932
 2907SOL    HW220355   2.542   1.369   7.350 -0.0451  1.1698 -0.3048
 2908SOL     OW20356   2.713   3.285   3.466 -0.4111 -0.1805  0.4251
 2908SOL    HW120357   2.697   3.191   3.456  2.0551 -0.5238 -0.2471
 2908SOL    HW220358   2.632   3.336   3.473 -0.4417 -0.1197 -0.3161
 2909SOL     OW20359   2.403   1.777   7.192  0.2611 -0.4034 -0.1739
 2909SOL    HW120360   2.474   1.784   7.255 -1.7955  3.4017  1.6704
 2909SOL    HW220361   2.346   1.725   7.249 -1.9992  1.4542 -0.7405
 2910SOL     OW20362   3.977   0.614   5.340 -0.2244  0.7006 -0.2410
 2910SOL    HW120363   4.038   0.543   5.319 -3.2036 -1.8056 -0.3622
 2910SOL    HW220364   3.974   0.666   5.260 -0.9364  0.2551 -0.5013
 2911SOL     OW20365   1.084   2.419  14.179  0.5623  0.4880  0.1180
 2911SOL    HW120366   1.142   2.487  14.214  1.2041  0.3232 -0.6349
 2911SOL    HW220367   1.140   2.344  14.161  0.7468  0.4413  0.9223
 2912SOL     OW20368   0.195   1.938   5.174  0.3768  0.7023 -0.4591
 2912SOL    HW120369   0.273   1.906   5.128  0.3356  0.8177 -0.6133
 2912SOL    HW220370   0.124   1.889   5.133 -0.0904  0.6289  0.4659
 2913SOL     OW20371   3.062   1.355   6.945  0.2948 -0.2082  0.0693
 2913SOL    HW120372   3.114   1.282   6.978 -0.3586 -1.1146 -0.9112
 2913SOL    HW220373   2.979   1.308   6.945  1.2175 -1.8443 -0.7026
 2914SOL     OW20374   2.126   2.683   7.553 -0.4694  0.2729  0.0228
 2914SOL    HW120375   2.190   2.622   7.590 -1.7024 -1.5332 -0.8246
 2914SOL    HW220376   2.064   2.618   7.520 -0.2751 -1.0116  2.2031
 2915SOL     OW20377   3.931   1.180   8.584 -0.1861 -0.4631  0.3673
 2915SOL    HW120378   3.842   1.145   8.596  0.2099 -1.3993  0.5792
 2915SOL    HW220379   3.940   1.223   8.669  0.6151 -1.7539  0.9432
 2916SOL     OW20380   3.219   3.278  17.234  0.6003  0.2739  0.2454
 2916SOL    HW120381   3.250   3.357  17.189  2.9016 -0.7736 -0.0087
 2916SOL    HW220382   3.255   3.205  17.183 -1.3159 -0.7889  0.4232
 2917SOL     OW20383   3.273   4.391   0.112  0.9365  0.4743  0.2464
 2917SOL    HW120384   3.360   4.357   0.135  0.8475  0.5864  0.7336
 2917SOL    HW220385   3.247   4.440   0.190 -0.4529 -0.5908  0.4385
 2918SOL     OW20386   3.448   1.428   1.093 -0.2553  0.2528  0.2288
 2918SOL    HW120387   3.374   1.465   1.140  0.9392  1.9633  0.7470
 2918SOL    HW220388   3.409   1.358   1.041 -0.1652  0.7754 -0.5379
 2919SOL     OW20389   4.308   4.505   2.686 -0.4152  0.4004 -0.3153
 2919SOL    HW120390   4.245   4.573   2.710  0.5257  0.4929  1.8883
 2919SOL    HW220391   4.377   4.561   2.651 -1.1617  0.3268 -1.9173
 2920SOL     OW20392   4.155   0.275   2.010  0.4961 -0.1523 -0.3088
 2920SOL    HW120393   4.214   0.233   1.947 -0.1112 -0.4955 -0.6431
 2920SOL    HW220394   4.215   0.277   2.085 -1.5144  0.5723  1.2805
 2921SOL     OW20395   0.196   2.977   5.566  0.0848 -0.0695 -0.2573
 2921SOL    HW120396   0.162   3.064   5.550 -0.0842 -0.4926 -2.2040
 2921SOL    HW220397   0.215   2.984   5.660 -0.8926  0.7775 -0.1321
 2922SOL     OW20398   4.504   4.230   8.278 -0.0499  0.1700 -0.0494
 2922SOL    HW120399   4.465   4.175   8.345  0.4514 -2.8964 -2.2917
 2922SOL    HW220400   4.486   4.181   8.198 -0.7661  0.8098 -0.2789
 2923SOL     OW20401   0.502   3.812   3.638  0.0831  0.7087 -0.3099
 2923SOL    HW120402   0.586   3.769   3.619 -1.7120 -2.5337 -0.8277
 2923SOL    HW220403   0.438   3.743   3.621 -0.0388  0.4212  1.3327
 2924SOL     OW20404   0.853   3.243   8.640  0.5291 -0.0270  0.0950
 2924SOL    HW120405   0.873   3.307   8.708  0.3287 -0.5796  0.6665
 2924SOL    HW220406   0.855   3.306   8.568  1.2738  0.4229  0.5152
 2925SOL     OW20407   2.854   4.368  13.025  0.1678  0.0990  0.2939
 2925SOL    HW120408   2.830   4.419  12.948  0.3014  0.7040  0.6513
 2925SOL    HW220409   2.787   4.397  13.087  1.0056  0.5135  1.0050
 2926SOL     OW20410   2.128   1.193   9.924 -0.0170 -0.1234 -0.4404
 2926SOL    HW120411   2.069   1.209   9.998  0.5641 -0.6858  0.1510
 2926SOL    HW220412   2.170   1.278   9.912  0.4219 -0.0365  1.6295
 2927SOL     OW20413   3.449   0.146   8.175  0.2979 -0.8797 -0.7950
 2927SOL    HW120414   3.507   0.075   8.204  1.3454  0.3188  0.0870
 2927SOL    HW220415   3.450   0.206   8.250 -1.5010 -1.7163 -0.1234
 2928SOL     OW20416   2.439   0.319   6.322 -0.1239 -0.3571 -0.1458
 2928SOL    HW120417   2.452   0.241   6.268  0.9337 -2.1226  2.6486
 2928SOL    HW220418   2.491   0.390   6.284  0.8897  0.0326  1.9660
 2929SOL     OW20419   1.050   2.080  14.905 -0.1763 -0.1651 -0.1487
 2929SOL    HW120420   1.114   2.044  14.965 -0.4246 -0.9582 -0.3561
 2929SOL    HW220421   1.003   2.000  14.881  0.5171 -0.3847 -0.7678
 2930SOL     OW20422   4.085   3.486   9.490 -0.4396  0.8605  0.7521
 2930SOL    HW120423   4.000   3.455   9.522 -0.1913 -2.0718 -1.3815
 2930SOL    HW220424   4.084   3.577   9.518  0.0708  1.3807 -0.9077
 2931SOL     OW20425   0.666   0.023  14.636  0.3570  0.0220 -0.0294
 2931SOL    HW120426   0.656   4.672  14.600 -0.2838  0.1434 -0.1471
 2931SOL    HW220427   0.573   0.048  14.638  0.8231  1.6302  1.5715
 2932SOL     OW20428   1.147   3.300   4.615 -0.5139  0.0952 -0.7583
 2932SOL    HW120429   1.099   3.307   4.532 -4.3137  0.2249  1.4392
 2932SOL    HW220430   1.081   3.260   4.673  0.8612 -0.4430  0.4257
 2933SOL     OW20431   4.734   3.110   3.498 -0.3262 -0.1229 -0.2773
 2933SOL    HW120432   0.063   3.100   3.567 -1.0551 -0.7065  0.3356
 2933SOL    HW220433   4.697   3.193   3.526  0.5071 -0.3278  1.4958
 2934SOL     OW20434   2.658   2.467   3.525 -0.6334 -0.4008  0.4236
 2934SOL    HW120435   2.572   2.480   3.565  0.3266  0.7448  2.1602
 2934SOL    HW220436   2.627   2.440   3.439 -2.4072  0.4767  0.7751
 2935SOL     OW20437   0.871   0.761   6.634  0.1060  0.0534 -0.0625
 2935SOL    HW120438   0.885   0.813   6.713  1.4113  1.4548 -1.2055
 2935SOL    HW220439   0.905   0.816   6.563 -0.0588  0.8068  0.4488
 2936SOL     OW20440   4.695   2.323   8.906  0.1634 -0.1306 -0.3541
 2936SOL    HW120441   4.617   2.364   8.944 -1.1593 -2.0086 -1.0530
 2936SOL    HW220442   4.724   2.272   8.982  0.7714  1.0216  0.1731
 2937SOL     OW20443   4.056   2.637   0.092  0.2727 -0.2964  0.6502
 2937SOL    HW120444   4.151   2.646   0.102  0.3640  0.3289 -0.6949
 2937SOL    HW220445   4.046   2.549   0.055  0.1987  0.3683 -0.9234
 2938SOL     OW20446   3.229   3.403   6.160 -0.1804  0.3485 -0.1076
 2938SOL    HW120447   3.203   3.400   6.252  0.0995  0.6409 -0.0160
 2938SOL    HW220448   3.313   3.448   6.165 -1.0020  1.8853 -0.0909
 2939SOL     OW20449   1.458   4.300  15.758  0.0599 -0.1739  0.0883
 2939SOL    HW120450   1.399   4.238  15.801 -0.0825  0.8214  1.3019
 2939SOL    HW220451   1.540   4.284  15.805 -0.3726  0.1421  0.9534
 2940SOL     OW20452   3.563   2.809   2.805 -0.1184 -0.1097  0.6713
 2940SOL    HW120453   3.560   2.845   2.717 -3.3975 -0.1911  0.7508
 2940SOL    HW220454   3.543   2.891   2.850 -2.0313  0.0360 -0.4727
 2941SOL     OW20455   4.526   2.415  17.121 -0.5328  0.4174 -0.5862
 2941SOL    HW120456   4.602   2.378  17.075 -0.3630  1.4073 -1.1113
 2941SOL    HW220457   4.465   2.342  17.129  0.0143 -0.3274 -2.9180
 2942SOL     OW20458   4.683   1.804  11.167  0.0383  0.1735  0.6257
 2942SOL    HW120459   4.621   1.751  11.216  0.9064  0.1668  1.7060
 2942SOL    HW220460   0.005   1.733  11.140 -0.5790 -0.2237  0.3111
 2943SOL     OW20461   0.421   2.240   6.358  0.4425  0.3549  0.0407
 2943SOL    HW120462   0.507   2.265   6.391  0.7549  1.1980 -1.4384
 2943SOL    HW220463   0.401   2.313   6.298  1.5465  0.8983  0.3300
 2944SOL     OW20464   4.078   4.440  15.519  0.7386 -0.1253  0.6535
 2944SOL    HW120465   4.122   4.498  15.457  0.2635 -0.5865 -0.1138
 2944SOL    HW220466   4.041   4.500  15.584 -2.8249 -0.8719 -0.6545
 2945SOL     OW20467   1.060   0.136   4.973 -0.0328  0.3280  0.1320
 2945SOL    HW120468   1.135   0.077   4.972 -0.8648 -0.7702  2.6026
 2945SOL    HW220469   1.015   0.125   5.057  0.9777 -2.9835  0.2618
 2946SOL     OW20470   1.202   2.295  17.616 -0.1177  0.2447 -0.1897
 2946SOL    HW120471   1.217   2.291  17.521  1.1819  2.0505 -0.0674
 2946SOL    HW220472   1.280   2.262  17.660 -0.3111 -0.3752 -0.3131
 2947SOL     OW20473   1.571   2.645  14.371  1.0706 -0.2143  0.1854
 2947SOL    HW120474   1.559   2.740  14.376  0.2733 -0.3288  0.3771
 2947SOL    HW220475   1.492   2.622  14.324  1.3342  0.6005 -0.6374
 2948SOL     OW20476   0.803   2.651   3.034  0.6930 -0.2598  0.3406
 2948SOL    HW120477   0.837   2.736   3.008  1.3857 -0.4565  0.6203
 2948SOL    HW220478   0.792   2.607   2.950  1.2481  4.6984 -2.2947
 2949SOL     OW20479   3.897   3.147   3.392  0.2492  0.8345 -0.4171
 2949SOL    HW120480   3.813   3.132   3.435  0.0891 -0.6414 -1.2481
 2949SOL    HW220481   3.920   3.058   3.366 -0.0666  0.0136  2.0897
 2950SOL     OW20482   0.991   0.740   7.058  0.6274  0.2653  0.2158
 2950SOL    HW120483   0.917   0.763   7.115 -0.2081  0.3642 -0.9052
 2950SOL    HW220484   1.002   0.648   7.084  1.9788  0.7844  1.5068
 2951SOL     OW20485   0.820   1.355   3.343 -0.6168  0.2045 -0.0579
 2951SOL    HW120486   0.865   1.304   3.411 -1.5905 -1.3061 -0.5688
 2951SOL    HW220487   0.850   1.317   3.261  1.9081  0.5449  0.6987
 2952SOL     OW20488   3.287   2.441   1.851 -0.5434 -0.1483 -0.2068
 2952SOL    HW120489   3.343   2.518   1.860 -0.1944 -0.4600  0.2738
 2952SOL    HW220490   3.217   2.489   1.806 -1.5428  0.2702  1.8124
 2953SOL     OW20491   4.236   4.584  11.218 -0.5655 -0.1477  0.1543
 2953SOL    HW120492   4.275   4.659  11.174  1.3520 -1.9961 -1.3149
 2953SOL    HW220493   4.173   4.621  11.280 -1.0755 -1.4600  0.4134
 2954SOL     OW20494   0.363   3.508   7.614  0.4350 -0.4180 -0.0845
 2954SOL    HW120495   0.365   3.412   7.613  1.0084 -0.3788 -2.8617
 2954SOL    HW220496   0.292   3.527   7.675  0.9249 -1.2734  0.7707
 2955SOL     OW20497   3.063   3.132   5.329 -0.0150 -0.3453  0.1815
 2955SOL    HW120498   3.104   3.072   5.266  0.5069  2.1249 -1.8575
 2955SOL    HW220499   3.036   3.203   5.271  1.4152  2.4142  2.9196
 2956SOL     OW20500   0.206   1.050   2.942 -1.0346 -0.5164  0.2246
 2956SOL    HW120501   0.199   1.133   2.989  1.5990  0.0200 -0.3219
 2956SOL    HW220502   0.130   1.001   2.972 -0.9430 -0.8021 -0.0122
 2957SOL     OW20503   3.314   4.598  11.963  0.6022  0.5031  0.1800
 2957SOL    HW120504   3.267   4.518  11.988  0.3788  0.2847 -0.9026
 2957SOL    HW220505   3.248   4.636  11.904  2.0309  1.2238 -0.9381
 2958SOL     OW20506   0.060   2.870   1.091 -0.3981  0.0037  0.1051
 2958SOL    HW120507   0.050   2.851   0.998  0.7240  1.0135 -0.2295
 2958SOL    HW220508   0.121   2.803   1.121 -0.0530 -0.6164 -1.9731
 2959SOL     OW20509   0.577   3.590  17.683  0.0353 -0.0525 -0.4081
 2959SOL    HW120510   0.556   3.662  17.623  0.2915 -1.3739 -2.0768
 2959SOL    HW220511   0.654   3.629  17.724 -1.6495  1.5348  1.2615
 2960SOL     OW20512   2.720   1.706  17.612  0.3414  0.0258  0.2581
 2960SOL    HW120513   2.665   1.783  17.601  1.2314  0.3919 -1.4585
 2960SOL    HW220514   2.663   1.632  17.591  0.6582  0.5877 -2.4781
 2961SOL     OW20515   1.684   0.676  14.329 -0.2085 -0.2761  0.0150
 2961SOL    HW120516   1.680   0.760  14.375  0.6599 -1.1031  1.5887
 2961SOL    HW220517   1.742   0.691  14.255 -1.4556 -1.2273 -1.1754
 2962SOL     OW20518   2.346   1.652   5.025 -0.2974 -0.0935 -0.0101
 2962SOL    HW120519   2.257   1.678   5.051 -0.8684 -0.7818 -1.3231
 2962SOL    HW220520   2.331   1.660   4.931  0.1410  2.7507  0.1608
 2963SOL     OW20521   2.927   0.196   7.768  0.0645 -0.2007 -0.8520
 2963SOL    HW120522   2.881   0.238   7.840  2.4822  2.3332 -0.7857
 2963SOL    HW220523   3.017   0.228   7.771 -0.5122  1.1653  1.1579
 2964SOL     OW20524   4.213   2.570   4.676 -0.0386  0.3875  0.5044
 2964SOL    HW120525   4.139   2.626   4.653 -2.1011 -3.3504 -2.0561
 2964SOL    HW220526   4.276   2.594   4.608 -0.6809 -2.4733 -1.1149
 2965SOL     OW20527   4.647   1.464   7.802  0.4814 -0.0298  0.2578
 2965SOL    HW120528   4.657   1.558   7.789  3.4610 -0.2023  1.3365
 2965SOL    HW220529   4.694   1.423   7.730  0.0332  2.7713 -1.6276
 2966SOL     OW20530   3.441   3.885   6.924 -0.0060  0.2055  0.3138
 2966SOL    HW120531   3.507   3.818   6.908 -0.2567 -0.3763  1.7279
 2966SOL    HW220532   3.496   3.948   6.971  0.7384 -1.6532  1.9441
 2967SOL     OW20533   2.856   3.934   1.770 -1.3479 -0.4156  0.6933
 2967SOL    HW120534   2.797   4.007   1.753 -2.2082 -1.0520  0.9948
 2967SOL    HW220535   2.806   3.875   1.826 -2.3249 -0.5823 -0.3513
 2968SOL     OW20536   1.888   0.213   6.317 -0.0614  0.0724 -0.1008
 2968SOL    HW120537   1.842   0.284   6.272  0.5012  0.3804 -0.1956
 2968SOL    HW220538   1.945   0.184   6.245 -0.7859  0.3473 -0.7884
 2969SOL     OW20539   4.119   0.700   8.712  0.0896  0.4003  0.4407
 2969SOL    HW120540   4.025   0.684   8.707  0.3280 -1.0466  0.4713
 2969SOL    HW220541   4.134   0.772   8.652 -0.0791 -0.2328 -0.3609
 2970SOL     OW20542   0.191   2.296  17.637 -0.2341 -0.3251  0.4601
 2970SOL    HW120543   0.115   2.355  17.636 -0.4641 -0.6444 -0.4826
 2970SOL    HW220544   0.229   2.313  17.723  0.9984 -0.5612 -0.0360
 2971SOL     OW20545   3.415   0.392   4.560 -0.2315  0.2547 -0.5274
 2971SOL    HW120546   3.334   0.341   4.563  0.0082 -0.1627 -1.2656
 2971SOL    HW220547   3.470   0.344   4.622  2.9250  1.0492 -2.7809
 2972SOL     OW20548   1.929   1.036   9.421  0.0807  0.2706  0.1593
 2972SOL    HW120549   1.920   1.045   9.326  1.5054 -2.2452 -0.2119
 2972SOL    HW220550   1.941   0.941   9.424  0.6611  0.3209 -0.4127
 2973SOL     OW20551   0.475   0.824   7.842 -0.1304  0.4524 -0.2440
 2973SOL    HW120552   0.490   0.751   7.903 -0.4954  1.6905  1.3310
 2973SOL    HW220553   0.557   0.873   7.845 -0.7609  1.4577  0.5305
 2974SOL     OW20554   2.484   4.124   8.963  0.0219 -0.8721  0.2050
 2974SOL    HW120555   2.402   4.111   8.915 -0.2305  0.4828  0.2753
 2974SOL    HW220556   2.520   4.201   8.919  1.8926 -1.6644  0.3344
 2975SOL     OW20557   2.183   2.394   9.057  0.0155 -0.3868 -0.1033
 2975SOL    HW120558   2.178   2.300   9.040 -1.1348 -0.2682 -0.3877
 2975SOL    HW220559   2.263   2.417   9.010 -0.1106  1.1691  0.4398
 2976SOL     OW20560   0.530   1.087   8.815 -0.3390 -0.3114 -0.3210
 2976SOL    HW120561   0.594   1.103   8.745 -0.0260 -0.0246  0.0296
 2976SOL    HW220562   0.555   0.997   8.839  1.6448  0.9105  2.1515
 2977SOL     OW20563   1.420   0.782   7.644 -0.4230  0.2610 -0.0729
 2977SOL    HW120564   1.444   0.769   7.552  0.6842  1.7475 -0.0031
 2977SOL    HW220565   1.501   0.745   7.682 -0.0787 -0.6134 -1.6748
 2978SOL     OW20566   2.776   4.157   9.531  0.6194  0.6246  0.3973
 2978SOL    HW120567   2.831   4.177   9.607  2.6720  1.6255 -1.3478
 2978SOL    HW220568   2.730   4.079   9.562  2.5940 -0.5561  0.3649
 2979SOL     OW20569   0.875   0.803   9.456 -0.8058  0.3007  0.1038
 2979SOL    HW120570   0.905   0.762   9.375 -2.5539  2.4494 -1.6398
 2979SOL    HW220571   0.859   0.895   9.437 -0.1718  0.6040  1.0373
 2980SOL     OW20572   1.771   0.343  13.970  0.0022 -0.5611  0.2659
 2980SOL    HW120573   1.745   0.296  14.049 -0.2387  1.5111  1.4015
 2980SOL    HW220574   1.865   0.325  13.964 -0.0917 -0.0506 -2.8489
 2981SOL     OW20575   2.989   3.445   6.041  0.0238  0.6743  0.0677
 2981SOL    HW120576   3.072   3.412   6.076 -0.8327 -0.7186  0.8007
 2981SOL    HW220577   3.014   3.530   6.003  2.8659 -1.1532 -2.1670
 2982SOL     OW20578   2.410   1.003   5.545  0.6144  0.1602 -0.4544
 2982SOL    HW120579   2.399   1.097   5.561 -1.6190  0.0243 -1.2304
 2982SOL    HW220580   2.482   0.987   5.606 -0.1174  1.2611  0.7292
 2983SOL     OW20581   3.344   3.911   8.857 -1.1147 -0.7438  0.7419
 2983SOL    HW120582   3.350   3.871   8.771  1.6959  0.0684  0.5504
 2983SOL    HW220583   3.289   3.852   8.910 -1.7635  0.4765  1.4135
 2984SOL     OW20584   0.088   3.446   4.681 -0.1949 -0.1921 -0.4318
 2984SOL    HW120585   0.110   3.450   4.588  1.0013  1.2819 -0.0880
 2984SOL    HW220586   0.175   3.437   4.722  0.0790 -0.6269 -1.1003
 2985SOL     OW20587   3.407   0.497   7.518 -0.5815  0.7561 -0.0405
 2985SOL    HW120588   3.403   0.588   7.487 -0.6294  0.6437 -0.3615
 2985SOL    HW220589   3.326   0.457   7.489 -0.8297 -0.8844  2.8600
 2986SOL     OW20590   2.185   1.664   8.813 -0.4771  0.1557  0.1204
 2986SOL    HW120591   2.095   1.632   8.811 -0.5020  0.3314 -1.3186
 2986SOL    HW220592   2.229   1.600   8.870 -3.6890 -1.1971  1.0704
 2987SOL     OW20593   4.227   3.539   5.369 -0.2155  0.0518 -0.2344
 2987SOL    HW120594   4.320   3.536   5.387 -0.5631  0.9016  1.6659
 2987SOL    HW220595   4.193   3.500   5.449 -2.8912  1.4505 -0.6822
 2988SOL     OW20596   0.945   4.009   4.756  0.1326 -0.3359 -0.4495
 2988SOL    HW120597   0.968   4.102   4.745  0.5909 -0.2690  1.2172
 2988SOL    HW220598   0.907   3.987   4.670 -0.3443 -0.6064 -0.1674
 2989SOL     OW20599   2.444   0.017  13.356 -0.7045 -0.6230  0.7036
 2989SOL    HW120600   2.395   4.678  13.326  1.4887 -1.1606 -1.5580
 2989SOL    HW220601   2.506   4.703  13.409 -1.8713 -2.6603  0.0902
 2990SOL     OW20602   3.192   3.486   5.118  0.1348 -0.0319 -0.3382
 2990SOL    HW120603   3.172   3.481   5.024 -0.1632  2.2190 -0.4030
 2990SOL    HW220604   3.103   3.512   5.144  0.0110 -0.2020 -0.5855
 2991SOL     OW20605   2.268   0.106   6.493 -0.6910 -0.5060 -0.0708
 2991SOL    HW120606   2.245   0.188   6.449 -1.6088 -1.7688 -1.9253
 2991SOL    HW220607   2.312   0.142   6.570  2.1858 -1.2766 -1.3661
 2992SOL     OW20608   0.006   2.724   0.436 -0.3868 -0.0430 -0.0716
 2992SOL    HW120609   0.068   2.750   0.368 -0.8139  1.5582  0.1411
 2992SOL    HW220610   4.678   2.794   0.426 -0.5871  0.0967  2.2540
 2993SOL     OW20611   4.326   3.177   4.364 -0.2723 -0.2067  0.7883
 2993SOL    HW120612   4.257   3.115   4.338 -0.3352 -0.7905  2.3142
 2993SOL    HW220613   4.271   3.222   4.429  0.1033 -1.1046  1.7397
 2994SOL     OW20614   3.783   0.551   3.042 -0.7279 -0.9934 -0.0904
 2994SOL    HW120615   3.714   0.561   2.977 -1.6006  1.4962  1.2314
 2994SOL    HW220616   3.858   0.557   2.984  0.3777 -0.9059  1.3370
 2995SOL     OW20617   0.761   4.054   2.242 -0.3056 -0.8054 -0.2969
 2995SOL    HW120618   0.783   4.114   2.172 -2.3594  1.7312  1.2604
 2995SOL    HW220619   0.845   4.040   2.287 -0.9080 -1.9258  0.4936
 2996SOL     OW20620   4.293   0.629   1.418  0.2429 -0.2805  0.6620
 2996SOL    HW120621   4.385   0.611   1.399 -0.3536 -1.0840 -1.4884
 2996SOL    HW220622   4.298   0.703   1.479 -0.2704  1.5389 -1.4888
 2997SOL     OW20623   0.636   2.168   9.415  0.8180  0.1668 -0.0551
 2997SOL    HW120624   0.576   2.206   9.479 -0.8780 -0.0921 -1.5094
 2997SOL    HW220625   0.660   2.255   9.382 -2.1923  0.6997 -0.8447
 2998SOL     OW20626   3.823   0.873  16.147 -0.4517 -0.6795 -0.3126
 2998SOL    HW120627   3.904   0.855  16.100 -0.0363  1.3085 -0.3430
 2998SOL    HW220628   3.838   0.858  16.241  1.4808  4.2119  0.1710
 2999SOL     OW20629   1.426   0.525   3.733  0.0717  0.3265  0.9179
 2999SOL    HW120630   1.447   0.613   3.702 -1.1635  0.3781  0.2224
 2999SOL    HW220631   1.516   0.508   3.762 -0.6473 -3.8338  0.6678
 3000SOL     OW20632   1.261   2.660   6.908  0.6389 -0.2835  0.0068
 3000SOL    HW120633   1.250   2.688   6.999 -0.7337  0.5125 -0.3975
 3000SOL    HW220634   1.311   2.734   6.875 -2.0832  1.2268 -0.7138
 3001SOL     OW20635   2.250   4.541   8.824  0.2943  0.6102  0.6048
 3001SOL    HW120636   2.233   4.450   8.847 -0.3937 -0.1111 -2.7325
 3001SOL    HW220637   2.257   4.539   8.728 -0.9313  0.6133  0.5208
 3002SOL     OW20638   2.937   0.987   6.862 -0.4891  0.4437  0.1710
 3002SOL    HW120639   2.920   1.081   6.864 -1.2696  0.3405 -1.0825
 3002SOL    HW220640   2.886   0.965   6.940 -0.8336  0.0371 -0.1674
 3003SOL     OW20641   3.584   1.173   5.122  0.2907 -0.2038  0.9000
 3003SOL    HW120642   3.616   1.143   5.037 -2.3600 -0.0095 -0.1781
 3003SOL    HW220643   3.665   1.198   5.167  0.6728 -1.9910  1.2008
 3004SOL     OW20644   1.316   0.128   9.255  0.1380  0.1668  0.4156
 3004SOL    HW120645   1.293   0.047   9.300 -0.1937 -0.2762 -0.5620
 3004SOL    HW220646   1.382   0.090   9.197  1.2726 -0.6433  2.2124
 3005SOL     OW20647   3.929   0.878   8.486  0.5831  0.5014  0.3336
 3005SOL    HW120648   3.858   0.911   8.541  1.4335  1.6479  0.7308
 3005SOL    HW220649   4.012   0.913   8.517  1.3751 -0.1145 -1.1199
 3006SOL     OW20650   4.465   4.307   3.845 -1.0382 -0.3227 -0.1885
 3006SOL    HW120651   4.405   4.310   3.919  2.2605  0.5978  2.4655
 3006SOL    HW220652   4.496   4.398   3.854  0.5641 -0.8520 -0.4058
 3007SOL     OW20653   2.604   1.775   7.968 -0.1310  0.4086  0.4474
 3007SOL    HW120654   2.544   1.754   8.040  1.5535 -0.0447  1.7184
 3007SOL    HW220655   2.540   1.774   7.898  1.1015 -2.2046 -0.6312
 3008SOL     OW20656   3.849   1.181   2.524  0.2793 -0.4589 -0.9045
 3008SOL    HW120657   3.831   1.097   2.481 -1.2123 -0.7187  0.2172
 3008SOL    HW220658   3.851   1.246   2.454  0.8259  0.4873 -0.0036
 3009SOL     OW20659   3.799   4.273   0.385  0.1392 -0.1769 -0.2685
 3009SOL    HW120660   3.732   4.252   0.320 -0.4526 -0.1450  0.3297
 3009SOL    HW220661   3.875   4.284   0.328 -0.0582 -2.7211 -1.0343
 3010SOL     OW20662   0.265   3.040  11.892 -0.5618  0.2024 -0.4576
 3010SOL    HW120663   0.350   3.083  11.902 -0.2157 -0.2553 -1.4878
 3010SOL    HW220664   0.221   3.109  11.841 -0.0981  2.1921  1.7913
 3011SOL     OW20665   1.622   2.842  12.494  0.1688 -0.0600  0.2425
 3011SOL    HW120666   1.589   2.930  12.510 -1.1615 -0.2521 -1.4066
 3011SOL    HW220667   1.679   2.841  12.570 -1.0590  0.4245  1.1760
 3012SOL     OW20668   1.099   3.374  16.737 -0.4039  0.1327 -0.2616
 3012SOL    HW120669   1.043   3.411  16.668 -0.6697 -0.2108 -0.2335
 3012SOL    HW220670   1.059   3.427  16.805 -0.0422  0.9137 -0.6609
 3013SOL     OW20671   0.970   2.314   0.604  0.3654  0.1810  0.1812
 3013SOL    HW120672   1.065   2.323   0.597  0.6079 -1.1923  1.9686
 3013SOL    HW220673   0.943   2.327   0.513 -1.2026 -1.4307  0.4130
 3014SOL     OW20674   4.316   1.242   5.379  0.7178  0.2744  0.3196
 3014SOL    HW120675   4.297   1.220   5.288 -0.2154  0.7160  0.4170
 3014SOL    HW220676   4.327   1.149   5.399 -0.7166  0.1152  0.3213
 3015SOL     OW20677   4.669   4.080   5.181  0.3351 -0.9164 -0.3151
 3015SOL    HW120678   4.658   4.125   5.265  1.1364 -1.4638  0.0835
 3015SOL    HW220679   4.584   4.086   5.139 -0.4321 -1.0843  1.2333
 3016SOL     OW20680   0.181   4.471  10.644 -0.6039  0.2704  0.3858
 3016SOL    HW120681   0.192   4.536  10.574 -2.0117  2.4976  2.2514
 3016SOL    HW220682   0.261   4.419  10.635 -0.2930  0.3825  2.6162
 3017SOL     OW20683   2.196   3.917   8.654 -0.4469 -0.1145  0.1111
 3017SOL    HW120684   2.118   3.900   8.602  0.1517 -2.1916 -0.0863
 3017SOL    HW220685   2.222   3.828   8.678  1.0900  0.3772  0.2712
 3018SOL     OW20686   2.672   4.120   5.925  0.2072  0.4577 -0.0105
 3018SOL    HW120687   2.692   4.050   5.863 -0.8314 -0.3154  0.5197
 3018SOL    HW220688   2.749   4.172   5.904  0.2367 -1.1065 -3.8190
 3019SOL     OW20689   4.673   0.464   8.611  1.7722  0.1569  0.3469
 3019SOL    HW120690   4.624   0.516   8.547  1.3920 -0.5806  0.0323
 3019SOL    HW220691   0.006   0.521   8.642  0.4293  1.1470  1.4896
 3020SOL     OW20692   0.555   1.469   4.238 -0.0781  0.2639  0.3020
 3020SOL    HW120693   0.520   1.383   4.215  2.5715 -0.6111 -0.3846
 3020SOL    HW220694   0.544   1.502   4.149  4.0404 -0.2844 -0.3895
 3021SOL     OW20695   1.569   0.112  14.095  0.5735 -0.0782  0.5069
 3021SOL    HW120696   1.659   0.112  14.062  0.6478  2.3227  0.7103
 3021SOL    HW220697   1.547   0.023  14.069 -0.4469  0.0519  0.9088
 3022SOL     OW20698   3.134   3.651   0.888  0.0509 -0.2731 -0.1822
 3022SOL    HW120699   3.127   3.737   0.929  0.5330 -1.0367  1.4930
 3022SOL    HW220700   3.071   3.655   0.816 -2.1222  1.1285  1.8016
 3023SOL     OW20701   2.140   2.576   8.082  0.4721  0.0387  0.3481
 3023SOL    HW120702   2.145   2.513   8.154  2.4095  0.6593  0.7376
 3023SOL    HW220703   2.147   2.656   8.135  2.8824 -0.2103  0.3829
 3024SOL     OW20704   2.716   0.257   9.704 -0.4865  0.3249 -0.7472
 3024SOL    HW120705   2.802   0.249   9.745 -0.3846 -0.8277 -1.1962
 3024SOL    HW220706   2.733   0.328   9.642 -1.8560 -0.0926 -1.6147
 3025SOL     OW20707   2.492   0.358  13.663 -0.2370  0.1438 -0.7434
 3025SOL    HW120708   2.452   0.306  13.594 -1.6397  0.7818 -0.4156
 3025SOL    HW220709   2.549   0.288  13.695  1.2312  1.4101 -0.5729
 3026SOL     OW20710   3.561   4.612   9.155  0.3922  0.1604 -0.0279
 3026SOL    HW120711   3.644   4.657   9.137 -0.4665  0.6275 -2.8724
 3026SOL    HW220712   3.553   4.634   9.248  1.8367  0.7260 -0.0310
 3027SOL     OW20713   2.447   4.203   2.522 -0.2022  0.2301  0.9579
 3027SOL    HW120714   2.355   4.183   2.502 -0.4420  0.2208  2.0623
 3027SOL    HW220715   2.489   4.122   2.494  1.8806  1.2840  1.0222
 3028SOL     OW20716   0.637   0.727   8.672  0.4388  0.1360  0.4431
 3028SOL    HW120717   0.599   0.803   8.628 -1.4845 -0.2242  1.4831
 3028SOL    HW220718   0.610   0.746   8.762  0.4628  0.1820  0.4407
 3029SOL     OW20719   3.041   2.152  16.064 -0.0810 -0.4096  0.3561
 3029SOL    HW120720   3.078   2.239  16.051  0.0452 -0.5612 -0.2994
 3029SOL    HW220721   2.952   2.159  16.029  0.5167  0.3294 -1.0207
 3030SOL     OW20722   0.053   2.713  13.866 -0.5858  0.8489 -0.4169
 3030SOL    HW120723   0.002   2.632  13.874 -0.1332  0.4539 -1.5593
 3030SOL    HW220724   0.101   2.699  13.784  0.1673 -0.4144  0.2449
 3031SOL     OW20725   0.072   1.557  11.140 -0.6525  0.4418  0.0820
 3031SOL    HW120726   0.100   1.523  11.055 -2.3232  0.1828 -0.3576
 3031SOL    HW220727   0.067   1.470  11.181  0.2552 -0.3594 -1.5096
 3032SOL     OW20728   4.043   1.405  15.092  0.4909  0.5251 -0.6267
 3032SOL    HW120729   4.099   1.334  15.061 -0.5090  0.5548 -2.5033
 3032SOL    HW220730   4.022   1.453  15.011  1.7329  2.1198  0.0030
 3033SOL     OW20731   3.629   2.760   3.267 -0.0563  0.3489 -0.1797
 3033SOL    HW120732   3.720   2.785   3.284  0.0271  1.0312 -1.5621
 3033SOL    HW220733   3.644   2.710   3.186  0.8785 -1.8030  1.3337
 3034SOL     OW20734   1.073   0.048   7.848 -0.2043  0.8813 -0.2882
 3034SOL    HW120735   1.159   0.084   7.870  0.9767 -2.0153 -0.2079
 3034SOL    HW220736   1.035   0.109   7.785 -0.7084  2.0526  1.1417
 3035SOL     OW20737   3.180   2.617   5.239 -0.3157 -0.3543  0.3068
 3035SOL    HW120738   3.199   2.588   5.329  0.4295  0.6906  0.4752
 3035SOL    HW220739   3.141   2.535   5.208 -1.1441 -0.1380  0.7697
 3036SOL     OW20740   3.446   0.295  17.229 -0.9104  0.2979 -0.9515
 3036SOL    HW120741   3.433   0.271  17.137 -0.4899 -0.8298 -0.7124
 3036SOL    HW220742   3.356   0.286  17.261  0.0821  0.0588  1.7389
 3037SOL     OW20743   3.702   0.463   2.477  0.2323 -0.1568 -0.8496
 3037SOL    HW120744   3.702   0.449   2.572  1.4228  3.0908 -0.3746
 3037SOL    HW220745   3.673   0.372   2.471 -0.7783  0.0795  0.3445
 3038SOL     OW20746   3.974   3.003   7.205  0.6501  0.2468  0.1692
 3038SOL    HW120747   4.021   2.925   7.174 -0.9486 -1.4822  2.0683
 3038SOL    HW220748   3.924   2.968   7.279  1.2114  3.0309  1.8256
 3039SOL     OW20749   3.449   2.873   7.160 -0.1102  0.6270 -0.2851
 3039SOL    HW120750   3.447   2.844   7.069  0.5265  0.8033 -0.3498
 3039SOL    HW220751   3.457   2.786   7.200  1.3174  0.9143  0.0552
 3040SOL     OW20752   0.021   2.633   5.802  0.2399  0.3809 -1.0865
 3040SOL    HW120753   4.736   2.621   5.710 -0.0478  1.5639 -1.1721
 3040SOL    HW220754   0.056   2.547   5.825  1.1813  1.4614  1.4532
 3041SOL     OW20755   2.572   0.154   1.024  0.1051 -0.6800  0.0767
 3041SOL    HW120756   2.622   0.154   0.942  1.0176 -0.2091  0.6364
 3041SOL    HW220757   2.614   0.095   1.086  0.0055  0.2566  1.0302
 3042SOL     OW20758   4.045   0.426  15.680  0.3599  0.0714 -0.1501
 3042SOL    HW120759   3.975   0.366  15.653 -0.1004 -0.2735  1.7885
 3042SOL    HW220760   4.012   0.466  15.760  0.2678 -0.4467  0.0744
 3043SOL     OW20761   0.380   4.257   7.677  0.9244 -0.0985  0.1457
 3043SOL    HW120762   0.332   4.186   7.719  1.8635 -1.4913 -1.1004
 3043SOL    HW220763   0.370   4.325   7.743  0.0138  0.6664 -0.7806
 3044SOL     OW20764   4.626   0.654   7.336  0.7283  0.0398 -0.2871
 3044SOL    HW120765   4.628   0.559   7.323 -0.7414 -0.1390  0.8313
 3044SOL    HW220766   4.550   0.667   7.393 -0.7049 -0.9209 -1.9744
 3045SOL     OW20767   3.284   0.042   5.177  0.1748 -0.0948  0.4426
 3045SOL    HW120768   3.191   0.044   5.200  0.2470  0.4727  0.6808
 3045SOL    HW220769   3.316   0.130   5.196  0.7432 -0.1453 -0.2790
 3046SOL     OW20770   3.506   1.782  13.046  0.1098  0.1282  0.0915
 3046SOL    HW120771   3.570   1.814  13.109 -0.2293  0.3254  0.3314
 3046SOL    HW220772   3.421   1.787  13.089  0.2424 -0.9267  0.4705
 3047SOL     OW20773   0.185   1.897   4.662 -0.0767 -0.7960 -0.1782
 3047SOL    HW120774   0.169   1.816   4.613 -2.6450  1.7037 -3.4969
 3047SOL    HW220775   0.266   1.869   4.706 -0.0834 -0.8803 -0.2202
 3048SOL     OW20776   3.202   0.749  10.191  0.1681  0.2393 -0.1315
 3048SOL    HW120777   3.260   0.798  10.249 -0.8337  0.2931  0.8254
 3048SOL    HW220778   3.135   0.813  10.166  0.2254  0.5540  0.5287
 3049SOL     OW20779   4.679   2.652   7.131 -0.0858  0.4663 -0.2058
 3049SOL    HW120780   0.030   2.691   7.134 -0.4405  1.3201 -0.8757
 3049SOL    HW220781   4.625   2.727   7.107  2.4546  2.1223 -0.6883
 3050SOL     OW20782   3.470   1.033  17.437 -0.5164  0.2130  0.1875
 3050SOL    HW120783   3.432   1.006  17.520 -0.8387  4.3485  1.4006
 3050SOL    HW220784   3.516   1.115  17.459 -0.5208  0.7596 -1.8471
 3051SOL     OW20785   3.409   4.717   1.731 -0.0776  0.3829 -0.2461
 3051SOL    HW120786   3.482   4.655   1.727 -0.5396 -0.0916 -1.1518
 3051SOL    HW220787   3.441   0.059   1.687  0.2945  0.0203 -0.6296
 3052SOL     OW20788   0.782   2.655   4.304 -0.2604 -0.3118  0.3836
 3052SOL    HW120789   0.874   2.678   4.316 -0.0788 -1.2224  0.7216
 3052SOL    HW220790   0.784   2.585   4.239 -1.9126 -0.4551  0.4877
 3053SOL     OW20791   2.602   1.952   5.129  0.2053  0.4415  0.0174
 3053SOL    HW120792   2.679   1.949   5.072  1.0125  2.6013  0.9844
 3053SOL    HW220793   2.556   2.032   5.103 -0.4510  0.8738  2.4275
 3054SOL     OW20794   0.911   1.746   2.592 -0.2197 -0.1046  0.5037
 3054SOL    HW120795   0.858   1.798   2.652  0.5668  0.3290  0.8356
 3054SOL    HW220796   0.843   1.699   2.543 -0.0331 -1.2275  1.3054
 3055SOL     OW20797   0.006   0.341   8.207  0.2907  0.0196 -0.2922
 3055SOL    HW120798   4.693   0.306   8.133 -2.1175  2.1643  0.3312
 3055SOL    HW220799   4.699   0.295   8.278  3.2677 -0.8857  0.9544
 3056SOL     OW20800   2.504   1.435   0.087  0.6913 -0.6200  0.3612
 3056SOL    HW120801   2.486   1.529   0.091 -0.3093 -0.6829 -2.6776
 3056SOL    HW220802   2.595   1.441   0.057  0.3960  2.7441  0.0575
 3057SOL     OW20803   2.150   2.396   8.297  0.6472  0.1282  0.2510
 3057SOL    HW120804   2.234   2.411   8.341  1.7364  1.8012 -2.4147
 3057SOL    HW220805   2.163   2.325   8.234  3.4963  0.6960  0.1870
 3058SOL     OW20806   4.313   3.106  12.300  0.1770  0.2597  0.0903
 3058SOL    HW120807   4.389   3.050  12.285  0.0140 -0.0443  0.4259
 3058SOL    HW220808   4.278   3.059  12.375  2.5104 -1.3400  0.1665
 3059SOL     OW20809   2.792   1.445   2.007 -0.2618 -0.6349 -0.2451
 3059SOL    HW120810   2.740   1.369   2.031 -3.3444  2.0985  1.8145
 3059SOL    HW220811   2.758   1.510   2.069 -1.3845  0.6682 -2.1980
 3060SOL     OW20812   0.562   4.544   6.310 -0.2308 -0.6108  0.0396
 3060SOL    HW120813   0.514   4.596   6.246 -0.6343  2.2810  2.6835
 3060SOL    HW220814   0.588   4.475   6.249 -2.0540  0.3477 -1.7845
 3061SOL     OW20815   3.386   4.441  10.929 -0.1563  0.3490 -0.1489
 3061SOL    HW120816   3.427   4.357  10.911 -0.8185 -0.0025 -0.0239
 3061SOL    HW220817   3.461   4.495  10.905  0.6784 -0.9954 -0.5309
 3062SOL     OW20818   1.981   2.721   1.788 -0.3115  0.3066  0.5309
 3062SOL    HW120819   2.040   2.691   1.719  0.1282  0.6051  0.7683
 3062SOL    HW220820   2.021   2.802   1.820 -0.1621  0.9609 -1.3361
 3063SOL     OW20821   2.181   3.656   2.629 -0.3333 -0.2895 -0.4483
 3063SOL    HW120822   2.166   3.602   2.552 -1.3311 -0.1835 -0.3316
 3063SOL    HW220823   2.096   3.697   2.641 -0.2094 -0.8015  2.2474
 3064SOL     OW20824   2.321   1.224   2.977 -0.4495 -0.3501 -0.0920
 3064SOL    HW120825   2.331   1.253   2.887 -0.7915  1.4821  0.4482
 3064SOL    HW220826   2.255   1.281   3.017 -0.1556 -2.2090  3.0779
 3065SOL     OW20827   4.517   2.402   7.009 -0.0126 -0.0453 -0.1254
 3065SOL    HW120828   4.452   2.446   7.063  0.7515 -1.4584  1.9450
 3065SOL    HW220829   4.468   2.380   6.929  1.3724 -1.0731 -0.7054
 3066SOL     OW20830   1.735   1.388   7.991  0.0298 -0.1713 -0.0667
 3066SOL    HW120831   1.672   1.358   8.056  0.2165 -0.7657 -0.1625
 3066SOL    HW220832   1.788   1.451   8.040 -0.0273  0.2335 -0.5207
 3067SOL     OW20833   3.147   3.608   4.422  0.6311  0.0430 -0.1302
 3067SOL    HW120834   3.153   3.700   4.448 -0.9128  0.6431 -1.8526
 3067SOL    HW220835   3.235   3.570   4.424  0.0124 -1.3454 -0.0033
 3068SOL     OW20836   4.698   3.527   5.795  0.0593  0.3957 -0.4563
 3068SOL    HW120837   0.035   3.578   5.763 -1.7985  2.2485 -1.7937
 3068SOL    HW220838   4.676   3.573   5.876  1.1204 -0.0421  0.0821
 3069SOL     OW20839   3.616   3.475   7.157  0.7686 -0.5530  0.3642
 3069SOL    HW120840   3.534   3.438   7.123  0.1611  0.5065  0.6567
 3069SOL    HW220841   3.622   3.453   7.250  2.8471  0.9430  0.5810
 3070SOL     OW20842   3.540   1.112  10.827  0.0019 -0.2695  0.0689
 3070SOL    HW120843   3.623   1.071  10.805 -0.5035 -0.7454 -0.9642
 3070SOL    HW220844   3.525   1.168  10.751 -0.0715 -0.1938  0.1376
 3071SOL     OW20845   3.313   4.132  16.258 -0.0621  0.1155 -0.1994
 3071SOL    HW120846   3.340   4.224  16.264 -1.9348  0.5562  1.5548
 3071SOL    HW220847   3.370   4.102  16.187 -0.5989 -0.6458 -0.3193
 3072SOL     OW20848   2.550   2.627   6.009  0.2773  0.0792  0.4638
 3072SOL    HW120849   2.488   2.573   6.059 -1.7541  0.0076 -2.1307
 3072SOL    HW220850   2.598   2.562   5.957 -1.5321 -1.4604  0.7121
 3073SOL     OW20851   1.800   4.325   6.201  0.3470 -0.1153 -0.1264
 3073SOL    HW120852   1.844   4.268   6.138 -1.3267 -0.1906 -1.2214
 3073SOL    HW220853   1.874   4.381   6.223  0.5523 -0.6000  0.4074
 3074SOL     OW20854   4.231   3.268   4.594  0.1387 -0.4148  0.0690
 3074SOL    HW120855   4.214   3.354   4.633  0.0762 -0.6634  0.5713
 3074SOL    HW220856   4.185   3.205   4.649 -0.6881  2.2988  2.4568
 3075SOL     OW20857   3.068   1.271  14.019  0.4043  0.3253 -0.3116
 3075SOL    HW120858   2.997   1.336  14.024  0.1076 -0.0161 -0.1063
 3075SOL    HW220859   3.086   1.270  13.925  1.8175  0.5551 -0.0467
 3076SOL     OW20860   3.290   2.536  11.853  0.1982  0.3285 -0.9986
 3076SOL    HW120861   3.304   2.624  11.818 -0.5687  0.6433 -0.5152
 3076SOL    HW220862   3.368   2.488  11.825  0.4007  1.5578 -2.6138
 3077SOL     OW20863   2.110   0.762  16.767 -0.3433  0.5709 -0.2560
 3077SOL    HW120864   2.120   0.816  16.845  1.3492 -1.4186  0.8836
 3077SOL    HW220865   2.190   0.709  16.765  0.2349  1.3812  1.9641
 3078SOL     OW20866   3.245   1.615   6.424  0.1195  0.1927 -0.4414
 3078SOL    HW120867   3.192   1.663   6.361  0.9741  1.5185 -0.1422
 3078SOL    HW220868   3.309   1.573   6.366  1.0848 -0.4248  1.0452
 3079SOL     OW20869   3.920   4.362   4.756  0.1897  0.3085  0.5242
 3079SOL    HW120870   3.965   4.292   4.709  1.0802  0.7739  0.6860
 3079SOL    HW220871   3.898   4.328   4.843 -0.9576 -1.5862 -0.5185
 3080SOL     OW20872   0.133   0.765   9.750  0.2948 -0.3898 -0.0613
 3080SOL    HW120873   0.134   0.822   9.673 -0.3713 -1.5047 -0.8851
 3080SOL    HW220874   0.169   0.683   9.716  0.3089 -1.2635  2.0479
 3081SOL     OW20875   4.240   0.710   4.531 -0.6309  0.3463 -0.2267
 3081SOL    HW120876   4.257   0.782   4.471  0.5434  0.2308 -0.0199
 3081SOL    HW220877   4.298   0.738   4.602 -1.2139 -0.6765  0.6707
 3082SOL     OW20878   1.921   4.143   3.894 -0.0061  0.0791  0.4487
 3082SOL    HW120879   1.854   4.075   3.907 -1.0262  0.9647 -0.1652
 3082SOL    HW220880   1.916   4.182   3.807  0.3932  0.7407  0.7228
 3083SOL     OW20881   2.676   3.720   2.725 -0.0936 -0.5241  0.2263
 3083SOL    HW120882   2.764   3.729   2.689 -1.2605  1.3071 -2.0899
 3083SOL    HW220883   2.627   3.713   2.643 -0.3245 -1.2019  0.4155
 3084SOL     OW20884   1.588   3.886   2.608 -0.8638  0.1231 -0.2636
 3084SOL    HW120885   1.598   3.848   2.695 -0.1150 -0.2657 -0.5108
 3084SOL    HW220886   1.510   3.843   2.573  0.8005 -3.1026 -0.1107
 3085SOL     OW20887   0.784   2.867   4.819 -0.3859  0.7032  0.4782
 3085SOL    HW120888   0.783   2.885   4.913  0.4985  1.4827  0.3416
 3085SOL    HW220889   0.713   2.923   4.789 -0.3298  0.4866 -0.0555
 3086SOL     OW20890   0.927   3.750   7.998 -0.2095  0.2931  0.3657
 3086SOL    HW120891   0.847   3.751   7.945 -1.3552  0.0035  2.0646
 3086SOL    HW220892   0.907   3.814   8.066  1.9582 -0.0171  1.2869
 3087SOL     OW20893   4.192   1.927  12.520 -0.0981  0.4297 -0.4347
 3087SOL    HW120894   4.243   1.955  12.444  1.3476 -0.6792  0.1262
 3087SOL    HW220895   4.123   1.880  12.474  1.1478 -1.9317  0.0831
 3088SOL     OW20896   0.381   1.128   8.386 -0.0187  0.6177  0.4019
 3088SOL    HW120897   0.299   1.176   8.378  0.1320  1.0501  1.4413
 3088SOL    HW220898   0.418   1.142   8.299  1.5152 -2.8008  0.4891
 3089SOL     OW20899   3.264   1.002  13.729  0.4884 -1.0694  0.0641
 3089SOL    HW120900   3.210   0.925  13.710 -1.5462  0.0424  1.4430
 3089SOL    HW220901   3.352   0.974  13.703  1.1081  0.1068  0.9302
 3090SOL     OW20902   1.794   4.468  14.147 -0.2015 -0.6700 -0.3422
 3090SOL    HW120903   1.723   4.451  14.209  0.9381 -1.2961  0.7779
 3090SOL    HW220904   1.760   4.533  14.085  1.1624 -0.1437 -0.5413
 3091SOL     OW20905   3.319   2.407   7.543  0.1641 -0.6398  0.4685
 3091SOL    HW120906   3.362   2.334   7.499  0.4787  0.5810 -1.2817
 3091SOL    HW220907   3.241   2.361   7.574  0.2886 -0.2983  1.3026
 3092SOL     OW20908   2.446   1.655   1.949 -0.8165  0.4520  0.0554
 3092SOL    HW120909   2.477   1.565   1.948 -1.9404  0.0301  3.2737
 3092SOL    HW220910   2.516   1.705   1.992 -0.9084  0.0916  0.6155
 3093SOL     OW20911   4.347   1.670   1.953  0.2341 -0.1585 -0.0395
 3093SOL    HW120912   4.397   1.598   1.917  0.7415 -0.4106  1.1514
 3093SOL    HW220913   4.392   1.737   1.902  1.1570 -0.7675 -0.0086
 3094SOL     OW20914   2.763   2.953   9.181 -0.1805  0.8262  0.0199
 3094SOL    HW120915   2.684   2.975   9.230 -0.1413  0.9791  0.0132
 3094SOL    HW220916   2.824   2.925   9.250 -0.1812 -0.3073 -0.4310
 3095SOL     OW20917   0.923   0.121   7.083  0.2537 -0.2070  0.1249
 3095SOL    HW120918   0.868   0.045   7.064 -1.2472  0.5920  1.2402
 3095SOL    HW220919   0.873   0.165   7.151  1.0205  1.9658 -0.7192
 3096SOL     OW20920   2.370   4.188   9.220  0.3796 -0.7005  0.2004
 3096SOL    HW120921   2.344   4.098   9.237  0.2312  0.3010  5.5337
 3096SOL    HW220922   2.439   4.181   9.155 -1.5849 -0.8246 -1.8705
 3097SOL     OW20923   2.220   1.395   0.091 -0.1264 -0.7175 -0.7577
 3097SOL    HW120924   2.290   1.391   0.156 -0.9824  2.8555  0.4084
 3097SOL    HW220925   2.241   1.323   0.033 -0.1095 -1.6207  0.3666
 3098SOL     OW20926   4.532   3.428   6.755 -0.1920 -0.3128 -0.4370
 3098SOL    HW120927   4.472   3.500   6.776 -0.4987 -0.4482 -0.8397
 3098SOL    HW220928   4.595   3.464   6.692  1.4696 -2.0692  0.2205
 3099SOL     OW20929   3.806   0.002   5.655 -0.0399  0.3936 -0.4173
 3099SOL    HW120930   3.783   4.736   5.748  1.6604 -0.9939 -0.0445
 3099SOL    HW220931   3.742   0.064   5.621 -1.3148 -0.2778  0.7467
 3100SOL     OW20932   0.755   0.194   4.215  0.1450 -0.2736 -0.2115
 3100SOL    HW120933   0.844   0.210   4.185  0.5294 -1.6619  0.1761
 3100SOL    HW220934   0.739   0.104   4.187 -0.8334  0.0558 -0.7294
 3101SOL     OW20935   0.468   1.822   4.439  0.2450 -0.0405  0.2876
 3101SOL    HW120936   0.526   1.748   4.458 -1.3869 -1.1961  0.7444
 3101SOL    HW220937   0.389   1.789   4.481  0.5721 -1.0303  0.1350
 3102SOL     OW20938   0.895   2.382  13.553  0.5337  0.4579  0.1344
 3102SOL    HW120939   0.833   2.439  13.508  1.4373  1.2739 -0.0740
 3102SOL    HW220940   0.902   2.314  13.486 -2.4979 -1.3751  1.6858
 3103SOL     OW20941   3.618   1.534  14.291 -0.1703 -0.1915 -0.1774
 3103SOL    HW120942   3.541   1.559  14.342 -0.2683  0.2109 -0.5196
 3103SOL    HW220943   3.687   1.599  14.305  0.0484 -0.1791 -1.3148
 3104SOL     OW20944   3.644   1.578   6.580  0.5705  0.3451 -0.6749
 3104SOL    HW120945   3.719   1.637   6.582  0.1805  0.7724  0.6952
 3104SOL    HW220946   3.570   1.636   6.563  1.2528  0.7548 -2.2907
 3105SOL     OW20947   3.433   3.991   9.098  0.0780 -1.0813 -0.0839
 3105SOL    HW120948   3.446   3.964   9.007  1.1282  1.8584 -0.8333
 3105SOL    HW220949   3.338   3.993   9.110  0.2923 -2.8621  1.8785
 3106SOL     OW20950   4.091   1.868  11.669 -0.4728 -0.6150  0.1918
 3106SOL    HW120951   4.014   1.889  11.616  0.4232  3.0673  0.3508
 3106SOL    HW220952   4.059   1.878  11.758  0.8609  2.1245  0.3896
 3107SOL     OW20953   3.811   2.814   3.480  0.2027 -0.2050  0.2709
 3107SOL    HW120954   3.843   2.846   3.564  4.7430  0.0114 -1.5197
 3107SOL    HW220955   3.833   2.722   3.498 -1.1447 -0.4216  0.7580
 3108SOL     OW20956   1.513   0.564   6.162 -0.6229 -0.4071  0.3457
 3108SOL    HW120957   1.467   0.486   6.134 -1.9878  0.6164 -0.2151
 3108SOL    HW220958   1.551   0.528   6.243  1.3377 -2.9754 -1.7193
 3109SOL     OW20959   4.193   0.301   6.006  0.3787  0.1757 -0.2224
 3109SOL    HW120960   4.105   0.319   5.972  1.0699 -1.1017 -2.6618
 3109SOL    HW220961   4.182   0.324   6.098 -0.6083 -2.2525  0.2593
 3110SOL     OW20962   1.958   1.970   3.666  0.0785  0.1837 -0.5738
 3110SOL    HW120963   2.014   1.895   3.682 -1.0813 -1.0513 -2.2727
 3110SOL    HW220964   1.959   2.009   3.753 -0.4421 -0.7528 -0.1501
 3111SOL     OW20965   3.640   4.170   2.634  0.0997 -0.1776  0.0224
 3111SOL    HW120966   3.569   4.143   2.692  0.4326 -1.4633 -0.1776
 3111SOL    HW220967   3.711   4.120   2.675  1.3636  1.1828 -0.4738
 3112SOL     OW20968   4.026   2.119   3.943  0.5343  0.0688  0.2536
 3112SOL    HW120969   4.093   2.053   3.926  1.6501  1.2772  0.0002
 3112SOL    HW220970   3.983   2.128   3.858 -1.9816 -0.2325  1.4888
 3113SOL     OW20971   3.619   2.425   7.226  0.1578  0.4664  0.1282
 3113SOL    HW120972   3.653   2.378   7.302  0.8211  0.4619 -0.1689
 3113SOL    HW220973   3.550   2.473   7.273 -0.6896 -1.8097  1.2051
 3114SOL     OW20974   0.118   4.021   9.517  0.3424 -0.2008 -0.1601
 3114SOL    HW120975   0.166   4.026   9.435  0.5959 -0.5682 -0.0319
 3114SOL    HW220976   0.124   3.930   9.546  0.9643  0.3772  1.5609
 3115SOL     OW20977   3.560   3.655   2.492  0.2269 -0.9691 -0.5611
 3115SOL    HW120978   3.638   3.690   2.449  1.7844 -2.4644  1.0383
 3115SOL    HW220979   3.531   3.729   2.546  0.9973 -2.5792  2.0798
 3116SOL     OW20980   2.969   0.869   6.070  0.4181 -0.1978 -0.0970
 3116SOL    HW120981   2.925   0.949   6.097  2.0184  0.5164  0.3839
 3116SOL    HW220982   3.048   0.884   6.121  0.5834 -1.1659 -0.0593
 3117SOL     OW20983   0.816   2.140   5.929 -0.8690  0.0091  0.0772
 3117SOL    HW120984   0.788   2.067   5.874 -0.2496  0.2258 -0.5270
 3117SOL    HW220985   0.849   2.101   6.010  1.3579 -1.8355 -1.7386
 3118SOL     OW20986   4.595   2.995   6.853  0.2211  0.1643  0.0872
 3118SOL    HW120987   4.659   2.924   6.857 -1.6148 -1.4085  2.0405
 3118SOL    HW220988   4.608   3.044   6.935  1.0059 -2.3514  1.4590
 3119SOL     OW20989   1.346   2.126   0.158 -0.2854 -0.4191  0.5668
 3119SOL    HW120990   1.319   2.035   0.148 -0.5401 -0.2487 -0.2402
 3119SOL    HW220991   1.426   2.113   0.209 -0.8739 -0.0993  1.5604
 3120SOL     OW20992   1.421   1.165   5.105  0.2576 -0.8269  0.1878
 3120SOL    HW120993   1.453   1.153   5.016 -1.4772 -1.3051 -0.3724
 3120SOL    HW220994   1.433   1.074   5.133  2.5218  0.6977  4.3457
 3121SOL     OW20995   2.446   1.562   2.937 -0.1902 -0.3019  0.3602
 3121SOL    HW120996   2.479   1.515   3.013  1.8885 -0.0419 -0.3716
 3121SOL    HW220997   2.507   1.636   2.934  0.5054 -0.8047  2.2085
 3122SOL     OW20998   3.696   4.158   6.562 -0.1433  0.0031 -0.0899
 3122SOL    HW120999   3.685   4.141   6.655  2.9148 -0.6088  0.1523
 3122SOL    HW221000   3.678   4.070   6.528 -1.0701  0.3632 -0.5131
 3123SOL     OW21001   0.726   1.353  10.195 -0.0017 -0.0542  0.0467
 3123SOL    HW121002   0.694   1.269  10.162  0.2740 -0.1457  0.0124
 3123SOL    HW221003   0.796   1.368  10.131  0.0103 -2.6918 -0.5436
 3124SOL     OW21004   0.523   0.793   4.410  0.3222  0.0308  0.0651
 3124SOL    HW121005   0.447   0.845   4.436 -1.3412 -2.9411  1.0016
 3124SOL    HW221006   0.592   0.839   4.459  0.6661 -0.9831  0.5156
 3125SOL     OW21007   2.695   3.703  15.784  0.2427 -0.5615  0.3025
 3125SOL    HW121008   2.763   3.767  15.761  1.4818 -1.7826  0.5440
 3125SOL    HW221009   2.700   3.641  15.711  0.4713  0.3634 -0.4761
 3126SOL     OW21010   1.736   4.471   5.969  0.2559 -0.0790  0.2120
 3126SOL    HW121011   1.739   4.471   6.065  0.4893 -1.2861  0.1981
 3126SOL    HW221012   1.826   4.448   5.943 -0.2274 -0.6745 -0.9249
 3127SOL     OW21013   2.757   1.647   3.445 -0.0405  0.2093 -0.3415
 3127SOL    HW121014   2.697   1.688   3.382 -2.2555 -0.7858  1.1149
 3127SOL    HW221015   2.697   1.588   3.491  0.6820  0.0849  0.4317
 3128SOL     OW21016   0.108   1.183  12.729  0.1831  0.1412  0.2401
 3128SOL    HW121017   0.171   1.128  12.776 -1.4331 -1.8838  0.0170
 3128SOL    HW221018   0.108   1.267  12.776  2.2287  0.4074 -0.2069
 3129SOL     OW21019   3.364   1.258   7.566  0.0430 -0.2224  1.1120
 3129SOL    HW121020   3.351   1.183   7.623  0.3078 -0.0132  1.4537
 3129SOL    HW221021   3.303   1.221   7.502  0.4315  1.2467 -0.1023
 3130SOL     OW21022   1.684   1.977   3.546 -0.1322 -0.0281  0.2934
 3130SOL    HW121023   1.666   2.048   3.608 -1.1705 -1.0007  1.1221
 3130SOL    HW221024   1.776   1.958   3.563  0.3696  1.3549 -1.0185
 3131SOL     OW21025   3.392   3.568   4.515 -0.5575  0.9009  0.7576
 3131SOL    HW121026   3.452   3.494   4.528 -2.7618 -1.1488 -0.7578
 3131SOL    HW221027   3.390   3.614   4.599  1.2312  1.9837  0.1952
 3132SOL     OW21028   0.739   1.043   6.080 -0.1539  0.5810 -1.0003
 3132SOL    HW121029   0.748   0.948   6.081  0.0304  0.6145  0.2421
 3132SOL    HW221030   0.820   1.074   6.041  1.1741 -2.2412 -0.4634
 3133SOL     OW21031   4.711   0.008   2.345  0.5424  0.1286 -0.4790
 3133SOL    HW121032   0.044   0.062   2.307 -0.1390  2.6237  1.7972
 3133SOL    HW221033   4.681   0.063   2.418  0.6081  0.6404 -0.8353
 3134SOL     OW21034   4.395   1.078   3.646  0.2950 -0.8946 -0.5421
 3134SOL    HW121035   4.339   1.114   3.715  1.6882  0.2268 -0.0028
 3134SOL    HW221036   4.387   0.988   3.679 -2.0564 -0.9991 -1.3676
 3135SOL     OW21037   2.192   2.686   5.931 -0.5027  0.5045  0.3257
 3135SOL    HW121038   2.133   2.760   5.947 -0.1222  0.7540  0.5671
 3135SOL    HW221039   2.274   2.733   5.916 -0.8631  0.5894 -1.4341
 3136SOL     OW21040   0.025   1.307   7.988  0.0509  0.1247 -0.5119
 3136SOL    HW121041   0.045   1.391   8.031  1.5099  0.1451 -1.2416
 3136SOL    HW221042   4.714   1.336   7.911 -0.2606 -1.9489 -1.0946
 3137SOL     OW21043   2.148   2.646  16.049  0.5222  0.1065 -0.1026
 3137SOL    HW121044   2.241   2.663  16.036  0.1195  2.6176  0.3684
 3137SOL    HW221045   2.109   2.712  15.992  1.3539 -0.4125 -1.2562
 3138SOL     OW21046   1.835   2.618   7.708 -0.3816 -0.5791 -0.2961
 3138SOL    HW121047   1.890   2.568   7.767 -1.3545 -0.0664  1.0459
 3138SOL    HW221048   1.869   2.708   7.712 -0.2159 -0.5829 -1.5060
 3139SOL     OW21049   2.529   2.238   3.063 -0.2260  0.0065  0.1400
 3139SOL    HW121050   2.435   2.220   3.065  0.0053 -1.1014  1.0417
 3139SOL    HW221051   2.550   2.199   2.978 -2.6515  0.2848 -0.5867
 3140SOL     OW21052   3.361   1.397  10.159 -0.3104  0.0666  0.3803
 3140SOL    HW121053   3.308   1.464  10.201  1.1444  1.7575 -0.4643
 3140SOL    HW221054   3.450   1.432  10.170 -0.0966 -0.4724  0.3732
 3141SOL     OW21055   4.323   1.488   3.288 -0.3489 -0.2354 -0.2860
 3141SOL    HW121056   4.300   1.401   3.322  0.7317 -0.0609  0.9012
 3141SOL    HW221057   4.291   1.480   3.198  0.0751 -1.7499 -0.2965
 3142SOL     OW21058   3.235   1.405   0.871  0.2152  0.3155  0.1927
 3142SOL    HW121059   3.179   1.364   0.805  0.6525  0.9604 -0.5742
 3142SOL    HW221060   3.264   1.321   0.908 -0.7990 -0.8579 -1.6783
 3143SOL     OW21061   1.577   1.736   2.038  0.9621 -0.0990 -0.6211
 3143SOL    HW121062   1.557   1.644   2.055 -3.5427  0.6191 -2.0905
 3143SOL    HW221063   1.515   1.752   1.967 -0.2643  0.2015  0.5178
 3144SOL     OW21064   0.753   4.455   2.183  0.8006 -0.2372  0.2868
 3144SOL    HW121065   0.795   4.380   2.142  0.2026 -0.5344  0.2155
 3144SOL    HW221066   0.751   4.513   2.107 -0.6011  0.7652  1.0767
 3145SOL     OW21067   2.433   0.769   4.958  0.3896  0.4827 -0.2906
 3145SOL    HW121068   2.468   0.855   4.980  2.5510 -0.9479  1.8894
 3145SOL    HW221069   2.508   0.734   4.911  0.6881 -0.9642  1.2475
 3146SOL     OW21070   3.332   3.037   9.355  0.2075  0.2478 -0.1755
 3146SOL    HW121071   3.388   2.965   9.385  0.1125  0.1150 -0.3144
 3146SOL    HW221072   3.258   3.032   9.414  0.2006 -1.3124 -0.3156
 3147SOL     OW21073   0.802   1.135   1.278  0.0556  0.9189  0.4554
 3147SOL    HW121074   0.882   1.086   1.260 -0.8037  0.2413 -1.5266
 3147SOL    HW221075   0.832   1.226   1.276 -0.5317  1.1140  0.2456
 3148SOL     OW21076   1.927   1.915   5.786 -0.3027 -0.1770 -0.3034
 3148SOL    HW121077   1.936   1.970   5.864  1.2279  0.8228 -1.1881
 3148SOL    HW221078   1.990   1.959   5.728 -0.3604  0.3630  0.0485
 3149SOL     OW21079   2.152   2.670   3.739 -0.5375 -0.0223 -0.3127
 3149SOL    HW121080   2.232   2.633   3.778 -1.5731 -1.1213  0.7803
 3149SOL    HW221081   2.135   2.586   3.696 -1.6818 -1.3060  2.6103
 3150SOL     OW21082   1.053   3.964   5.848  0.2459  0.3882 -0.2898
 3150SOL    HW121083   1.058   4.050   5.808 -2.0242  1.1794  1.1600
 3150SOL    HW221084   0.958   3.955   5.851  0.3092 -0.3270 -0.5109
 3151SOL     OW21085   0.299   2.478  12.114  0.4699 -0.1263 -0.4136
 3151SOL    HW121086   0.304   2.464  12.020  1.6172 -0.6188 -0.2875
 3151SOL    HW221087   0.348   2.559  12.129 -0.7614  0.7104 -0.9872
 3152SOL     OW21088   4.373   4.180   4.670 -0.6162  0.0445  0.0388
 3152SOL    HW121089   4.352   4.265   4.710  0.2275  0.1110  0.3502
 3152SOL    HW221090   4.419   4.214   4.593  0.4856 -1.1751  0.1713
 3153SOL     OW21091   3.385   2.294   7.298 -0.1329 -0.3736 -0.0940
 3153SOL    HW121092   3.296   2.263   7.282  0.1844 -1.0268 -0.6268
 3153SOL    HW221093   3.421   2.279   7.210  2.0217 -0.4158  0.7906
 3154SOL     OW21094   0.785   3.101   1.232  0.2473  0.5189 -0.6634
 3154SOL    HW121095   0.874   3.085   1.264  1.2074  0.1977 -3.4323
 3154SOL    HW221096   0.765   3.008   1.239  0.2873  0.5572 -0.0993
 3155SOL     OW21097   0.208   4.665  10.418  0.4631  0.6076 -0.1067
 3155SOL    HW121098   0.183   0.005  10.366  0.3387 -0.1558 -1.1674
 3155SOL    HW221099   0.289   4.691  10.461 -0.3018  2.8640 -0.0235
 3156SOL     OW21100   0.291   1.948   1.467  0.2061  0.3854  0.5979
 3156SOL    HW121101   0.377   1.976   1.499  0.8832 -0.7867 -0.1931
 3156SOL    HW221102   0.312   1.947   1.374  0.1554  0.2603  0.5871
 3157SOL     OW21103   2.710   1.655   7.176  0.1983  0.1710  0.3543
 3157SOL    HW121104   2.728   1.708   7.254 -0.5488  1.9543 -0.6737
 3157SOL    HW221105   2.756   1.689   7.099  0.7619  0.4582  0.8229
 3158SOL     OW21106   2.403   1.978   8.191  0.9838 -0.2998 -0.2427
 3158SOL    HW121107   2.361   2.064   8.185 -1.0214 -1.3670 -1.6639
 3158SOL    HW221108   2.483   1.987   8.139  0.4478 -0.3740 -1.0879
 3159SOL     OW21109   0.040   2.097   1.210  0.1468  0.7688 -0.1559
 3159SOL    HW121110   0.134   2.078   1.208 -0.1048 -0.4115 -0.4057
 3159SOL    HW221111   0.012   2.026   1.267  0.6859  1.2160  0.6617
 3160SOL     OW21112   2.586   3.742   8.229  0.4099  0.1431 -0.4347
 3160SOL    HW121113   2.502   3.733   8.183  0.5243 -1.9301 -0.2329
 3160SOL    HW221114   2.644   3.680   8.185 -2.6199 -1.9690 -1.5467
 3161SOL     OW21115   4.171   4.193   1.995 -0.4520  0.2133  1.0006
 3161SOL    HW121116   4.154   4.123   2.059 -1.2407  0.3691  0.9626
 3161SOL    HW221117   4.253   4.232   2.026 -0.8359  1.1235  0.8501
 3162SOL     OW21118   3.956   4.120   6.847 -0.2531  0.9352  0.4785
 3162SOL    HW121119   3.958   4.080   6.760  1.7042  0.6625  0.6449
 3162SOL    HW221120   4.038   4.168   6.837  0.7175 -1.3859 -2.7430
 3163SOL     OW21121   0.088   4.029  17.373 -0.2175 -0.3984  0.2411
 3163SOL    HW121122   0.111   4.008  17.463 -0.3138 -1.3599  0.0483
 3163SOL    HW221123   0.013   4.086  17.386  0.6546  0.8859 -0.4248
 3164SOL     OW21124   3.212   4.256   9.425  0.1839  0.1782  0.5780
 3164SOL    HW121125   3.130   4.297   9.397 -0.0740 -1.3215 -0.8576
 3164SOL    HW221126   3.262   4.250   9.344  0.0151  1.0856  0.4057
 3165SOL     OW21127   1.044   1.451   8.205  0.1646  0.2690  0.6394
 3165SOL    HW121128   0.949   1.454   8.212  0.2071  2.2259  0.3842
 3165SOL    HW221129   1.067   1.359   8.194 -1.5700  0.1086 -1.7374
 3166SOL     OW21130   3.440   3.639  12.889  0.0226  0.1548  0.4714
 3166SOL    HW121131   3.354   3.668  12.858  0.1809 -0.9990 -1.0574
 3166SOL    HW221132   3.495   3.702  12.842  2.2994 -1.2002  1.2715
 3167SOL     OW21133   0.694   0.125   8.240 -0.3355 -0.0136  0.2726
 3167SOL    HW121134   0.751   0.200   8.260 -0.2476  0.5881 -2.2458
 3167SOL    HW221135   0.748   0.087   8.170  0.8967  0.1466  1.1278
 3168SOL     OW21136   3.658   0.151   6.707 -0.3575 -0.0887 -0.4438
 3168SOL    HW121137   3.664   0.240   6.672  0.9509  0.6006  1.5356
 3168SOL    HW221138   3.569   0.116   6.696 -0.9655  0.8157  1.4664
 3169SOL     OW21139   4.712   2.796   4.045 -0.4803 -0.0339 -0.0124
 3169SOL    HW121140   0.007   2.882   4.073  0.5435 -0.4476  0.0879
 3169SOL    HW221141   0.037   2.737   4.087  0.9311  1.8172  0.5283
 3170SOL     OW21142   1.379   4.383   5.037 -0.1783 -0.1277 -0.3332
 3170SOL    HW121143   1.307   4.362   5.096 -1.6597 -0.2068 -2.1801
 3170SOL    HW221144   1.431   4.445   5.089 -0.8556  0.3702 -0.2427
 3171SOL     OW21145   1.767   2.449  14.258 -0.3991 -0.2795  0.2676
 3171SOL    HW121146   1.727   2.508  14.322 -0.7291 -1.2423  0.9493
 3171SOL    HW221147   1.711   2.453  14.180  1.1857  2.4719 -0.7151
 3172SOL     OW21148   4.301   0.074   5.040 -0.2745  0.2674  0.7869
 3172SOL    HW121149   4.320   0.124   4.960 -1.7773  1.7344  1.3231
 3172SOL    HW221150   4.208   0.097   5.045 -0.0767  0.8632  1.6599
 3173SOL     OW21151   2.813   2.256   6.813 -0.1382 -0.0139 -0.2475
 3173SOL    HW121152   2.728   2.264   6.770 -0.3431 -2.1075 -0.2406
 3173SOL    HW221153   2.855   2.332   6.773  0.7407  0.1824  1.0595
 3174SOL     OW21154   3.010   3.974   5.392  0.7287  0.3066  0.0649
 3174SOL    HW121155   3.056   3.973   5.476  0.1004 -1.7988  0.3823
 3174SOL    HW221156   2.926   3.930   5.406  0.2176  0.5551 -2.2902
 3175SOL     OW21157   3.303   3.721   0.636 -0.3401 -0.3982  0.5121
 3175SOL    HW121158   3.319   3.735   0.729 -2.9755 -0.6372  1.0057
 3175SOL    HW221159   3.207   3.720   0.638 -0.3747  0.5473 -0.5871
 3176SOL     OW21160   1.068   1.825   8.293 -0.0895  0.1495 -0.0413
 3176SOL    HW121161   0.997   1.812   8.356 -1.1227  1.6683 -0.9092
 3176SOL    HW221162   1.030   1.837   8.206  2.1817  1.2354 -0.8995
 3177SOL     OW21163   0.232   4.278   1.826 -0.2365  0.2538 -0.8645
 3177SOL    HW121164   0.202   4.212   1.764 -0.4946 -0.6864  0.2724
 3177SOL    HW221165   0.154   4.302   1.876  0.6615  1.7952 -0.1966
 3178SOL     OW21166   0.112   3.832   1.206 -0.0801 -0.1561  0.2445
 3178SOL    HW121167   0.118   3.925   1.230 -0.2553  0.3170 -1.5428
 3178SOL    HW221168   0.018   3.817   1.218 -0.2715  0.1648 -0.7826
 3179SOL     OW21169   4.681   0.335   1.380  0.1778 -0.4815 -0.7582
 3179SOL    HW121170   4.629   0.404   1.339 -0.2649 -0.5409 -0.2918
 3179SOL    HW221171   0.035   0.365   1.372 -0.0159  0.2106 -0.2811
 3180SOL     OW21172   3.706   3.537   9.335  0.4155 -0.1416 -0.1523
 3180SOL    HW121173   3.777   3.482   9.369 -0.7472 -2.1675 -0.9970
 3180SOL    HW221174   3.701   3.502   9.246 -0.5592  0.0675 -0.1868
 3181SOL     OW21175   1.080   2.426   8.668 -0.1528 -0.2687 -0.1310
 3181SOL    HW121176   1.038   2.512   8.661 -0.4907 -0.3106  1.2178
 3181SOL    HW221177   1.026   2.374   8.728 -0.8548 -1.1107 -1.4886
 3182SOL     OW21178   0.398   3.928   5.874 -0.5182  0.3840 -0.1015
 3182SOL    HW121179   0.367   3.982   5.802 -1.6138 -0.8235 -0.5315
 3182SOL    HW221180   0.453   3.860   5.836 -1.9551  0.4777 -2.3490
 3183SOL     OW21181   2.474   3.572   7.803 -0.5270  0.4225 -0.1622
 3183SOL    HW121182   2.434   3.490   7.832 -0.4806 -0.2213 -1.9303
 3183SOL    HW221183   2.562   3.534   7.804 -0.4293  0.6363 -1.2813
 3184SOL     OW21184   4.364   0.826   0.603 -0.5822  0.2945 -0.2501
 3184SOL    HW121185   4.387   0.916   0.578 -1.0826  0.3610 -0.4664
 3184SOL    HW221186   4.392   0.781   0.524 -0.3275  0.2029 -0.1064
 3185SOL     OW21187   0.788   2.828   7.319 -0.7549  0.0499 -0.0450
 3185SOL    HW121188   0.834   2.757   7.364  1.4645  2.5119  1.5634
 3185SOL    HW221189   0.807   2.812   7.227 -0.8951 -0.2277 -0.0263
 3186SOL     OW21190   1.338   2.209  17.084 -0.0123 -0.1216 -0.2075
 3186SOL    HW121191   1.342   2.117  17.057  1.0059 -0.1363  0.0085
 3186SOL    HW221192   1.429   2.234  17.098 -0.3951  1.7733 -1.0322
 3187SOL     OW21193   3.691   2.136   7.020 -0.3470  0.4022  0.3662
 3187SOL    HW121194   3.779   2.111   7.049 -0.8558 -0.4478  1.1557
 3187SOL    HW221195   3.656   2.054   6.987  0.6662  0.3066 -0.4719
 3188SOL     OW21196   0.075   0.706  10.034 -0.4944  0.7576  0.0348
 3188SOL    HW121197   0.166   0.683  10.020 -1.0884 -1.1370 -0.6879
 3188SOL    HW221198   0.054   0.744   9.949 -0.9661 -0.5849 -0.4628
 3189SOL     OW21199   2.891   4.273   5.710  0.9470 -0.0354  0.2017
 3189SOL    HW121200   2.830   4.273   5.636  1.0767  1.5225  0.0908
 3189SOL    HW221201   2.926   4.362   5.708  2.2341 -0.5160  1.5394
 3190SOL     OW21202   0.031   2.785   6.840 -0.4063  0.4262  0.1246
 3190SOL    HW121203   0.044   2.798   6.746 -0.8820  0.0119  0.0058
 3190SOL    HW221204   0.122   2.795   6.869 -0.0660  0.5079 -0.9739
 3191SOL     OW21205   1.505   4.418  13.738  0.2522 -0.1545 -0.0298
 3191SOL    HW121206   1.532   4.370  13.816 -2.9824 -0.1136  1.0909
 3191SOL    HW221207   1.425   4.372  13.714 -0.3555  1.2544 -0.6936
 3192SOL     OW21208   2.276   1.658  11.509  0.9471  0.0628 -0.1462
 3192SOL    HW121209   2.371   1.656  11.523  1.1920  1.3716 -1.6284
 3192SOL    HW221210   2.255   1.745  11.541  2.3048  0.3222  0.0424
 3193SOL     OW21211   3.216   2.793   4.962 -0.5223  0.5918  0.4838
 3193SOL    HW121212   3.203   2.880   4.999  0.6611  0.9926 -0.0518
 3193SOL    HW221213   3.204   2.741   5.042 -0.1981  1.1209  0.8676
 3194SOL     OW21214   2.249   0.110   2.469  0.0669 -0.5211 -0.3372
 3194SOL    HW121215   2.331   0.103   2.420  1.0656 -0.7355  1.3585
 3194SOL    HW221216   2.200   0.133   2.390 -0.5982 -0.4362  0.1071
 3195SOL     OW21217   0.523   2.896   6.029  0.0451 -0.0937 -0.2524
 3195SOL    HW121218   0.585   2.914   6.100  0.1162  2.0001 -0.8409
 3195SOL    HW221219   0.452   2.954   6.057 -1.9566 -1.7940 -1.8202
 3196SOL     OW21220   4.596   4.591  11.895 -0.2906 -0.1580 -0.5841
 3196SOL    HW121221   4.535   4.597  11.822 -2.1182  0.8502  1.0498
 3196SOL    HW221222   4.546   4.537  11.956 -0.8278  0.5900 -0.3657
 3197SOL     OW21223   3.122   1.878  11.990 -0.1504  0.0837  0.4635
 3197SOL    HW121224   3.072   1.957  11.970  0.6793  0.2802 -0.7979
 3197SOL    HW221225   3.169   1.866  11.908  4.1993  0.6870  2.9012
 3198SOL     OW21226   1.623   0.222   2.990  0.3331  0.1669 -0.4031
 3198SOL    HW121227   1.650   0.285   3.056  1.6371 -0.6329 -0.1590
 3198SOL    HW221228   1.553   0.182   3.041  0.8734  1.1717  1.1407
 3199SOL     OW21229   1.354   1.230  17.424 -0.0075  0.1820 -0.7848
 3199SOL    HW121230   1.439   1.186  17.422 -0.4552 -0.6973 -0.6713
 3199SOL    HW221231   1.359   1.301  17.360  1.2218 -0.2903 -1.2114
 3200SOL     OW21232   2.330   0.382   7.886  0.1141  0.0429 -0.2493
 3200SOL    HW121233   2.325   0.312   7.822  2.3207  0.0379 -0.4187
 3200SOL    HW221234   2.420   0.412   7.873 -0.3125  0.5478 -1.9933
 3201SOL     OW21235   2.334   2.251   6.759  0.5752  0.3086 -0.3925
 3201SOL    HW121236   2.312   2.174   6.707  1.4568 -1.8315  2.4123
 3201SOL    HW221237   2.298   2.221   6.842 -1.4134 -0.0707 -1.3886
 3202SOL     OW21238   3.011   3.941   5.117 -0.0102  0.0282 -0.3728
 3202SOL    HW121239   3.044   3.996   5.045  1.8473 -1.5887 -0.7570
 3202SOL    HW221240   3.013   3.989   5.200  1.2719 -0.7396  0.0509
 3203SOL     OW21241   4.312   4.149  10.870 -0.1172  0.3948  0.4218
 3203SOL    HW121242   4.324   4.150  10.965 -0.5192 -0.6026  0.4825
 3203SOL    HW221243   4.385   4.200  10.836  0.4133 -1.3052 -0.9938
 3204SOL     OW21244   2.444   3.239   2.059 -0.0252 -0.7200  0.4691
 3204SOL    HW121245   2.509   3.233   1.988 -0.6328 -0.9407 -0.0671
 3204SOL    HW221246   2.384   3.171   2.028 -2.0055  0.6513  1.2928
 3205SOL     OW21247   0.909   2.225   1.435 -0.4287  0.0944  0.0811
 3205SOL    HW121248   0.890   2.193   1.523  0.1146 -0.9388 -0.1770
 3205SOL    HW221249   0.939   2.310   1.464  0.9670  0.2811 -1.9421
 3206SOL     OW21250   2.399   2.357   8.519 -0.0824  0.1896 -0.4689
 3206SOL    HW121251   2.401   2.369   8.424 -1.7822  0.1243 -0.5260
 3206SOL    HW221252   2.396   2.261   8.515 -2.4598  0.2350 -0.3106
 3207SOL     OW21253   0.402   1.899   2.198 -0.0801  0.6534 -0.7581
 3207SOL    HW121254   0.311   1.882   2.174 -0.3081  0.2592  0.3796
 3207SOL    HW221255   0.396   1.994   2.206  1.0411  0.6034  0.5489
 3208SOL     OW21256   2.765   2.115   5.337  0.2598  0.3084 -0.6696
 3208SOL    HW121257   2.675   2.102   5.306 -0.2701  1.6038  0.3437
 3208SOL    HW221258   2.803   2.131   5.251  0.1488  0.2651 -0.7267
 3209SOL     OW21259   3.551   2.009   3.042 -0.7727 -0.1878  0.0483
 3209SOL    HW121260   3.615   2.050   3.101 -0.4157  0.0637 -0.5150
 3209SOL    HW221261   3.483   1.990   3.107 -0.5968  0.5287  0.4414
 3210SOL     OW21262   2.894   4.510  12.409 -0.0893  0.7992  0.2040
 3210SOL    HW121263   2.914   4.483  12.319 -2.8887  0.6267 -0.3637
 3210SOL    HW221264   2.971   4.475  12.453 -0.3994  0.4442  0.4663
 3211SOL     OW21265   3.178   4.512   3.758 -0.0378  0.3731 -0.3021
 3211SOL    HW121266   3.193   4.576   3.828 -0.6658 -1.3120  1.3684
 3211SOL    HW221267   3.141   4.571   3.692  0.3230 -1.1252 -1.8256
 3212SOL     OW21268   0.039   4.309   4.184 -0.6053  0.5939 -0.5046
 3212SOL    HW121269   4.717   4.246   4.142  0.1124 -0.1835 -0.3542
 3212SOL    HW221270   0.041   4.378   4.118 -2.1595  0.9932 -0.1509
 3213SOL     OW21271   2.429   0.567  17.145  0.1936 -0.0728  0.1494
 3213SOL    HW121272   2.351   0.611  17.178 -0.1025 -1.4137  1.2485
 3213SOL    HW221273   2.493   0.636  17.127  0.2174 -0.2128 -0.2984
 3214SOL     OW21274   0.344   4.205   8.451 -0.1590  0.3376  0.1846
 3214SOL    HW121275   0.405   4.273   8.480 -2.0781  1.9962  0.3931
 3214SOL    HW221276   0.282   4.196   8.523  0.1827  0.5157  0.5041
 3215SOL     OW21277   0.621   0.681  10.887  0.0807  0.0474 -0.3784
 3215SOL    HW121278   0.564   0.751  10.854  0.3254  0.3665 -0.1326
 3215SOL    HW221279   0.620   0.630  10.807  0.9915 -1.3387  0.4842
 3216SOL     OW21280   3.945   3.967   5.610  0.2796 -0.4196  0.6359
 3216SOL    HW121281   3.989   4.050   5.592  1.8504 -1.3687  0.1893
 3216SOL    HW221282   4.018   3.909   5.590 -0.8099 -2.1171  1.5807
 3217SOL     OW21283   4.087   1.044  15.179 -0.0209 -0.2538 -0.5445
 3217SOL    HW121284   4.104   0.951  15.163  1.7826 -0.3274  1.9374
 3217SOL    HW221285   4.110   1.072  15.090  1.0605 -0.1444 -0.2260
 3218SOL     OW21286   3.737   0.905   5.243  0.1724 -0.1472  0.5586
 3218SOL    HW121287   3.758   0.998   5.234 -2.6309  0.4276 -0.3306
 3218SOL    HW221288   3.641   0.908   5.245  0.1756 -0.6870  1.2885
 3219SOL     OW21289   2.665   1.641   2.145 -0.0354 -0.4723 -0.2963
 3219SOL    HW121290   2.649   1.628   2.239  2.2988 -1.4677 -0.0485
 3219SOL    HW221291   2.692   1.731   2.126  0.5908 -0.3490  1.1867
 3220SOL     OW21292   0.754   0.997   7.632  0.2541 -0.0371  0.0654
 3220SOL    HW121293   0.827   0.937   7.612 -2.1483 -2.4499 -1.4386
 3220SOL    HW221294   0.728   0.967   7.719 -1.3923  0.6057 -0.2098
 3221SOL     OW21295   2.320   4.174   4.452  0.2525  0.0688  0.0015
 3221SOL    HW121296   2.295   4.250   4.505 -1.3534  0.5238 -1.4014
 3221SOL    HW221297   2.400   4.140   4.492 -1.5238 -2.3524  1.4960
 3222SOL     OW21298   2.278   1.070   7.670  0.0137 -0.5150 -0.2167
 3222SOL    HW121299   2.318   1.024   7.596  0.2995 -1.7937  0.7295
 3222SOL    HW221300   2.350   1.099   7.726  1.3391 -0.4111 -1.9655
 3223SOL     OW21301   4.268   2.148  15.240 -0.2232 -0.8004 -0.8267
 3223SOL    HW121302   4.285   2.129  15.332 -1.0768  1.2752 -0.2383
 3223SOL    HW221303   4.205   2.215  15.265 -0.1414 -1.5470  1.4182
 3224SOL     OW21304   4.623   0.621  11.022 -0.3844  0.1338  0.4658
 3224SOL    HW121305   4.596   0.663  10.940  0.7218  0.1032  0.0972
 3224SOL    HW221306   4.541   0.599  11.067  0.6426 -1.5263  1.5122
 3225SOL     OW21307   3.058   3.626   4.116 -0.4056  0.3333 -0.5881
 3225SOL    HW121308   3.146   3.665   4.116  0.9961 -2.8933  1.4743
 3225SOL    HW221309   3.059   3.583   4.201  1.5191 -0.8697 -1.2372
 3226SOL     OW21310   1.229   4.604   6.882  0.6854 -0.1224 -0.2661
 3226SOL    HW121311   1.317   4.622   6.917  1.2548  1.2544 -2.3757
 3226SOL    HW221312   1.187   4.690   6.886  0.3209 -0.3280  0.2882
 3227SOL     OW21313   1.469   2.506   8.888  0.3193 -0.0806  0.0830
 3227SOL    HW121314   1.463   2.417   8.853  0.1928  0.1238 -0.4176
 3227SOL    HW221315   1.459   2.552   8.805  1.1659 -2.4215 -1.3143
 3228SOL     OW21316   4.640   0.861   4.675  0.4337  0.1515 -0.1134
 3228SOL    HW121317   4.684   0.896   4.752  0.6938 -2.6202  1.0088
 3228SOL    HW221318   4.670   0.912   4.600 -0.0737  0.3917 -0.1549
 3229SOL     OW21319   3.719   1.223  14.785 -0.1046  0.3345 -0.1998
 3229SOL    HW121320   3.763   1.281  14.722  1.5730 -1.0559 -0.3330
 3229SOL    HW221321   3.626   1.244  14.775 -0.7382 -1.8178  1.2145
 3230SOL     OW21322   1.785   4.341  12.833 -0.2762  0.1414  0.1011
 3230SOL    HW121323   1.847   4.406  12.864 -1.7504  1.4683  0.2990
 3230SOL    HW221324   1.827   4.258  12.856  0.9281  0.6447 -0.2995
 3231SOL     OW21325   3.865   1.534  11.382 -0.0259  0.2754  0.4711
 3231SOL    HW121326   3.867   1.506  11.291  1.0290 -0.4252  0.7179
 3231SOL    HW221327   3.783   1.498  11.417 -0.9117 -0.3133 -2.1812
 3232SOL     OW21328   0.366   2.897   8.489 -0.6103 -0.5646 -0.0111
 3232SOL    HW121329   0.369   2.993   8.487 -0.9544 -0.5114  1.4234
 3232SOL    HW221330   0.432   2.874   8.424  1.4033  2.5602  0.9631
 3233SOL     OW21331   2.334   2.082   4.025  0.4593  0.0433 -0.1017
 3233SOL    HW121332   2.386   2.002   4.029 -1.2531 -1.0090  1.0768
 3233SOL    HW221333   2.318   2.102   4.117  1.2559  2.3116 -0.4655
 3234SOL     OW21334   2.777   4.373   3.442  0.2850  0.9444  0.0547
 3234SOL    HW121335   2.841   4.443   3.458  1.9219 -1.2976  3.1743
 3234SOL    HW221336   2.712   4.425   3.394  1.0994  0.0839 -1.9885
 3235SOL     OW21337   1.568   4.353   4.276 -0.2437 -0.9435 -0.6000
 3235SOL    HW121338   1.585   4.445   4.294 -2.2867 -0.7341  0.1485
 3235SOL    HW221339   1.641   4.307   4.318 -1.0145 -0.9451  0.7277
 3236SOL     OW21340   1.238   2.156   7.039  0.1508 -0.2014  0.0762
 3236SOL    HW121341   1.190   2.097   6.981 -1.2871  0.9135  0.1288
 3236SOL    HW221342   1.246   2.236   6.987  1.1850  0.8306  1.8203
 3237SOL     OW21343   4.439   3.628   2.179  0.3757  0.1752 -0.2163
 3237SOL    HW121344   4.427   3.564   2.110  0.3446 -1.7304  1.5671
 3237SOL    HW221345   4.535   3.627   2.187  0.3312  0.0088  0.3041
 3238SOL     OW21346   1.094   0.124   6.874 -0.2331 -0.0286 -0.3701
 3238SOL    HW121347   1.049   0.114   6.958  0.9277 -1.7193  0.0668
 3238SOL    HW221348   1.021   0.141   6.814 -0.2555  0.8345 -0.0874
 3239SOL     OW21349   3.460   0.847   3.706 -0.1253  0.0257 -0.3204
 3239SOL    HW121350   3.545   0.808   3.687  0.2941 -0.4982  2.5819
 3239SOL    HW221351   3.488   0.921   3.760  1.8029 -0.1943 -1.0148
 3240SOL     OW21352   1.859   4.412   2.633  0.6038  0.4903 -0.0071
 3240SOL    HW121353   1.817   4.494   2.662 -3.0650 -1.6064  0.5758
 3240SOL    HW221354   1.880   4.422   2.540  0.7872 -1.2700 -0.1476
 3241SOL     OW21355   3.311   0.211   4.196  0.2260 -1.2380  0.3809
 3241SOL    HW121356   3.233   0.205   4.250  0.1926 -0.2754  0.4500
 3241SOL    HW221357   3.286   0.149   4.128 -0.5370  0.1716 -0.6297
 3242SOL     OW21358   0.976   2.143  17.685 -0.4522  0.4521  0.2159
 3242SOL    HW121359   0.974   2.108  17.596 -1.6031  0.3241  0.2862
 3242SOL    HW221360   1.065   2.179  17.685 -0.9043  1.5756 -1.6427
 3243SOL     OW21361   3.216   2.349   3.582 -0.2801 -0.4810  0.0425
 3243SOL    HW121362   3.126   2.366   3.556 -0.7977  0.4499  2.3862
 3243SOL    HW221363   3.219   2.300   3.664  2.1507  1.2004  0.9800
 3244SOL     OW21364   1.913   0.136   7.044 -0.2426 -0.2361 -0.1836
 3244SOL    HW121365   1.974   0.126   7.117 -1.3419  1.0833  0.8965
 3244SOL    HW221366   1.980   0.141   6.975 -0.2435  1.7827 -0.0432
 3245SOL     OW21367   4.260   0.095   2.557 -0.2731  0.3182  0.3253
 3245SOL    HW121368   4.289   0.151   2.628  1.4331 -0.9829  0.6574
 3245SOL    HW221369   4.325   0.026   2.543 -3.0616 -2.5180  1.3635
 3246SOL     OW21370   4.656   2.292   0.576  0.4125  0.3278 -0.3628
 3246SOL    HW121371   4.672   2.373   0.625 -2.1821  0.5891  0.0888
 3246SOL    HW221372   4.642   2.328   0.489  1.9819 -0.8160 -1.0788
 3247SOL     OW21373   2.932   0.254   1.865  0.2887  0.4829  0.1736
 3247SOL    HW121374   3.013   0.204   1.853  1.0181  1.1286  2.4785
 3247SOL    HW221375   2.940   0.315   1.792  1.7667  0.9935  0.7579
 3248SOL     OW21376   4.569   4.051  14.253 -0.4753 -0.4984  0.2316
 3248SOL    HW121377   4.514   4.094  14.188 -0.5515  2.5457  2.3173
 3248SOL    HW221378   4.541   4.097  14.332  1.1792  0.5019  0.2293
 3249SOL     OW21379   2.089   4.247   6.510 -0.1605 -0.1960  0.2740
 3249SOL    HW121380   2.038   4.311   6.560  3.2051  2.0346  0.7803
 3249SOL    HW221381   2.149   4.211   6.575 -1.2547  0.6592  1.7803
 3250SOL     OW21382   1.145   0.629  10.136  0.1802  0.1658  0.0726
 3250SOL    HW121383   1.220   0.595  10.087 -0.0336  1.2632 -1.0520
 3250SOL    HW221384   1.176   0.596  10.220 -1.2864  0.5456  0.7632
 3251SOL     OW21385   0.556   2.544   3.543  0.1004  0.5980 -0.1881
 3251SOL    HW121386   0.576   2.638   3.537 -1.1967  0.9244  0.7236
 3251SOL    HW221387   0.523   2.517   3.458  0.1097 -0.6369  0.2034
 3252SOL     OW21388   3.776   1.608   0.248 -0.1584  0.3057  0.1828
 3252SOL    HW121389   3.800   1.684   0.301  1.2490 -1.0705  1.5077
 3252SOL    HW221390   3.705   1.641   0.194 -0.3051 -1.6406 -0.8016
 3253SOL     OW21391   1.765   0.157   3.505 -0.1823  0.0915  0.3585
 3253SOL    HW121392   1.702   0.228   3.506  1.2485  1.3617 -1.1682
 3253SOL    HW221393   1.842   0.208   3.528  0.6486 -1.1956  0.4729
 3254SOL     OW21394   0.170   0.575  14.175 -0.2487  0.2314  1.1324
 3254SOL    HW121395   0.224   0.652  14.157  0.6329 -0.1891  1.9949
 3254SOL    HW221396   0.165   0.590  14.269  0.0385  1.9068  0.8762
 3255SOL     OW21397   1.530   1.907   1.499  0.3176  0.2934  0.0226
 3255SOL    HW121398   1.484   1.824   1.511  1.3679 -0.4692 -1.1443
 3255SOL    HW221399   1.460   1.961   1.462 -0.0580  0.0329  0.3579
 3256SOL     OW21400   0.024   2.871  12.933 -0.1183  0.2795  0.0445
 3256SOL    HW121401   0.102   2.905  12.891 -0.2949  1.9739  1.0845
 3256SOL    HW221402   0.054   2.898  13.019  2.2139 -0.8119 -0.4440
 3257SOL     OW21403   3.198   0.229   4.592  0.0305  0.7868 -0.0422
 3257SOL    HW121404   3.178   0.251   4.682 -1.5660 -0.5694 -0.0749
 3257SOL    HW221405   3.131   0.162   4.580 -0.5697  0.9319  2.7480
 3258SOL     OW21406   1.833   0.252  12.152 -0.2824 -0.3613  0.5630
 3258SOL    HW121407   1.869   0.249  12.241 -0.3250 -1.3266  0.5507
 3258SOL    HW221408   1.753   0.304  12.158  1.6448  2.8383 -1.3307
 3259SOL     OW21409   0.207   0.527   8.156  0.2117  0.6027 -0.2176
 3259SOL    HW121410   0.147   0.453   8.161 -0.3071  1.0013 -0.5556
 3259SOL    HW221411   0.294   0.488   8.151 -0.6355 -1.6930  2.7282
 3260SOL     OW21412   0.497   3.956   3.863  0.1184 -0.3785  0.2722
 3260SOL    HW121413   0.506   3.908   3.781 -0.9368  0.5957 -0.4155
 3260SOL    HW221414   0.584   3.938   3.900  1.3979  0.2663 -2.4238
 3261SOL     OW21415   1.563   2.173  10.632  0.5329  0.5250  0.1537
 3261SOL    HW121416   1.529   2.169  10.721  1.0042 -1.0054  0.2703
 3261SOL    HW221417   1.594   2.084  10.618 -1.2536 -0.1046  0.1905
 3262SOL     OW21418   4.351   2.342   7.788 -0.3313  0.1198 -0.9007
 3262SOL    HW121419   4.430   2.289   7.801 -0.1079  0.3431 -1.3451
 3262SOL    HW221420   4.370   2.426   7.828 -1.0021  0.2917 -0.9478
 3263SOL     OW21421   4.570   4.327  15.752  0.0212  0.2360  0.2092
 3263SOL    HW121422   4.576   4.396  15.818  0.6573  1.1730 -0.8178
 3263SOL    HW221423   4.478   4.330  15.726  0.6869  0.8004 -2.1659
 3264SOL     OW21424   4.677   2.234   2.418 -0.0334 -0.3935  0.2312
 3264SOL    HW121425   0.028   2.227   2.456  0.3249 -0.5442 -0.6346
 3264SOL    HW221426   4.624   2.185   2.482 -1.4587  1.4513  0.4588
 3265SOL     OW21427   1.466   3.904  14.693 -0.2184 -0.1194 -1.0831
 3265SOL    HW121428   1.480   3.988  14.737  0.0539 -0.6465 -0.1846
 3265SOL    HW221429   1.559   3.883  14.682 -0.5135 -0.4942 -2.9368
 3266SOL     OW21430   4.663   0.274  11.731  0.0792  0.2641  0.3580
 3266SOL    HW121431   0.005   0.237  11.692 -0.4925  0.0946 -0.6394
 3266SOL    HW221432   4.688   0.366  11.732  1.1683 -0.0416  0.2539
 3267SOL     OW21433   4.333   3.158   9.860 -0.1664 -0.2614  0.0190
 3267SOL    HW121434   4.316   3.169   9.954  2.6542 -3.4064  0.8789
 3267SOL    HW221435   4.306   3.243   9.826 -1.2001 -1.8496 -3.1049
 3268SOL     OW21436   3.569   2.434   2.249  0.2400 -0.2714  0.4924
 3268SOL    HW121437   3.480   2.400   2.259  0.2343 -0.2557  0.4938
 3268SOL    HW221438   3.613   2.363   2.203  1.8279  0.9835  0.0800
 3269SOL     OW21439   1.489   3.632   9.372 -0.0309 -0.3867  0.1907
 3269SOL    HW121440   1.546   3.699   9.335 -2.3903  2.0010  0.9290
 3269SOL    HW221441   1.469   3.567   9.304 -0.0740  1.2548 -1.3533
 3270SOL     OW21442   1.722   3.568   3.353  0.0877  0.0565 -0.1105
 3270SOL    HW121443   1.664   3.543   3.426  0.0161 -3.6193 -1.4019
 3270SOL    HW221444   1.719   3.662   3.368 -2.0456  0.3363 -2.3645
 3271SOL     OW21445   2.222   2.708   7.194 -0.3518 -0.3549 -0.3057
 3271SOL    HW121446   2.162   2.686   7.123  1.0109  2.4067 -2.3257
 3271SOL    HW221447   2.155   2.759   7.241 -0.4940  0.9770 -1.9728
 3272SOL     OW21448   4.721   2.554   5.411  0.7330 -0.3279 -0.1790
 3272SOL    HW121449   4.720   2.646   5.437 -1.6530  0.0563 -1.6448
 3272SOL    HW221450   0.043   2.567   5.336  0.0053  0.1736 -0.6590
 3273SOL     OW21451   4.404   3.550   2.446 -0.1002  0.0186 -0.0926
 3273SOL    HW121452   4.481   3.496   2.427 -0.0604  0.7722 -2.0146
 3273SOL    HW221453   4.384   3.585   2.360  0.1803 -1.8485 -0.9074
 3274SOL     OW21454   2.029   4.716   6.586  0.7479 -0.1497  1.0063
 3274SOL    HW121455   2.007   4.623   6.592  1.0482 -0.2092  1.1789
 3274SOL    HW221456   2.118   4.712   6.550  0.6455  0.4801  0.6798
 3275SOL     OW21457   4.304   0.976   5.148 -0.1338  0.2937  0.0039
 3275SOL    HW121458   4.326   0.892   5.189 -1.3602  0.7068  1.4946
 3275SOL    HW221459   4.221   0.965   5.103 -1.1143 -3.1268  2.5880
 3276SOL     OW21460   3.812   3.619  11.455  0.2132 -0.5414 -0.0032
 3276SOL    HW121461   3.800   3.651  11.366 -0.4932  1.0743  0.6807
 3276SOL    HW221462   3.792   3.704  11.494  0.7929 -0.7196  0.6673
 3277SOL     OW21463   2.676   4.350  13.439 -0.2659 -0.6156 -0.2571
 3277SOL    HW121464   2.616   4.275  13.438  0.6133 -1.3273  0.1830
 3277SOL    HW221465   2.753   4.299  13.466  0.3080  0.0774 -0.6207
 3278SOL     OW21466   2.913   0.177  11.653 -0.2858  0.2433  0.3796
 3278SOL    HW121467   2.942   0.118  11.584 -3.1069 -1.3109  0.5129
 3278SOL    HW221468   2.819   0.187  11.638 -0.3536 -1.4479 -0.3369
 3279SOL     OW21469   2.262   4.092   2.740  0.3498  0.3747  0.0164
 3279SOL    HW121470   2.226   4.059   2.658  1.4967  0.9814 -0.7407
 3279SOL    HW221471   2.196   4.157   2.760  0.3511  0.5487 -0.5701
 3280SOL     OW21472   2.142   4.171   3.622 -0.0035 -0.0259  0.3372
 3280SOL    HW121473   2.117   4.142   3.534 -0.4000  0.7104  0.1983
 3280SOL    HW221474   2.059   4.216   3.640  0.1411  0.9305 -1.3399
 3281SOL     OW21475   4.363   3.751   9.118  0.1268 -0.0552  0.2501
 3281SOL    HW121476   4.275   3.715   9.129  0.5153 -1.3689 -0.9744
 3281SOL    HW221477   4.396   3.760   9.208 -1.6080 -2.7579  1.1448
 3282SOL     OW21478   2.205   4.176  17.141  0.5439  0.1506 -0.0310
 3282SOL    HW121479   2.215   4.104  17.203 -3.2174  0.2518  0.6836
 3282SOL    HW221480   2.131   4.152  17.086  1.9257 -3.5351 -0.2594
 3283SOL     OW21481   4.671   1.690   5.121 -0.2745  0.3296 -0.0789
 3283SOL    HW121482   4.583   1.654   5.107 -0.5253  0.3545  1.3887
 3283SOL    HW221483   4.656   1.782   5.102  2.2074  0.8655  0.5401
 3284SOL     OW21484   4.460   2.052   0.616  0.1345  0.2577 -0.4595
 3284SOL    HW121485   4.473   2.005   0.533 -2.6086  0.1711 -0.8436
 3284SOL    HW221486   4.497   2.138   0.593 -0.2997 -0.2120 -2.9680
 3285SOL     OW21487   2.801   2.777   6.077  0.5868 -0.4002 -0.0676
 3285SOL    HW121488   2.743   2.839   6.119  0.1802 -0.5885 -0.3526
 3285SOL    HW221489   2.733   2.712   6.063  2.2052 -1.7780 -1.5520
 3286SOL     OW21490   3.473   0.238   3.253  0.0447  0.2194  0.2927
 3286SOL    HW121491   3.505   0.147   3.248  2.4237  1.0656 -0.1129
 3286SOL    HW221492   3.514   0.270   3.334 -0.4792  0.4450  0.4659
 3287SOL     OW21493   4.271   3.982   7.707  0.1353 -0.1759 -0.8835
 3287SOL    HW121494   4.288   3.914   7.771  0.1566  1.5087  0.9181
 3287SOL    HW221495   4.179   4.008   7.709 -0.0609 -0.7646 -2.6391
 3288SOL     OW21496   3.551   3.983   3.710  0.4938  0.4506 -0.8573
 3288SOL    HW121497   3.463   3.974   3.672 -0.0624 -1.4213  0.8610
 3288SOL    HW221498   3.549   4.078   3.724  1.2171  0.0922  1.6830
 3289SOL     OW21499   1.150   3.601  17.143 -0.2152 -0.4352 -0.0676
 3289SOL    HW121500   1.106   3.536  17.198  1.3131 -0.3523  1.2888
 3289SOL    HW221501   1.170   3.665  17.211  1.1354 -0.7074 -0.2057
 3290SOL     OW21502   0.522   4.210   7.414  0.0465 -0.4348 -0.0943
 3290SOL    HW121503   0.523   4.303   7.391  0.6491  0.0991  2.0869
 3290SOL    HW221504   0.457   4.196   7.483 -0.8966  2.4651 -0.4170
 3291SOL     OW21505   3.160   2.842   3.776  0.1895  0.2545 -0.4309
 3291SOL    HW121506   3.235   2.901   3.788  1.5823 -1.5600 -0.1692
 3291SOL    HW221507   3.190   2.802   3.695 -0.5138 -0.9715 -0.0844
 3292SOL     OW21508   1.541   4.374   8.268  0.5822  0.1413 -0.1559
 3292SOL    HW121509   1.483   4.299   8.282  1.5595 -0.5284  0.2901
 3292SOL    HW221510   1.626   4.333   8.284  0.0176 -0.2042  1.9203
 3293SOL     OW21511   2.532   1.437   4.279  0.1198 -0.0934  0.5432
 3293SOL    HW121512   2.606   1.496   4.293 -2.3591  3.0323  0.4511
 3293SOL    HW221513   2.491   1.415   4.363 -1.5499 -1.3892 -0.6226
 3294SOL     OW21514   0.240   1.011   4.102 -0.1983 -0.1278  0.1513
 3294SOL    HW121515   0.242   1.038   4.194  0.1097  0.6436 -0.0801
 3294SOL    HW221516   0.310   0.945   4.107 -0.2555  0.0748  3.3665
 3295SOL     OW21517   0.326   3.415   8.638  0.1816 -0.4072 -0.2118
 3295SOL    HW121518   0.257   3.411   8.572 -0.4058  0.0688  0.3731
 3295SOL    HW221519   0.398   3.360   8.608  0.6496  0.8009 -1.2643
 3296SOL     OW21520   1.967   1.713   0.950  0.0029 -0.4316  0.0677
 3296SOL    HW121521   2.051   1.720   0.905  1.0254  1.6164  2.3349
 3296SOL    HW221522   2.003   1.733   1.036  2.1929  0.0200 -0.9450
 3297SOL     OW21523   1.278   1.956  17.016  0.4147  0.2715 -0.1542
 3297SOL    HW121524   1.222   1.895  16.968  1.3371 -1.8386  1.5022
 3297SOL    HW221525   1.337   1.901  17.067  0.4258 -1.0942 -1.6378
 3298SOL     OW21526   3.679   2.915  12.136  0.4792  0.1821 -0.3138
 3298SOL    HW121527   3.652   2.901  12.227 -2.0968 -1.3147 -1.2973
 3298SOL    HW221528   3.681   2.827  12.098  2.3215  0.7145 -1.4186
 3299SOL     OW21529   0.665   3.948   5.693  0.7781  0.4004 -0.1622
 3299SOL    HW121530   0.609   3.871   5.697 -0.6502  1.4133 -0.5396
 3299SOL    HW221531   0.686   3.957   5.786 -1.1068  0.1548  0.2881
 3300SOL     OW21532   0.147   2.349   5.494 -0.5825  0.0441 -0.3915
 3300SOL    HW121533   0.085   2.413   5.457 -0.7668 -0.3184 -0.7131
 3300SOL    HW221534   0.135   2.371   5.586 -0.5609 -0.6374 -0.2309
 3301SOL     OW21535   0.593   2.975   9.165 -0.1519  0.0723 -0.0334
 3301SOL    HW121536   0.657   2.977   9.093 -0.6108  1.1272 -0.4073
 3301SOL    HW221537   0.590   2.880   9.176 -0.5066  0.3547  2.2657
 3302SOL     OW21538   4.510   1.841   7.413  0.5385 -0.0537  0.3114
 3302SOL    HW121539   4.438   1.789   7.377  1.6219 -2.0520  0.9724
 3302SOL    HW221540   4.585   1.782   7.404 -1.0375 -2.0286  0.0549
 3303SOL     OW21541   2.920   3.474   5.403  0.3271  0.2960  0.4264
 3303SOL    HW121542   2.969   3.400   5.438  0.6883 -0.6982 -2.1783
 3303SOL    HW221543   2.842   3.454   5.454 -0.3753  0.7849 -0.4505
 3304SOL     OW21544   2.793   0.158   4.771 -0.1962 -0.4696  0.2390
 3304SOL    HW121545   2.750   0.073   4.780 -0.7937 -0.0187  1.7081
 3304SOL    HW221546   2.850   0.129   4.700  0.3748  0.9664  0.0999
 3305SOL     OW21547   2.704   4.587   1.077 -0.5851  0.3579 -0.3436
 3305SOL    HW121548   2.728   4.655   1.140  1.6901 -1.2530  0.4732
 3305SOL    HW221549   2.609   4.595   1.065 -0.6446 -1.2322 -0.8738
 3306SOL     OW21550   3.778   0.152   3.128  0.1393 -0.0654  0.0922
 3306SOL    HW121551   3.764   0.066   3.167 -0.8221  0.1151  0.1536
 3306SOL    HW221552   3.696   0.172   3.083 -0.8162 -1.4703  1.2136
 3307SOL     OW21553   1.592   0.506   7.090  0.2158 -0.0788  0.7245
 3307SOL    HW121554   1.512   0.526   7.139  0.2021 -1.3734  1.2288
 3307SOL    HW221555   1.627   0.426   7.130  0.8469 -0.4941 -0.6516
 3308SOL     OW21556   1.220   1.329   5.172 -0.1881  0.1740 -0.0673
 3308SOL    HW121557   1.268   1.246   5.167 -0.3890  0.0165  0.6085
 3308SOL    HW221558   1.258   1.365   5.252  1.4104  1.0164 -1.1958
 3309SOL     OW21559   1.907   3.325   4.136 -0.0920  0.3912 -0.2982
 3309SOL    HW121560   1.813   3.337   4.125 -0.1831 -0.4205 -0.4025
 3309SOL    HW221561   1.943   3.400   4.088  0.8732 -0.0682 -0.2841
 3310SOL     OW21562   1.156   4.644  14.873  0.2412  0.5216 -0.1307
 3310SOL    HW121563   1.144   4.584  14.946 -0.9220 -0.0273 -0.7844
 3310SOL    HW221564   1.077   4.695  14.892 -0.1352 -0.6252  1.3698
 3311SOL     OW21565   1.746   3.418  12.133  0.1923  0.6776 -0.4095
 3311SOL    HW121566   1.705   3.487  12.081 -0.0517  0.7159 -0.1713
 3311SOL    HW221567   1.805   3.473  12.185 -0.4489  0.3566  0.6461
 3312SOL     OW21568   0.199   2.556   4.387  0.8769  0.0729  0.1450
 3312SOL    HW121569   0.237   2.472   4.363 -0.2281 -0.7100  1.1494
 3312SOL    HW221570   0.153   2.527   4.466 -1.6810  3.6705 -0.0134
 3313SOL     OW21571   1.957   4.563  13.578 -0.1006  0.3092  0.4105
 3313SOL    HW121572   1.961   4.604  13.664  1.4195  0.1225  0.4270
 3313SOL    HW221573   1.925   4.642  13.534  1.8688 -0.4193 -2.3082
 3314SOL     OW21574   4.036   4.412   2.161 -0.1424 -0.2967 -0.0102
 3314SOL    HW121575   4.095   4.454   2.224  1.0644  0.4735 -1.6477
 3314SOL    HW221576   4.091   4.352   2.111  1.4013  1.3191 -0.2615
 3315SOL     OW21577   2.654   4.066   5.551 -0.3259 -0.6684  0.2247
 3315SOL    HW121578   2.609   4.011   5.488 -1.4246  0.1247  0.3107
 3315SOL    HW221579   2.699   4.000   5.603 -0.4725 -0.7152  0.2940
 3316SOL     OW21580   4.080   1.574   1.224  0.1892 -0.0065 -0.2563
 3316SOL    HW121581   4.134   1.653   1.233  0.2996 -0.4808  3.2381
 3316SOL    HW221582   4.026   1.576   1.303  1.1503 -0.7877  0.4243
 3317SOL     OW21583   0.307   0.218   3.914 -0.7678  0.0135 -0.4140
 3317SOL    HW121584   0.391   0.201   3.956 -0.1252  0.6816 -1.4173
 3317SOL    HW221585   0.259   0.260   3.985 -0.0128  0.4655 -0.1717
 3318SOL     OW21586   2.947   3.287  17.139  0.4514 -0.0648 -0.2007
 3318SOL    HW121587   3.011   3.269  17.207 -0.0625  0.0115  0.3042
 3318SOL    HW221588   2.966   3.226  17.068 -2.9965 -3.3773  1.7288
 3319SOL     OW21589   0.170   3.259   5.484  0.2479  0.1503 -0.3477
 3319SOL    HW121590   0.076   3.255   5.464  0.1268 -0.2463  0.2751
 3319SOL    HW221591   0.210   3.230   5.402  0.0981  2.4111 -1.2260
 3320SOL     OW21592   4.618   3.984   3.213  0.4784 -0.1486  0.1182
 3320SOL    HW121593   4.645   3.906   3.262  0.7609  0.0191  0.2282
 3320SOL    HW221594   4.701   4.029   3.202 -0.4876  1.7546  0.6861
 3321SOL     OW21595   1.522   1.879   2.959 -0.0281  0.2924 -0.2061
 3321SOL    HW121596   1.583   1.823   2.911  0.1022  1.2462 -1.1485
 3321SOL    HW221597   1.451   1.816   2.975  1.3288 -1.0243  0.6268
 3322SOL     OW21598   2.238   0.957   9.976  0.1048  0.0110  0.0010
 3322SOL    HW121599   2.185   1.030   9.944  0.3360  0.0658 -0.2542
 3322SOL    HW221600   2.326   0.993   9.966  1.1276 -2.7109 -0.6981
 3323SOL     OW21601   2.700   2.667   3.835  0.1711 -0.0937  0.1720
 3323SOL    HW121602   2.755   2.739   3.806  0.9210 -1.3124 -1.4530
 3323SOL    HW221603   2.667   2.718   3.909  1.1997 -0.8788  1.1626
 3324SOL     OW21604   1.539   4.586   6.295 -0.0892 -0.3124  0.0064
 3324SOL    HW121605   1.524   4.641   6.372  2.6511 -0.9359  0.9604
 3324SOL    HW221606   1.632   4.603   6.286 -0.0549  0.9208  2.7046
 3325SOL     OW21607   2.273   3.707   4.435  0.0984 -0.7093 -0.0846
 3325SOL    HW121608   2.183   3.677   4.440 -0.3034  0.6488  0.8049
 3325SOL    HW221609   2.299   3.667   4.352 -1.5603  0.6549 -1.2538
 3326SOL     OW21610   3.845   0.939   3.859  0.0264 -0.3302  0.0446
 3326SOL    HW121611   3.874   0.849   3.877 -0.3626 -0.1388  1.5869
 3326SOL    HW221612   3.829   0.961   3.951  2.1950 -4.8195  1.5194
 3327SOL     OW21613   4.115   0.493   9.052 -0.0953  0.1935 -0.3934
 3327SOL    HW121614   4.188   0.444   9.090  0.4280  2.9200  2.0725
 3327SOL    HW221615   4.133   0.586   9.065  0.9922  0.1437 -1.5851
 3328SOL     OW21616   2.919   2.636  14.668 -0.1273  0.0823  0.6757
 3328SOL    HW121617   2.835   2.595  14.647 -0.5781  0.5197  1.6141
 3328SOL    HW221618   2.901   2.729  14.683  0.5931  0.1664  1.0336
 3329SOL     OW21619   1.963   1.605   9.184 -0.1598  0.2336  0.0362
 3329SOL    HW121620   1.870   1.602   9.207 -0.0412 -0.1651  0.4589
 3329SOL    HW221621   1.961   1.527   9.128 -0.3742 -0.4413  0.9735
 3330SOL     OW21622   0.410   2.004  11.439 -0.1320  0.4877 -0.0546
 3330SOL    HW121623   0.378   1.941  11.374  1.4698 -1.4642  1.0652
 3330SOL    HW221624   0.500   1.974  11.444 -0.3162 -0.2045 -0.8919
 3331SOL     OW21625   1.880   3.975   6.379 -0.4704  0.3142 -0.0970
 3331SOL    HW121626   1.953   4.033   6.359 -0.0366  0.3072  1.4966
 3331SOL    HW221627   1.880   3.986   6.474  0.5012 -0.3913 -0.0179
 3332SOL     OW21628   2.477   3.165   2.959  0.7086 -0.1417 -0.2146
 3332SOL    HW121629   2.511   3.205   2.879 -2.3034  0.6878 -1.0514
 3332SOL    HW221630   2.545   3.186   3.023 -0.5060 -1.0538  1.3895
 3333SOL     OW21631   3.102   2.918  14.541 -0.3127 -0.1255  0.0187
 3333SOL    HW121632   3.104   2.915  14.445  1.1133  1.2061 -0.0003
 3333SOL    HW221633   3.191   2.940  14.569 -0.7186 -0.8211  1.8509
 3334SOL     OW21634   2.880   2.559   8.808 -0.0230 -0.6406 -0.1019
 3334SOL    HW121635   2.952   2.507   8.843  0.3125  0.5739  1.0407
 3334SOL    HW221636   2.834   2.586   8.888  0.5362  0.1607 -0.0502
 3335SOL     OW21637   3.102   0.061   6.329  0.0617 -0.8266  0.0649
 3335SOL    HW121638   3.075   0.153   6.318 -0.6447 -0.9856  0.4564
 3335SOL    HW221639   3.013   0.029   6.343 -0.1736  0.3920  1.4022
 3336SOL     OW21640   3.268   1.284   3.684  0.2852 -0.1884 -0.3344
 3336SOL    HW121641   3.330   1.357   3.687  1.0713 -0.8569 -0.3761
 3336SOL    HW221642   3.326   1.219   3.647  2.1146  0.5818  1.1828
 3337SOL     OW21643   0.538   0.630   1.171 -0.2712 -0.2223  0.2153
 3337SOL    HW121644   0.450   0.610   1.205 -1.4982  2.1375 -1.5685
 3337SOL    HW221645   0.519   0.693   1.102 -1.8567  0.0774  0.9256
 3338SOL     OW21646   1.364   0.451  12.236 -0.0735 -0.6863  0.1440
 3338SOL    HW121647   1.399   0.539  12.249  1.2853 -0.9541 -1.6758
 3338SOL    HW221648   1.289   0.469  12.180 -1.8566 -1.6113  2.2741
 3339SOL     OW21649   1.983   0.370   8.390  0.3102 -0.3676 -0.5799
 3339SOL    HW121650   2.073   0.345   8.414  0.7384  2.3449  0.6917
 3339SOL    HW221651   1.990   0.466   8.392 -3.0657 -0.1208 -0.6892
 3340SOL     OW21652   3.161   3.876   5.630 -0.4771  0.0389  0.4215
 3340SOL    HW121653   3.190   3.880   5.721  0.7229 -2.3026  0.1328
 3340SOL    HW221654   3.242   3.897   5.582 -0.2727 -0.4492  0.5622
 3341SOL     OW21655   2.272   0.985   2.172  0.0245 -0.2544  0.3105
 3341SOL    HW121656   2.290   0.893   2.190 -0.1418 -1.0357 -3.3607
 3341SOL    HW221657   2.239   1.023   2.253  3.1699 -2.1833  2.4946
 3342SOL     OW21658   0.247   2.664   0.560 -0.6919 -0.4657 -0.0693
 3342SOL    HW121659   0.157   2.689   0.536 -0.1994  2.5163  1.2173
 3342SOL    HW221660   0.285   2.748   0.534  0.5858 -0.7473  0.9166
 3343SOL     OW21661   3.633   0.963   2.133  0.1207  0.2870  0.4619
 3343SOL    HW121662   3.541   0.948   2.155  0.6357  1.2992  3.2496
 3343SOL    HW221663   3.663   0.896   2.071 -3.2800 -0.0714 -0.8081
 3344SOL     OW21664   3.031   4.024  10.398 -0.4344  0.2028  0.1166
 3344SOL    HW121665   2.962   3.958  10.406  0.7447 -1.0355  0.0610
 3344SOL    HW221666   3.011   4.072  10.478  2.5967 -1.4811  1.9294
 3345SOL     OW21667   2.060   1.178   9.207 -0.4534  0.4705  0.0864
 3345SOL    HW121668   2.145   1.177   9.164  0.2566 -1.2817  1.5627
 3345SOL    HW221669   2.032   1.086   9.206  0.2419  0.2692 -0.4053
 3346SOL     OW21670   0.758   3.592   4.944 -0.0243  0.6674 -0.2718
 3346SOL    HW121671   0.782   3.516   4.998  0.8655  0.6970 -0.6292
 3346SOL    HW221672   0.824   3.656   4.971  0.0110  0.2787  0.5708
 3347SOL     OW21673   1.359   0.286  14.071  0.1460  0.2018 -0.0321
 3347SOL    HW121674   1.423   0.358  14.069  1.1623 -0.7476 -1.7375
 3347SOL    HW221675   1.421   0.215  14.083  0.3306  0.2489 -0.6986
 3348SOL     OW21676   0.229   4.135   4.544 -0.2228 -0.4339 -0.4085
 3348SOL    HW121677   0.211   4.066   4.481  1.5764 -1.3255  0.0788
 3348SOL    HW221678   0.245   4.084   4.624  0.5457  0.3434 -0.0664
 3349SOL     OW21679   4.530   1.698   2.610  0.2139 -0.5753  0.5242
 3349SOL    HW121680   4.622   1.674   2.625  0.0425 -0.5134  1.6614
 3349SOL    HW221681   4.516   1.751   2.688 -0.3097  1.0885 -0.7015
 3350SOL     OW21682   0.289   2.639   8.255  0.2828  0.0026  0.3951
 3350SOL    HW121683   0.363   2.698   8.265 -1.7217  2.4875  0.5539
 3350SOL    HW221684   0.213   2.697   8.257 -0.9433 -1.4638 -2.2648
 3351SOL     OW21685   1.717   2.556   1.208 -0.0300 -0.3722  0.1272
 3351SOL    HW121686   1.709   2.519   1.120  2.2162 -0.5011 -0.0410
 3351SOL    HW221687   1.670   2.638   1.196 -0.4074 -0.4958  0.7782
 3352SOL     OW21688   0.223   4.200  16.472  0.2396 -0.7407 -0.3689
 3352SOL    HW121689   0.201   4.242  16.555 -1.0423 -0.1393 -1.0238
 3352SOL    HW221690   0.139   4.155  16.462 -0.5761  0.6840  0.0718
 3353SOL     OW21691   1.836   0.560   3.340 -0.3094 -0.0810 -0.1642
 3353SOL    HW121692   1.765   0.621   3.319 -0.1416  0.5016  0.9704
 3353SOL    HW221693   1.878   0.613   3.407  1.8621 -3.1527  0.8794
 3354SOL     OW21694   4.727   1.955   9.513 -0.2651  0.1408  0.0444
 3354SOL    HW121695   0.031   1.934   9.597 -1.0223  0.1068  0.4027
 3354SOL    HW221696   0.058   1.939   9.448  0.3691  0.0852  0.7204
 3355SOL     OW21697   1.310   3.163   3.133 -0.4770  0.4533 -0.4903
 3355SOL    HW121698   1.390   3.206   3.102  0.7810 -2.5390 -1.4276
 3355SOL    HW221699   1.343   3.088   3.183  0.2176  0.9282 -0.2231
 3356SOL     OW21700   0.363   0.671  11.847  0.2647  0.1125  0.0474
 3356SOL    HW121701   0.408   0.653  11.765 -2.5325  1.7492 -1.8928
 3356SOL    HW221702   0.367   0.765  11.828 -2.9274  0.5363  1.4336
 3357SOL     OW21703   1.570   0.365   2.255 -0.0454 -0.0578  0.7006
 3357SOL    HW121704   1.486   0.395   2.222  0.9111  2.7678  0.8179
 3357SOL    HW221705   1.617   0.443   2.224 -2.1177  1.2179  0.7610
 3358SOL     OW21706   1.746   1.270   0.447 -0.1871  0.2726 -0.0987
 3358SOL    HW121707   1.741   1.334   0.376 -0.7281  2.2546  1.7080
 3358SOL    HW221708   1.809   1.206   0.412  0.1696 -0.0732  1.1621
 3359SOL     OW21709   0.204   1.613   8.732  0.1539 -0.3173 -0.0066
 3359SOL    HW121710   0.114   1.605   8.763 -0.5082 -0.1065 -1.8607
 3359SOL    HW221711   0.253   1.651   8.805  0.6947  1.1864 -1.1471
 3360SOL     OW21712   0.949   0.909   6.867 -0.0567  0.5459 -0.3808
 3360SOL    HW121713   1.038   0.932   6.840  0.0675 -0.5164 -0.9128
 3360SOL    HW221714   0.962   0.832   6.922 -0.5220  1.2465  0.6974
 3361SOL     OW21715   1.722   2.261  12.248 -0.0319 -0.1298 -0.3656
 3361SOL    HW121716   1.796   2.315  12.275 -0.2534  0.5606 -1.1195
 3361SOL    HW221717   1.740   2.182  12.297 -1.0952 -0.5777 -0.6991
 3362SOL     OW21718   3.118   4.444   8.964 -0.0386 -0.1904  0.0613
 3362SOL    HW121719   3.140   4.354   8.939  0.6959 -0.3570  1.2645
 3362SOL    HW221720   3.023   4.435   8.960 -0.2281  2.1084 -0.5449
 3363SOL     OW21721   1.445   0.984   7.832 -0.2295  0.1465  0.0474
 3363SOL    HW121722   1.414   1.073   7.815 -3.6540 -0.8227  1.0844
 3363SOL    HW221723   1.410   0.938   7.756 -0.5787  0.8066 -0.1923
 3364SOL     OW21724   1.532   1.031   3.035 -0.1040 -0.1969 -0.1139
 3364SOL    HW121725   1.519   1.121   3.006  0.3676  1.1620  3.9324
 3364SOL    HW221726   1.627   1.031   3.041  0.1092 -0.7373 -3.3889
 3365SOL     OW21727   2.699   0.595   4.126 -0.3326  0.4035 -0.4634
 3365SOL    HW121728   2.791   0.596   4.101 -0.7150  0.7040 -1.8418
 3365SOL    HW221729   2.675   0.508   4.157 -0.4588  0.9380  0.9350
 3366SOL     OW21730   0.657   4.411   9.002  0.4425  0.0728  0.1441
 3366SOL    HW121731   0.724   4.470   8.967 -0.1802  2.0199  2.2473
 3366SOL    HW221732   0.682   4.396   9.093  0.4428 -0.0197  0.1286
 3367SOL     OW21733   4.559   2.896   4.343 -0.3007 -0.0485  0.1423
 3367SOL    HW121734   4.567   2.846   4.262  3.1361  1.7714 -0.6380
 3367SOL    HW221735   4.647   2.878   4.375 -0.0988 -0.6023 -0.7167
 3368SOL     OW21736   2.087   1.209   8.844 -0.3377  0.4593  0.2443
 3368SOL    HW121737   2.068   1.120   8.873  0.3453  0.4583  0.6889
 3368SOL    HW221738   2.140   1.237   8.919  0.5193 -4.5535  1.5049
 3369SOL     OW21739   4.516   0.916   4.301  0.0105  0.7829  0.1091
 3369SOL    HW121740   4.491   0.879   4.216  0.1331  1.1805 -0.0986
 3369SOL    HW221741   4.430   0.939   4.336 -0.3699 -0.7893  0.2097
 3370SOL     OW21742   4.127   3.688   8.803  0.3230  0.3304 -0.0346
 3370SOL    HW121743   4.195   3.658   8.743 -2.8491 -0.6746 -3.0870
 3370SOL    HW221744   4.137   3.783   8.803 -1.1748  0.4802 -0.7436
 3371SOL     OW21745   2.544   3.502   3.159 -0.4966  1.0523  0.0581
 3371SOL    HW121746   2.576   3.590   3.178 -1.4930  1.5560 -0.5757
 3371SOL    HW221747   2.522   3.509   3.066 -1.3266  0.3919  0.2067
 3372SOL     OW21748   3.714   2.056   7.487  0.0283  0.3469  0.3644
 3372SOL    HW121749   3.707   1.968   7.450 -3.2281  0.4777  0.6673
 3372SOL    HW221750   3.768   2.105   7.426  1.9563 -0.7670  1.1868
 3373SOL     OW21751   1.447   2.445   1.791 -0.1406 -0.6420  0.2192
 3373SOL    HW121752   1.480   2.525   1.831 -3.8292  0.5964  0.8456
 3373SOL    HW221753   1.463   2.469   1.699 -1.3130  1.2110  0.4775
 3374SOL     OW21754   2.975   2.679   9.914  0.3100  0.3422  0.2891
 3374SOL    HW121755   2.923   2.621   9.970 -1.1654  1.8356  0.4529
 3374SOL    HW221756   2.948   2.645   9.829  0.7441  0.3277  0.1557
 3375SOL     OW21757   0.978   1.790  13.170 -0.1961  0.0658 -0.6312
 3375SOL    HW121758   1.055   1.764  13.221 -1.3534 -1.9318  0.0822
 3375SOL    HW221759   0.910   1.798  13.237  0.5040  0.7961  0.0007
 3376SOL     OW21760   4.511   3.458  12.020 -0.1726 -0.1791 -0.1329
 3376SOL    HW121761   4.420   3.427  12.018  0.7342 -2.9329  0.6887
 3376SOL    HW221762   4.499   3.521  12.091 -1.0712 -1.2442  0.6562
 3377SOL     OW21763   4.139   0.554   5.822 -0.3506  0.1944  0.0501
 3377SOL    HW121764   4.090   0.637   5.820 -0.3070  0.1827 -1.4381
 3377SOL    HW221765   4.073   0.487   5.807  0.3902 -0.3058 -0.9631
 3378SOL     OW21766   2.559   3.521   0.535  0.5224  0.2725  0.4881
 3378SOL    HW121767   2.537   3.597   0.481  0.3503 -0.3030 -0.2628
 3378SOL    HW221768   2.579   3.466   0.459  0.9442 -1.3708  1.7948
 3379SOL     OW21769   1.111   4.124  13.931  0.0433  0.0159 -0.1030
 3379SOL    HW121770   1.104   4.032  13.907  0.8118 -0.5245  1.7012
 3379SOL    HW221771   1.020   4.151  13.946  0.8262  1.4094  2.2289
 3380SOL     OW21772   3.380   3.705   3.446 -0.4560 -0.2964 -0.1317
 3380SOL    HW121773   3.296   3.715   3.491 -0.2407 -0.2075  0.2474
 3380SOL    HW221774   3.419   3.793   3.448  0.3148 -0.6236 -1.0072
 3381SOL     OW21775   1.276   3.757   3.921 -0.2376 -0.1917 -0.2821
 3381SOL    HW121776   1.307   3.847   3.909  2.4119 -0.9704  0.6337
 3381SOL    HW221777   1.249   3.744   3.830 -0.8688  2.4352 -0.4755
 3382SOL     OW21778   3.040   3.676  13.042 -0.8986 -0.2692  0.0260
 3382SOL    HW121779   3.071   3.680  12.952  2.1353  3.6559  1.2385
 3382SOL    HW221780   3.119   3.701  13.091  0.3311 -4.0404  0.0416
 3383SOL     OW21781   3.429   0.518   9.253 -0.5356 -0.5412 -0.0507
 3383SOL    HW121782   3.341   0.491   9.229 -1.0780  0.5350  0.7161
 3383SOL    HW221783   3.483   0.446   9.222 -0.7024  0.5345 -2.8864
 3384SOL     OW21784   1.173   3.015   6.125 -0.0137  0.1711 -0.0924
 3384SOL    HW121785   1.126   2.951   6.073 -0.6254  0.7780 -0.2935
 3384SOL    HW221786   1.099   3.068   6.155 -1.1504 -1.8687  0.6995
 3385SOL     OW21787   4.183   4.010   2.881  0.2947 -0.7050  0.2666
 3385SOL    HW121788   4.264   3.998   2.830  0.5479 -0.0482  0.5228
 3385SOL    HW221789   4.136   3.944   2.830  1.8528 -0.1991 -1.8449
 3386SOL     OW21790   2.613   2.621   5.384 -0.0187  0.0358 -0.4827
 3386SOL    HW121791   2.625   2.546   5.443 -4.0749  0.4169  0.8296
 3386SOL    HW221792   2.702   2.657   5.380 -0.5047  1.2312 -0.2128
 3387SOL     OW21793   2.835   2.862   5.085 -0.3269  0.1365  0.3940
 3387SOL    HW121794   2.877   2.930   5.139  0.4353 -0.3162  0.3802
 3387SOL    HW221795   2.799   2.915   5.014 -0.9333 -0.1217  0.5131
 3388SOL     OW21796   0.479   0.896   8.168 -0.2300 -0.3253 -0.5134
 3388SOL    HW121797   0.484   0.980   8.123  0.4276  0.2506  0.6194
 3388SOL    HW221798   0.406   0.906   8.229  0.9118  0.5946  0.6981
 3389SOL     OW21799   3.889   0.507  12.949  0.2022 -0.3348 -0.6590
 3389SOL    HW121800   3.901   0.415  12.971 -2.6436 -0.2261  1.4475
 3389SOL    HW221801   3.795   0.505  12.931 -0.0540  1.5562  0.3848
 3390SOL     OW21802   3.146   0.937   9.259 -0.1932 -0.0808 -0.3037
 3390SOL    HW121803   3.236   0.916   9.284 -0.6025  1.4619  2.5241
 3390SOL    HW221804   3.116   0.865   9.205 -0.5633 -0.0282 -0.1699
 3391SOL     OW21805   0.529   2.407  12.605 -0.1371 -0.9931 -0.6739
 3391SOL    HW121806   0.610   2.355  12.608  0.6627  0.1252 -2.7055
 3391SOL    HW221807   0.496   2.386  12.518 -0.3621 -0.7228 -0.6501
 3392SOL     OW21808   2.451   4.309   0.986  0.2412 -0.3404 -0.5685
 3392SOL    HW121809   2.493   4.270   1.063 -1.5989  0.6131  0.9383
 3392SOL    HW221810   2.521   4.292   0.923  1.2692  1.1475  0.1926
 3393SOL     OW21811   0.415   3.512   3.924  0.0285 -0.1399  0.1362
 3393SOL    HW121812   0.495   3.565   3.920 -0.0732  0.0483  0.5476
 3393SOL    HW221813   0.375   3.531   4.009 -2.6552 -3.8450 -0.3031
 3394SOL     OW21814   4.235   4.128   9.193 -0.0074  0.0911 -0.1724
 3394SOL    HW121815   4.189   4.205   9.228 -1.1870 -0.0489 -1.3997
 3394SOL    HW221816   4.192   4.110   9.109  1.7936 -2.7404 -0.4687
 3395SOL     OW21817   0.171   3.856   3.575 -0.0241 -0.6667 -0.2505
 3395SOL    HW121818   0.132   3.846   3.488 -0.6276 -3.7137  0.3986
 3395SOL    HW221819   0.231   3.782   3.578  1.4488  0.5783  1.2748
 3396SOL     OW21820   1.999   0.482  11.530 -0.1102 -0.5018 -0.1059
 3396SOL    HW121821   2.041   0.537  11.596 -2.2358 -1.3742  1.9823
 3396SOL    HW221822   2.073   0.431  11.498 -0.5857 -0.3709 -1.4314
 3397SOL     OW21823   2.813   0.167   3.908  0.2541  0.2923 -0.3396
 3397SOL    HW121824   2.838   0.080   3.876 -0.1088 -1.0611  2.9854
 3397SOL    HW221825   2.751   0.194   3.840  1.0702  1.6020 -0.5635
 3398SOL     OW21826   2.469   2.591   5.120 -0.1672 -1.1137 -0.4314
 3398SOL    HW121827   2.545   2.593   5.178 -1.3732 -1.4446  1.1379
 3398SOL    HW221828   2.459   2.684   5.098 -0.0961 -1.4482 -1.8808
 3399SOL     OW21829   0.092   3.212   3.910  0.5213  0.2288 -0.2751
 3399SOL    HW121830   0.051   3.211   3.823 -0.9772 -0.3637  0.4583
 3399SOL    HW221831   0.180   3.247   3.894  0.5127  0.2311 -0.3173
 3400SOL     OW21832   2.494   1.235   5.254 -0.4288 -0.1422  0.2696
 3400SOL    HW121833   2.462   1.316   5.293  1.6349  1.3725 -1.1561
 3400SOL    HW221834   2.409   1.202   5.225  0.6647 -2.0910 -0.7305
 3401SOL     OW21835   1.680   0.148   2.145  0.3255  0.1470  0.6114
 3401SOL    HW121836   1.769   0.167   2.115  0.7539 -1.3338  0.9704
 3401SOL    HW221837   1.656   0.240   2.158  0.5820  0.2806  0.1309
 3402SOL     OW21838   1.582   3.377   8.188 -0.2703  0.0978 -0.4092
 3402SOL    HW121839   1.528   3.325   8.248  2.6829  0.8431  2.8819
 3402SOL    HW221840   1.516   3.401   8.123  2.4829  1.7719 -2.5824
 3403SOL     OW21841   0.842   3.226  13.452  0.4090  0.0156  0.3457
 3403SOL    HW121842   0.760   3.244  13.497 -0.4078 -0.9969 -0.7484
 3403SOL    HW221843   0.820   3.285  13.379  0.1726  0.1232  0.5023
 3404SOL     OW21844   1.526   0.757   7.379 -0.5016  0.9004 -0.5956
 3404SOL    HW121845   1.451   0.704   7.353  0.1032  0.2596 -1.0485
 3404SOL    HW221846   1.584   0.750   7.303  0.1460 -2.2050  0.1515
 3405SOL     OW21847   4.305   3.521   8.280  0.2226  0.4614  0.0171
 3405SOL    HW121848   4.383   3.475   8.311 -0.6323 -1.0922 -0.1171
 3405SOL    HW221849   4.308   3.512   8.185 -2.7118 -0.2356  0.0083
 3406SOL     OW21850   3.403   1.251  16.814 -0.0425 -0.6069  0.4482
 3406SOL    HW121851   3.395   1.234  16.720 -0.3457  1.6627  0.0633
 3406SOL    HW221852   3.424   1.345  16.816 -1.1595 -0.4116  2.3627
 3407SOL     OW21853   3.888   3.292   7.160  0.3339  0.1943  0.4309
 3407SOL    HW121854   3.798   3.296   7.194  0.9359  1.9568  1.8433
 3407SOL    HW221855   3.913   3.207   7.195 -3.3840 -0.2750  1.9621
 3408SOL     OW21856   2.844   4.677   3.491 -0.2097 -0.1266  0.1221
 3408SOL    HW121857   2.909   4.730   3.445 -2.5705  1.5317 -1.3839
 3408SOL    HW221858   2.766   4.693   3.436 -0.3465 -2.4669 -0.3645
 3409SOL     OW21859   2.001   1.888  16.828 -0.1298 -0.1305  0.3945
 3409SOL    HW121860   2.082   1.920  16.866  1.1894 -1.6177 -1.1607
 3409SOL    HW221861   1.962   1.964  16.786 -0.0004 -0.4260 -0.2618
 3410SOL     OW21862   2.178   2.030  12.568 -0.4020 -0.2333 -0.2512
 3410SOL    HW121863   2.098   2.083  12.565  0.2476  0.6309 -2.7115
 3410SOL    HW221864   2.219   2.052  12.652  2.6435 -1.2624 -1.5072
 3411SOL     OW21865   2.486   1.576  15.956 -0.7195 -0.1659 -0.3381
 3411SOL    HW121866   2.432   1.633  15.902  1.2114  0.9418 -1.1244
 3411SOL    HW221867   2.508   1.505  15.896 -3.7713  1.1884 -3.0243
 3412SOL     OW21868   0.605   3.287   7.174 -0.3534 -0.2056 -0.5581
 3412SOL    HW121869   0.582   3.378   7.156  3.9004  1.1483  0.9072
 3412SOL    HW221870   0.689   3.273   7.129  0.3753  3.2590 -0.2420
 3413SOL     OW21871   0.177   0.201   2.992  0.6487 -0.0365  0.0911
 3413SOL    HW121872   0.179   0.115   2.949 -0.2257 -0.9573  1.8740
 3413SOL    HW221873   0.256   0.187   3.044 -0.2817 -0.6358  1.3622
 3414SOL     OW21874   4.735   3.569   2.896 -0.5799 -1.3920  0.4807
 3414SOL    HW121875   4.680   3.544   2.822 -1.1360 -2.0820  1.1276
 3414SOL    HW221876   4.684   3.642   2.929  1.0548 -0.5470  1.1779
 3415SOL     OW21877   2.692   4.507  10.821 -0.0247 -0.3130 -0.3841
 3415SOL    HW121878   2.778   4.465  10.817 -0.7734 -1.8299 -0.2795
 3415SOL    HW221879   2.651   4.450  10.886 -1.2688 -0.2594 -1.1257
 3416SOL     OW21880   0.574   1.547  10.795  0.1658  0.2995 -0.2926
 3416SOL    HW121881   0.653   1.600  10.794 -1.1315  2.1981 -4.0830
 3416SOL    HW221882   0.562   1.561  10.701  0.0821 -0.7223 -0.4350
 3417SOL     OW21883   2.566   3.459  13.069 -0.4323  0.2628  0.5005
 3417SOL    HW121884   2.627   3.461  13.143 -0.4560  3.2550  0.4470
 3417SOL    HW221885   2.501   3.527  13.085  0.6808  1.9029 -1.8581
 3418SOL     OW21886   2.409   3.449   8.465 -0.0877  0.5773 -0.4435
 3418SOL    HW121887   2.441   3.531   8.503  3.1079 -0.3393 -1.1746
 3418SOL    HW221888   2.469   3.388   8.509  0.9593  1.2085 -1.0200
 3419SOL     OW21889   1.125   1.841  12.290 -0.8048 -0.6468  0.5735
 3419SOL    HW121890   1.188   1.877  12.228 -3.2015  2.2323 -0.1876
 3419SOL    HW221891   1.047   1.857  12.237  0.4608  0.5668 -0.8920
 3420SOL     OW21892   4.190   3.546   4.350  0.2255  0.0420 -0.5596
 3420SOL    HW121893   4.246   3.595   4.411  0.3018 -1.2636  0.4206
 3420SOL    HW221894   4.102   3.580   4.361  0.8145  1.6907 -0.9815
 3421SOL     OW21895   3.515   0.398   5.458 -0.2212  0.3938 -0.3488
 3421SOL    HW121896   3.601   0.434   5.437  0.3028  0.8510  2.6132
 3421SOL    HW221897   3.481   0.455   5.528 -0.6242  0.9482 -0.9934
 3422SOL     OW21898   1.192   4.734  13.827  0.5792 -0.6433  0.2088
 3422SOL    HW121899   1.105   4.700  13.850  0.0114 -0.8653 -2.2711
 3422SOL    HW221900   1.164   0.086  13.807  0.4361 -0.4213  1.4205
 3423SOL     OW21901   2.919   0.368   5.784 -0.3883  0.0990  0.2806
 3423SOL    HW121902   2.833   0.341   5.815  0.2633 -0.4039  1.6609
 3423SOL    HW221903   2.969   0.351   5.864  0.8679 -0.9959 -0.7446
 3424SOL     OW21904   0.371   3.430  17.591 -0.5478  0.5013 -0.5720
 3424SOL    HW121905   0.425   3.499  17.631 -0.4440  1.7802 -2.9119
 3424SOL    HW221906   0.322   3.488  17.533 -1.8670 -0.6199 -0.5556
 3425SOL     OW21907   1.214   2.363   3.486 -0.4242  0.0580  0.6173
 3425SOL    HW121908   1.305   2.371   3.516  0.8930 -0.7491 -3.1287
 3425SOL    HW221909   1.224   2.394   3.396  0.1813 -3.0460 -0.3740
 3426SOL     OW21910   4.121   0.217   4.132  0.1898  0.2180  0.1020
 3426SOL    HW121911   4.125   0.294   4.075 -0.8996 -0.8520 -1.4279
 3426SOL    HW221912   4.058   0.158   4.091  1.6951 -0.8986 -0.5881
 3427SOL     OW21913   3.436   3.649   3.769  0.0912  0.4178 -0.2289
 3427SOL    HW121914   3.431   3.558   3.742  0.3859  0.3401 -0.0219
 3427SOL    HW221915   3.346   3.670   3.796 -0.1943 -0.2057 -0.6813
 3428SOL     OW21916   2.795   2.413  12.360 -0.1043  0.3809 -0.2948
 3428SOL    HW121917   2.776   2.503  12.334 -0.8900 -0.1026 -1.3835
 3428SOL    HW221918   2.884   2.422  12.394 -0.8866  2.9244  1.1427
 3429SOL     OW21919   3.638   1.055  15.780  0.0720  0.1911  0.3637
 3429SOL    HW121920   3.658   1.109  15.703 -0.5652 -0.9749 -0.6155
 3429SOL    HW221921   3.545   1.033  15.769  0.0342  1.0172 -0.9133
 3430SOL     OW21922   4.152   2.893   7.439  0.3083  0.1010  0.1952
 3430SOL    HW121923   4.132   2.855   7.354 -0.0328 -1.6904  1.0773
 3430SOL    HW221924   4.237   2.938   7.428 -0.4449  1.7803  1.1464
 3431SOL     OW21925   2.579   3.796  17.646  0.2644  0.0034 -0.9166
 3431SOL    HW121926   2.522   3.864  17.681 -0.8729 -0.6415 -1.5151
 3431SOL    HW221927   2.533   3.773  17.565 -1.1214 -3.2765  0.8155
 3432SOL     OW21928   2.436   3.210   4.279 -0.3467 -0.0817  0.0043
 3432SOL    HW121929   2.373   3.160   4.227 -1.4085 -0.1425  1.3573
 3432SOL    HW221930   2.421   3.302   4.256  1.1589 -0.3219 -1.9508
 3433SOL     OW21931   2.654   1.147  14.211  0.2337  0.5818 -0.1428
 3433SOL    HW121932   2.719   1.181  14.272  0.8433 -0.0321 -0.4585
 3433SOL    HW221933   2.597   1.223  14.194 -0.0449  0.2746 -0.5862
 3434SOL     OW21934   0.226   2.902   1.758  0.6544 -0.4342 -0.1631
 3434SOL    HW121935   0.206   2.995   1.745  0.9653 -0.4672 -0.9099
 3434SOL    HW221936   0.140   2.860   1.758  0.1682  0.5587  0.7515
 3435SOL     OW21937   1.697   3.874   5.887  0.2355  0.0635 -0.2261
 3435SOL    HW121938   1.694   3.797   5.944  1.9730  1.2267  1.3965
 3435SOL    HW221939   1.769   3.927   5.921  1.7202 -1.3201 -1.1805
 3436SOL     OW21940   3.233   2.581   7.117  0.2894 -0.3872  0.2325
 3436SOL    HW121941   3.147   2.540   7.131  0.9182 -1.0784  2.0229
 3436SOL    HW221942   3.256   2.605   7.207 -0.5264  2.1457 -0.2209
 3437SOL     OW21943   3.683   0.872   9.625 -0.4472  0.7675  0.4965
 3437SOL    HW121944   3.648   0.819   9.553 -1.1282 -1.6357  2.6155
 3437SOL    HW221945   3.676   0.806   9.693  0.7974  1.6794  1.4988
 3438SOL     OW21946   1.492   0.143   6.085  0.3199  0.0664  0.4211
 3438SOL    HW121947   1.480   0.087   6.162 -3.6216 -1.6917 -1.5092
 3438SOL    HW221948   1.526   0.227   6.115  0.6390  0.5627 -1.3544
 3439SOL     OW21949   2.341   1.684   5.347 -0.7484  0.3318 -0.0274
 3439SOL    HW121950   2.394   1.755   5.383  0.0627  0.5638 -1.7053
 3439SOL    HW221951   2.382   1.604   5.379  0.7913  1.3582  0.5630
 3440SOL     OW21952   2.064   3.101   7.626 -0.1008 -0.5313  0.0743
 3440SOL    HW121953   1.987   3.148   7.594  0.6526  2.1424  2.1712
 3440SOL    HW221954   2.131   3.153   7.581 -0.8675 -0.3928 -0.9299
 3441SOL     OW21955   4.149   0.068   4.752 -0.1285 -0.3708  0.0127
 3441SOL    HW121956   4.133   0.151   4.799 -0.7043 -0.0863 -0.6883
 3441SOL    HW221957   4.204   0.105   4.683 -1.6203 -0.8876 -1.4498
 3442SOL     OW21958   0.495   0.921  10.266 -0.0716  0.3876  0.1874
 3442SOL    HW121959   0.511   1.013  10.287  2.0449 -0.0893  0.6403
 3442SOL    HW221960   0.428   0.892  10.328 -2.1957 -1.1864 -2.8701
 3443SOL     OW21961   1.830   4.087   6.641 -0.2225  0.3520  0.3035
 3443SOL    HW121962   1.809   4.169   6.598  0.5917 -1.0308 -2.7313
 3443SOL    HW221963   1.870   4.122   6.721  0.3979  2.3340 -0.8882
 3444SOL     OW21964   3.356   0.222  11.060 -0.2638  0.6427  0.2329
 3444SOL    HW121965   3.306   0.299  11.082 -1.0991 -0.1093  0.9434
 3444SOL    HW221966   3.284   0.179  11.012 -0.6813 -1.3512  2.6559
 3445SOL     OW21967   2.226   1.870   8.621 -0.5072  0.6663 -0.8461
 3445SOL    HW121968   2.193   1.825   8.698 -0.0200 -1.7597 -2.0445
 3445SOL    HW221969   2.229   1.962   8.646 -0.4034  0.9274 -1.7872
 3446SOL     OW21970   0.478   0.008   1.712 -0.3456  0.4122 -0.8353
 3446SOL    HW121971   0.413   4.691   1.758 -0.2656  1.0246 -0.0211
 3446SOL    HW221972   0.517   4.683   1.651  2.6892  0.3401  1.2002
 3447SOL     OW21973   4.284   1.639   8.725 -0.1068  0.3457 -0.2040
 3447SOL    HW121974   4.324   1.564   8.770 -0.4008  0.6586  0.5819
 3447SOL    HW221975   4.321   1.714   8.773  0.3283 -0.5426  0.8421
 3448SOL     OW21976   4.005   2.450   9.079  0.5715 -0.6028  0.0028
 3448SOL    HW121977   3.982   2.535   9.116 -1.2437 -1.2858  0.4877
 3448SOL    HW221978   4.098   2.448   9.102  0.8686 -1.5589 -1.2946
 3449SOL     OW21979   2.119   4.516   3.741 -0.3501 -0.0393  0.0090
 3449SOL    HW121980   2.153   4.552   3.823  1.4760  0.2024 -0.8494
 3449SOL    HW221981   2.190   4.454   3.727 -0.9176 -0.9127  1.0419
 3450SOL     OW21982   3.453   0.660   3.340 -0.7904 -0.9638 -0.1776
 3450SOL    HW121983   3.515   0.713   3.291  1.2543  0.2201  3.7230
 3450SOL    HW221984   3.413   0.611   3.267  0.3050 -2.9140  0.5407
 3451SOL     OW21985   3.212   1.056   5.655  0.5763  0.2167  0.1174
 3451SOL    HW121986   3.217   1.145   5.690  2.3540  0.5154 -0.8540
 3451SOL    HW221987   3.160   1.076   5.577  0.4913  0.3329  0.2034
 3452SOL     OW21988   4.299   1.242   8.646  0.1637  0.4926 -0.0925
 3452SOL    HW121989   4.231   1.200   8.593  0.1702 -0.1994  0.4428
 3452SOL    HW221990   4.330   1.171   8.703 -0.7724  1.6105  1.8355
 3453SOL     OW21991   1.883   1.926  12.762  0.7402 -0.3571  0.4190
 3453SOL    HW121992   1.915   2.011  12.732  3.0118 -0.4609  2.4876
 3453SOL    HW221993   1.909   1.920  12.854 -1.3216  2.2931  1.1581
 3454SOL     OW21994   0.554   2.522  10.806 -0.4810  0.0357  0.0748
 3454SOL    HW121995   0.497   2.474  10.746  0.5811 -1.9784  0.6733
 3454SOL    HW221996   0.494   2.565  10.867 -3.1582 -4.8450  0.8411
 3455SOL     OW21997   0.107   1.126   4.362  0.0264 -0.7715  0.2465
 3455SOL    HW121998   0.055   1.104   4.439 -1.5890  1.0088 -0.3158
 3455SOL    HW221999   0.193   1.115   4.401  0.0842 -1.0600  0.0353
 3456SOL     OW22000   4.535   4.687   5.838 -0.6186 -0.3658 -0.1004
 3456SOL    HW122001   4.508   0.017   5.902 -2.6468 -0.0786 -1.2575
 3456SOL    HW222002   4.625   4.719   5.831 -0.9736  0.6039 -0.3666
 3457SOL     OW22003   4.254   2.139   8.417 -0.0608  0.0720  0.0121
 3457SOL    HW122004   4.294   2.225   8.404  1.9907 -0.8220  0.4210
 3457SOL    HW222005   4.166   2.174   8.402 -0.5568 -1.2875 -0.2478
 3458SOL     OW22006   2.103   4.270   8.185 -0.1961 -0.0720  0.2702
 3458SOL    HW122007   2.082   4.179   8.163 -2.0556  0.3307  0.3321
 3458SOL    HW222008   2.161   4.292   8.113  0.7499 -1.4308  0.6337
 3459SOL     OW22009   2.937   1.459   8.772  0.1662  0.0886  0.7182
 3459SOL    HW122010   2.877   1.465   8.846  1.8671  0.7284  2.0249
 3459SOL    HW222011   2.996   1.400   8.819  3.2867  1.2671 -1.7460
 3460SOL     OW22012   4.483   0.588  12.263 -0.7520  0.6760  0.3223
 3460SOL    HW122013   4.454   0.618  12.177  1.1661  0.2121 -0.4945
 3460SOL    HW222014   4.575   0.611  12.253 -0.5975  0.1265  0.4405
 3461SOL     OW22015   3.199   0.606  11.740 -0.1291  0.6501  0.4400
 3461SOL    HW122016   3.140   0.680  11.731 -0.0139  0.7508  0.5164
 3461SOL    HW222017   3.136   0.541  11.771  0.3926 -0.7034 -1.3235
 3462SOL     OW22018   3.025   0.950  10.149 -0.3224  0.5335  0.1683
 3462SOL    HW122019   3.073   1.023  10.109  0.9574 -0.4537 -0.0897
 3462SOL    HW222020   2.935   0.980  10.138 -0.9413 -1.7271 -0.7833
 3463SOL     OW22021   1.530   3.284  16.027 -0.0645  0.7750  0.6666
 3463SOL    HW122022   1.519   3.355  15.963  1.5252  1.4156  1.1058
 3463SOL    HW222023   1.451   3.295  16.080 -1.1499 -0.1503 -0.7561
 3464SOL     OW22024   0.766   1.667   3.374  0.2931  0.1396 -0.1637
 3464SOL    HW122025   0.690   1.670   3.432 -0.7192 -0.5928 -1.4752
 3464SOL    HW222026   0.774   1.573   3.357 -0.1435  0.2933 -1.2086
 3465SOL     OW22027   3.224   2.416  17.626 -0.7075 -0.0657 -0.0106
 3465SOL    HW122028   3.178   2.487  17.670  1.0747  1.6922 -1.0012
 3465SOL    HW222029   3.156   2.358  17.590 -1.3108  1.4604 -1.3423
 3466SOL     OW22030   2.483   4.002   0.425  0.2832 -0.1106 -0.0342
 3466SOL    HW122031   2.436   3.919   0.415  2.1179 -1.1320 -0.1988
 3466SOL    HW222032   2.464   4.018   0.517 -1.0330  0.2305 -0.3650
 3467SOL     OW22033   2.356   3.383   1.529 -0.0496  0.1088  0.4145
 3467SOL    HW122034   2.317   3.352   1.610  0.7614 -1.1886  0.2953
 3467SOL    HW222035   2.314   3.315   1.475 -0.4178 -0.3205  1.2525
 3468SOL     OW22036   3.793   3.237  12.418  0.1503 -0.2811  0.1383
 3468SOL    HW122037   3.804   3.332  12.406  0.5636 -0.2153  1.0152
 3468SOL    HW222038   3.870   3.210  12.369 -1.4006 -0.4479 -2.2044
 3469SOL     OW22039   1.809   3.830   3.346 -0.5363  0.5695 -0.5858
 3469SOL    HW122040   1.751   3.895   3.306 -1.8056 -0.6088 -0.6538
 3469SOL    HW222041   1.887   3.841   3.291  1.9223  0.0012  2.8211
 3470SOL     OW22042   4.433   0.188   4.130  0.0341  0.0945  0.3387
 3470SOL    HW122043   4.342   0.208   4.109 -0.0109  0.0045  0.4464
 3470SOL    HW222044   4.472   0.137   4.059 -0.4263  0.4418 -0.1668
 3471SOL     OW22045   0.830   0.145   1.911  0.4327  0.0502  0.1273
 3471SOL    HW122046   0.811   0.052   1.922 -0.0357  0.3020  1.3955
 3471SOL    HW222047   0.751   0.184   1.947 -0.1453 -0.4939 -0.5625
 3472SOL     OW22048   1.887   1.878  17.202  0.4788  0.3762  0.1801
 3472SOL    HW122049   1.803   1.915  17.176  1.5325  2.8045  0.2253
 3472SOL    HW222050   1.853   1.811  17.262 -1.4474 -0.7250 -2.1342
 3473SOL     OW22051   4.315   2.718   4.430  0.2628  0.3140 -0.2549
 3473SOL    HW122052   4.287   2.805   4.458  1.5312  0.1805  1.4309
 3473SOL    HW222053   4.399   2.735   4.388 -0.4273  3.8693 -0.1386
 3474SOL     OW22054   0.500   0.881   1.066  0.3188  0.4199 -0.0226
 3474SOL    HW122055   0.505   0.932   0.985 -0.5892 -2.5767 -1.9715
 3474SOL    HW222056   0.580   0.914   1.108  0.6136 -0.7247  0.3089
 3475SOL     OW22057   2.080   4.539   3.183  0.5865  0.0768 -0.2140
 3475SOL    HW122058   2.080   4.519   3.090  1.7981  2.8245 -0.7980
 3475SOL    HW222059   2.000   4.589   3.199  1.7863  1.8751  0.2925
 3476SOL     OW22060   0.210   0.282  11.416 -0.4902 -0.4725  0.3414
 3476SOL    HW122061   0.219   0.305  11.508 -0.0928 -1.2328  0.4875
 3476SOL    HW222062   0.212   0.187  11.421  2.8662 -0.4008  0.1567
 3477SOL     OW22063   1.004   3.842  14.820  0.1195 -0.1928  0.0706
 3477SOL    HW122064   1.087   3.880  14.790  0.2980 -0.1188  0.6469
 3477SOL    HW222065   1.044   3.779  14.879  1.9021  2.6673  1.9299
 3478SOL     OW22066   4.690   2.295   1.380 -0.0718 -0.3069  0.1102
 3478SOL    HW122067   4.701   2.231   1.310 -1.1233 -2.4703  1.8977
 3478SOL    HW222068   0.016   2.270   1.449  0.3420 -1.6777 -0.7580
 3479SOL     OW22069   0.238   4.122   1.622 -0.4418  0.1179 -0.0139
 3479SOL    HW122070   0.235   4.030   1.646 -0.7893 -0.4555 -2.2134
 3479SOL    HW222071   0.287   4.119   1.540 -0.9484 -0.0089 -0.3102
 3480SOL     OW22072   3.806   2.422   7.905  0.8124  0.4868  0.7215
 3480SOL    HW122073   3.792   2.398   7.997 -0.4902  0.4558  0.5197
 3480SOL    HW222074   3.900   2.437   7.907  1.0234 -0.6461 -0.5784
 3481SOL     OW22075   1.630   2.691   8.015  0.1989  0.1185  0.0019
 3481SOL    HW122076   1.673   2.759   8.067 -2.1219  2.2088 -0.8722
 3481SOL    HW222077   1.537   2.706   8.034  0.3287 -1.1210  1.6491
 3482SOL     OW22078   4.308   0.303   6.983 -0.0182 -0.1145  0.7375
 3482SOL    HW122079   4.326   0.209   6.978 -0.7875 -0.2903  1.3762
 3482SOL    HW222080   4.316   0.313   6.888  1.4723 -0.4953  0.8246
 3483SOL     OW22081   3.907   1.390   7.085  0.6136  0.1777 -0.0646
 3483SOL    HW122082   3.890   1.387   6.991  1.9164 -0.2346 -0.2911
 3483SOL    HW222083   3.872   1.308   7.121  0.5697  0.3333  0.2484
 3484SOL     OW22084   0.203   3.008  13.763  0.1865 -0.2847 -0.0973
 3484SOL    HW122085   0.261   3.085  13.764 -0.1779 -0.0038 -0.6290
 3484SOL    HW222086   0.154   3.018  13.844 -0.1205 -0.5929 -0.2457
 3485SOL     OW22087   1.278   3.874  15.088 -0.3764  0.1885 -0.0746
 3485SOL    HW122088   1.222   3.948  15.112  0.1498  0.5554  0.0095
 3485SOL    HW222089   1.368   3.902  15.103 -0.5907  0.5204  0.5950
 3486SOL     OW22090   1.891   4.313   3.667 -0.0201  0.4517 -0.6023
 3486SOL    HW122091   1.903   4.408   3.673 -0.9530  0.6334 -1.5558
 3486SOL    HW222092   1.808   4.317   3.620 -0.6542 -1.1951  0.3981
 3487SOL     OW22093   1.233   1.548   7.409  0.3104  1.1052  0.0711
 3487SOL    HW122094   1.176   1.577   7.481 -2.3859 -3.0120 -0.4284
 3487SOL    HW222095   1.314   1.534   7.458  0.4996  2.4518  0.1541
 3488SOL     OW22096   3.505   2.605   6.018  0.2194  0.3481  0.7727
 3488SOL    HW122097   3.441   2.671   6.044 -0.9569 -0.5483  0.1410
 3488SOL    HW222098   3.491   2.610   5.924 -0.5049  0.5811  0.8955
 3489SOL     OW22099   2.824   3.221   4.169  0.2734 -0.5621  0.9127
 3489SOL    HW122100   2.889   3.202   4.102 -0.8280  2.7360 -1.1151
 3489SOL    HW222101   2.765   3.287   4.131  0.3586 -0.4166  1.0316
 3490SOL     OW22102   0.132   4.208   8.678 -0.4797  0.1365  0.0553
 3490SOL    HW122103   0.069   4.269   8.639 -0.2093 -0.0971 -0.7541
 3490SOL    HW222104   0.146   4.250   8.762 -1.3898  2.6167 -1.0150
 3491SOL     OW22105   1.262   4.705   7.209  0.6857 -0.9830  0.3011
 3491SOL    HW122106   1.195   4.655   7.163  2.6377 -3.1457 -0.1887
 3491SOL    HW222107   1.301   0.016   7.136 -0.7888  1.0539  0.8373
 3492SOL     OW22108   1.692   2.407  16.627  0.5642  0.1923  0.1579
 3492SOL    HW122109   1.668   2.498  16.644 -2.3289 -0.7436  1.0916
 3492SOL    HW222110   1.619   2.364  16.672  1.6388 -0.4141  1.3246
 3493SOL     OW22111   3.258   3.849   1.916 -0.4516  1.2645  0.2266
 3493SOL    HW122112   3.233   3.766   1.957  2.6718  0.8565  1.2708
 3493SOL    HW222113   3.342   3.834   1.871 -2.0396 -0.2671 -2.2637
 3494SOL     OW22114   3.871   2.099   9.612 -0.3944 -0.7206 -0.4552
 3494SOL    HW122115   3.937   2.154   9.654 -1.0550 -1.5698  1.6965
 3494SOL    HW222116   3.861   2.161   9.539  3.8041  0.1924 -0.2375
 3495SOL     OW22117   2.533   0.058   4.469 -0.0495  0.1026 -1.5759
 3495SOL    HW122118   2.581   0.140   4.481  0.9773 -0.6152 -0.7196
 3495SOL    HW222119   2.579   0.016   4.396 -2.2553 -0.7469 -2.4632
 3496SOL     OW22120   0.445   4.681   7.453 -0.1814  0.3462 -0.0715
 3496SOL    HW122121   0.532   4.659   7.488 -1.3191  1.5941  3.4266
 3496SOL    HW222122   0.390   4.701   7.528  0.7472 -1.1064  1.0079
 3497SOL     OW22123   0.801   4.667  15.079 -0.6631  0.4130  0.3655
 3497SOL    HW122124   0.853   4.718  15.016  0.1647 -1.0248 -0.1114
 3497SOL    HW222125   0.743   4.624  15.016 -1.0077  2.4386 -0.7244
 3498SOL     OW22126   2.500   4.353  12.694 -0.5206  0.4886  0.1355
 3498SOL    HW122127   2.463   4.273  12.730  1.3483 -0.2425  0.4447
 3498SOL    HW222128   2.579   4.329  12.646 -0.7850 -2.4082  1.1795
 3499SOL     OW22129   0.806   0.530   4.482 -0.1382 -0.0456  0.3037
 3499SOL    HW122130   0.808   0.593   4.411 -2.0342  0.4136  0.6477
 3499SOL    HW222131   0.877   0.572   4.531  0.1172 -1.7443  1.4388
 3500SOL     OW22132   0.690   0.748   2.748  0.3000  0.2388 -0.2876
 3500SOL    HW122133   0.627   0.785   2.810  0.5835  0.7403 -0.2970
 3500SOL    HW222134   0.754   0.706   2.805  0.1983 -1.8845 -1.7335
 3501SOL     OW22135   2.468   3.107   2.412 -0.7301  0.4222  0.0676
 3501SOL    HW122136   2.443   3.197   2.432 -3.8355 -0.7597  1.4144
 3501SOL    HW222137   2.383   3.066   2.396 -0.5565  0.4455 -0.9587
 3502SOL     OW22138   4.026   4.542   1.434  0.1382  0.7252  0.5313
 3502SOL    HW122139   3.934   4.561   1.418  0.4141  1.3342 -0.3471
 3502SOL    HW222140   4.040   4.584   1.518 -0.6605  0.3699  0.8445
 3503SOL     OW22141   4.542   1.968   0.382  0.7181 -0.1988 -0.4819
 3503SOL    HW122142   4.537   2.055   0.343 -0.0605 -0.4070 -0.8547
 3503SOL    HW222143   4.496   1.912   0.318 -2.3797  0.6774  0.9921
 3504SOL     OW22144   0.971   2.527   8.360  0.6320  0.1155 -0.0141
 3504SOL    HW122145   0.890   2.516   8.411  1.7166 -0.0885  1.6322
 3504SOL    HW222146   0.982   2.441   8.320  3.1114  0.5352 -0.2186
 3505SOL     OW22147   0.315   1.765   7.678 -0.4814  0.1167  0.2730
 3505SOL    HW122148   0.408   1.769   7.656 -0.8267 -2.7129 -1.5671
 3505SOL    HW222149   0.265   1.778   7.598 -0.9729  1.3041  0.7703
 3506SOL     OW22150   1.129   3.570   5.006 -1.0250 -0.4179  0.2909
 3506SOL    HW122151   1.091   3.528   5.083 -1.1434  0.2984  0.6174
 3506SOL    HW222152   1.161   3.652   5.043  2.1239 -2.0647  1.2438
 3507SOL     OW22153   3.742   0.721   2.056  0.1287  0.7763  0.3363
 3507SOL    HW122154   3.833   0.690   2.063  0.2464  1.0935  0.2175
 3507SOL    HW222155   3.707   0.680   2.135  0.0697 -1.2129 -0.7421
 3508SOL     OW22156   0.853   2.560   5.039  0.4280 -0.0968  0.0296
 3508SOL    HW122157   0.903   2.479   5.030  1.0959  0.6456 -3.0398
 3508SOL    HW222158   0.759   2.539   5.034  0.1956  0.3840  2.2655
 3509SOL     OW22159   1.868   2.885   0.040  0.2504  0.4769  0.6772
 3509SOL    HW122160   1.808   2.834   0.095  0.7047 -0.4620  0.2948
 3509SOL    HW222161   1.838   2.976   0.053 -0.7913 -0.0497  1.9951
 3510SOL     OW22162   3.582   1.908   4.139 -0.1128  0.0564 -0.2539
 3510SOL    HW122163   3.534   1.888   4.059 -1.6989  0.9213  0.4642
 3510SOL    HW222164   3.626   1.987   4.107 -1.1698  0.9606  0.5088
 3511SOL     OW22165   0.354   2.627   2.115 -0.4024  0.6071 -0.2492
 3511SOL    HW122166   0.345   2.581   2.031 -0.0938  0.5125 -0.2300
 3511SOL    HW222167   0.300   2.704   2.097  0.0280  0.2796 -3.0524
 3512SOL     OW22168   3.198   1.732  12.713  0.6038 -0.3136  0.3176
 3512SOL    HW122169   3.183   1.654  12.766 -0.3098 -0.8888 -0.7963
 3512SOL    HW222170   3.144   1.714  12.636 -0.4787 -0.3279  1.0895
 3513SOL     OW22171   1.883   3.482   1.970 -0.2578 -0.5524  0.7863
 3513SOL    HW122172   1.797   3.460   2.007 -0.3664  0.9675  1.4340
 3513SOL    HW222173   1.888   3.573   1.999  0.4979  0.2886 -2.0577
 3514SOL     OW22174   3.208   3.896   7.247  0.1218 -0.3300 -1.1962
 3514SOL    HW122175   3.163   3.980   7.246 -0.4999 -0.6232  1.5023
 3514SOL    HW222176   3.179   3.863   7.162  0.5595  0.6600 -1.7303
 3515SOL     OW22177   1.096   0.558   8.606  0.0353 -0.7097 -0.3413
 3515SOL    HW122178   1.022   0.610   8.637  0.8488  1.2370 -1.6248
 3515SOL    HW222179   1.165   0.611   8.647 -1.4069 -0.1097  1.2794
 3516SOL     OW22180   1.403   2.825  13.828  0.3746  0.2388 -0.1787
 3516SOL    HW122181   1.352   2.813  13.748 -0.7532 -1.0169  0.7166
 3516SOL    HW222182   1.346   2.778  13.889 -2.8493 -0.0790 -3.4664
 3517SOL     OW22183   3.505   0.022   2.283  0.0466  0.6038 -0.6790
 3517SOL    HW122184   3.502   0.013   2.187  0.2769  1.3847 -0.7567
 3517SOL    HW222185   3.424   4.710   2.299  1.1447 -0.5687  1.2301
 3518SOL     OW22186   4.653   2.893   5.193 -0.1303  0.0903 -0.1231
 3518SOL    HW122187   4.718   2.838   5.237 -1.4876 -1.8207 -0.4949
 3518SOL    HW222188   4.670   2.875   5.101 -2.5588 -1.7039 -0.2282
 3519SOL     OW22189   0.560   3.655   8.061  0.6735 -1.0726 -0.4668
 3519SOL    HW122190   0.597   3.682   7.977 -0.6648  1.3212 -0.3077
 3519SOL    HW222191   0.502   3.584   8.033 -1.7746 -0.5240  3.2607
 3520SOL     OW22192   2.045   0.363  16.709 -0.5222 -0.2067 -0.0576
 3520SOL    HW122193   2.086   0.381  16.793  1.0557  1.4079 -1.1951
 3520SOL    HW222194   1.951   0.372  16.728 -0.6885  0.2364 -1.1091
 3521SOL     OW22195   0.733   3.971  13.513 -0.5830  0.2677 -0.2166
 3521SOL    HW122196   0.784   4.032  13.567  0.5622 -0.0577 -0.9120
 3521SOL    HW222197   0.807   3.939  13.461 -0.2920 -0.0757  0.4033
 3522SOL     OW22198   2.876   3.025   6.283 -0.3538 -0.1882  0.1550
 3522SOL    HW122199   2.808   3.087   6.307  0.1177  0.7330 -0.8784
 3522SOL    HW222200   2.825   2.949   6.253  0.0907 -1.5197  2.7747
 3523SOL     OW22201   4.516   2.718   1.656 -0.3688 -0.7117 -0.3500
 3523SOL    HW122202   4.428   2.731   1.623  0.6266 -0.2433 -2.8211
 3523SOL    HW222203   4.503   2.762   1.740 -3.4843 -0.1755 -1.1116
 3524SOL     OW22204   0.847   1.061   4.472  0.0075  0.9683  0.2667
 3524SOL    HW122205   0.933   1.069   4.512  1.0980 -0.6494 -1.7358
 3524SOL    HW222206   0.794   1.107   4.537 -1.8956 -1.6411  0.5908
 3525SOL     OW22207   3.329   2.009   7.090 -0.5292  0.1368 -0.0530
 3525SOL    HW122208   3.325   2.009   7.185  2.3366 -1.5222  0.0361
 3525SOL    HW222209   3.419   1.989   7.064 -2.0508  0.2719 -5.4667
 3526SOL     OW22210   2.535   1.919   7.567 -0.1285 -0.1038 -0.2009
 3526SOL    HW122211   2.481   1.879   7.635 -1.5761 -1.3652 -2.0968
 3526SOL    HW222212   2.460   1.947   7.514  1.9773 -1.7710 -4.0202
 3527SOL     OW22213   3.543   1.824   8.453  0.0323 -0.1120  0.1508
 3527SOL    HW122214   3.574   1.871   8.531 -3.4439 -1.3723  2.3191
 3527SOL    HW222215   3.625   1.798   8.411  0.6941  0.5530  1.0266
 3528SOL     OW22216   4.613   2.249   5.687  0.0751  0.6833  0.3202
 3528SOL    HW122217   4.574   2.326   5.646  0.4368  0.2989 -0.7620
 3528SOL    HW222218   4.571   2.246   5.772 -1.0454 -0.6498 -0.2732
 3529SOL     OW22219   4.617   1.626   0.013 -0.1933 -0.6518 -0.6076
 3529SOL    HW122220   4.551   1.586  17.702  1.5082  0.2013 -3.1997
 3529SOL    HW222221   4.639   1.696  17.696  3.5705  1.0963  2.6723
 3530SOL     OW22222   1.444   1.909   3.995  0.3232 -0.4322 -0.0100
 3530SOL    HW122223   1.473   1.988   3.949 -0.0530 -0.8014 -0.8747
 3530SOL    HW222224   1.431   1.849   3.922 -1.0754  2.0941 -1.8182
 3531SOL     OW22225   0.793   4.215   4.423 -0.2664 -0.0539 -0.6565
 3531SOL    HW122226   0.731   4.204   4.495  1.4106 -0.8329  0.6397
 3531SOL    HW222227   0.876   4.223   4.469  0.0775 -1.6847 -1.0161
 3532SOL     OW22228   2.828   2.167   7.966  0.1742 -0.4918  0.6722
 3532SOL    HW122229   2.865   2.164   8.054  1.8656  0.5895  0.0140
 3532SOL    HW222230   2.814   2.261   7.956  0.6860 -0.5342 -0.4057
 3533SOL     OW22231   2.340   2.966   6.534 -0.3892  0.3100  0.5074
 3533SOL    HW122232   2.303   3.038   6.585  2.2002  0.6562  1.8737
 3533SOL    HW222233   2.347   2.995   6.443  1.9300  0.9220  0.8839
 3534SOL     OW22234   2.353   2.140   7.850 -0.2208  0.2806  0.3918
 3534SOL    HW122235   2.440   2.122   7.886  1.1967 -0.3982 -3.2815
 3534SOL    HW222236   2.330   2.048   7.835 -0.0744  0.6913 -2.3888
 3535SOL     OW22237   0.250   2.298   4.964  0.5438  0.0251  0.2033
 3535SOL    HW122238   0.233   2.247   5.043 -0.2454 -2.1241 -1.3614
 3535SOL    HW222239   0.242   2.235   4.892  1.4552  0.7801 -0.5700
 3536SOL     OW22240   4.536   3.824  15.317  0.3268  0.0963 -1.0028
 3536SOL    HW122241   4.523   3.914  15.346  0.3875 -0.0887 -0.3931
 3536SOL    HW222242   4.560   3.787  15.402 -1.3277  1.1862 -0.0516
 3537SOL     OW22243   1.025   3.921  15.836  0.3615  0.5956  0.5178
 3537SOL    HW122244   0.944   3.902  15.789  1.7307  0.1828 -1.7035
 3537SOL    HW222245   0.994   3.940  15.924 -3.1697 -0.4055 -0.5256
 3538SOL     OW22246   0.719   2.137   3.404  0.4536  0.4178  0.4916
 3538SOL    HW122247   0.786   2.171   3.344  0.5013 -0.6594 -0.0683
 3538SOL    HW222248   0.714   2.223   3.446  0.0988 -0.0212  1.3338
 3539SOL     OW22249   0.037   1.253   4.137 -0.8048 -0.6384  0.4037
 3539SOL    HW122250   4.706   1.187   4.130 -2.8381  1.2079  2.5603
 3539SOL    HW222251   0.085   1.230   4.217 -0.0843 -2.6946 -0.6414
 3540SOL     OW22252   2.146   0.088   3.402 -0.0515  0.3011  0.5131
 3540SOL    HW122253   2.140   0.181   3.422 -2.4330  0.4018 -0.6531
 3540SOL    HW222254   2.142   0.079   3.307  0.2219 -0.3844  0.5626
 3541SOL     OW22255   0.489   0.207  12.552  0.6858  0.1884 -0.8666
 3541SOL    HW122256   0.395   0.190  12.565  1.4253 -2.1476  1.4455
 3541SOL    HW222257   0.519   0.119  12.532  0.9588  0.2881 -0.8872
 3542SOL     OW22258   4.131   2.515   6.418  0.1507  0.2635  0.8002
 3542SOL    HW122259   4.131   2.420   6.423  2.2322  0.2919  1.5785
 3542SOL    HW222260   4.044   2.537   6.452 -0.2292  1.1987 -0.7647
 3543SOL     OW22261   1.683   4.599  13.942 -0.1297  0.2857 -0.6896
 3543SOL    HW122262   1.593   4.581  13.916 -0.4247  0.4598  0.1989
 3543SOL    HW222263   1.725   4.618  13.858  0.4833  0.8176 -0.2715
 3544SOL     OW22264   3.134   0.521  10.354  0.3589  0.3344  0.8158
 3544SOL    HW122265   3.081   0.573  10.414  1.1823 -0.1425  1.9373
 3544SOL    HW222266   3.158   0.584  10.286  2.4195 -1.5369 -0.1828
 3545SOL     OW22267   1.441   0.713   6.798  0.6203  0.5133  0.1200
 3545SOL    HW122268   1.530   0.679   6.791 -0.0581 -1.7381  2.7196
 3545SOL    HW222269   1.462   0.799   6.834  1.2953  0.2568  0.3297
 3546SOL     OW22270   2.427   2.490   5.622  0.4023 -0.1995 -0.2746
 3546SOL    HW122271   2.390   2.443   5.547 -0.1084  2.7351 -1.8909
 3546SOL    HW222272   2.518   2.487   5.591  0.3130 -1.0494 -0.4311
 3547SOL     OW22273   4.355   4.104   8.481  0.1087 -0.4299  0.2482
 3547SOL    HW122274   4.261   4.084   8.475 -0.0896  0.5130  0.2041
 3547SOL    HW222275   4.363   4.127   8.574  1.0688 -2.8401  0.7509
 3548SOL     OW22276   1.355   2.181   8.806  0.5565  0.6213  0.2669
 3548SOL    HW122277   1.274   2.209   8.763 -0.6416  0.6848  2.5709
 3548SOL    HW222278   1.413   2.169   8.731 -0.1117 -0.9314 -0.0042
 3549SOL     OW22279   4.061   3.347   9.938 -0.2371 -0.4495  0.3672
 3549SOL    HW122280   4.145   3.349   9.984 -1.2672  1.1055  2.1964
 3549SOL    HW222281   4.030   3.435   9.958 -2.0043 -0.7569 -1.0472
 3550SOL     OW22282   1.939   4.312  12.062 -0.1177  0.4037  0.2170
 3550SOL    HW122283   1.881   4.380  12.027 -0.4725  1.0409  2.0795
 3550SOL    HW222284   1.879   4.278  12.127 -1.1456 -0.2305 -1.0578
 3551SOL     OW22285   0.561   4.441  16.102  0.3953 -0.6056 -0.4820
 3551SOL    HW122286   0.501   4.425  16.176 -0.4379 -2.2940 -1.5264
 3551SOL    HW222287   0.618   4.364  16.101  1.3317  0.0783  0.1409
 3552SOL     OW22288   1.359   3.087   2.829  0.0809  0.3359 -0.2268
 3552SOL    HW122289   1.345   3.017   2.893 -0.6973 -0.7257 -1.5435
 3552SOL    HW222290   1.352   3.164   2.886 -1.0891 -0.2896  0.4703
 3553SOL     OW22291   1.979   0.633   7.643 -0.0737 -0.2812  0.1779
 3553SOL    HW122292   2.044   0.628   7.712  0.2553  0.4268 -0.0815
 3553SOL    HW222293   1.968   0.727   7.629  0.1086 -0.0364  1.7683
 3554SOL     OW22294   0.595   3.190   5.057 -0.4758 -0.3234 -0.0677
 3554SOL    HW122295   0.550   3.178   5.141 -0.7197 -1.5929 -0.3848
 3554SOL    HW222296   0.527   3.159   4.997 -0.2986  2.7391 -1.8370
 3555SOL     OW22297   4.311   2.952   6.825 -0.2212 -0.2829 -0.4455
 3555SOL    HW122298   4.400   2.989   6.831 -0.8332  1.5441 -2.7937
 3555SOL    HW222299   4.263   3.025   6.864  2.1657  1.5396 -0.9000
 3556SOL     OW22300   2.178   4.177  16.159 -0.4672  0.4475  0.3903
 3556SOL    HW122301   2.258   4.126  16.171 -0.2371  1.2362  2.1968
 3556SOL    HW222302   2.153   4.149  16.071 -0.6937  2.2231 -0.1007
 3557SOL     OW22303   2.347   0.849  16.380  0.1560 -0.3529  0.2498
 3557SOL    HW122304   2.414   0.885  16.322 -1.3810  0.4780 -0.9974
 3557SOL    HW222305   2.270   0.894  16.345  0.7564  0.9265  0.5748
 3558SOL     OW22306   0.560   3.930   7.987  0.1253 -0.6092 -0.7053
 3558SOL    HW122307   0.569   3.902   7.895  0.1744  2.1527 -1.5183
 3558SOL    HW222308   0.600   4.016   7.988 -1.0756 -0.0929  1.7202
 3559SOL     OW22309   2.494   1.448   5.452  0.3693 -0.0462  0.1784
 3559SOL    HW122310   2.482   1.363   5.494  1.7088 -0.2871  0.0521
 3559SOL    HW222311   2.520   1.498   5.529 -0.2908 -0.1768  0.4866
 3560SOL     OW22312   4.142   1.878   5.607 -0.3370 -0.1489 -0.1011
 3560SOL    HW122313   4.074   1.820   5.572 -1.7191  1.2207  0.3126
 3560SOL    HW222314   4.096   1.919   5.679  0.1881  0.3334 -0.0437
 3561SOL     OW22315   1.219   1.164   0.845 -0.3797  0.6502 -0.5394
 3561SOL    HW122316   1.191   1.182   0.755  0.8899  0.2356 -1.0148
 3561SOL    HW222317   1.148   1.111   0.881  1.2208  0.2405  1.9485
 3562SOL     OW22318   3.415   0.778   4.958 -0.4140 -0.4215 -0.1469
 3562SOL    HW122319   3.367   0.734   5.028 -0.5001 -0.6771 -0.3644
 3562SOL    HW222320   3.352   0.752   4.890  0.9934 -2.4226 -0.6684
 3563SOL     OW22321   1.728   0.096   4.069  0.3954 -0.2457  0.2352
 3563SOL    HW122322   1.774   0.076   3.988 -1.5537  1.3122 -1.2689
 3563SOL    HW222323   1.749   0.188   4.084 -2.1843  0.6997 -2.0141
 3564SOL     OW22324   1.150   2.578   3.732  0.2155 -0.4567  0.1697
 3564SOL    HW122325   1.181   2.533   3.653  1.4418 -0.8800  0.8969
 3564SOL    HW222326   1.201   2.535   3.801  0.0365  1.1629  1.3176
 3565SOL     OW22327   4.408   0.488   4.730 -0.2011  0.2438  0.7198
 3565SOL    HW122328   4.487   0.512   4.681 -1.3776 -0.4141 -1.4735
 3565SOL    HW222329   4.416   0.532   4.815  2.1070 -0.2622  0.7761
 3566SOL     OW22330   1.862   1.735   2.746 -0.8162  0.1089 -0.2259
 3566SOL    HW122331   1.828   1.803   2.687  0.1372 -0.4446 -1.4203
 3566SOL    HW222332   1.948   1.776   2.754 -0.3545 -1.0244  0.5631
 3567SOL     OW22333   1.188   0.736   9.829 -0.4750 -0.1287  0.2772
 3567SOL    HW122334   1.154   0.676   9.895  1.1158 -1.4018 -0.0429
 3567SOL    HW222335   1.217   0.677   9.759 -0.9629 -0.4992  0.3947
 3568SOL     OW22336   2.049   0.951   8.923 -0.6586  0.1751 -0.1888
 3568SOL    HW122337   2.030   0.914   8.837 -0.7128 -1.3370  0.4697
 3568SOL    HW222338   2.132   0.905   8.936  0.7226  2.5279 -0.7373
 3569SOL     OW22339   1.470   2.350   0.024  0.8701  0.5098 -0.1130
 3569SOL    HW122340   1.416   2.421   0.057 -0.8226 -0.3900 -0.9366
 3569SOL    HW222341   1.444   2.270   0.070  1.8513 -0.2971 -0.9310
 3570SOL     OW22342   3.189   1.010   2.431 -0.0836 -0.1858  0.0695
 3570SOL    HW122343   3.224   1.096   2.408  0.8300 -1.9509 -5.3366
 3570SOL    HW222344   3.109   1.010   2.378  1.0054  1.5931 -1.5670
 3571SOL     OW22345   1.921   1.128   1.743  0.0756  0.0761 -0.8905
 3571SOL    HW122346   2.013   1.136   1.765  0.5246 -0.4804 -2.5986
 3571SOL    HW222347   1.885   1.115   1.831 -0.0107 -0.0353 -0.9430
 3572SOL     OW22348   4.563   2.645   4.257  0.2813  0.5640  0.1352
 3572SOL    HW122349   4.478   2.603   4.243  0.5569 -0.7117  2.2156
 3572SOL    HW222350   4.615   2.576   4.215  0.8364  1.1988 -0.2222
 3573SOL     OW22351   2.716   1.416   7.316 -0.3682  0.7734  0.0111
 3573SOL    HW122352   2.715   1.484   7.248  1.1600  0.8766  0.0745
 3573SOL    HW222353   2.807   1.423   7.346 -0.0758 -1.1701 -0.4491
 3574SOL     OW22354   0.332   3.634   2.183  0.0085  0.4704  0.0043
 3574SOL    HW122355   0.394   3.701   2.211  1.4939 -0.4672 -1.0235
 3574SOL    HW222356   0.304   3.582   2.258 -0.4429 -0.9973 -1.1696
 3575SOL     OW22357   1.128   0.322   8.299  0.3895 -0.2258 -0.2975
 3575SOL    HW122358   1.035   0.310   8.280  0.4334 -1.2262  0.1177
 3575SOL    HW222359   1.152   0.235   8.330  1.8447 -0.3729 -1.8395
 3576SOL     OW22360   3.609   4.683   8.274  0.4953  0.2043 -0.2742
 3576SOL    HW122361   3.669   4.609   8.264 -0.4285 -0.7693  1.2561
 3576SOL    HW222362   3.630   4.719   8.360  0.0736  1.0192 -0.5148
 3577SOL     OW22363   3.728   0.252  15.971  0.2253  0.4614  0.1127
 3577SOL    HW122364   3.736   0.283  15.881  3.7170 -0.6586  0.0249
 3577SOL    HW222365   3.718   0.156  15.969 -0.8300  0.5591  1.6859
 3578SOL     OW22366   2.612   0.342   2.821  0.0678 -0.5545  0.5097
 3578SOL    HW122367   2.586   0.395   2.745  0.2268  0.3536  1.0819
 3578SOL    HW222368   2.530   0.297   2.841  0.5426 -2.0091 -0.8638
 3579SOL     OW22369   2.514   1.011   9.994 -0.6918  0.1485 -0.1397
 3579SOL    HW122370   2.538   1.000   9.902 -2.1356 -2.6504 -0.1948
 3579SOL    HW222371   2.530   1.103  10.015  1.3005 -0.7116  1.9947
 3580SOL     OW22372   0.136   3.763   4.691  0.0148 -0.2972 -0.0296
 3580SOL    HW122373   0.114   3.677   4.728  1.5250 -0.5466  0.2678
 3580SOL    HW222374   0.052   3.808   4.694  0.5093  0.6344 -0.3039
 3581SOL     OW22375   4.107   3.834   5.420  0.2464 -0.3751 -0.3105
 3581SOL    HW122376   4.124   3.741   5.432  1.5822 -0.2570 -1.2939
 3581SOL    HW222377   4.182   3.867   5.371 -1.3377  3.0343 -0.4685
 3582SOL     OW22378   4.285   0.090   0.930  0.2247 -0.2476 -0.1843
 3582SOL    HW122379   4.193   0.114   0.937 -0.0695 -2.2456  2.7958
 3582SOL    HW222380   4.303   0.061   1.019  2.4795 -0.6352 -0.7553
 3583SOL     OW22381   4.435   2.174  10.423  0.0150 -0.6241 -0.7885
 3583SOL    HW122382   4.402   2.112  10.488 -0.4984 -1.9735 -2.3502
 3583SOL    HW222383   4.510   2.205  10.474 -1.9978 -1.9628  3.0591
 3584SOL     OW22384   4.062   2.857  17.128  0.6057 -0.1936  0.2117
 3584SOL    HW122385   4.047   2.941  17.085 -0.5607 -0.1504  0.7092
 3584SOL    HW222386   4.081   2.796  17.057 -0.9808 -0.9841  0.4683
 3585SOL     OW22387   0.033   2.881   4.918  0.1347 -0.1316  0.4613
 3585SOL    HW122388   0.006   2.937   4.846  0.3433 -1.0714 -0.3415
 3585SOL    HW222389   4.723   2.801   4.896 -1.4870  0.9465 -0.0169
 3586SOL     OW22390   0.731   2.872   0.446  0.2345  0.6737 -0.2680
 3586SOL    HW122391   0.697   2.891   0.358  2.4389  1.9511 -0.8385
 3586SOL    HW222392   0.762   2.960   0.467 -2.4796  1.1985  1.4080
 3587SOL     OW22393   2.842   4.443   8.948 -0.3067  0.1689  0.5939
 3587SOL    HW122394   2.749   4.427   8.928 -0.4894 -0.5525  2.0264
 3587SOL    HW222395   2.833   4.517   9.008 -1.1384  0.6069 -0.0682
 3588SOL     OW22396   1.211   1.039   5.588 -0.0221 -0.0423  0.3259
 3588SOL    HW122397   1.220   1.059   5.495 -0.4781 -0.9058  0.0969
 3588SOL    HW222398   1.177   0.950   5.574  0.5058 -0.1884 -0.0203
 3589SOL     OW22399   4.380   3.771   3.198  0.2920 -0.2722 -0.1560
 3589SOL    HW122400   4.320   3.842   3.173  0.0831  0.2828  1.9043
 3589SOL    HW222401   4.452   3.826   3.228  0.0064  1.2951 -2.2928
 3590SOL     OW22402   1.381   1.252   5.626  0.6849 -0.0889  0.4468
 3590SOL    HW122403   1.415   1.219   5.543 -1.2199  0.1695 -0.4408
 3590SOL    HW222404   1.313   1.186   5.638  0.3922  0.8045  3.5753
 3591SOL     OW22405   3.078   2.896   5.727 -0.2256 -0.2453  0.3956
 3591SOL    HW122406   3.054   2.978   5.771  0.5894  0.7496 -1.0481
 3591SOL    HW222407   3.170   2.888   5.751  0.1526  0.5101 -0.8524
 3592SOL     OW22408   1.291   3.117  13.464 -0.1855 -0.2842 -0.6562
 3592SOL    HW122409   1.326   3.180  13.527 -2.2929  2.1497 -1.9069
 3592SOL    HW222410   1.373   3.073  13.440  0.5973  0.1551  1.2199
 3593SOL     OW22411   4.442   0.157   5.991 -0.3518 -0.9001 -0.0706
 3593SOL    HW122412   4.358   0.181   6.029 -1.1388 -0.7750 -1.8693
 3593SOL    HW222413   4.450   0.232   5.933  4.0148 -1.4569 -0.1805
 3594SOL     OW22414   0.950   3.783   4.267  0.6562  0.1777 -0.5563
 3594SOL    HW122415   0.969   3.871   4.234  2.5845 -0.0773 -0.1440
 3594SOL    HW222416   1.039   3.750   4.283  0.9742  1.0133 -0.5938
 3595SOL     OW22417   0.710   0.045  13.561 -0.1659  0.7211  0.5504
 3595SOL    HW122418   0.772   0.110  13.594  1.1029  0.3885 -1.2103
 3595SOL    HW222419   0.753   4.698  13.579 -1.4385 -0.1414 -0.4496
 3596SOL     OW22420   1.056   3.840  13.164  0.4203  0.3555 -0.1261
 3596SOL    HW122421   1.108   3.917  13.142  3.2789 -1.3975  0.4434
 3596SOL    HW222422   1.118   3.768  13.175 -0.0803  0.0375  0.6404
 3597SOL     OW22423   3.578   0.204   9.038  0.1659  0.1650 -0.8733
 3597SOL    HW122424   3.584   0.242   9.125 -0.7832 -2.1875  0.2160
 3597SOL    HW222425   3.642   0.133   9.045 -0.3433 -0.1608  0.5060
 3598SOL     OW22426   1.232   2.202  14.099  0.1784  0.4455 -0.4294
 3598SOL    HW122427   1.327   2.211  14.107  0.0558  0.3596  1.1380
 3598SOL    HW222428   1.211   2.129  14.157  2.3334 -0.0784 -0.3072
 3599SOL     OW22429   0.176   3.325  16.309 -0.6223 -0.1385 -0.1450
 3599SOL    HW122430   0.085   3.310  16.285 -0.2932 -0.1240 -1.4531
 3599SOL    HW222431   0.216   3.260  16.250 -0.7315  0.7216 -1.1724
 3600SOL     OW22432   3.537   2.012  11.924  0.2008 -0.2104  0.1480
 3600SOL    HW122433   3.460   2.067  11.914 -0.6296 -1.0997  1.6485
 3600SOL    HW222434   3.498   1.949  11.984  0.5253 -0.0272  0.5505
 3601SOL     OW22435   3.821   2.554   0.975  0.5258 -0.3048  0.2369
 3601SOL    HW122436   3.781   2.613   1.039  1.8185  0.1797  0.5950
 3601SOL    HW222437   3.893   2.609   0.947  0.3066 -0.6301 -0.9600
 3602SOL     OW22438   3.281   3.029   4.241 -0.0171  0.2175  0.6457
 3602SOL    HW122439   3.313   2.976   4.314  0.2508 -0.0113  0.3607
 3602SOL    HW222440   3.237   2.961   4.190 -0.3661 -0.5715  2.0022
 3603SOL     OW22441   0.265   2.697   3.667 -0.5537 -0.0651  0.5679
 3603SOL    HW122442   0.265   2.712   3.573  0.8958  0.4950  0.6617
 3603SOL    HW222443   0.360   2.700   3.674 -0.5592 -0.1292  0.6726
 3604SOL     OW22444   4.484   0.817   4.048 -0.2398  0.4311 -0.1509
 3604SOL    HW122445   4.512   0.725   4.047 -1.7278 -0.0297 -0.7593
 3604SOL    HW222446   4.401   0.809   4.000  1.2999 -1.9038 -2.4342
 3605SOL     OW22447   0.776   1.811   1.272 -0.1877  0.0548  0.5769
 3605SOL    HW122448   0.760   1.735   1.216 -0.8065  0.1033  0.6856
 3605SOL    HW222449   0.796   1.877   1.206  1.0473 -0.4177  0.4731
 3606SOL     OW22450   2.257   4.611  14.726  0.1412  0.2599 -0.0108
 3606SOL    HW122451   2.254   4.639  14.818  0.4810 -1.3533  0.4962
 3606SOL    HW222452   2.351   4.604  14.715  0.1340 -3.3351  2.2826
 3607SOL     OW22453   1.236   2.675   5.475  0.1718 -0.0605 -0.0053
 3607SOL    HW122454   1.204   2.599   5.427 -1.9820  0.7994  0.0774
 3607SOL    HW222455   1.259   2.731   5.401 -2.5373  0.5741 -0.3441
 3608SOL     OW22456   3.813   4.389   7.310 -0.1077  0.7967  0.4169
 3608SOL    HW122457   3.862   4.469   7.329  1.5613 -0.2849  0.7695
 3608SOL    HW222458   3.781   4.365   7.397  3.0152  0.9704  1.6159
 3609SOL     OW22459   4.324   4.397   2.352 -0.3061 -0.5411 -0.5515
 3609SOL    HW122460   4.299   4.489   2.344  0.0510 -0.3410  0.6334
 3609SOL    HW222461   4.273   4.349   2.417 -0.3498  0.1643 -0.0648
 3610SOL     OW22462   2.050   2.792   3.518 -0.2495 -0.2236  0.1280
 3610SOL    HW122463   1.990   2.858   3.553 -1.3524 -0.7033 -0.8560
 3610SOL    HW222464   2.092   2.765   3.600  0.4000 -1.6526 -0.6734
 3611SOL     OW22465   1.645   2.938   4.379 -0.7021  0.5322  0.1015
 3611SOL    HW122466   1.687   2.870   4.431 -1.6432  1.4365  2.0731
 3611SOL    HW222467   1.556   2.944   4.416 -1.2956 -1.0840 -1.0793
 3612SOL     OW22468   1.929   3.040  11.495  0.4969  0.4068  0.2074
 3612SOL    HW122469   1.891   3.126  11.480  0.4753  0.4210  0.3436
 3612SOL    HW222470   1.935   3.057  11.589  1.6399  0.9472  0.0394
 3613SOL     OW22471   1.056   4.515   0.419 -0.4060  0.4329 -0.5001
 3613SOL    HW122472   1.057   4.584   0.486  0.3881  0.8341 -0.9251
 3613SOL    HW222473   0.968   4.490   0.447  0.1614 -0.2410  0.7014
 3614SOL     OW22474   1.820   3.113   5.229  0.6259 -0.0113  0.2294
 3614SOL    HW122475   1.802   3.096   5.321  1.4222 -0.6808  0.2587
 3614SOL    HW222476   1.736   3.106   5.183  1.1158  1.9852 -1.0236
 3615SOL     OW22477   4.696   3.853   8.048  0.1432  0.6097  0.1933
 3615SOL    HW122478   0.008   3.869   8.129  1.0113 -1.3146  0.0301
 3615SOL    HW222479   4.611   3.831   8.087  0.2471 -1.0452 -0.5376
 3616SOL     OW22480   1.807   3.708   4.718  0.7275  0.3716 -0.3025
 3616SOL    HW122481   1.797   3.798   4.748  1.8535  0.6408 -0.7652
 3616SOL    HW222482   1.746   3.699   4.644 -0.5460  1.6753  0.6000
 3617SOL     OW22483   1.175   0.364   7.184  0.0964 -0.2884 -0.1367
 3617SOL    HW122484   1.134   0.315   7.255 -2.6659  0.8439 -0.9437
 3617SOL    HW222485   1.097   0.390   7.134 -0.4158  0.5193  1.0861
 3618SOL     OW22486   3.925   0.971   7.816  0.1086 -0.7490 -0.2193
 3618SOL    HW122487   3.931   0.919   7.897 -0.2541  0.6882  0.7295
 3618SOL    HW222488   3.935   0.894   7.761 -0.6216 -0.1269 -1.2247
 3619SOL     OW22489   4.691   3.739   4.110  0.1745  0.5758  0.4095
 3619SOL    HW122490   4.642   3.762   4.189 -1.7529 -0.3837 -0.5136
 3619SOL    HW222491   4.634   3.789   4.052 -0.2452 -1.5265 -0.9724
 3620SOL     OW22492   3.484   1.004  12.572 -0.1934 -0.0514 -0.2097
 3620SOL    HW122493   3.579   1.016  12.582  0.0471 -2.0529 -0.1087
 3620SOL    HW222494   3.481   0.962  12.485  0.0244  2.9042 -1.6459
 3621SOL     OW22495   3.688   2.673   1.192 -0.7891 -0.2757 -0.7151
 3621SOL    HW122496   3.597   2.656   1.215 -0.0704 -0.8348  1.7433
 3621SOL    HW222497   3.701   2.765   1.212  0.5258 -0.8048  0.8748
 3622SOL     OW22498   2.077   4.239   2.094 -0.2187  0.0432 -0.1719
 3622SOL    HW122499   2.003   4.195   2.137  1.3584 -1.8937  0.5696
 3622SOL    HW222500   2.027   4.304   2.045  1.5623  1.7716  0.2971
 3623SOL     OW22501   0.210   0.062   3.355 -0.1598  0.2802  0.0910
 3623SOL    HW122502   0.182   0.099   3.439 -0.6178  0.9331 -0.3440
 3623SOL    HW222503   0.130   0.016   3.327 -0.3770 -0.7884  2.5424
 3624SOL     OW22504   2.854   3.133   9.438  0.0109  0.0384  0.0894
 3624SOL    HW122505   2.939   3.089   9.436 -0.4729 -0.9167  0.3903
 3624SOL    HW222506   2.868   3.185   9.358 -0.9941 -0.2073 -0.2450
 3625SOL     OW22507   2.970   3.896   2.954 -0.2064 -0.4536  0.2315
 3625SOL    HW122508   2.983   3.985   2.989 -2.5976 -0.3771  0.9469
 3625SOL    HW222509   2.875   3.903   2.945 -0.4906 -2.5714  1.6594
 3626SOL     OW22510   4.444   2.378  10.170  0.0007 -0.9548 -0.6952
 3626SOL    HW122511   4.472   2.324  10.244 -0.1478 -0.1146 -0.0298
 3626SOL    HW222512   4.360   2.345  10.138 -1.0526  0.9772  0.0668
 3627SOL     OW22513   2.623   3.454  10.769 -0.0539 -0.0396 -0.5333
 3627SOL    HW122514   2.667   3.387  10.717  1.4477  0.8832 -0.4508
 3627SOL    HW222515   2.689   3.490  10.829  0.9628 -0.3497 -1.4766
 3628SOL     OW22516   4.249   0.400   8.165 -0.1489  0.2613 -0.0133
 3628SOL    HW122517   4.276   0.393   8.256 -1.1093  0.1510  0.2701
 3628SOL    HW222518   4.328   0.432   8.122 -0.3394  0.6101 -0.1012
 3629SOL     OW22519   1.047   3.824   2.144  0.6673  0.4424  0.1877
 3629SOL    HW122520   1.064   3.748   2.088  2.5888 -1.2177  3.0688
 3629SOL    HW222521   1.030   3.772   2.222 -1.2044  0.8911  0.0770
 3630SOL     OW22522   3.054   0.229   6.707 -0.4766  0.1410  0.1346
 3630SOL    HW122523   3.104   0.257   6.630  0.7027 -0.4699  0.6806
 3630SOL    HW222524   3.109   0.255   6.781  0.4659 -0.5852 -0.2954
 3631SOL     OW22525   1.079   1.340   3.120 -0.1700 -0.0147 -0.3154
 3631SOL    HW122526   1.114   1.256   3.088 -0.1907  0.0649 -0.5442
 3631SOL    HW222527   1.152   1.361   3.178  0.9553 -0.3512 -1.5995
 3632SOL     OW22528   1.250   0.215   5.487  0.4150 -0.2430  0.6137
 3632SOL    HW122529   1.327   0.162   5.507  0.8543  0.7706  1.6186
 3632SOL    HW222530   1.263   0.234   5.394  1.0264 -0.8726  0.5702
 3633SOL     OW22531   1.311   2.343   9.092 -0.6779  0.3610 -0.1706
 3633SOL    HW122532   1.271   2.419   9.049 -0.0180  1.3218  0.9277
 3633SOL    HW222533   1.300   2.276   9.025  0.1709 -0.4919  0.5485
 3634SOL     OW22534   3.510   1.706  17.150 -0.3089  0.0517  0.0341
 3634SOL    HW122535   3.579   1.641  17.139  0.0422  0.8607 -2.5618
 3634SOL    HW222536   3.532   1.776  17.089  0.8439 -1.2542 -1.0410
 3635SOL     OW22537   3.342   3.403   4.123  0.0042  0.6419  0.2389
 3635SOL    HW122538   3.335   3.353   4.204  0.8427 -2.1848 -1.3891
 3635SOL    HW222539   3.436   3.420   4.115  0.1952 -0.1059  0.9458
 3636SOL     OW22540   0.148   0.470   2.902  0.2202  0.0391 -0.6061
 3636SOL    HW122541   0.203   0.498   2.975  0.4172  0.6032 -0.9650
 3636SOL    HW222542   0.166   0.376   2.911 -0.3893 -0.1751 -1.5876
 3637SOL     OW22543   0.388   1.348   7.093  0.1198  0.4986  0.1783
 3637SOL    HW122544   0.334   1.324   7.169  0.8403 -0.9557  0.2371
 3637SOL    HW222545   0.358   1.290   7.024  1.6600  0.2231 -0.2629
 3638SOL     OW22546   2.301   0.410   2.361  0.1084 -0.1373  0.0203
 3638SOL    HW122547   2.231   0.356   2.325  0.2393  0.3926 -1.0098
 3638SOL    HW222548   2.283   0.419   2.455 -0.3163 -0.2845 -0.0456
 3639SOL     OW22549   3.875   0.230   1.950  0.1034  0.3467  0.3196
 3639SOL    HW122550   3.952   0.287   1.957  0.2937 -0.0432  1.5175
 3639SOL    HW222551   3.854   0.215   2.043 -0.0822  0.7075  0.3370
 3640SOL     OW22552   3.762   1.024  16.598 -0.4242  0.7263  0.1059
 3640SOL    HW122553   3.712   1.021  16.680 -0.5544  1.9857  0.0735
 3640SOL    HW222554   3.839   1.077  16.615  0.2414 -0.7525  1.7207
 3641SOL     OW22555   0.835   1.670   5.371  0.0817  0.6405  0.1248
 3641SOL    HW122556   0.783   1.640   5.445  0.8553  0.6715  0.6875
 3641SOL    HW222557   0.904   1.705   5.427 -0.2759  2.3540 -0.5083
 3642SOL     OW22558   0.296   0.195   9.760  0.0277  0.0736 -0.0906
 3642SOL    HW122559   0.283   0.119   9.817  0.5515  1.2008  1.5295
 3642SOL    HW222560   0.380   0.175   9.718  2.0414  1.6838  3.1310
 3643SOL     OW22561   2.643   0.339   4.219  0.2274  0.3997 -0.1785
 3643SOL    HW122562   2.675   0.307   4.304 -2.1283 -0.3707  0.4250
 3643SOL    HW222563   2.609   0.262   4.173  0.6548 -0.3049  0.6739
 3644SOL     OW22564   2.192   1.995   5.644  0.6219  0.1088 -0.0830
 3644SOL    HW122565   2.217   1.929   5.579 -0.1479  1.7678 -2.0719
 3644SOL    HW222566   2.132   2.053   5.597  0.4648  0.3666  0.4377
 3645SOL     OW22567   3.951   1.616  14.882  0.6111 -0.3206 -0.0756
 3645SOL    HW122568   3.865   1.604  14.922  0.7464 -1.2934 -0.0756
 3645SOL    HW222569   3.936   1.585  14.793  0.3720 -2.6878  0.7803
 3646SOL     OW22570   2.488   2.489   6.369 -0.2034  0.0458 -0.3505
 3646SOL    HW122571   2.428   2.499   6.443 -0.1616  2.9293 -0.7001
 3646SOL    HW222572   2.548   2.563   6.379 -0.3206 -0.2770  2.6528
 3647SOL     OW22573   2.633   4.177  14.954  0.2407 -0.6622 -0.6558
 3647SOL    HW122574   2.595   4.102  15.001  1.2877 -0.4481  0.5220
 3647SOL    HW222575   2.657   4.223  15.034 -0.2060 -3.4060  1.0612
 3648SOL     OW22576   3.744   4.502   8.107 -0.4068 -0.5795  0.3349
 3648SOL    HW122577   3.724   4.550   8.026  0.2892  0.4927  0.8111
 3648SOL    HW222578   3.805   4.435   8.076 -0.3737  0.4677 -1.8485
 3649SOL     OW22579   1.901   3.822   2.582 -0.5520  0.0857 -0.2177
 3649SOL    HW122580   1.869   3.780   2.662 -1.2735  2.3947  0.7166
 3649SOL    HW222581   1.829   3.816   2.520  0.5310 -1.3042 -1.3385
 3650SOL     OW22582   2.393   3.118   3.846 -0.5085 -0.6790  0.5079
 3650SOL    HW122583   2.340   3.083   3.918  0.8872 -3.0480  0.3986
 3650SOL    HW222584   2.477   3.108   3.890  1.1282  0.9163 -2.2696
 3651SOL     OW22585   0.091   0.444   5.207 -0.3834 -0.3943  0.5906
 3651SOL    HW122586   0.035   0.368   5.225 -0.1761 -0.8893 -0.8142
 3651SOL    HW222587   0.182   0.415   5.208  0.7335  3.1074 -0.7747
 3652SOL     OW22588   3.269   3.118   9.712 -0.3674  0.3074 -0.5803
 3652SOL    HW122589   3.360   3.090   9.715 -1.1075 -1.9390  1.2076
 3652SOL    HW222590   3.258   3.145   9.803  1.1896  0.8376 -0.5605
 3653SOL     OW22591   2.514   3.552  13.891 -0.1967 -0.1793  0.2773
 3653SOL    HW122592   2.423   3.522  13.898 -0.0472 -0.2731  1.9144
 3653SOL    HW222593   2.518   3.592  13.978 -0.7596 -1.5251  0.9314
 3654SOL     OW22594   2.428   0.925  13.431 -0.3595 -0.2519  0.0195
 3654SOL    HW122595   2.335   0.941  13.415 -0.5908 -0.9157  0.6535
 3654SOL    HW222596   2.455   0.880  13.351 -0.6677  1.1473 -0.8630
 3655SOL     OW22597   0.532   3.542   7.102  0.3494 -0.2977 -0.8814
 3655SOL    HW122598   0.612   3.590   7.123  0.6102 -1.3305  0.5834
 3655SOL    HW222599   0.460   3.601   7.122 -0.3892 -1.3317 -0.4369
 3656SOL     OW22600   4.486   4.225   4.401  0.0208  0.1812  0.1498
 3656SOL    HW122601   4.411   4.173   4.372  0.5499  0.3426 -1.5223
 3656SOL    HW222602   4.549   4.163   4.363 -0.6329 -0.6404  0.4205
 3657SOL     OW22603   3.306   3.879   7.519 -0.1308  0.2309 -0.4330
 3657SOL    HW122604   3.282   3.901   7.429  0.5298  1.1689 -0.3899
 3657SOL    HW222605   3.356   3.960   7.535 -1.1327  0.8882 -0.6266
 3658SOL     OW22606   2.981   3.241  15.463  0.1998  0.2950  0.1483
 3658SOL    HW122607   2.964   3.149  15.445  0.6254  0.6326 -2.0617
 3658SOL    HW222608   3.027   3.233  15.546  0.3630  0.4687  0.0769
 3659SOL     OW22609   4.285   4.016   9.909  0.1987  0.3549  0.4275
 3659SOL    HW122610   4.241   4.096   9.881  0.7354  1.3222  2.3486
 3659SOL    HW222611   4.214   3.952   9.906 -0.9700  1.6374  1.0119
 3660SOL     OW22612   0.581   1.515   5.065  0.2686 -0.4006 -0.1359
 3660SOL    HW122613   0.558   1.423   5.061  0.2562 -0.3877 -0.4011
 3660SOL    HW222614   0.677   1.511   5.060  0.2728 -1.1356  0.5640
 3661SOL     OW22615   0.485   0.995   3.162  0.1774  0.4516 -0.1422
 3661SOL    HW122616   0.415   0.940   3.125 -0.9664  0.8021  1.4802
 3661SOL    HW222617   0.465   0.982   3.255  0.5807 -3.6276 -0.6213
 3662SOL     OW22618   2.181   3.505   5.009  0.4264  0.2521 -0.3162
 3662SOL    HW122619   2.139   3.430   5.051  0.6888  0.0279 -0.4527
 3662SOL    HW222620   2.247   3.462   4.954 -0.7627 -0.1264 -1.4411
 3663SOL     OW22621   4.287   3.233  12.061 -0.2119 -0.4326 -0.0061
 3663SOL    HW122622   4.312   3.212  12.151 -0.3160  0.5201  0.2472
 3663SOL    HW222623   4.309   3.152  12.014 -0.3086 -0.8969  0.7573
 3664SOL     OW22624   3.165   3.849   6.975  0.0884  0.1432  0.2796
 3664SOL    HW122625   3.140   3.792   6.902 -0.5122  2.1592 -1.0830
 3664SOL    HW222626   3.261   3.852   6.970  0.0803 -1.1681 -0.6259
 3665SOL     OW22627   0.397   0.732  17.460  0.6415 -0.2634 -0.3100
 3665SOL    HW122628   0.387   0.805  17.522  1.5510 -0.1754 -0.2737
 3665SOL    HW222629   0.487   0.702  17.472  0.3035 -0.9730  0.4468
 3666SOL     OW22630   1.040   2.654   7.410 -0.0364  0.1233 -0.3909
 3666SOL    HW122631   1.081   2.568   7.399 -2.1893 -1.1864  1.7468
 3666SOL    HW222632   1.111   2.704   7.371  0.4466  0.0593  0.4034
 3667SOL     OW22633   1.587   2.162   8.936 -0.5539  0.6363  0.5709
 3667SOL    HW122634   1.502   2.169   8.894  0.8656  4.1609 -1.7643
 3667SOL    HW222635   1.631   2.234   8.891 -1.5149  0.3013 -0.8821
 3668SOL     OW22636   2.909   0.023   8.848 -0.5381  0.7150  0.3599
 3668SOL    HW122637   2.882   4.723   8.932 -2.2623  0.0699 -0.4736
 3668SOL    HW222638   2.823   0.057   8.824 -0.3982 -0.9628 -2.4821
 3669SOL     OW22639   1.342   3.929  16.016 -0.2200  0.6845  0.0003
 3669SOL    HW122640   1.341   3.837  15.991  0.8814  0.8558 -0.6215
 3669SOL    HW222641   1.324   3.976  15.935  1.5176  0.0223 -0.7648
 3670SOL     OW22642   3.217   3.246   5.770 -0.0023  0.7968 -0.6167
 3670SOL    HW122643   3.188   3.259   5.680 -0.4699 -0.5233 -0.6524
 3670SOL    HW222644   3.149   3.279   5.828 -0.2196  0.7416 -0.8415
 3671SOL     OW22645   0.730   4.385   9.922  0.1510  0.0759 -0.6418
 3671SOL    HW122646   0.666   4.452   9.897  0.2545  0.8269  1.0851
 3671SOL    HW222647   0.755   4.418  10.009 -1.8130 -0.7311  0.2340
 3672SOL     OW22648   2.971   0.407   9.806  0.6567  0.0215  0.1423
 3672SOL    HW122649   2.913   0.413   9.882 -0.0322  0.7571 -0.4331
 3672SOL    HW222650   3.001   0.498   9.798 -1.2579  0.4654 -2.1782
 3673SOL     OW22651   2.617   2.268  13.623 -0.4710  0.2893 -0.5150
 3673SOL    HW122652   2.614   2.175  13.644  0.7484  0.5707  0.9053
 3673SOL    HW222653   2.575   2.303  13.701  0.1654 -0.9798  0.3917
 3674SOL     OW22654   1.109   1.314   6.010 -0.0015 -0.4252  0.3670
 3674SOL    HW122655   1.094   1.276   5.924 -1.9601  0.9891  0.0848
 3674SOL    HW222656   1.177   1.257   6.047  0.6086 -0.0489 -0.1859
 3675SOL     OW22657   2.937   4.149   6.403  0.1089  0.6454 -0.2330
 3675SOL    HW122658   2.989   4.148   6.322  1.2923 -1.6085  0.5468
 3675SOL    HW222659   2.882   4.228   6.400  0.4422  0.8892  0.2671
 3676SOL     OW22660   0.767   1.831   7.868  0.2163  0.0392 -0.5496
 3676SOL    HW122661   0.690   1.846   7.814 -0.5584  0.0431  0.5701
 3676SOL    HW222662   0.814   1.761   7.823 -0.3874 -1.8673  1.7705
 3677SOL     OW22663   1.727   2.033   4.042  0.1139  0.3015 -0.3697
 3677SOL    HW122664   1.695   2.076   4.121  2.9256 -0.3497  1.1203
 3677SOL    HW222665   1.676   1.952   4.037  1.7368 -0.7168 -0.5836
 3678SOL     OW22666   1.685   1.664   8.820  0.0189  0.1449  0.0984
 3678SOL    HW122667   1.674   1.740   8.878 -1.5729 -0.5246  0.6889
 3678SOL    HW222668   1.612   1.610   8.850  0.1316  0.8035  1.5740
 3679SOL     OW22669   0.828   1.683  10.184 -0.1131 -0.1493 -0.2764
 3679SOL    HW122670   0.737   1.693  10.155 -0.4164 -1.7182  0.0903
 3679SOL    HW222671   0.806   1.662  10.275  0.9044  1.2977  0.2923
 3680SOL     OW22672   1.739   4.261  12.566 -0.1203 -0.4664  0.3508
 3680SOL    HW122673   1.755   4.306  12.649 -1.7439  2.1822 -0.7937
 3680SOL    HW222674   1.669   4.203  12.595 -0.8218  1.1646  1.9276
 3681SOL     OW22675   0.581   1.642  15.639  0.0324  0.3396 -0.6096
 3681SOL    HW122676   0.568   1.732  15.669  1.5500 -0.3311  2.0176
 3681SOL    HW222677   0.547   1.655  15.550  3.4275  0.0813 -1.9535
 3682SOL     OW22678   0.649   0.397   1.240 -0.2420  0.6032  0.5854
 3682SOL    HW122679   0.582   0.360   1.298 -2.2713  1.6612 -1.0690
 3682SOL    HW222680   0.613   0.482   1.212  0.7918  0.2406 -1.8239
 3683SOL     OW22681   1.812   3.266   4.750  0.0843 -1.1621  0.8910
 3683SOL    HW122682   1.753   3.317   4.695  0.2430 -1.8275  0.0974
 3683SOL    HW222683   1.782   3.175   4.742  1.1291 -1.5784  1.8791
 3684SOL     OW22684   0.349   0.677   9.938  0.2725 -0.2936  0.1234
 3684SOL    HW122685   0.351   0.581   9.934 -0.7657 -0.3225  0.3463
 3684SOL    HW222686   0.362   0.688   9.844  1.4469  1.1403  0.4508
 3685SOL     OW22687   0.154   2.096   5.678 -0.0331 -0.6802  0.1658
 3685SOL    HW122688   0.107   2.014   5.686 -2.3415  0.4487 -1.8736
 3685SOL    HW222689   0.082   2.146   5.639 -0.4117 -3.1511 -2.2622
 3686SOL     OW22690   3.682   4.374   8.404 -0.6780  0.2287 -0.1512
 3686SOL    HW122691   3.664   4.304   8.466  0.0765 -0.1618 -0.3640
 3686SOL    HW222692   3.595   4.392   8.369 -1.2734 -3.5382 -0.5554
 3687SOL     OW22693   0.918   2.980   2.338 -0.2590  0.1619 -0.7723
 3687SOL    HW122694   0.825   2.992   2.359 -0.2608  0.9105 -1.2039
 3687SOL    HW222695   0.903   2.906   2.280 -0.0369 -0.3161 -0.2164
 3688SOL     OW22696   2.990   1.930   4.374  0.5498  0.3255  0.3231
 3688SOL    HW122697   3.053   1.883   4.429  0.3811  1.7839  1.7574
 3688SOL    HW222698   3.033   2.015   4.370  0.8260  0.1577 -0.2996
 3689SOL     OW22699   1.044   3.446   8.094  0.0116  0.6654  0.0605
 3689SOL    HW122700   1.068   3.386   8.165 -2.4131 -2.1131 -1.4556
 3689SOL    HW222701   0.966   3.399   8.063  0.2215  0.0136  0.5041
 3690SOL     OW22702   3.324   2.843   8.407  0.1033  0.0465  0.0844
 3690SOL    HW122703   3.231   2.823   8.395 -0.1311 -0.5564  2.9886
 3690SOL    HW222704   3.357   2.866   8.320  0.4864  1.2495  0.5381
 3691SOL     OW22705   0.652   2.697   7.659  0.3976 -0.4956 -0.2207
 3691SOL    HW122706   0.660   2.788   7.628  2.0420 -0.9276 -1.0894
 3691SOL    HW222707   0.709   2.651   7.597  0.9914  1.4806 -1.1585
 3692SOL     OW22708   1.367   1.730  11.368  0.2059 -0.2733 -0.0898
 3692SOL    HW122709   1.382   1.648  11.416 -3.0029 -0.2934  0.8610
 3692SOL    HW222710   1.440   1.778  11.407  1.1158 -1.8278  0.1125
 3693SOL     OW22711   2.061   3.288   9.499  0.3762  0.3727 -0.2680
 3693SOL    HW122712   2.136   3.237   9.530  0.0250  0.4519  0.6800
 3693SOL    HW222713   2.109   3.356   9.451 -2.6788  2.7339  0.0582
 3694SOL     OW22714   4.238   1.802   7.772 -0.3880 -0.1366  0.5640
 3694SOL    HW122715   4.306   1.863   7.744  0.2836 -1.4267 -0.5821
 3694SOL    HW222716   4.296   1.740   7.815 -0.7294  0.2941  1.6404
 3695SOL     OW22717   2.855   2.377   9.805  0.0476  0.1523 -0.1246
 3695SOL    HW122718   2.765   2.349   9.788  0.2682 -0.3136 -0.5177
 3695SOL    HW222719   2.875   2.374   9.899  0.3978  0.1179 -0.2008
 3696SOL     OW22720   3.430   3.296  17.616  0.1726 -0.0662 -0.1952
 3696SOL    HW122721   3.486   3.316  17.690 -0.0130 -1.4781  0.3173
 3696SOL    HW222722   3.486   3.318  17.541 -0.3226 -0.8463 -0.7961
 3697SOL     OW22723   4.662   1.643  12.374 -0.3007 -0.1565  0.0438
 3697SOL    HW122724   4.716   1.623  12.451 -0.8011 -0.5832  0.2847
 3697SOL    HW222725   4.708   1.714  12.330 -0.1160 -1.0248 -1.1670
 3698SOL     OW22726   3.243   4.551   5.722 -0.3730  0.2867 -0.4442
 3698SOL    HW122727   3.161   4.593   5.749 -1.1724 -1.2496 -0.4638
 3698SOL    HW222728   3.224   4.541   5.629  0.0976 -1.2088 -0.3777
 3699SOL     OW22729   2.245   1.534   6.165 -0.4221 -0.1080  0.8260
 3699SOL    HW122730   2.163   1.522   6.212 -0.3120  1.7280  1.5207
 3699SOL    HW222731   2.216   1.514   6.076  3.4107 -0.5160 -0.3475
 3700SOL     OW22732   3.455   3.131   8.039 -0.1975 -0.2890  0.4005
 3700SOL    HW122733   3.428   3.191   7.969  2.9794 -1.2382 -1.6573
 3700SOL    HW222734   3.492   3.071   7.973  0.5999  1.5731 -0.8393
 3701SOL     OW22735   1.768   3.051  16.451  0.0396 -0.2011 -0.2743
 3701SOL    HW122736   1.695   2.990  16.461 -1.1769  1.2606 -0.3515
 3701SOL    HW222737   1.827   3.008  16.513  0.5532  0.0544 -0.5887
 3702SOL     OW22738   0.558   4.001   9.453  0.0050 -0.6515  0.0358
 3702SOL    HW122739   0.579   3.945   9.378 -2.3101  0.8432 -1.7277
 3702SOL    HW222740   0.645   4.003   9.493 -0.0093  1.1649 -0.0379
 3703SOL     OW22741   4.147   0.132   7.578  0.6929  0.1825  0.3744
 3703SOL    HW122742   4.201   0.150   7.501 -0.4021  0.1147 -0.4224
 3703SOL    HW222743   4.167   0.039   7.584 -0.0751  0.0237  0.4808
 3704SOL     OW22744   1.205   1.380   4.689 -0.0784 -0.1107  0.5685
 3704SOL    HW122745   1.191   1.402   4.597 -0.6627  0.3905  0.7761
 3704SOL    HW222746   1.295   1.346   4.696  1.1592  2.6650 -2.3422
 3705SOL     OW22747   3.559   0.020  13.040 -0.4384  0.2033 -0.5002
 3705SOL    HW122748   3.590   0.107  13.065 -0.6933 -0.4290  1.9491
 3705SOL    HW222749   3.548   4.708  13.121  0.0455  4.0334  1.8512
 3706SOL     OW22750   4.331   3.181   7.665  0.3391 -0.1705 -0.3058
 3706SOL    HW122751   4.381   3.203   7.586 -1.5737  2.6382 -0.7399
 3706SOL    HW222752   4.356   3.258   7.716  0.1773 -0.1018 -0.3315
 3707SOL     OW22753   3.688   1.313  10.352  0.2004  0.1670  0.1149
 3707SOL    HW122754   3.681   1.395  10.401 -1.0194 -0.5619  1.1295
 3707SOL    HW222755   3.728   1.248  10.410 -0.3350 -0.9244 -0.7458
 3708SOL     OW22756   3.253   2.644  11.489  0.1828 -0.1521  0.2801
 3708SOL    HW122757   3.260   2.563  11.438  1.2119  0.0782  0.0559
 3708SOL    HW222758   3.343   2.675  11.480  0.6154 -1.2520  0.8413
 3709SOL     OW22759   4.514   2.990   3.832 -0.4205 -0.5773  0.3592
 3709SOL    HW122760   4.484   3.081   3.828  0.4077 -0.2960  0.6187
 3709SOL    HW222761   4.599   2.991   3.788  0.1136 -0.5542  1.3974
 3710SOL     OW22762   4.660   0.851   2.120  1.0766 -0.0155 -0.7107
 3710SOL    HW122763   4.695   0.940   2.110  1.4621 -0.0910 -0.0296
 3710SOL    HW222764   4.696   0.808   2.043 -0.7828 -1.6745 -0.6469
 3711SOL     OW22765   2.233   1.936   2.381  0.2594  0.9423  0.5918
 3711SOL    HW122766   2.266   2.026   2.372  1.1469  0.6575  1.0345
 3711SOL    HW222767   2.194   1.934   2.294 -0.5768 -1.4427  1.0272
 3712SOL     OW22768   3.231   0.980   4.282 -0.9185  0.4338  0.1652
 3712SOL    HW122769   3.308   0.922   4.282  0.1156  1.8038 -0.9967
 3712SOL    HW222770   3.268   1.060   4.246 -1.8330  0.0994 -1.5511
 3713SOL     OW22771   1.193   1.980  15.692 -0.8277  0.3715 -0.0255
 3713SOL    HW122772   1.272   1.955  15.645 -0.5368 -0.4456  0.8845
 3713SOL    HW222773   1.151   2.032  15.624 -0.8646 -0.1250 -0.3898
 3714SOL     OW22774   4.332   2.458   4.195 -0.0881  0.2547  0.2612
 3714SOL    HW122775   4.249   2.499   4.219 -0.5502 -0.8497  0.5612
 3714SOL    HW222776   4.328   2.464   4.100  3.4346 -2.0691 -0.0411
 3715SOL     OW22777   2.297   2.997   3.582 -0.1146  0.7189 -0.2499
 3715SOL    HW122778   2.334   2.909   3.577  0.9477  1.2081 -1.1918
 3715SOL    HW222779   2.343   3.028   3.660 -0.2144  0.2622 -0.0121
 3716SOL     OW22780   4.686   4.696   3.327  0.0870  0.3028  0.2579
 3716SOL    HW122781   4.647   4.625   3.378  0.3439 -0.7506 -0.9894
 3716SOL    HW222782   4.617   4.687   3.261 -1.0647  1.5685  1.3089
 3717SOL     OW22783   0.164   2.056   0.127 -0.1667  0.7748 -0.2745
 3717SOL    HW122784   0.089   2.084   0.076  1.1812 -0.2423 -2.8398
 3717SOL    HW222785   0.114   2.023   0.202 -0.4936  1.8299 -0.0311
 3718SOL     OW22786   0.513   1.455   9.785  0.3344  0.2625  0.1552
 3718SOL    HW122787   0.479   1.436   9.873 -2.6829  1.5002 -0.7218
 3718SOL    HW222788   0.450   1.401   9.737 -1.3617  0.9729  1.5705
 3719SOL     OW22789   4.705   2.500   6.821  0.2054 -0.4869 -0.1005
 3719SOL    HW122790   4.693   2.591   6.847  1.1627 -0.9400  1.9399
 3719SOL    HW222791   4.672   2.459   6.901 -0.8874 -0.0346 -0.3262
 3720SOL     OW22792   2.345   3.387   4.828 -0.1585 -0.2684  0.0732
 3720SOL    HW122793   2.420   3.334   4.855  1.0278  1.7516  0.7396
 3720SOL    HW222794   2.300   3.323   4.773 -0.5258  0.2349 -0.2118
 3721SOL     OW22795   1.125   1.649   2.255 -0.1737 -0.3322  0.3627
 3721SOL    HW122796   1.095   1.678   2.169  2.2158 -1.6525 -0.9162
 3721SOL    HW222797   1.041   1.643   2.300 -2.9663  1.5995 -4.5855
 3722SOL     OW22798   3.128   1.747   3.142  0.4932  0.1983  0.0595
 3722SOL    HW122799   3.224   1.742   3.150  0.5072 -0.3521 -0.4835
 3722SOL    HW222800   3.118   1.834   3.105 -2.5075 -0.6331 -1.0695
 3723SOL     OW22801   0.876   3.723   1.554  0.1852  0.8043  0.3819
 3723SOL    HW122802   0.855   3.815   1.540 -2.0514 -0.0492 -1.9334
 3723SOL    HW222803   0.908   3.691   1.470  1.5983  0.9324  0.8719
 3724SOL     OW22804   1.620   3.696   0.922 -0.0947  0.3646 -0.1778
 3724SOL    HW122805   1.697   3.711   0.867  0.5921 -0.5940  0.5211
 3724SOL    HW222806   1.563   3.765   0.887  2.3066  2.2761 -0.2607
 3725SOL     OW22807   4.360   3.020   1.600  0.0217  0.0216 -0.7627
 3725SOL    HW122808   4.357   2.950   1.534  1.0607 -2.2469  1.6041
 3725SOL    HW222809   4.280   3.066   1.574  0.2282 -0.1757 -1.7627
 3726SOL     OW22810   3.888   0.237  15.607 -0.1329  0.1202 -0.5044
 3726SOL    HW122811   3.876   0.200  15.519  1.7765 -2.1009  0.1800
 3726SOL    HW222812   3.840   0.165  15.647 -0.6778  1.5587  1.4178
 3727SOL     OW22813   0.478   0.473   5.279  0.1867 -0.4852 -0.2740
 3727SOL    HW122814   0.475   0.415   5.355  0.7955  0.8624  0.7837
 3727SOL    HW222815   0.444   0.406   5.219  1.7966  0.0753 -1.7917
 3728SOL     OW22816   3.132   1.851   8.869 -0.1123 -0.3751 -0.0397
 3728SOL    HW122817   3.066   1.818   8.931 -0.0543  1.9200  1.2500
 3728SOL    HW222818   3.077   1.904   8.812  0.9964  4.4059  3.3413
 3729SOL     OW22819   1.261   1.505   2.861  1.0292  0.0094  0.0648
 3729SOL    HW122820   1.265   1.496   2.765  0.4874 -2.6971  0.2959
 3729SOL    HW222821   1.167   1.489   2.870  1.2671 -0.7417  1.1959
 3730SOL     OW22822   4.112   3.230   3.705 -0.2354 -0.1036  0.3224
 3730SOL    HW122823   4.140   3.264   3.790 -0.2421 -1.9031  1.0408
 3730SOL    HW222824   4.017   3.238   3.710 -0.3244 -0.0631 -1.3155
 3731SOL     OW22825   4.295   1.728   1.391  0.1913  0.5239  0.0541
 3731SOL    HW122826   4.330   1.812   1.360 -0.1757  1.4057  2.0299
 3731SOL    HW222827   4.240   1.761   1.462  0.4024  0.2866  0.3321
 3732SOL     OW22828   2.198   4.588   8.528 -0.1541 -0.2500  0.6777
 3732SOL    HW122829   2.180   4.542   8.447 -2.2219  1.2048  0.3064
 3732SOL    HW222830   2.110   4.588   8.565 -0.4252 -3.0830  0.0133
 3733SOL     OW22831   1.400   2.317  14.371 -0.2298  0.0787 -0.3826
 3733SOL    HW122832   1.443   2.312  14.285  1.3879 -3.0815  0.6075
 3733SOL    HW222833   1.480   2.295  14.419 -0.1717  0.0070 -0.5117
 3734SOL     OW22834   3.255   4.163   1.348 -0.0521 -1.0726  0.5269
 3734SOL    HW122835   3.278   4.169   1.255 -1.5043 -0.3890  0.2117
 3734SOL    HW222836   3.178   4.107   1.344 -0.1836 -0.7833 -1.4495
 3735SOL     OW22837   0.019   1.136  10.072  0.1379 -0.1687  0.2172
 3735SOL    HW122838   0.094   1.109  10.126 -1.4041 -2.5604  1.1487
 3735SOL    HW222839   0.012   1.220  10.117  1.0376 -0.6240  1.2101
 3736SOL     OW22840   4.331   0.587   6.003 -0.3522  0.3195 -0.0720
 3736SOL    HW122841   4.309   0.522   6.070 -1.8965 -1.0698 -1.9154
 3736SOL    HW222842   4.251   0.576   5.950  0.0398  0.4592 -0.6958
 3737SOL     OW22843   1.958   1.651  11.837  0.1608  0.0200  0.5057
 3737SOL    HW122844   1.936   1.596  11.762  3.5877 -0.6971  0.0009
 3737SOL    HW222845   1.875   1.696  11.852  1.3303  1.3380  2.9661
 3738SOL     OW22846   4.037   0.395   4.492  0.2640 -0.7467  0.1293
 3738SOL    HW122847   4.036   0.371   4.585 -0.2972 -3.6644 -0.6177
 3738SOL    HW222848   4.122   0.357   4.468  0.9298  0.2139  0.9669
 3739SOL     OW22849   2.873   2.892  14.691  0.1477  0.2529  0.1507
 3739SOL    HW122850   2.839   2.956  14.754 -1.3454 -2.5152  2.1250
 3739SOL    HW222851   2.965   2.913  14.675  0.6929 -2.3751 -0.0366
 3740SOL     OW22852   0.079   1.548   7.161 -0.4130  0.3998 -0.0651
 3740SOL    HW122853   0.125   1.502   7.231 -0.6310  0.0672 -0.1453
 3740SOL    HW222854   0.122   1.633   7.146  2.1147 -0.7006  1.0380
 3741SOL     OW22855   1.723   1.778   7.372  0.1868 -0.0247  0.0485
 3741SOL    HW122856   1.765   1.692   7.380  1.5586  0.5404 -1.2234
 3741SOL    HW222857   1.702   1.788   7.465  0.2664  0.1682  0.0442
 3742SOL     OW22858   4.316   2.614  11.411 -0.5499  0.1145  0.0233
 3742SOL    HW122859   4.270   2.530  11.415  1.2157 -0.9457 -1.9143
 3742SOL    HW222860   4.407   2.589  11.429 -0.2457  1.3984  0.2839
 3743SOL     OW22861   4.266   2.369   2.903  0.2182  0.0282 -0.6297
 3743SOL    HW122862   4.335   2.307   2.929 -1.1214 -0.5516  1.5321
 3743SOL    HW222863   4.189   2.328   2.943 -0.4480 -1.2384 -3.2501
 3744SOL     OW22864   2.360   1.742   3.622 -0.3385  0.1829 -0.5887
 3744SOL    HW122865   2.297   1.679   3.586 -0.9321  0.5085 -0.1035
 3744SOL    HW222866   2.407   1.681   3.679  1.1633  1.3872 -0.5356
 3745SOL     OW22867   2.337   4.449   7.418 -0.4046 -0.0026  0.0245
 3745SOL    HW122868   2.362   4.537   7.445 -1.8285 -0.3780  2.5483
 3745SOL    HW222869   2.355   4.397   7.496  0.2078 -0.0030 -0.1139
 3746SOL     OW22870   3.235   2.112   6.300  0.0648 -1.0439  0.0782
 3746SOL    HW122871   3.267   2.160   6.224  1.6771 -0.6393  1.0116
 3746SOL    HW222872   3.276   2.033   6.263 -0.1251 -1.2514  0.3070
 3747SOL     OW22873   3.368   1.819   4.792  0.3445  0.2746  0.3732
 3747SOL    HW122874   3.320   1.796   4.871 -0.8550  2.6876  0.3416
 3747SOL    HW222875   3.415   1.736   4.785  0.1580  0.3783 -2.1259
 3748SOL     OW22876   1.679   0.953   0.667 -0.5284 -0.4758  0.1250
 3748SOL    HW122877   1.705   0.947   0.758 -0.4136  2.7090  0.3075
 3748SOL    HW222878   1.760   0.958   0.615 -0.8597  2.4550 -0.1300
 3749SOL     OW22879   0.174   0.037   4.622  0.1865  0.3929  0.5831
 3749SOL    HW122880   0.197   0.118   4.667  1.4525 -0.8214  2.1547
 3749SOL    HW222881   0.226   4.706   4.665  2.4012  1.9544  0.3372
 3750SOL     OW22882   1.350   1.921   2.611 -0.3648 -0.7857  0.0064
 3750SOL    HW122883   1.414   1.990   2.628 -0.1745 -1.6071  2.6187
 3750SOL    HW222884   1.302   1.924   2.694 -1.2575 -1.9053 -0.4667
 3751SOL     OW22885   2.766   3.721   2.354  0.2290  0.0895  0.1781
 3751SOL    HW122886   2.827   3.724   2.427 -0.2194 -0.1863  0.5603
 3751SOL    HW222887   2.680   3.702   2.393  0.4386  0.4335  0.8074
 3752SOL     OW22888   2.078   3.136   6.458  0.1500  0.6519  0.3979
 3752SOL    HW122889   2.036   3.159   6.375 -0.5536 -0.6413  0.3929
 3752SOL    HW222890   2.164   3.177   6.455  0.8150 -0.7355  0.4665
 3753SOL     OW22891   0.164   0.027   8.422  0.6719 -0.0170 -0.1474
 3753SOL    HW122892   0.176   4.700   8.352  1.5922  1.8744 -1.7043
 3753SOL    HW222893   0.141   4.716   8.501  0.0552  0.6176  0.0646
 3754SOL     OW22894   1.210   0.114   6.033 -0.4153 -0.1204  0.3638
 3754SOL    HW122895   1.210   0.071   6.119  0.0022 -0.1642  0.3395
 3754SOL    HW222896   1.302   0.135   6.020 -0.3254  1.1500  2.8403
 3755SOL     OW22897   3.413   2.785   2.352 -1.1117  0.2695 -0.3582
 3755SOL    HW122898   3.347   2.822   2.293 -0.9350  2.4501  0.8160
 3755SOL    HW222899   3.495   2.813   2.309 -1.5910  1.2449 -0.6394
 3756SOL     OW22900   3.391   3.430   5.404  0.3574  0.1341 -0.3908
 3756SOL    HW122901   3.357   3.515   5.376  1.5406  0.2666 -1.4582
 3756SOL    HW222902   3.477   3.446   5.442 -0.0752  3.3827 -0.7945
 3757SOL     OW22903   4.620   0.658   9.333  0.3792  0.9866  0.1575
 3757SOL    HW122904   4.651   0.610   9.256  0.1480 -0.6154  1.0575
 3757SOL    HW222905   4.611   0.598   9.407 -0.0058  1.2811  0.3435
 3758SOL     OW22906   3.414   2.427   0.992  0.7014  0.3547  0.0735
 3758SOL    HW122907   3.506   2.401   0.983  0.8067  0.3838  1.0860
 3758SOL    HW222908   3.396   2.395   1.081 -1.0752  2.7508  0.5577
 3759SOL     OW22909   0.304   2.467  11.854 -0.2086 -0.0119 -0.2290
 3759SOL    HW122910   0.309   2.446  11.761 -0.5040 -1.2941  0.0426
 3759SOL    HW222911   0.314   2.562  11.850 -1.3733  0.0943 -0.7864
 3760SOL     OW22912   4.469   1.366   2.518 -0.3735  0.4998  0.5881
 3760SOL    HW122913   4.480   1.321   2.602  0.1006 -0.6269 -0.0641
 3760SOL    HW222914   4.415   1.440   2.544 -0.7261  0.6911 -0.7043
 3761SOL     OW22915   3.536   0.155   4.704  0.2564 -0.2462  0.5877
 3761SOL    HW122916   3.611   0.152   4.644 -0.2236 -0.0713 -0.0085
 3761SOL    HW222917   3.578   0.128   4.786 -2.6409 -1.9712  1.4777
 3762SOL     OW22918   4.666   3.953   4.707 -0.5184  0.0931  0.2888
 3762SOL    HW122919   4.658   4.014   4.633  1.2829  1.6502  1.3655
 3762SOL    HW222920   4.707   4.002   4.778  1.1762 -2.3776  0.9944
 3763SOL     OW22921   2.229   3.262   2.794 -0.2457  0.2544 -0.1719
 3763SOL    HW122922   2.252   3.222   2.879  0.2337 -1.3389 -1.0505
 3763SOL    HW222923   2.232   3.354   2.820  2.8060  0.0762  0.1175
 3764SOL     OW22924   0.503   1.568   2.298 -0.1629  0.1238  0.0603
 3764SOL    HW122925   0.565   1.554   2.227 -0.7696 -0.3856 -0.3663
 3764SOL    HW222926   0.472   1.479   2.315 -3.5805  1.1331 -0.8120
 3765SOL     OW22927   4.323   0.757  14.975 -0.2768 -0.4710 -0.2974
 3765SOL    HW122928   4.398   0.725  15.023  1.0572  1.1385 -1.2832
 3765SOL    HW222929   4.262   0.746  15.048  0.7774 -3.3365  0.1344
 3766SOL     OW22930   4.233   0.406   1.645 -0.1751  0.0059  0.4489
 3766SOL    HW122931   4.167   0.346   1.610 -0.3435 -0.3097  1.2882
 3766SOL    HW222932   4.241   0.462   1.568 -1.1541 -2.4089 -1.4104
 3767SOL     OW22933   1.948   4.728   9.247  0.0544  0.0099  0.4376
 3767SOL    HW122934   1.869   4.685   9.279 -1.1627  0.5019 -1.9193
 3767SOL    HW222935   1.980   4.678   9.172 -0.2521  0.2053  0.1775
 3768SOL     OW22936   1.837   1.044  13.078  0.0925  0.1253 -0.8156
 3768SOL    HW122937   1.815   0.952  13.061 -0.9034  0.5594 -1.8539
 3768SOL    HW222938   1.754   1.052  13.125 -0.2374 -0.2056 -1.3346
 3769SOL     OW22939   0.082   1.704  11.667 -0.0410  0.3483  0.7826
 3769SOL    HW122940   0.055   1.775  11.609 -1.8204 -1.9392 -1.2015
 3769SOL    HW222941   0.007   1.644  11.668 -0.1980  0.5552  1.1961
 3770SOL     OW22942   2.982   1.676   1.568 -0.9616  0.0795 -0.4078
 3770SOL    HW122943   3.072   1.670   1.537 -0.9471  1.2359 -0.5795
 3770SOL    HW222944   2.993   1.754   1.623  1.0911 -0.9372  0.6297
 3771SOL     OW22945   4.144   2.096  15.022 -0.2716  0.3569  0.1642
 3771SOL    HW122946   4.206   2.093  15.095  0.6066 -4.3304 -0.8027
 3771SOL    HW222947   4.192   2.160  14.969  0.3100  1.5793  2.1530
 3772SOL     OW22948   4.512   1.447   5.259  0.3199  0.0304 -0.3438
 3772SOL    HW122949   4.496   1.390   5.184  2.5771  0.2948 -1.0213
 3772SOL    HW222950   4.468   1.525   5.224 -1.6939 -0.2474  1.5270
 3773SOL     OW22951   3.687   2.200  10.758  0.1933 -0.2194  0.1501
 3773SOL    HW122952   3.763   2.245  10.796 -0.6914  1.2310  0.1963
 3773SOL    HW222953   3.713   2.110  10.778 -0.2806 -0.9404 -2.4898
 3774SOL     OW22954   1.030   0.759  12.103 -0.3449 -0.2907  0.3927
 3774SOL    HW122955   0.935   0.744  12.101 -0.0110 -2.2574 -1.1176
 3774SOL    HW222956   1.030   0.801  12.017  0.1011 -0.5909  0.2474
 3775SOL     OW22957   2.369   0.310  13.165 -0.2475  0.1358  0.0707
 3775SOL    HW122958   2.375   0.285  13.257  1.1752  1.6810  0.3861
 3775SOL    HW222959   2.454   0.272  13.143  0.4610  2.2405 -0.7732
 3776SOL     OW22960   3.078   0.226   9.433  0.1940  0.2884  0.5098
 3776SOL    HW122961   3.131   0.147   9.424  1.4919  1.3428 -0.9997
 3776SOL    HW222962   3.123   0.265   9.508  2.8661 -1.0286 -0.4010
 3777SOL     OW22963   1.320   4.049   8.028 -0.3733 -0.1561  0.3398
 3777SOL    HW122964   1.308   3.999   7.947  0.4187 -0.5568  0.4632
 3777SOL    HW222965   1.258   4.122   8.024 -0.7021 -0.3302  2.1299
 3778SOL     OW22966   2.561   4.165   1.202  0.2806 -0.3754 -0.0013
 3778SOL    HW122967   2.554   4.072   1.222 -0.9734 -0.2870 -0.0348
 3778SOL    HW222968   2.628   4.195   1.263  0.1865  1.8319 -0.9850
 3779SOL     OW22969   0.987   2.582   3.236 -0.1651  0.4821  0.1271
 3779SOL    HW122970   0.900   2.604   3.201 -1.0507  1.1398  2.7567
 3779SOL    HW222971   0.975   2.522   3.309 -2.8976 -1.9216 -2.2693
 3780SOL     OW22972   2.892   0.593   7.050 -0.2650 -0.6032 -0.0395
 3780SOL    HW122973   2.836   0.662   7.085 -3.1022 -1.6814 -2.4495
 3780SOL    HW222974   2.880   0.525   7.116 -1.3196 -1.1383 -0.7830
 3781SOL     OW22975   2.541   0.809   4.133  0.2433  0.1341 -0.4816
 3781SOL    HW122976   2.593   0.729   4.133 -1.6633 -1.1427  2.4900
 3781SOL    HW222977   2.472   0.792   4.069 -0.9036 -0.9594  1.0331
 3782SOL     OW22978   2.069   3.176   5.135 -0.3916 -0.0485  0.7601
 3782SOL    HW122979   1.996   3.129   5.176 -1.4182  0.8982  0.0226
 3782SOL    HW222980   2.101   3.232   5.205 -0.9364  0.3369  0.7033
 3783SOL     OW22981   4.261   2.698   6.611 -0.2436  0.0232  0.3522
 3783SOL    HW122982   4.222   2.622   6.654 -1.2402  0.0431 -0.5148
 3783SOL    HW222983   4.201   2.721   6.541 -0.1373 -0.7604  0.0092
 3784SOL     OW22984   0.588   3.960   7.178  0.0502  0.0866 -0.0050
 3784SOL    HW122985   0.578   3.910   7.259  0.8655 -0.6274 -0.3493
 3784SOL    HW222986   0.501   4.000   7.166  1.4423  2.6093 -1.8388
 3785SOL     OW22987   0.019   0.957  15.224  0.1673 -0.1875 -0.2092
 3785SOL    HW122988   0.008   1.041  15.268 -1.6336 -1.2056  1.2957
 3785SOL    HW222989   0.018   0.989  15.134 -3.6830 -1.6899 -0.7185
 3786SOL     OW22990   0.597   2.905   6.534 -0.0250  0.3221  0.2478
 3786SOL    HW122991   0.592   2.985   6.481  0.8137  0.6032  0.5997
 3786SOL    HW222992   0.505   2.903   6.562 -0.3554  0.7793 -0.7815
 3787SOL     OW22993   3.083   2.296  14.135  0.4803 -0.9023  0.2741
 3787SOL    HW122994   3.126   2.219  14.174 -1.5405 -0.7254  2.8933
 3787SOL    HW222995   3.030   2.328  14.208 -1.7320 -0.6134 -1.4730
 3788SOL     OW22996   1.095   1.977  12.890  0.2464  0.1148  0.2711
 3788SOL    HW122997   1.042   1.931  12.824 -1.6909  0.4391  1.5864
 3788SOL    HW222998   1.183   1.975  12.852  0.2493 -0.7096  0.3118
 3789SOL     OW22999   1.338   0.752   2.751 -0.2529 -0.4388 -0.4845
 3789SOL    HW123000   1.343   0.658   2.732 -0.0978 -0.6156  0.4246
 3789SOL    HW223001   1.395   0.754   2.828 -0.8194  3.8208 -0.1820
 3790SOL     OW23002   3.186   0.734   8.162 -0.5030  0.1906 -0.1479
 3790SOL    HW123003   3.275   0.709   8.186  0.4161  2.4077 -1.2877
 3790SOL    HW223004   3.148   0.792   8.228  3.2277  1.6582  0.6962
 3791SOL     OW23005   0.506   3.842   2.185  0.5218  0.2266 -0.2371
 3791SOL    HW123006   0.552   3.910   2.237 -0.7060 -0.5608  1.8857
 3791SOL    HW223007   0.562   3.835   2.108  0.0749  0.3127 -0.5656
 3792SOL     OW23008   4.201   1.358  17.343 -0.1670  0.0628  0.1239
 3792SOL    HW123009   4.246   1.275  17.331  2.8259  1.4098  2.1046
 3792SOL    HW223010   4.262   1.415  17.297  0.6188 -0.9866 -0.1381
 3793SOL     OW23011   4.056   0.378   7.615  0.1891 -0.1146 -0.3507
 3793SOL    HW123012   3.976   0.393   7.665 -0.0291  2.8541 -1.5824
 3793SOL    HW223013   4.078   0.285   7.620  0.5185 -0.0613 -0.7887
 3794SOL     OW23014   1.012   0.514   6.770 -0.2279 -0.1754  0.2988
 3794SOL    HW123015   1.091   0.564   6.753 -1.4308  1.2953 -0.9762
 3794SOL    HW223016   0.958   0.553   6.701 -0.3871  1.1042  1.1413
 3795SOL     OW23017   3.701   3.823   8.694  0.3683  0.0798 -0.0714
 3795SOL    HW123018   3.672   3.732   8.681 -0.0294  0.1247  0.4968
 3795SOL    HW223019   3.661   3.842   8.779  2.3724  1.7720  0.4682
 3796SOL     OW23020   3.757   3.762   4.258 -0.2058 -0.0650 -0.3764
 3796SOL    HW123021   3.666   3.735   4.260  0.2042 -1.4625 -0.9565
 3796SOL    HW223022   3.752   3.858   4.265  1.2161 -0.1244  1.8496
 3797SOL     OW23023   4.422   3.929   4.756  0.3607  0.1084  0.0698
 3797SOL    HW123024   4.399   4.018   4.729  0.5612 -0.1849 -1.0445
 3797SOL    HW223025   4.516   3.928   4.738  0.7412  2.4232  1.9012
 3798SOL     OW23026   4.267   1.605   4.473 -0.1296  0.0618  0.0157
 3798SOL    HW123027   4.231   1.686   4.437 -0.2629 -0.6456 -1.4387
 3798SOL    HW223028   4.187   1.575   4.516 -0.2293  0.5586  0.1812
 3799SOL     OW23029   0.055   0.646   2.287 -0.1736  0.0135  0.4106
 3799SOL    HW123030   0.023   0.679   2.203  2.3216 -1.0056 -0.9227
 3799SOL    HW223031   0.074   0.723   2.340  2.5515  0.8113 -1.6987
 3800SOL     OW23032   2.768   2.626   8.550 -0.1683  0.1374 -0.0131
 3800SOL    HW123033   2.825   2.615   8.626  0.1584  1.6910 -0.0399
 3800SOL    HW223034   2.750   2.720   8.545  0.6328  0.2566 -0.7649
 3801SOL     OW23035   0.932   2.355   6.391  0.8047 -0.3185  0.1386
 3801SOL    HW123036   0.909   2.326   6.479 -0.6073 -2.8139 -1.0728
 3801SOL    HW223037   0.999   2.288   6.375  2.0486  1.5187 -2.2683
 3802SOL     OW23038   2.873   2.747   4.723  0.1073  0.0786  0.1418
 3802SOL    HW123039   2.933   2.714   4.657  2.5513  2.5867  1.1506
 3802SOL    HW223040   2.915   2.830   4.744  1.1592 -1.0133  2.4209
 3803SOL     OW23041   3.114   2.519   4.835  0.4889  0.3701 -0.4879
 3803SOL    HW123042   3.160   2.591   4.792  0.5719 -1.3796 -3.3910
 3803SOL    HW223043   3.029   2.562   4.840  0.6452  0.4755  1.1454
 3804SOL     OW23044   0.205   2.664   4.098 -0.5328  0.1224 -0.0023
 3804SOL    HW123045   0.287   2.614   4.096 -1.0988 -0.7977 -0.3093
 3804SOL    HW223046   0.190   2.670   4.192 -2.2165 -0.6441 -0.2094
 3805SOL     OW23047   1.895   4.710  13.796  0.1587  0.1517  0.6425
 3805SOL    HW123048   1.937   0.015  13.871  0.2838 -0.2712  0.8078
 3805SOL    HW223049   1.859   0.050  13.751  2.2262  0.4497 -0.4832
 3806SOL     OW23050   3.521   3.796   5.999  0.7022 -0.1708 -0.5301
 3806SOL    HW123051   3.607   3.765   5.970 -0.4208 -2.2853 -1.5949
 3806SOL    HW223052   3.545   3.836   6.083 -1.4558  1.0646 -0.5108
 3807SOL     OW23053   3.994   2.163   6.886 -0.1021  0.0024  0.1201
 3807SOL    HW123054   3.964   2.103   6.818  0.2275  0.1576 -0.1652
 3807SOL    HW223055   4.053   2.106   6.935 -0.2401 -0.7645 -0.6176
 3808SOL     OW23056   4.270   1.885  14.687  0.0348  0.2533 -0.2373
 3808SOL    HW123057   4.299   1.946  14.754  0.0824  1.3487 -1.2555
 3808SOL    HW223058   4.201   1.853  14.746  0.1522 -0.9771 -0.7630
 3809SOL     OW23059   1.430   1.406   6.086 -0.1548 -0.6633  0.1785
 3809SOL    HW123060   1.410   1.368   6.000 -4.1858  0.0671  0.7558
 3809SOL    HW223061   1.471   1.337   6.137 -1.2562 -2.1642 -0.9592
 3810SOL     OW23062   2.136   0.535   9.780 -0.1674 -0.3288  0.3626
 3810SOL    HW123063   2.170   0.446   9.770 -0.6498 -0.4545 -0.1442
 3810SOL    HW223064   2.218   0.572   9.812  0.8904 -1.0684 -1.4907
 3811SOL     OW23065   3.821   3.646   2.000 -0.2307  0.6055  0.4546
 3811SOL    HW123066   3.730   3.662   1.975  0.1269  1.8906 -0.0366
 3811SOL    HW223067   3.871   3.699   1.938  1.4030 -1.2048  0.2509
 3812SOL     OW23068   0.075   3.528   9.358 -0.0742 -0.4420  0.6614
 3812SOL    HW123069   0.151   3.568   9.399  0.3286  0.2985 -0.7824
 3812SOL    HW223070   0.084   3.439   9.392  1.2825  0.5173  2.8259
 3813SOL     OW23071   0.105   1.588   3.689 -0.0713  0.6069 -0.0684
 3813SOL    HW123072   0.052   1.609   3.766  3.4798  0.8305  2.3173
 3813SOL    HW223073   0.185   1.638   3.704 -0.8113  2.0322 -0.8409
 3814SOL     OW23074   0.937   0.265   3.516  0.2046 -0.1995 -0.2134
 3814SOL    HW123075   0.908   0.293   3.603  1.1936  0.2462 -0.0286
 3814SOL    HW223076   0.853   0.228   3.489 -0.8657  1.9755  0.1406
 3815SOL     OW23077   0.720   1.765   5.606  0.0078  0.7063  0.2593
 3815SOL    HW123078   0.785   1.834   5.620  1.4817 -0.2873 -1.6903
 3815SOL    HW223079   0.642   1.811   5.637  1.0196  0.5614  3.0132
 3816SOL     OW23080   3.928   1.606   1.459  0.7111  0.6157  0.0402
 3816SOL    HW123081   3.983   1.650   1.524  0.3921 -1.1752  1.5237
 3816SOL    HW223082   3.843   1.612   1.503  0.7541 -0.6596  0.2817
 3817SOL     OW23083   1.118   4.328   7.368  0.3660  0.5854  0.1623
 3817SOL    HW123084   1.126   4.235   7.348 -0.2816  0.4361  0.5794
 3817SOL    HW223085   1.144   4.378   7.290 -1.3504 -0.2517 -0.9528
 3818SOL     OW23086   1.307   2.872  15.926 -0.1369 -0.3581  0.0012
 3818SOL    HW123087   1.324   2.911  15.840 -1.7292  0.3794  0.0250
 3818SOL    HW223088   1.391   2.898  15.964 -0.6751  0.3143  0.7136
 3819SOL     OW23089   1.146   2.658   6.086 -0.0526 -0.6765  0.4552
 3819SOL    HW123090   1.105   2.709   6.016 -0.1558 -0.0595  0.9707
 3819SOL    HW223091   1.111   2.572   6.064  0.6754 -0.5391 -1.2879
 3820SOL     OW23092   2.594   3.592  10.201  0.6678  0.4787 -0.0845
 3820SOL    HW123093   2.548   3.656  10.147 -0.8970  0.8601  1.6983
 3820SOL    HW223094   2.669   3.583  10.143  1.8358 -2.7048  1.8922
 3821SOL     OW23095   0.362   3.783   5.282 -0.3017  0.1501 -0.1378
 3821SOL    HW123096   0.327   3.780   5.192  0.2424 -0.8587 -0.3118
 3821SOL    HW223097   0.444   3.733   5.279  1.2762  2.6775  1.7377
 3822SOL     OW23098   2.872   3.675   1.240 -0.3837  0.0426  0.6730
 3822SOL    HW123099   2.964   3.664   1.220 -0.4292  2.7435 -1.0293
 3822SOL    HW223100   2.851   3.598   1.293  0.5530 -0.0879  0.8524
 3823SOL     OW23101   4.342   0.192   1.820 -0.2272 -0.0730  0.8424
 3823SOL    HW123102   4.349   0.274   1.771  0.7560  0.0412  1.1737
 3823SOL    HW223103   4.358   0.147   1.738 -0.6007 -1.1325  1.3436
 3824SOL     OW23104   2.454   3.237  12.968 -0.3445  0.3536  0.2012
 3824SOL    HW123105   2.474   3.326  12.998  0.1016  0.1741  0.4450
 3824SOL    HW223106   2.403   3.209  13.045 -0.6732  4.1620  1.3561
 3825SOL     OW23107   4.071   4.460   8.477  0.2061 -0.3842 -0.0221
 3825SOL    HW123108   4.067   4.511   8.396 -0.4914 -1.3509 -0.5826
 3825SOL    HW223109   4.161   4.485   8.499  0.6729 -0.9120 -1.3196
 3826SOL     OW23110   4.499   2.456   4.671  0.0822  0.5958 -0.0111
 3826SOL    HW123111   4.539   2.416   4.593 -0.0240  1.5078 -0.5358
 3826SOL    HW223112   4.416   2.411   4.687 -0.2017  1.1901  0.1604
 3827SOL     OW23113   0.202   3.682   5.750  0.1455  0.0242 -0.4802
 3827SOL    HW123114   0.210   3.765   5.702 -0.2164 -0.8025 -1.9998
 3827SOL    HW223115   0.256   3.627   5.693  0.8578 -1.1042  1.3161
 3828SOL     OW23116   4.005   3.131   2.223 -0.3284  0.1473  0.0654
 3828SOL    HW123117   3.955   3.175   2.291 -0.2560 -0.2598  0.3793
 3828SOL    HW223118   4.067   3.074   2.269 -1.7232  0.5468  2.4390
 3829SOL     OW23119   4.113   1.214  11.398  0.2243 -0.3921  0.8151
 3829SOL    HW123120   4.110   1.255  11.484 -3.0940 -0.5572  0.7774
 3829SOL    HW223121   4.188   1.261  11.361  0.2591 -0.8540  0.2964
 3830SOL     OW23122   1.449   4.440   0.429  0.3996 -0.1843  0.4825
 3830SOL    HW123123   1.517   4.420   0.493 -0.4607 -0.9961  1.1428
 3830SOL    HW223124   1.370   4.406   0.472 -0.4721  2.6744  1.1919
 3831SOL     OW23125   0.695   4.442   1.099  0.4132  0.1562 -0.2864
 3831SOL    HW123126   0.703   4.473   1.009 -1.2692 -1.4368 -0.9838
 3831SOL    HW223127   0.788   4.421   1.108  0.1996 -0.7797 -0.3086
 3832SOL     OW23128   1.380   3.213   7.248 -0.2257  0.3007  0.5673
 3832SOL    HW123129   1.427   3.291   7.277  0.7101 -0.1312  0.2194
 3832SOL    HW223130   1.392   3.153   7.322  1.7913  1.0345  0.8417
 3833SOL     OW23131   3.714   0.724   6.980  0.1338 -0.6085  0.0992
 3833SOL    HW123132   3.658   0.647   6.979  1.0585 -1.3395  4.1032
 3833SOL    HW223133   3.799   0.688   6.956 -0.7177 -2.3542 -0.2462
 3834SOL     OW23134   2.534   2.021  11.203 -0.3163  0.3485 -0.3193
 3834SOL    HW123135   2.545   2.038  11.296 -0.5660  3.6890 -0.8964
 3834SOL    HW223136   2.452   2.065  11.181  1.4660  3.7659 -0.2017
 3835SOL     OW23137   1.054   3.023  15.260  0.1125  0.5325  0.3728
 3835SOL    HW123138   1.139   3.024  15.216  0.2010 -0.0311  0.5276
 3835SOL    HW223139   1.025   3.112  15.238  0.4432 -0.0973 -2.5896
 3836SOL     OW23140   4.258   4.510   9.802 -0.4217 -0.0499 -0.2841
 3836SOL    HW123141   4.326   4.570   9.773 -1.1509  0.7748 -0.3025
 3836SOL    HW223142   4.303   4.472   9.878  0.5016 -0.7239 -1.1774
 3837SOL     OW23143   4.368   3.251   0.662  0.2157 -0.9794  0.1345
 3837SOL    HW123144   4.369   3.217   0.751  1.9901 -2.7606 -0.5512
 3837SOL    HW223145   4.276   3.277   0.652  0.3451 -0.4599  0.2739
 3838SOL     OW23146   0.667   2.128   5.324 -0.0983 -0.3288  0.3683
 3838SOL    HW123147   0.649   2.045   5.279 -0.6232  0.8572 -1.5978
 3838SOL    HW223148   0.580   2.148   5.359 -0.8978  2.2334 -3.0310
 3839SOL     OW23149   2.288   4.732   4.592  0.5228 -0.0835  0.0990
 3839SOL    HW123150   2.327   4.645   4.603  0.1047 -0.1154  1.3172
 3839SOL    HW223151   2.351   0.039   4.535 -1.0674  1.9427 -0.0946
 3840SOL     OW23152   4.642   0.236   9.180 -0.5229  0.3658 -0.6555
 3840SOL    HW123153   4.592   0.229   9.261  1.7969  0.1473  0.7586
 3840SOL    HW223154   4.647   0.332   9.173  3.0734  0.0857 -1.8701
 3841SOL     OW23155   1.267   2.235   9.613 -0.2533  0.1096  0.0982
 3841SOL    HW123156   1.274   2.141   9.597  3.6535  0.9114 -2.7923
 3841SOL    HW223157   1.289   2.265   9.525 -3.1560 -2.4648 -1.4868
 3842SOL     OW23158   0.929   0.264   7.737 -0.3206  0.5014 -0.1285
 3842SOL    HW123159   0.861   0.272   7.804  2.0200 -1.8996  2.5443
 3842SOL    HW223160   0.989   0.333   7.764  1.3264 -0.9420 -0.1542
 3843SOL     OW23161   1.409   1.501   5.737 -0.7008 -0.1634 -0.5937
 3843SOL    HW123162   1.383   1.415   5.704 -0.5598 -0.4658  0.0815
 3843SOL    HW223163   1.479   1.523   5.676  0.3969 -3.4123 -0.4966
 3844SOL     OW23164   1.620   0.268   8.113  0.4040  0.4164  0.1771
 3844SOL    HW123165   1.624   0.220   8.030 -4.4031 -2.5159  1.6259
 3844SOL    HW223166   1.704   0.253   8.156  0.9711  1.6890 -0.4979
 3845SOL     OW23167   3.346   4.230   8.574 -0.0250  0.0771 -0.4195
 3845SOL    HW123168   3.272   4.171   8.589 -0.3153  0.1301 -1.7114
 3845SOL    HW223169   3.404   4.157   8.550  0.1864 -0.3047  1.2022
 3846SOL     OW23170   2.487   3.032   8.640  0.3924 -0.1043  0.1317
 3846SOL    HW123171   2.415   3.063   8.696  1.6225  0.2734  1.5155
 3846SOL    HW223172   2.552   3.102   8.637 -1.0817  1.2623  0.3133
 3847SOL     OW23173   1.029   1.824   3.068  0.1381 -0.5751  0.2248
 3847SOL    HW123174   0.962   1.878   3.025  0.0862  1.7748  3.2110
 3847SOL    HW223175   0.995   1.738   3.044  1.7141 -0.8397 -1.0375
 3848SOL     OW23176   3.881   3.606   7.210 -0.0422  0.3115 -0.5455
 3848SOL    HW123177   3.929   3.641   7.285  2.2288  1.9788 -2.7761
 3848SOL    HW223178   3.874   3.514   7.238  0.9779  0.2747 -0.3971
 3849SOL     OW23179   2.871   1.217  16.539  0.8375  0.1936  0.2293
 3849SOL    HW123180   2.797   1.255  16.585  2.6332  0.3132  3.0390
 3849SOL    HW223181   2.911   1.297  16.505 -1.2215 -0.4098 -3.5831
 3850SOL     OW23182   0.015   0.997   5.653  0.6505 -0.4123  0.1991
 3850SOL    HW123183   0.027   0.957   5.566 -1.6748 -1.5134  0.3818
 3850SOL    HW223184   4.700   1.074   5.631 -0.7038 -1.6323 -0.9540
 3851SOL     OW23185   3.736   0.487   3.475  0.4848 -0.2272  0.3067
 3851SOL    HW123186   3.684   0.561   3.444 -1.0424 -0.9291  1.2005
 3851SOL    HW223187   3.773   0.444   3.398 -2.3964  0.7489 -1.6314
 3852SOL     OW23188   1.716   1.018   7.796  0.2451  0.0780  0.0308
 3852SOL    HW123189   1.631   0.979   7.815 -0.9152  2.5333 -0.0596
 3852SOL    HW223190   1.700   1.112   7.802  0.6569  0.0881  0.9762
 3853SOL     OW23191   1.392   2.231   2.486  0.4655 -0.6144  0.0072
 3853SOL    HW123192   1.298   2.220   2.481  0.1558  1.5117  1.1628
 3853SOL    HW223193   1.418   2.196   2.401 -2.0367 -0.7582 -0.6948
 3854SOL     OW23194   0.092   3.097   5.802  0.3064 -0.2532 -0.0767
 3854SOL    HW123195   0.099   3.179   5.851  2.8329 -0.5701  0.0853
 3854SOL    HW223196   4.735   3.089   5.784  0.1473  2.0323 -0.2707
 3855SOL     OW23197   4.479   3.006   7.858 -0.1027  0.1253 -0.1879
 3855SOL    HW123198   4.470   3.068   7.930 -0.9894  0.4551 -0.5845
 3855SOL    HW223199   4.430   3.061   7.797 -2.6223 -1.3563  0.4984
 3856SOL     OW23200   4.044   1.465   9.446 -0.2043 -0.3510 -0.3980
 3856SOL    HW123201   4.035   1.546   9.396  0.8969 -0.1868 -0.3367
 3856SOL    HW223202   3.973   1.484   9.507 -1.6052 -1.2018 -1.7669
 3857SOL     OW23203   2.983   2.526   7.226  0.4499 -0.0076 -0.2937
 3857SOL    HW123204   2.980   2.494   7.316  0.7451  0.2540 -0.1893
 3857SOL    HW223205   2.956   2.617   7.217  1.9518  0.6735  1.9176
 3858SOL     OW23206   2.681   2.346   8.713 -0.0122 -0.1008  1.1585
 3858SOL    HW123207   2.743   2.410   8.748  0.4283 -0.1693  0.5068
 3858SOL    HW223208   2.720   2.269   8.756 -1.8187 -0.3693  2.3244
 3859SOL     OW23209   2.680   0.273   1.966 -0.2633  0.0053  0.0227
 3859SOL    HW123210   2.760   0.266   1.915 -0.6856  0.0428 -0.6444
 3859SOL    HW223211   2.631   0.198   1.933 -0.8825  0.3919  0.0621
 3860SOL     OW23212   2.198   3.306   8.418  0.0057 -0.1857  0.0965
 3860SOL    HW123213   2.273   3.363   8.429  1.2365 -2.2581  2.3184
 3860SOL    HW223214   2.207   3.276   8.327  1.2669  0.3783  0.0348
 3861SOL     OW23215   3.485   4.547  12.182 -0.4192 -0.0496  0.7429
 3861SOL    HW123216   3.448   4.546  12.094 -3.1604 -0.6530  1.8964
 3861SOL    HW223217   3.411   4.585  12.230  1.0519  0.8271  2.2913
 3862SOL     OW23218   4.376   1.406   8.831  0.3344  0.1297  0.2073
 3862SOL    HW123219   4.356   1.337   8.769  0.7155 -1.3457  1.7341
 3862SOL    HW223220   4.415   1.367   8.909  0.5872 -1.2752 -0.6369
 3863SOL     OW23221   3.217   2.085   4.078  0.3220  0.0571 -0.0485
 3863SOL    HW123222   3.252   2.049   4.160  0.1618 -0.4779 -0.2118
 3863SOL    HW223223   3.125   2.093   4.104  0.9316  1.6895  1.5980
 3864SOL     OW23224   4.542   3.182   4.233  0.0509  0.1356  0.0034
 3864SOL    HW123225   4.458   3.192   4.278  1.5314  1.3148  2.5034
 3864SOL    HW223226   4.560   3.092   4.260  0.6067  0.8186  1.8784
 3865SOL     OW23227   1.566   4.246   5.679  0.0816  0.0976 -0.1427
 3865SOL    HW123228   1.577   4.183   5.608  1.9974 -1.8114  1.8557
 3865SOL    HW223229   1.483   4.223   5.720 -0.2980  0.4193 -0.7279
 3866SOL     OW23230   2.004   1.100   8.501 -0.5080 -0.1597 -0.6920
 3866SOL    HW123231   2.024   1.182   8.546 -2.5204 -0.1535  0.2079
 3866SOL    HW223232   1.914   1.123   8.478 -0.3491  0.0789 -1.0701
 3867SOL     OW23233   2.526   3.257  14.487  0.7027  0.4561 -0.0900
 3867SOL    HW123234   2.496   3.348  14.483  0.9987  0.3977 -4.0340
 3867SOL    HW223235   2.456   3.217  14.436 -0.1489 -0.6357  1.9158
 3868SOL     OW23236   0.574   3.316   8.549 -0.0574  0.2225  0.5254
 3868SOL    HW123237   0.641   3.382   8.538  3.0975 -3.2890 -1.1536
 3868SOL    HW223238   0.618   3.262   8.615  0.2015 -1.2656 -0.8665
 3869SOL     OW23239   1.183   4.042   7.315  0.2006 -0.4933  0.1628
 3869SOL    HW123240   1.257   4.054   7.256 -0.9501  2.8038 -0.5806
 3869SOL    HW223241   1.226   4.058   7.398 -0.7130 -1.0027  0.7392
 3870SOL     OW23242   3.420   1.425  15.364 -0.1718  0.0492 -0.6269
 3870SOL    HW123243   3.424   1.410  15.459 -1.4297  0.5060 -0.4980
 3870SOL    HW223244   3.351   1.370  15.326 -0.6816  0.8116 -0.8029
 3871SOL     OW23245   1.491   3.546   4.317  0.6970 -0.7093  0.1215
 3871SOL    HW123246   1.417   3.526   4.259  0.3118 -1.5930  0.9186
 3871SOL    HW223247   1.443   3.588   4.389 -1.3170 -0.1421 -1.5252
 3872SOL     OW23248   2.184   2.396   4.554  0.1541  0.7881  0.2606
 3872SOL    HW123249   2.260   2.349   4.588  0.5994  0.2053 -1.5089
 3872SOL    HW223250   2.223   2.417   4.469 -1.8013 -0.3032 -0.8950
 3873SOL     OW23251   4.194   4.003   2.477 -0.1302  0.0246  0.0262
 3873SOL    HW123252   4.129   3.955   2.529 -1.2056  0.4956 -0.8932
 3873SOL    HW223253   4.168   4.093   2.498  0.2708  0.1196  0.1265
 3874SOL     OW23254   4.659   4.264   2.946  0.6372 -0.4907 -0.3474
 3874SOL    HW123255   0.012   4.293   2.934  1.1474 -1.6478  0.6630
 3874SOL    HW223256   4.671   4.188   3.003 -2.0604 -0.8905 -0.3071
 3875SOL     OW23257   0.515   1.079   7.131  0.3418  0.2200 -0.4055
 3875SOL    HW123258   0.473   1.132   7.065  0.5357 -1.0527 -1.5587
 3875SOL    HW223259   0.458   1.075   7.209  2.6726 -1.5226  1.2297
 3876SOL     OW23260   3.066   1.820  13.635 -0.5804 -0.8036 -0.1931
 3876SOL    HW123261   3.056   1.832  13.730  2.3498  0.6560 -0.0436
 3876SOL    HW223262   3.139   1.882  13.634 -1.1507 -0.1056  1.1124
 3877SOL     OW23263   4.541   2.547   5.106  0.7115 -0.1830 -0.3658
 3877SOL    HW123264   4.550   2.451   5.107 -2.3403 -0.4399  0.3100
 3877SOL    HW223265   4.451   2.566   5.130  0.9075  0.5647 -0.2232
 3878SOL     OW23266   4.532   4.358   1.783  0.2079  0.7747  0.0727
 3878SOL    HW123267   4.564   4.269   1.798 -2.8393 -0.3138  0.0505
 3878SOL    HW223268   4.453   4.328   1.739 -0.2455  0.0512  1.3739
 3879SOL     OW23269   2.929   2.162   9.175  0.3731 -0.3704 -0.6683
 3879SOL    HW123270   2.895   2.223   9.240  0.5917 -1.2979  0.3299
 3879SOL    HW223271   2.988   2.217   9.124 -0.4450 -0.6827 -1.9394
 3880SOL     OW23272   3.645   1.939   5.220  0.0791 -0.1828 -0.3608
 3880SOL    HW123273   3.576   1.947   5.154  0.1054 -3.1094 -0.7504
 3880SOL    HW223274   3.599   1.896   5.293  0.5341 -0.0488 -0.0015
 3881SOL     OW23275   0.033   2.091   7.339  0.2624  0.1542  0.7007
 3881SOL    HW123276   4.733   2.126   7.257  1.5316  0.0598  0.0910
 3881SOL    HW223277   4.695   2.045   7.378  0.2804 -0.7268 -0.2898
 3882SOL     OW23278   1.867   3.187  10.384  0.3598  0.4176 -0.1654
 3882SOL    HW123279   1.854   3.101  10.345 -1.4959 -0.9165  3.3881
 3882SOL    HW223280   1.962   3.181  10.387  0.3695  0.2609 -0.6757
 3883SOL     OW23281   4.283   0.482   6.764 -0.0483  0.3394  0.6416
 3883SOL    HW123282   4.365   0.474   6.715  0.1112  0.7283  0.8518
 3883SOL    HW223283   4.322   0.528   6.838 -3.1593  1.1761  1.7668
 3884SOL     OW23284   3.134   0.812   7.324  0.0875 -0.3758 -0.5482
 3884SOL    HW123285   3.226   0.787   7.333  0.1390  0.0362  0.1335
 3884SOL    HW223286   3.090   0.746   7.377 -1.3802  0.1685 -1.0911
 3885SOL     OW23287   0.632   2.070   7.532  0.2769  0.1847  0.2164
 3885SOL    HW123288   0.713   2.092   7.487 -0.0180  1.5844  0.3688
 3885SOL    HW223289   0.575   2.138   7.495  0.0223 -0.4644 -0.5918
 3886SOL     OW23290   2.879   2.613   2.050  0.2151  0.2437  0.0425
 3886SOL    HW123291   2.827   2.539   2.020 -0.6928  0.7249  0.4169
 3886SOL    HW223292   2.820   2.688   2.038 -0.5324 -0.2399  0.6816
 3887SOL     OW23293   3.327   2.363   4.888 -0.5535  0.2144 -0.4788
 3887SOL    HW123294   3.272   2.425   4.840  0.4233  0.2566 -1.5489
 3887SOL    HW223295   3.272   2.284   4.891  0.9024 -0.7738  0.4255
 3888SOL     OW23296   2.582   4.238   0.710  0.0120 -0.3008  0.6154
 3888SOL    HW123297   2.646   4.166   0.713 -1.8280 -1.9728  0.1860
 3888SOL    HW223298   2.502   4.186   0.713  0.5648 -1.0549  2.3305
 3889SOL     OW23299   3.722   3.238   0.355 -0.4685  0.1180  0.3396
 3889SOL    HW123300   3.638   3.194   0.350 -0.1407 -0.2588 -2.0486
 3889SOL    HW223301   3.750   3.219   0.444 -3.0485  1.8041  1.5118
 3890SOL     OW23302   4.155   1.011   2.077  0.0878  0.0662 -0.0380
 3890SOL    HW123303   4.233   1.029   2.024  1.3473 -2.2587  1.0501
 3890SOL    HW223304   4.120   1.099   2.092  2.3607  1.3080 -1.8531
 3891SOL     OW23305   1.276   2.716   2.276  0.0796 -0.6270 -0.3525
 3891SOL    HW123306   1.226   2.651   2.227  0.3525 -1.3023  0.2681
 3891SOL    HW223307   1.238   2.800   2.249  0.5226  0.2002  1.5407
 3892SOL     OW23308   3.803   2.198   6.499 -0.0129 -0.4824  0.0165
 3892SOL    HW123309   3.784   2.131   6.565 -1.1756  0.4717  0.6586
 3892SOL    HW223310   3.817   2.272   6.558  1.1947  0.0001 -0.8982
 3893SOL     OW23311   1.320   3.573   1.071  0.1376  0.0853  0.3498
 3893SOL    HW123312   1.321   3.582   1.166 -1.3290  0.5791  0.3309
 3893SOL    HW223313   1.339   3.665   1.052  1.6865 -0.4306 -0.6004
 3894SOL     OW23314   3.287   2.081   1.585  0.1946 -0.2301 -0.7275
 3894SOL    HW123315   3.203   2.113   1.552 -1.8877 -3.7635  1.1540
 3894SOL    HW223316   3.278   2.109   1.676  2.8093 -1.7132  0.0045
 3895SOL     OW23317   1.597   0.292  14.291 -0.4984  0.5170  0.1613
 3895SOL    HW123318   1.509   0.280  14.326  0.0609  0.6737  1.6281
 3895SOL    HW223319   1.606   0.208  14.245  1.2021  0.9096 -0.2223
 3896SOL     OW23320   0.012   2.811  14.109 -0.1650  0.0715 -0.1723
 3896SOL    HW123321   0.027   2.898  14.073  0.8844  0.3646  0.9604
 3896SOL    HW223322   0.040   2.754  14.037  1.1209  0.6350 -0.1264
 3897SOL     OW23323   4.199   4.314   6.867  0.6017  0.1810 -0.5248
 3897SOL    HW123324   4.209   4.377   6.795 -1.4587  1.2150  0.0790
 3897SOL    HW223325   4.275   4.258   6.853  0.0341 -0.7343  0.0169
 3898SOL     OW23326   3.163   3.203   0.096 -0.2173 -0.5308  0.0568
 3898SOL    HW123327   3.229   3.227   0.161  0.8017  0.7223 -1.4302
 3898SOL    HW223328   3.158   3.287   0.049  0.3853 -0.5948 -0.1196
 3899SOL     OW23329   4.597   2.694  12.240 -0.0730  0.5691 -0.2470
 3899SOL    HW123330   4.536   2.734  12.178 -1.0044  1.0844  0.9973
 3899SOL    HW223331   4.564   2.732  12.322 -1.5501 -2.1793  0.4408
 3900SOL     OW23332   1.923   2.513   3.374 -0.2658 -0.0665 -0.1915
 3900SOL    HW123333   2.017   2.534   3.370 -0.2050 -0.2044  0.6037
 3900SOL    HW223334   1.904   2.479   3.286 -2.5467  1.4019 -0.2664
 3901SOL     OW23335   3.185   3.393   6.415  0.2103 -0.4221  0.4254
 3901SOL    HW123336   3.266   3.343   6.431  0.4701 -0.8377 -2.1722
 3901SOL    HW223337   3.129   3.316   6.415  0.5533 -0.6766  1.3355
 3902SOL     OW23338   4.497   1.694  15.076  0.2686  0.3789 -0.5434
 3902SOL    HW123339   4.440   1.678  15.000  0.1404  0.1616 -0.3991
 3902SOL    HW223340   4.566   1.633  15.051 -0.4504  0.8760 -3.7651
 3903SOL     OW23341   3.092   4.453   4.215 -0.4353  0.8283 -0.3198
 3903SOL    HW123342   3.152   4.450   4.140  2.7022 -0.5763  2.2517
 3903SOL    HW223343   3.108   4.542   4.246  1.6583  0.1724  0.5265
 3904SOL     OW23344   3.630   0.167   5.552  0.0819  0.0155  0.3717
 3904SOL    HW123345   3.551   0.218   5.533 -0.7275 -2.1522 -2.0946
 3904SOL    HW223346   3.606   0.103   5.485  0.7780 -0.5468  0.6562
 3905SOL     OW23347   0.470   4.141  16.370  0.1907  0.3594 -0.0387
 3905SOL    HW123348   0.509   4.071  16.422 -1.7983 -0.6237  0.1203
 3905SOL    HW223349   0.379   4.132  16.399 -1.0153  0.6792 -3.7250
 3906SOL     OW23350   4.244   1.315   9.431 -0.2057  0.2139 -0.3775
 3906SOL    HW123351   4.294   1.397   9.422 -1.9205  1.3099  0.1583
 3906SOL    HW223352   4.160   1.356   9.452 -1.0296 -1.2041 -0.9491
 3907SOL     OW23353   3.960   1.473   6.535 -0.1031 -0.0670  0.1028
 3907SOL    HW123354   3.972   1.388   6.578  0.5909  0.3981  0.8381
 3907SOL    HW223355   4.004   1.455   6.452  1.2956 -0.4648  0.9442
 3908SOL     OW23356   4.680   1.469  15.383  0.4261  0.2881 -0.0175
 3908SOL    HW123357   4.610   1.521  15.344  0.4758 -0.0651 -0.5725
 3908SOL    HW223358   0.001   1.537  15.419  1.9043 -1.9588  1.8740
 3909SOL     OW23359   4.285   3.162   9.307 -0.4392  0.0963 -0.5349
 3909SOL    HW123360   4.376   3.133   9.316 -0.9960 -1.8599 -1.0609
 3909SOL    HW223361   4.282   3.162   9.211  0.0366 -0.7678 -0.5508
 3910SOL     OW23362   0.536   0.925   5.203 -0.2699  0.0846  0.3623
 3910SOL    HW123363   0.469   0.967   5.150 -1.6977 -2.2796  0.3014
 3910SOL    HW223364   0.571   1.001   5.249 -2.5765 -0.5419  3.1150
 3911SOL     OW23365   1.176   0.855   7.717  0.3111 -0.5866 -0.0942
 3911SOL    HW123366   1.170   0.868   7.812 -0.9335 -2.0841  0.0248
 3911SOL    HW223367   1.253   0.799   7.711  0.7470 -0.3459  3.1793
 3912SOL     OW23368   4.200   1.414   2.349 -0.5125  0.1113 -0.6284
 3912SOL    HW123369   4.236   1.496   2.382  2.1221 -1.3695  0.2557
 3912SOL    HW223370   4.228   1.365   2.427  2.0846 -0.9554 -2.2173
 3913SOL     OW23371   1.533   2.765   1.170 -0.1623 -0.1148 -0.4263
 3913SOL    HW123372   1.527   2.855   1.200 -0.2791 -0.6941  1.2657
 3913SOL    HW223373   1.483   2.776   1.089  0.9107  0.6877 -0.9729
 3914SOL     OW23374   0.539   0.146   4.617  0.0750  0.8735  0.4117
 3914SOL    HW123375   0.605   0.180   4.557 -0.8852 -1.3452 -1.8889
 3914SOL    HW223376   0.577   0.060   4.633 -1.3594 -0.0186 -0.9926
 3915SOL     OW23377   3.517   1.616   6.969  0.1765  0.2678 -0.0960
 3915SOL    HW123378   3.429   1.613   6.932  0.6047  1.7854 -1.2640
 3915SOL    HW223379   3.519   1.527   7.005 -0.4219 -0.8451 -2.7826
 3916SOL     OW23380   2.981   2.845   9.329 -0.6747  0.3631 -0.3493
 3916SOL    HW123381   3.036   2.893   9.267  0.3939  0.6089  0.7774
 3916SOL    HW223382   2.987   2.756   9.295 -1.1530 -0.5673  1.9681
 3917SOL     OW23383   0.616   3.267   7.819 -0.4366 -0.3288  0.1219
 3917SOL    HW123384   0.621   3.178   7.784 -0.3853 -0.4472  0.4294
 3917SOL    HW223385   0.527   3.296   7.799  0.8908  1.7751 -2.6035
 3918SOL     OW23386   0.816   2.620   1.957 -0.2608 -0.5616  0.3120
 3918SOL    HW123387   0.902   2.578   1.962 -0.7744 -1.8027 -1.5420
 3918SOL    HW223388   0.813   2.637   1.863 -0.0480  1.6276  0.6972
 3919SOL     OW23389   2.034   4.454   5.293  0.3298  0.0835  0.3822
 3919SOL    HW123390   1.966   4.490   5.350 -0.8423 -0.7959 -0.4494
 3919SOL    HW223391   2.030   4.511   5.216 -0.5062  0.6989  0.8756
 3920SOL     OW23392   1.735   1.224  12.314 -0.4849 -0.2066  1.1268
 3920SOL    HW123393   1.677   1.277  12.368 -1.0891 -1.8704  2.1181
 3920SOL    HW223394   1.702   1.134  12.317 -0.7074 -0.0958  2.1215
 3921SOL     OW23395   4.241   4.332   4.052 -0.4411  0.0109 -0.4997
 3921SOL    HW123396   4.189   4.279   3.992  2.4697 -0.2787 -2.7423
 3921SOL    HW223397   4.231   4.424   4.027 -0.5904  0.4637  1.2079
 3922SOL     OW23398   2.667   0.341   6.966  0.1460  0.2299 -0.4833
 3922SOL    HW123399   2.643   0.427   7.000  4.3936  0.3330  2.1557
 3922SOL    HW223400   2.616   0.345   6.885  1.4534  4.4140 -1.0868
 3923SOL     OW23401   0.870   3.754  16.769 -0.0836  0.0395  0.8952
 3923SOL    HW123402   0.796   3.755  16.830  0.2403 -0.0569  1.2900
 3923SOL    HW223403   0.923   3.686  16.810  2.1825  1.7905  0.8141
 3924SOL     OW23404   1.288   0.450   7.624  0.0816 -0.0814  0.3407
 3924SOL    HW123405   1.299   0.544   7.609  2.2193 -0.1871  1.1899
 3924SOL    HW223406   1.342   0.444   7.703  2.6490  0.0269 -1.3811
 3925SOL     OW23407   3.673   4.361   6.367 -0.1006  0.6842  0.3640
 3925SOL    HW123408   3.683   4.301   6.441  2.4471  0.4085 -0.2004
 3925SOL    HW223409   3.602   4.416   6.401 -1.2742 -0.3570 -0.4082
 3926SOL     OW23410   3.474   2.647  14.647  0.2682  0.1274  0.3827
 3926SOL    HW123411   3.487   2.602  14.731  0.9372 -1.2446 -0.4586
 3926SOL    HW223412   3.378   2.647  14.646  0.2558 -2.0093  0.6362
 3927SOL     OW23413   0.909   2.274   2.924 -0.2576  0.2017  0.3502
 3927SOL    HW123414   0.984   2.290   2.867 -0.2839  0.7322  0.4614
 3927SOL    HW223415   0.842   2.331   2.886 -1.7044 -2.6597 -1.3669
 3928SOL     OW23416   3.821   1.165  10.721  0.0503  0.0319 -0.4624
 3928SOL    HW123417   3.825   1.148  10.627  2.6882  0.6796 -0.4559
 3928SOL    HW223418   3.843   1.258  10.728 -1.9257  0.5476 -1.1314
 3929SOL     OW23419   4.546   0.531   9.923 -0.3314 -1.0727  0.3697
 3929SOL    HW123420   4.576   0.492  10.005  0.3427 -1.2421  0.0459
 3929SOL    HW223421   4.605   0.493   9.857  1.0712 -1.7762  2.0376
 3930SOL     OW23422   4.710   3.311  10.697 -0.0059 -0.1705 -0.7191
 3930SOL    HW123423   0.043   3.259  10.657  1.1774  1.7224 -1.1080
 3930SOL    HW223424   0.018   3.396  10.700 -0.1677 -0.0959 -0.4214
 3931SOL     OW23425   2.021   2.813  12.540 -0.3967  0.2335 -0.0066
 3931SOL    HW123426   2.085   2.879  12.565  1.8452 -1.2447 -1.7879
 3931SOL    HW223427   1.941   2.852  12.574 -0.5457 -0.7093  0.7431
 3932SOL     OW23428   0.695   1.664   2.780 -0.1267  0.2204 -0.0564
 3932SOL    HW123429   0.668   1.671   2.871  2.4214 -1.5461  0.8210
 3932SOL    HW223430   0.742   1.581   2.781 -1.0383 -0.2828  0.8067
 3933SOL     OW23431   0.237   1.705  17.592  0.9985 -0.5547 -0.1967
 3933SOL    HW123432   0.192   1.707  17.677  0.8159 -1.2130 -0.2729
 3933SOL    HW223433   0.326   1.732  17.614 -0.3037  2.2567  1.5979
 3934SOL     OW23434   3.669   3.793  16.649  0.0578  0.4315  0.2734
 3934SOL    HW123435   3.710   3.863  16.700 -2.0171  0.1915  2.2503
 3934SOL    HW223436   3.660   3.849  16.572  0.8534  0.7867  0.4388
 3935SOL     OW23437   2.508   0.497   3.502 -0.0523  0.0832  0.1532
 3935SOL    HW123438   2.467   0.581   3.482 -1.2995 -0.8473 -1.1810
 3935SOL    HW223439   2.600   0.506   3.476 -0.1133  1.8212  0.5032
 3936SOL     OW23440   2.206   2.210   2.142 -0.0602  0.3533  0.3499
 3936SOL    HW123441   2.167   2.243   2.061 -1.2995 -1.3603  0.2794
 3936SOL    HW223442   2.143   2.146   2.173 -0.8667  0.9469 -0.0834
 3937SOL     OW23443   2.939   3.078   2.487  0.1611  0.1010 -0.2195
 3937SOL    HW123444   2.974   3.163   2.516 -0.4247  0.8869 -1.7982
 3937SOL    HW223445   2.915   3.040   2.571  0.5962  4.2658  1.8140
 3938SOL     OW23446   0.305   2.106   7.583 -0.0949  0.3872  0.3069
 3938SOL    HW123447   0.363   2.177   7.553  0.6270 -0.9190 -1.4057
 3938SOL    HW223448   0.230   2.119   7.525 -0.1070  0.8126  0.4185
 3939SOL     OW23449   4.535   2.316   9.799  0.3207  0.0084 -0.0540
 3939SOL    HW123450   4.466   2.377   9.771 -2.4058 -2.6369  0.9031
 3939SOL    HW223451   4.483   2.240   9.824 -1.3208  0.0460 -3.3711
 3940SOL     OW23452   3.469   0.118   2.662 -0.5483  0.9090  0.6526
 3940SOL    HW123453   3.393   0.071   2.696  1.9684 -1.0731  3.5702
 3940SOL    HW223454   3.430   0.175   2.596  0.1145  1.5782  0.8356
 3941SOL     OW23455   0.870   0.837  15.755 -0.1448 -0.1661 -0.5096
 3941SOL    HW123456   0.933   0.773  15.723 -1.7075 -1.2342 -1.4493
 3941SOL    HW223457   0.923   0.901  15.803  1.1989 -2.0675  0.5321
 3942SOL     OW23458   3.389   0.137  15.735  0.0768 -0.0361  0.2220
 3942SOL    HW123459   3.346   0.205  15.684 -2.8575 -3.2442 -1.6119
 3942SOL    HW223460   3.397   0.174  15.823  2.0465 -0.5549  0.2586
 3943SOL     OW23461   4.168   4.274   2.789 -0.2720 -0.4442 -0.3438
 3943SOL    HW123462   4.251   4.304   2.753 -0.6565 -0.3224 -1.1243
 3943SOL    HW223463   4.193   4.198   2.842 -1.7881  0.2906  1.4449
 3944SOL     OW23464   2.655   1.788  14.856 -0.4872 -0.5526 -0.0017
 3944SOL    HW123465   2.647   1.745  14.942 -0.1520  1.3509  0.9869
 3944SOL    HW223466   2.732   1.843  14.866 -1.1457  0.0336  2.0726
 3945SOL     OW23467   4.393   4.474  11.681 -0.1907 -0.0717  0.4032
 3945SOL    HW123468   4.342   4.554  11.686 -1.5515 -0.8950 -0.3155
 3945SOL    HW223469   4.398   4.457  11.587 -0.9496 -0.9509  0.5223
 3946SOL     OW23470   2.966   1.870  13.892  0.0050 -0.4181  0.3852
 3946SOL    HW123471   3.005   1.787  13.917 -1.2598 -1.4266 -1.0081
 3946SOL    HW223472   2.873   1.851  13.904  0.4073 -1.3636  1.9866
 3947SOL     OW23473   1.267   4.426   1.804 -0.0472 -0.4882 -0.1210
 3947SOL    HW123474   1.305   4.440   1.891 -0.1528  0.9239 -0.2982
 3947SOL    HW223475   1.205   4.495   1.782 -0.4724 -0.4902  1.0665
 3948SOL     OW23476   3.958   3.685   4.415  0.4767 -0.4766 -0.1341
 3948SOL    HW123477   3.991   3.772   4.393 -1.7828  0.3930 -0.1275
 3948SOL    HW223478   3.871   3.699   4.376  1.0532 -0.1274 -1.2900
 3949SOL     OW23479   4.302   4.682  15.154 -0.3856 -0.3399  0.0077
 3949SOL    HW123480   4.272   4.714  15.239  1.2180  2.3035 -0.4012
 3949SOL    HW223481   4.303   0.020  15.094  1.9607 -0.3962 -0.0221
 3950SOL     OW23482   0.820   2.223   3.859  0.2187 -0.0268  0.2803
 3950SOL    HW123483   0.888   2.254   3.919  1.3040 -0.3481 -0.7938
 3950SOL    HW223484   0.813   2.285   3.787 -2.0327 -1.4604 -0.7184
 3951SOL     OW23485   1.804   1.038   3.057 -0.0186  0.6114  0.1653
 3951SOL    HW123486   1.871   1.079   3.111  1.7960 -1.1403 -0.7738
 3951SOL    HW223487   1.866   1.036   2.984  0.0535 -0.7649  0.2664
 3952SOL     OW23488   4.528   4.214  13.531  0.6193 -0.3758  0.2358
 3952SOL    HW123489   4.503   4.274  13.461  0.9457 -3.7190 -2.7401
 3952SOL    HW223490   4.608   4.173  13.496  1.1861  0.1217  0.9569
 3953SOL     OW23491   2.025   0.271   5.586 -0.1859  0.0234 -0.1566
 3953SOL    HW123492   2.018   0.188   5.632 -0.4096  0.7464  1.0872
 3953SOL    HW223493   2.020   0.245   5.494  3.1405 -1.4023  0.0449
 3954SOL     OW23494   4.034   1.440  14.622  0.2599 -0.7036  0.5144
 3954SOL    HW123495   4.078   1.432  14.537 -1.3700 -0.1507 -0.3776
 3954SOL    HW223496   3.943   1.423  14.599  0.3305  2.1401 -1.9924
 3955SOL     OW23497   2.192   2.372   4.061  0.3475  0.1258  0.0176
 3955SOL    HW123498   2.188   2.306   3.992 -2.0273 -1.3266  1.5400
 3955SOL    HW223499   2.098   2.389   4.074  0.1155 -1.5530  0.4445
 3956SOL     OW23500   0.571   0.165   6.493 -0.1888  0.1733 -0.1741
 3956SOL    HW123501   0.576   0.195   6.402  0.2027 -2.3226 -0.9695
 3956SOL    HW223502   0.558   0.246   6.542 -1.0417 -0.5055  0.7258
 3957SOL     OW23503   0.367   4.615   0.549  0.5431  0.0440  0.3435
 3957SOL    HW123504   0.291   4.629   0.493  1.2786  0.2423 -0.5902
 3957SOL    HW223505   0.437   4.605   0.485 -0.0174 -0.7008 -0.1526
 3958SOL     OW23506   4.497   1.691   8.099  0.2252 -0.2924  0.3290
 3958SOL    HW123507   4.467   1.657   8.014 -0.5733 -3.2042  1.7716
 3958SOL    HW223508   4.534   1.614   8.141  1.6928  0.0592 -0.3328
 3959SOL     OW23509   3.736   4.303   6.889  0.0833  0.3040  0.5862
 3959SOL    HW123510   3.757   4.383   6.936  0.6274  0.2128  0.5041
 3959SOL    HW223511   3.817   4.290   6.839 -0.9279 -0.9490 -0.7367
 3960SOL     OW23512   0.747   2.182  11.323 -0.1510 -0.0425 -0.4007
 3960SOL    HW123513   0.780   2.262  11.364 -0.6553  0.3003 -0.6673
 3960SOL    HW223514   0.736   2.125  11.400  0.4336  0.1457 -0.1784
 3961SOL     OW23515   3.116   2.702  13.175 -0.0069  0.2158  0.5404
 3961SOL    HW123516   3.208   2.708  13.147 -0.0912  1.7419  0.6086
 3961SOL    HW223517   3.069   2.714  13.093  0.0497 -0.3358  0.4280
 3962SOL     OW23518   4.266   4.096   0.702 -0.9482 -0.9349 -0.1470
 3962SOL    HW123519   4.291   4.186   0.721  0.0781 -1.3417  0.3926
 3962SOL    HW223520   4.197   4.115   0.637 -2.6062  1.4307  2.3090
 3963SOL     OW23521   2.213   1.615   2.792 -0.1700 -0.4103 -0.2735
 3963SOL    HW123522   2.307   1.600   2.803  0.1799  2.6587  1.0701
 3963SOL    HW223523   2.180   1.647   2.875 -0.8062  0.7681 -0.9704
 3964SOL     OW23524   1.865   2.849  10.502  0.6079 -0.6372  0.0742
 3964SOL    HW123525   1.831   2.896  10.578  0.5263 -1.0198  0.2745
 3964SOL    HW223526   1.904   2.780  10.556 -0.1598  0.5365  2.1615
 3965SOL     OW23527   4.031   1.744   6.051  0.5320  0.8227 -0.4904
 3965SOL    HW123528   4.003   1.666   6.004 -1.2837  1.2524 -0.1285
 3965SOL    HW223529   4.011   1.820   5.997 -0.5159 -0.3260 -1.6938
 3966SOL     OW23530   1.810   3.102  14.542  0.1906  0.6618 -0.4859
 3966SOL    HW123531   1.722   3.100  14.504 -0.4642 -0.8452  1.1162
 3966SOL    HW223532   1.855   3.056  14.472 -2.2950 -0.5513 -1.2993
 3967SOL     OW23533   0.018   2.895   3.347 -0.8280  0.2454  0.2702
 3967SOL    HW123534   0.009   2.954   3.421 -0.3627  0.8233 -0.1326
 3967SOL    HW223535   4.696   2.822   3.366  1.8195 -2.3100 -1.3993
 3968SOL     OW23536   0.121   1.733   6.445  0.4341  0.1737  0.1130
 3968SOL    HW123537   0.191   1.761   6.504  0.5583 -0.0443  0.0716
 3968SOL    HW223538   0.115   1.638   6.454 -0.8080  0.2244 -0.1706
 3969SOL     OW23539   1.650   3.839   6.723  0.4781 -0.5202  0.6453
 3969SOL    HW123540   1.618   3.883   6.644  2.2362  0.3608  0.4321
 3969SOL    HW223541   1.718   3.906   6.735 -1.0673  0.5933  3.1861
 3970SOL     OW23542   0.982   4.408   3.475  0.2359 -0.0445 -0.0420
 3970SOL    HW123543   1.000   4.445   3.389 -1.9726 -1.3752 -1.0746
 3970SOL    HW223544   1.038   4.333   3.461 -3.1520 -2.8613  1.4541
 3971SOL     OW23545   0.312   1.783   3.667  0.7371  0.1958 -0.1105
 3971SOL    HW123546   0.321   1.868   3.712  1.5608 -0.5211  1.0671
 3971SOL    HW223547   0.236   1.799   3.610  0.7552 -2.4249 -0.8406
 3972SOL     OW23548   1.882   2.251  16.739  0.4358  0.0170  0.0486
 3972SOL    HW123549   1.823   2.321  16.709  1.4473 -0.0613 -2.1830
 3972SOL    HW223550   1.844   2.224  16.822  1.0136  0.6000  0.5039
 3973SOL     OW23551   2.665   3.745   6.671  0.0817  0.5567  0.0220
 3973SOL    HW123552   2.716   3.790   6.604  0.9169  1.8741  1.5155
 3973SOL    HW223553   2.627   3.826   6.706  0.0909  0.4855  0.1966
 3974SOL     OW23554   0.868   1.509   9.970  0.3831 -0.5331 -0.9507
 3974SOL    HW123555   0.843   1.561  10.047 -0.1827  0.5197 -1.8569
 3974SOL    HW223556   0.838   1.563   9.897 -0.6553 -0.3018 -0.3636
 3975SOL     OW23557   3.185   3.635   5.372  0.1464  0.5527 -0.3871
 3975SOL    HW123558   3.171   3.705   5.309 -1.3103 -0.9721 -1.7781
 3975SOL    HW223559   3.102   3.589   5.389  0.5282 -0.0476 -0.1408
 3976SOL     OW23560   4.685   0.515   9.127  0.3246 -0.0649  0.2784
 3976SOL    HW123561   4.641   0.562   9.056 -1.1680  1.5470  2.2790
 3976SOL    HW223562   0.021   0.484   9.074  0.8782  0.7852  0.5411
 3977SOL     OW23563   0.721   1.949  11.470  0.0733 -0.2905  0.2513
 3977SOL    HW123564   0.695   1.878  11.411  0.1047 -0.9981  1.1013
 3977SOL    HW223565   0.774   1.892  11.525 -1.2443 -1.1855  0.5968
 3978SOL     OW23566   3.198   0.462   1.574  0.2025  0.0574  0.1092
 3978SOL    HW123567   3.275   0.472   1.517 -1.7618 -0.9276 -2.7121
 3978SOL    HW223568   3.210   0.518   1.650  1.4304 -1.1856  0.8501
 3979SOL     OW23569   3.230   3.872   2.751  0.0440  0.1117  0.0051
 3979SOL    HW123570   3.164   3.919   2.701  3.5908  1.9972 -2.8439
 3979SOL    HW223571   3.188   3.839   2.831 -2.4623  0.7246 -1.0737
 3980SOL     OW23572   0.948   2.868   6.370 -0.3507 -0.2405 -0.1307
 3980SOL    HW123573   0.965   2.778   6.397  0.5858  0.6805  2.3073
 3980SOL    HW223574   1.001   2.921   6.430 -2.3119  0.5421  0.8818
 3981SOL     OW23575   1.654   4.359  10.037  0.1438 -0.0380  0.2606
 3981SOL    HW123576   1.564   4.335  10.060  0.0298  0.4241  0.2956
 3981SOL    HW223577   1.683   4.272  10.010 -0.0136  0.2674 -0.8939
 3982SOL     OW23578   1.902   0.594   3.748  0.0555 -0.2654  0.1909
 3982SOL    HW123579   1.921   0.664   3.810  1.3131 -0.7883  0.4052
 3982SOL    HW223580   1.958   0.625   3.677  2.2618  0.7678  2.3935
 3983SOL     OW23581   0.135   1.624  15.473  0.2966  0.1274  0.2178
 3983SOL    HW123582   0.177   1.656  15.393  0.7397 -0.4284  0.2299
 3983SOL    HW223583   0.174   1.676  15.544  0.1948  1.5537 -0.7737
 3984SOL     OW23584   3.302   0.101   1.433 -0.0907  0.5048 -0.0806
 3984SOL    HW123585   3.215   0.117   1.470 -0.1706 -0.5986  0.1998
 3984SOL    HW223586   3.283   0.094   1.339 -0.0459  0.7979 -0.1128
 3985SOL     OW23587   4.416   2.721  12.049  1.0498 -0.1332  0.4195
 3985SOL    HW123588   4.415   2.739  11.955 -0.7743 -0.5392  0.3690
 3985SOL    HW223589   4.326   2.716  12.081  1.2142 -0.1935  0.8745
 3986SOL     OW23590   4.213   0.734   3.252  0.0218 -0.0375 -0.5712
 3986SOL    HW123591   4.141   0.713   3.311  0.5846  1.4133  0.6268
 3986SOL    HW223592   4.199   0.687   3.170  1.3295 -0.7212 -0.3890
 3987SOL     OW23593   1.317   4.498   7.570  0.3067 -0.4659 -0.2155
 3987SOL    HW123594   1.362   4.442   7.634 -2.8614 -1.3377  1.2144
 3987SOL    HW223595   1.235   4.450   7.567 -0.8612  1.6606 -2.5877
 3988SOL     OW23596   2.873   4.391   2.554  0.1229 -0.4051  0.3998
 3988SOL    HW123597   2.951   4.439   2.584  0.1301 -0.4347  0.4288
 3988SOL    HW223598   2.805   4.458   2.559  1.5099  0.9031  1.9113
 3989SOL     OW23599   1.683   1.658  10.358 -0.7879  0.6885 -0.5635
 3989SOL    HW123600   1.617   1.723  10.381 -0.0594  1.0222  0.6038
 3989SOL    HW223601   1.685   1.659  10.262  0.4241 -2.1401 -0.5796
 3990SOL     OW23602   3.469   1.367   3.386 -0.0936  0.5484  0.1961
 3990SOL    HW123603   3.469   1.302   3.457 -0.3135  0.2980 -0.0317
 3990SOL    HW223604   3.509   1.325   3.310  0.9508  0.0711  1.0013
 3991SOL     OW23605   4.268   3.193   3.505 -0.0483 -0.1336  0.3561
 3991SOL    HW123606   4.212   3.193   3.583 -0.8199 -0.1645 -0.1902
 3991SOL    HW223607   4.213   3.136   3.451 -0.0061 -0.0195  0.1900
 3992SOL     OW23608   0.722   4.528  13.003 -0.2597  0.7610 -0.7939
 3992SOL    HW123609   0.732   4.453  12.944 -2.8606  1.6032 -2.2977
 3992SOL    HW223610   0.679   4.588  12.942  0.1881  0.7769 -1.0927
 3993SOL     OW23611   1.322   1.138  15.897 -0.4990 -0.6711 -0.0530
 3993SOL    HW123612   1.286   1.090  15.823  0.4176 -0.3088 -0.7453
 3993SOL    HW223613   1.401   1.088  15.917 -1.8693 -3.4424 -1.6947
 3994SOL     OW23614   2.787   1.921   4.892  0.4352  0.3520 -0.6049
 3994SOL    HW123615   2.806   1.828   4.884 -1.5787 -0.1678  0.6505
 3994SOL    HW223616   2.812   1.952   4.805 -0.8473  0.5013 -0.9252
 3995SOL     OW23617   0.944   2.383  16.316 -0.2647  0.1208  0.2665
 3995SOL    HW123618   0.862   2.347  16.351 -1.5565  2.1865 -0.5942
 3995SOL    HW223619   0.930   2.354  16.225  2.3718 -0.4716  0.0493
 3996SOL     OW23620   1.675   4.445   2.089  0.3111 -0.1408  0.3103
 3996SOL    HW123621   1.692   4.514   2.152 -0.7646  0.5179 -0.1284
 3996SOL    HW223622   1.595   4.402   2.118 -0.8719  2.5846  1.0532
 3997SOL     OW23623   0.153   1.475   6.619  0.6291  0.0148 -0.1294
 3997SOL    HW123624   0.238   1.464   6.663  0.5700  0.5432  0.1082
 3997SOL    HW223625   0.104   1.491   6.699  0.5360  0.0510 -0.1938
 3998SOL     OW23626   2.296   4.523   3.380  0.4561 -0.3107 -0.4505
 3998SOL    HW123627   2.300   4.609   3.421  1.8717 -0.0536 -1.0978
 3998SOL    HW223628   2.227   4.529   3.315 -0.8880  0.2151  1.0307
 3999SOL     OW23629   0.991   2.518   1.473 -0.1562 -0.1547 -0.5502
 3999SOL    HW123630   1.001   2.520   1.378  0.1212 -1.3911 -0.5406
 3999SOL    HW223631   0.903   2.550   1.492  0.6971  0.0799  3.1019
 4000SOL     OW23632   0.188   3.170  13.437  0.0470 -0.0742  0.6788
 4000SOL    HW123633   0.209   3.087  13.394 -0.4834  0.0059  0.2668
 4000SOL    HW223634   0.263   3.191  13.493 -1.3009  2.6823  1.4382
 4001SOL     OW23635   3.891   3.917   3.975 -0.3164 -0.4430  0.4910
 4001SOL    HW123636   3.807   3.873   3.984 -0.5452 -0.1275 -0.1518
 4001SOL    HW223637   3.870   3.989   4.035  0.2187  0.0264  0.1205
 4002SOL     OW23638   3.222   3.005   6.597 -0.3447  0.0725  0.2750
 4002SOL    HW123639   3.179   3.081   6.635  2.9563  2.2834 -0.3926
 4002SOL    HW223640   3.315   3.027   6.605 -0.2330  0.4140 -1.8203
 4003SOL     OW23641   0.745   0.893   5.511  0.7097 -0.2434 -0.0176
 4003SOL    HW123642   0.699   0.966   5.468 -0.0713  1.0817  3.0782
 4003SOL    HW223643   0.719   0.831   5.443 -0.8417  1.3463 -0.8885
 4004SOL     OW23644   3.122   2.826   2.838 -0.4117  0.5698  0.1987
 4004SOL    HW123645   3.108   2.731   2.833 -2.0952  0.7385  1.7115
 4004SOL    HW223646   3.030   2.853   2.833 -0.5352  0.4231  1.6376
 4005SOL     OW23647   1.861   3.342  10.733  0.2007 -0.0826 -0.0499
 4005SOL    HW123648   1.799   3.404  10.771  0.4732 -1.0217  1.8803
 4005SOL    HW223649   1.902   3.405  10.674 -1.1205 -0.2483 -1.1363
 4006SOL     OW23650   0.161   0.185   7.579 -0.2321  0.3120  0.4917
 4006SOL    HW123651   0.074   0.226   7.573 -0.3420 -0.0719 -0.5560
 4006SOL    HW223652   0.164   0.166   7.673 -1.5077 -1.2796  0.2017
 4007SOL     OW23653   1.232   4.375   8.311 -0.2523 -0.3566 -0.6734
 4007SOL    HW123654   1.141   4.355   8.336  0.5485 -0.3935  2.2621
 4007SOL    HW223655   1.286   4.316   8.363 -1.0612 -0.4470  0.0665
 4008SOL     OW23656   1.484   3.624  10.118  0.0854 -0.4000  0.2310
 4008SOL    HW123657   1.436   3.580  10.188 -0.8845  1.7737  0.9250
 4008SOL    HW223658   1.416   3.625  10.051  0.6435 -0.8129 -0.3314
 4009SOL     OW23659   3.973   4.306   6.369  0.0561 -0.1942 -0.5289
 4009SOL    HW123660   3.991   4.384   6.315  2.0673  0.5989  1.2875
 4009SOL    HW223661   3.880   4.293   6.351 -0.2022  0.9339 -0.0452
 4010SOL     OW23662   0.268   1.040   0.901  0.0734  0.4595 -0.6390
 4010SOL    HW123663   0.185   1.081   0.878 -0.8260 -1.6301 -1.0710
 4010SOL    HW223664   0.320   1.041   0.820 -1.5342 -2.7719 -1.7034
 4011SOL     OW23665   4.336   1.016   8.774 -0.5123 -0.0012 -0.5789
 4011SOL    HW123666   4.300   0.947   8.720  0.8613 -0.6829 -0.6185
 4011SOL    HW223667   4.399   0.965   8.825 -0.7578  0.8335  0.5880
 4012SOL     OW23668   0.656   0.515  15.306  0.4462 -0.3145 -0.4697
 4012SOL    HW123669   0.684   0.532  15.216  1.8108 -0.9998 -0.1737
 4012SOL    HW223670   0.563   0.525  15.284  0.0373 -1.3908  0.7776
 4013SOL     OW23671   2.124   0.038   7.243  0.1862 -0.3409 -0.1401
 4013SOL    HW123672   2.175   0.071   7.317 -0.9738  1.7293 -0.2614
 4013SOL    HW223673   2.048   0.012   7.296  0.3478 -1.6964 -0.5773
 4014SOL     OW23674   3.734   1.554  10.458 -0.5637 -0.0930 -0.3875
 4014SOL    HW123675   3.811   1.559  10.401 -2.5396  0.6805 -2.9554
 4014SOL    HW223676   3.690   1.638  10.450  0.0964  0.2145 -0.7944
 4015SOL     OW23677   0.781   0.736   2.495  0.4289  0.3472  0.3097
 4015SOL    HW123678   0.758   0.732   2.588  0.5693 -0.9704  0.2843
 4015SOL    HW223679   0.699   0.766   2.457 -0.9250 -1.7552  1.5422
 4016SOL     OW23680   1.751   1.660  17.324  0.1349 -0.0079  0.5611
 4016SOL    HW123681   1.726   1.572  17.296  1.1039  0.4096 -1.6507
 4016SOL    HW223682   1.745   1.653  17.419  0.2127 -0.7177  0.5145
 4017SOL     OW23683   0.091   2.718  10.698  0.0161 -0.2167 -0.5416
 4017SOL    HW123684   0.102   2.633  10.740  2.3084  0.1344 -0.4012
 4017SOL    HW223685   0.131   2.777  10.762  1.1449 -2.7376  1.0828
 4018SOL     OW23686   1.048   1.014   1.017 -0.0061  0.4270  0.6820
 4018SOL    HW123687   1.112   0.949   1.045  0.1204  0.3640  0.2485
 4018SOL    HW223688   1.002   0.969   0.947  1.7781 -0.3968  0.0284
 4019SOL     OW23689   0.324   2.067   5.900 -0.2605  0.1611 -0.2999
 4019SOL    HW123690   0.272   2.066   5.819  1.8441 -1.3930 -1.6206
 4019SOL    HW223691   0.262   2.050   5.971  0.5819 -0.1877  0.3422
 4020SOL     OW23692   0.628   1.727  11.374 -0.5316  0.3671  0.2915
 4020SOL    HW123693   0.647   1.691  11.287 -1.5732 -0.5895  0.4728
 4020SOL    HW223694   0.634   1.643  11.419 -0.8399 -1.1691 -2.5042
 4021SOL     OW23695   2.846   4.003   4.031  0.0399 -0.2013 -0.1072
 4021SOL    HW123696   2.752   4.021   4.032 -0.0121 -0.4168 -0.9443
 4021SOL    HW223697   2.875   4.093   4.049 -0.4845  0.0572 -0.5248
 4022SOL     OW23698   3.684   4.093   8.913  0.2794 -0.1546  0.0766
 4022SOL    HW123699   3.747   4.136   8.971  1.6864  0.8069 -2.1318
 4022SOL    HW223700   3.663   4.012   8.960  1.2137  0.3620  1.3946
 4023SOL     OW23701   4.157   0.420  15.406 -0.3716 -0.2697  0.3261
 4023SOL    HW123702   4.126   0.402  15.494  1.1972 -1.2369  0.6770
 4023SOL    HW223703   4.252   0.435  15.411 -0.5000  0.7007 -0.1002
 4024SOL     OW23704   2.032   1.280   7.717 -0.1786 -0.5598  0.0164
 4024SOL    HW123705   2.112   1.323   7.686  0.0269 -1.1496 -0.2681
 4024SOL    HW223706   2.066   1.232   7.793 -0.0464  1.3334  1.1611
 4025SOL     OW23707   2.945   2.902   7.104  0.1878 -0.0928  0.3090
 4025SOL    HW123708   2.990   2.893   7.020 -2.3531 -2.6594 -0.7738
 4025SOL    HW223709   2.936   2.997   7.110 -3.1643 -0.2813 -1.3074
 4026SOL     OW23710   2.289   2.678   8.376 -0.4679 -0.1175  0.2759
 4026SOL    HW123711   2.306   2.726   8.457 -0.4179  0.0155  0.1861
 4026SOL    HW223712   2.382   2.657   8.371 -0.2062  1.2084 -0.5997
 4027SOL     OW23713   2.757   2.633  13.316  0.1283  0.1226 -0.2461
 4027SOL    HW123714   2.688   2.583  13.360  0.4462  0.6717  0.8816
 4027SOL    HW223715   2.820   2.647  13.387  0.0844 -1.3298  0.0759
 4028SOL     OW23716   1.960   3.351   7.413  0.4324  0.3583 -0.1627
 4028SOL    HW123717   1.879   3.304   7.429 -0.1580  1.1410 -0.8285
 4028SOL    HW223718   1.969   3.412   7.486  0.7959 -0.6615  0.6401
 4029SOL     OW23719   4.238   1.005  12.373  0.0247 -0.0534  0.3728
 4029SOL    HW123720   4.253   0.917  12.337 -3.2776  0.5551 -2.5428
 4029SOL    HW223721   4.143   1.005  12.364 -0.1091 -1.4637  1.9299
 4030SOL     OW23722   4.613   0.555  14.031  0.2052 -0.0994  0.6773
 4030SOL    HW123723   4.697   0.535  13.989  0.8890  1.4734  1.2512
 4030SOL    HW223724   4.634   0.531  14.121  0.7452 -0.2429  0.5150
 4031SOL     OW23725   1.706   0.803  11.142  0.0164  0.2208  0.1646
 4031SOL    HW123726   1.735   0.764  11.224 -0.7880 -1.2282 -0.2418
 4031SOL    HW223727   1.643   0.864  11.180 -1.4454  0.1813 -2.1905
 4032SOL     OW23728   1.526   3.126  15.304 -0.2291 -0.1632  0.3682
 4032SOL    HW123729   1.588   3.135  15.376  1.0567  0.5308 -0.8370
 4032SOL    HW223730   1.534   3.032  15.287  1.5175 -0.0400  0.5742
 4033SOL     OW23731   3.122   2.356   9.088  0.2896  0.4842  0.0210
 4033SOL    HW123732   3.216   2.368   9.080  0.0055  1.1993 -2.2498
 4033SOL    HW223733   3.098   2.355   8.996 -0.7659  1.0294  0.2908
 4034SOL     OW23734   1.291   2.315  15.432 -0.0347 -0.0450 -0.5856
 4034SOL    HW123735   1.341   2.389  15.398  1.3383  0.1719  1.8911
 4034SOL    HW223736   1.257   2.279  15.350 -3.4668  0.0797  0.8001
 4035SOL     OW23737   2.673   0.736  15.861  0.4918 -0.2645  0.0317
 4035SOL    HW123738   2.728   0.788  15.920 -1.9460  3.1461 -0.7200
 4035SOL    HW223739   2.625   0.810  15.825 -0.3662 -1.0976 -0.5427
 4036SOL     OW23740   2.698   4.045   8.168  0.5389  1.0723  0.3460
 4036SOL    HW123741   2.623   3.985   8.173  0.5274  0.7860 -2.6585
 4036SOL    HW223742   2.766   4.018   8.230  0.2305 -0.9688 -0.1809
 4037SOL     OW23743   3.748   1.127   5.807 -0.3403  0.3726  0.0210
 4037SOL    HW123744   3.756   1.222   5.798 -0.3608  0.3372 -0.3484
 4037SOL    HW223745   3.821   1.110   5.867 -0.1149 -1.6817 -0.8562
 4038SOL     OW23746   0.366   2.155   7.153 -0.2294  0.1605  0.6588
 4038SOL    HW123747   0.389   2.171   7.245 -0.0375 -0.6787  0.7503
 4038SOL    HW223748   0.409   2.072   7.132 -0.6343  0.7260 -2.4096
 4039SOL     OW23749   0.383   4.579   4.561 -0.0637  0.2226  0.4951
 4039SOL    HW123750   0.368   4.630   4.482  0.0958  1.6707  1.3833
 4039SOL    HW223751   0.389   4.487   4.535  3.0082  0.9204 -1.2287
 4040SOL     OW23752   2.050   4.504   8.315  0.9491  0.0578  0.0752
 4040SOL    HW123753   2.061   4.415   8.283  0.9637  0.0991 -0.0362
 4040SOL    HW223754   2.043   4.547   8.229  1.5144  2.7059  1.3491
 4041SOL     OW23755   3.851   4.337   2.552 -0.1971  0.7154  0.5813
 4041SOL    HW123756   3.804   4.397   2.494 -0.3501  0.0045 -0.0178
 4041SOL    HW223757   3.774   4.287   2.580  0.7335 -0.4809  0.9863
 4042SOL     OW23758   3.565   3.964   5.784  0.2430 -0.1760 -0.4864
 4042SOL    HW123759   3.595   4.044   5.828  0.0133 -0.0044 -0.6403
 4042SOL    HW223760   3.543   3.905   5.856  0.5597 -1.7390 -1.6692
 4043SOL     OW23761   2.336   3.525   2.845 -0.6325  0.2648 -0.9600
 4043SOL    HW123762   2.352   3.547   2.753  0.8921 -0.0606 -0.7785
 4043SOL    HW223763   2.257   3.575   2.864 -0.1408  1.4202 -1.9877
 4044SOL     OW23764   1.787   4.728  12.185 -0.1222 -0.1559  0.2795
 4044SOL    HW123765   1.797   0.082  12.157  0.1297 -0.2435  0.0889
 4044SOL    HW223766   1.875   4.692  12.191 -0.2939 -0.6702 -0.3230
 4045SOL     OW23767   2.048   2.946   1.967  0.1126  0.0050 -0.8382
 4045SOL    HW123768   2.051   2.968   2.060 -0.4199  0.8299 -1.0127
 4045SOL    HW223769   1.964   2.989   1.950 -0.4664 -0.2039  1.4495
 4046SOL     OW23770   2.779   3.213  14.429  0.0351  0.5470 -0.0694
 4046SOL    HW123771   2.768   3.160  14.350 -1.6997 -0.0881  0.5964
 4046SOL    HW223772   2.692   3.244  14.453 -0.0070  2.1365 -2.2718
 4047SOL     OW23773   3.077   3.943   0.728 -0.0435  0.4448 -0.0726
 4047SOL    HW123774   2.987   3.972   0.744 -0.9987 -1.9781 -1.0988
 4047SOL    HW223775   3.111   3.918   0.814  1.5099 -1.9194 -1.3719
 4048SOL     OW23776   2.347   1.263   5.598 -0.4772  0.1581  0.3334
 4048SOL    HW123777   2.384   1.279   5.685  1.0163  0.2538 -0.3208
 4048SOL    HW223778   2.264   1.311   5.598  0.7951  2.3158  1.4963
 4049SOL     OW23779   0.892   2.243   6.918  0.0177  0.0729 -0.2394
 4049SOL    HW123780   0.838   2.195   6.981  0.8467 -0.7525 -0.1633
 4049SOL    HW223781   0.950   2.281   6.984  0.5224  0.1498 -0.7297
 4050SOL     OW23782   0.078   3.106  10.977  0.5078 -0.4378  0.0372
 4050SOL    HW123783   0.020   3.069  11.044 -1.9506  1.0591 -1.2511
 4050SOL    HW223784   0.023   3.161  10.921  0.3708 -1.1163 -0.4752
 4051SOL     OW23785   3.966   0.707   7.694  0.1107  0.4741 -0.2039
 4051SOL    HW123786   3.903   0.747   7.635 -0.4411 -2.9529 -1.8967
 4051SOL    HW223787   4.047   0.711   7.645  0.4410 -0.3597  0.2657
 4052SOL     OW23788   3.619   2.831   4.429 -0.6226 -0.1393 -0.3299
 4052SOL    HW123789   3.534   2.873   4.425  0.1659  1.3908 -1.1583
 4052SOL    HW223790   3.597   2.764   4.364 -2.3137  0.2837 -0.1842
 4053SOL     OW23791   1.900   1.167  16.877 -0.0314  0.1594 -0.5649
 4053SOL    HW123792   1.818   1.190  16.833  0.6956 -0.8027 -2.4204
 4053SOL    HW223793   1.934   1.099  16.820  0.6304  0.1444 -0.1542
 4054SOL     OW23794   0.898   0.179   1.397  0.0323  0.1162  0.1869
 4054SOL    HW123795   0.900   0.256   1.454 -0.0408  0.1767  0.1073
 4054SOL    HW223796   0.917   0.211   1.309  2.2929 -0.7127  0.3657
 4055SOL     OW23797   2.228   3.257   0.311 -0.1861  0.5122 -0.1031
 4055SOL    HW123798   2.243   3.344   0.275  3.4283  0.2242  0.6612
 4055SOL    HW223799   2.311   3.209   0.311 -0.0207  0.7973 -1.3996
 4056SOL     OW23800   3.358   2.964  13.495  0.3586  0.1401  0.1300
 4056SOL    HW123801   3.369   2.943  13.588  0.9914 -2.1243 -0.4714
 4056SOL    HW223802   3.262   2.970  13.486  0.2952  0.1106  0.7671
 4057SOL     OW23803   0.230   3.614   8.322 -0.3685  0.6222  0.3919
 4057SOL    HW123804   0.185   3.559   8.386 -0.7987 -0.7975 -1.1424
 4057SOL    HW223805   0.305   3.569   8.284 -1.8097  0.4980 -2.3083
 4058SOL     OW23806   4.010   1.378   4.011 -1.2401 -0.0467  0.5158
 4058SOL    HW123807   3.925   1.418   3.996 -1.3601 -1.0775 -1.4575
 4058SOL    HW223808   4.047   1.371   3.923 -1.2264  1.3205  0.4056
 4059SOL     OW23809   0.377   3.671   3.278  0.4285  0.4920  0.4800
 4059SOL    HW123810   0.396   3.578   3.288 -2.2095  0.1328  2.0562
 4059SOL    HW223811   0.456   3.723   3.297  1.4188 -1.3198  1.3107
 4060SOL     OW23812   1.757   0.893   5.540  0.3420 -0.0185 -0.0464
 4060SOL    HW123813   1.793   0.806   5.562 -0.1961 -0.5568 -1.3112
 4060SOL    HW223814   1.667   0.864   5.523 -0.6128  1.3968  2.5489
 4061SOL     OW23815   0.866   3.656   2.729  0.0671  0.0221  0.1672
 4061SOL    HW123816   0.822   3.709   2.796 -0.1796  0.4364 -0.3282
 4061SOL    HW223817   0.825   3.679   2.646 -1.5093 -0.4851  0.8090
 4062SOL     OW23818   0.943   1.271   5.112  0.5439  0.5874 -0.0367
 4062SOL    HW123819   1.029   1.297   5.144  0.8061 -0.2336 -0.0824
 4062SOL    HW223820   0.953   1.268   5.017  1.8157  3.0636  0.0015
 4063SOL     OW23821   0.513   1.490  17.650 -0.1082 -1.1528  0.2451
 4063SOL    HW123822   0.467   1.570  17.676  1.7801 -0.1665  0.5586
 4063SOL    HW223823   0.586   1.534  17.606 -0.4929 -2.6133 -1.8570
 4064SOL     OW23824   4.656   0.227   6.482  0.0907 -0.7694 -0.0219
 4064SOL    HW123825   4.727   0.286   6.461 -0.5564 -0.0643 -0.2360
 4064SOL    HW223826   4.614   0.211   6.398  0.4109 -2.7022  0.1777
 4065SOL     OW23827   0.167   3.676   2.615 -0.0742  0.7773  0.1350
 4065SOL    HW123828   0.229   3.732   2.567 -1.1717  1.3118 -0.6490
 4065SOL    HW223829   0.094   3.694   2.557 -0.5527  0.8390  0.7545
 4066SOL     OW23830   4.313   4.020   6.898  0.0967 -0.4363 -0.1842
 4066SOL    HW123831   4.255   3.944   6.889  0.5469 -0.7931 -0.1193
 4066SOL    HW223832   4.339   4.031   6.807 -1.9063  1.2357 -0.5279
 4067SOL     OW23833   3.517   3.317   8.225 -0.2176  0.2971  0.1988
 4067SOL    HW123834   3.538   3.367   8.145  0.6539  0.1876  0.3633
 4067SOL    HW223835   3.488   3.238   8.180 -0.5935  0.0773  0.8344
 4068SOL     OW23836   1.011   0.468   3.924 -0.6243  0.6150 -0.1307
 4068SOL    HW123837   1.011   0.505   4.012 -0.6123  1.1698 -0.3614
 4068SOL    HW223838   1.095   0.504   3.895 -0.8883  1.7145  0.4678
 4069SOL     OW23839   1.115   1.908   0.312  0.1592 -0.1707 -0.2382
 4069SOL    HW123840   1.168   1.890   0.235  0.6535  1.8064 -0.3440
 4069SOL    HW223841   1.065   1.987   0.293  0.5648 -0.0211 -0.6699
 4070SOL     OW23842   3.347   3.497   0.498  0.3974  0.3784 -0.1913
 4070SOL    HW123843   3.377   3.449   0.575 -0.2829  0.1603 -0.0600
 4070SOL    HW223844   3.325   3.580   0.542 -1.1014 -0.6641  1.0332
 4071SOL     OW23845   1.219   4.168   3.080  0.6397  0.8550  0.1310
 4071SOL    HW123846   1.258   4.246   3.042  0.3380  1.8306  1.8289
 4071SOL    HW223847   1.289   4.104   3.076  0.3472  0.6616 -1.9631
 4072SOL     OW23848   4.704   2.289  15.008 -0.4077 -0.7016 -0.5717
 4072SOL    HW123849   4.640   2.223  15.033 -0.6313  0.0631  0.8719
 4072SOL    HW223850   0.049   2.269  15.054 -0.3742 -0.8071 -0.6759
 4073SOL     OW23851   1.927   0.847   9.983 -0.0042 -0.6263 -0.3786
 4073SOL    HW123852   1.857   0.869  10.045  1.0548  0.0128  0.5901
 4073SOL    HW223853   1.999   0.847  10.046 -0.1209 -1.0303 -0.2457
 4074SOL     OW23854   3.284   4.290   3.539  0.3266 -0.3851  0.1231
 4074SOL    HW123855   3.218   4.291   3.469  1.4193  0.7869 -0.9075
 4074SOL    HW223856   3.239   4.327   3.614  3.1230  0.6142  1.3263
 4075SOL     OW23857   2.996   1.614   8.445 -0.1796  0.2006 -0.3521
 4075SOL    HW123858   2.913   1.659   8.463 -1.3368 -1.5514 -1.3469
 4075SOL    HW223859   3.032   1.654   8.524 -2.5834  0.7037  0.4934
 4076SOL     OW23860   3.813   4.440   9.535  0.4628  0.2104 -0.0739
 4076SOL    HW123861   3.896   4.428   9.581  0.8533  1.5828 -0.4141
 4076SOL    HW223862   3.758   4.479   9.604  0.8770  0.4887  0.0985
 4077SOL     OW23863   0.983   1.762   8.040 -0.5293 -0.1658  0.3369
 4077SOL    HW123864   0.912   1.818   8.008  1.0015  1.5144 -0.1006
 4077SOL    HW223865   0.945   1.683   8.002  1.0663 -0.7694 -0.0217
 4078SOL     OW23866   0.630   2.643  14.597 -0.2566  0.0144 -0.1254
 4078SOL    HW123867   0.562   2.582  14.627 -0.5649 -0.6412 -2.1491
 4078SOL    HW223868   0.579   2.711  14.554  1.9937  0.8823 -1.4343
 4079SOL     OW23869   2.840   3.023   3.192  0.1239  0.3346  0.4544
 4079SOL    HW123870   2.777   3.092   3.171  0.0470 -0.1038 -0.7236
 4079SOL    HW223871   2.786   2.976   3.255  0.4907 -1.0525 -0.2715
 4080SOL     OW23872   2.230   3.026  13.565 -0.0472  0.0367  0.1281
 4080SOL    HW123873   2.312   2.978  13.576 -0.1671 -0.0162  0.7887
 4080SOL    HW223874   2.229   3.023  13.469 -2.0097  1.6915  0.0861
 4081SOL     OW23875   3.514   2.392   6.208  0.1571 -0.6057  0.3209
 4081SOL    HW123876   3.598   2.413   6.247 -0.8644  1.1059  1.5744
 4081SOL    HW223877   3.508   2.468   6.150 -3.1903 -1.0235  0.1149
 4082SOL     OW23878   3.283   4.370   4.829  0.4531  0.5321 -0.8755
 4082SOL    HW123879   3.300   4.406   4.916  3.5075 -0.3228 -1.1336
 4082SOL    HW223880   3.339   4.293   4.822  0.7833  0.3111  3.7000
 4083SOL     OW23881   3.555   3.354   9.656 -0.4498 -0.1885 -0.4293
 4083SOL    HW123882   3.498   3.404   9.598 -1.4090  0.4988  1.0872
 4083SOL    HW223883   3.592   3.291   9.595  1.1292  1.0451 -0.7554
 4084SOL     OW23884   2.949   3.304   1.188 -0.1030  0.1326  0.2324
 4084SOL    HW123885   2.939   3.356   1.268  1.3338  1.7035 -0.6200
 4084SOL    HW223886   3.044   3.299   1.178 -0.1063  1.1819 -0.2604
 4085SOL     OW23887   2.950   4.716   4.631 -0.4054 -0.1849  0.4031
 4085SOL    HW123888   2.995   4.633   4.647  1.8744  1.6266  3.3979
 4085SOL    HW223889   2.963   4.725   4.537 -0.6385  0.8633  0.4735
 4086SOL     OW23890   4.151   0.841   1.763  0.7848  0.0996 -0.5458
 4086SOL    HW123891   4.113   0.754   1.749  2.1822 -0.4049 -1.2431
 4086SOL    HW223892   4.228   0.816   1.814  1.4990  1.3316 -1.0191
 4087SOL     OW23893   2.462   0.832  16.786  0.4247  0.1826  0.1791
 4087SOL    HW123894   2.542   0.788  16.756 -0.1307 -0.1069 -0.8480
 4087SOL    HW223895   2.398   0.799  16.724 -1.6333  2.1013  1.2845
 4088SOL     OW23896   0.728   0.931   1.977 -0.4077  0.1090  0.3427
 4088SOL    HW123897   0.700   0.961   1.890  1.7898  2.0882  0.3141
 4088SOL    HW223898   0.737   1.010   2.031  0.2135 -0.6207  1.3012
 4089SOL     OW23899   3.666   2.399   5.106 -0.1023 -0.1133  0.2266
 4089SOL    HW123900   3.596   2.464   5.100  0.9519  1.0416  0.5712
 4089SOL    HW223901   3.731   2.444   5.158 -1.5547  3.2114 -0.7972
 4090SOL     OW23902   4.046   1.270  15.419 -0.5344 -0.3698 -0.5511
 4090SOL    HW123903   4.078   1.191  15.375  1.1263  0.6350 -1.1506
 4090SOL    HW223904   3.968   1.288  15.366  0.6977  0.7531 -1.9980
 4091SOL     OW23905   2.502   3.700   5.540  0.8024 -0.1330 -0.1551
 4091SOL    HW123906   2.540   3.613   5.522 -0.9370 -1.1966  1.3510
 4091SOL    HW223907   2.477   3.689   5.632 -0.8410 -0.6684 -0.6761
 4092SOL     OW23908   0.883   0.278   1.665 -0.4866  0.4546  0.2991
 4092SOL    HW123909   0.977   0.286   1.675 -0.3599  0.0425 -0.5713
 4092SOL    HW223910   0.853   0.218   1.733  0.1170  0.8099  0.8818
 4093SOL     OW23911   1.116   2.598  14.496 -0.1721  0.3755 -0.2722
 4093SOL    HW123912   1.021   2.581  14.498  0.2965 -1.9205  3.3588
 4093SOL    HW223913   1.115   2.679  14.548 -0.9835  0.7224 -0.8193
 4094SOL     OW23914   1.705   0.914  14.492 -0.1996  0.2119 -0.4116
 4094SOL    HW123915   1.665   0.911  14.579  1.2926 -0.2671  0.2506
 4094SOL    HW223916   1.787   0.955  14.520  0.1108 -0.0834 -0.8895
 4095SOL     OW23917   1.081   1.809   6.933  0.2502  0.1865 -0.1400
 4095SOL    HW123918   1.099   1.734   6.876 -3.2079 -0.7907  0.0524
 4095SOL    HW223919   1.169   1.829   6.963  0.7273  1.2329 -2.2429
 4096SOL     OW23920   0.372   1.383   8.034  0.1066 -0.2898 -0.2894
 4096SOL    HW123921   0.377   1.474   8.003 -0.0473  0.5383  2.1115
 4096SOL    HW223922   0.332   1.398   8.119 -1.4477 -0.2311 -1.0186
 4097SOL     OW23923   3.369   2.889   8.145  0.3471  0.0895 -0.3701
 4097SOL    HW123924   3.440   2.857   8.091  0.8541 -1.8706  1.4397
 4097SOL    HW223925   3.385   2.982   8.130 -0.9652  0.7293  2.1520
 4098SOL     OW23926   2.738   4.729   7.713  0.3541 -0.5671  0.3428
 4098SOL    HW123927   2.774   4.649   7.675 -0.1174 -0.7392  0.2650
 4098SOL    HW223928   2.811   0.046   7.745 -1.6272  1.0736  2.0988
 4099SOL     OW23929   3.194   4.471   3.042  0.1784 -0.7972 -0.8673
 4099SOL    HW123930   3.266   4.453   2.982  0.8441  1.7684 -0.8351
 4099SOL    HW223931   3.118   4.463   2.984 -1.8099 -0.2350  1.6368
 4100SOL     OW23932   2.909   1.227  14.895 -0.2429 -0.1943  0.8156
 4100SOL    HW123933   2.817   1.211  14.876 -0.4484  1.7754  0.1233
 4100SOL    HW223934   2.925   1.263  14.808 -0.2868  1.3687  1.4400
 4101SOL     OW23935   1.729   4.117   1.033 -0.1306  0.5322 -0.0466
 4101SOL    HW123936   1.804   4.151   0.983  0.7990 -2.6631 -0.8451
 4101SOL    HW223937   1.773   4.039   1.066 -1.3141 -0.1134 -0.0294
 4102SOL     OW23938   3.200   2.665   8.708  0.4451  0.2223 -0.0379
 4102SOL    HW123939   3.228   2.756   8.705 -3.1390  1.3984  1.7299
 4102SOL    HW223940   3.132   2.682   8.774 -0.9365 -1.1734 -1.0900
 4103SOL     OW23941   3.372   2.758   4.731 -0.4610 -0.0264 -0.0512
 4103SOL    HW123942   3.330   2.773   4.816 -1.0747 -0.4125 -0.2931
 4103SOL    HW223943   3.464   2.751   4.759  0.4164  2.0877 -2.3718
 4104SOL     OW23944   2.641   3.651   9.077 -0.1298 -0.4986  0.4491
 4104SOL    HW123945   2.579   3.634   9.148 -1.9504  0.8837 -0.8108
 4104SOL    HW223946   2.620   3.575   9.024  1.7856 -1.7276  1.4422
 4105SOL     OW23947   1.568   0.015   7.930  0.1191 -0.3596 -0.0061
 4105SOL    HW123948   1.625   0.088   7.905  1.0902 -1.0268  0.2714
 4105SOL    HW223949   1.632   4.691   7.968  2.2402  2.0455  0.3119
 4106SOL     OW23950   2.331   0.889   8.233  0.0718  0.0153  0.8631
 4106SOL    HW123951   2.294   0.976   8.252  0.3597  0.3590 -0.1655
 4106SOL    HW223952   2.320   0.853   8.321  1.8630 -0.1932  1.0090
 4107SOL     OW23953   0.525   2.103   0.985  0.1082 -0.5838  0.3491
 4107SOL    HW123954   0.481   2.141   0.909  1.8255 -2.3465 -1.4997
 4107SOL    HW223955   0.539   2.009   0.971 -0.4118 -0.6656  0.3630
 4108SOL     OW23956   2.265   4.051   5.533 -0.5791 -0.6427  0.3065
 4108SOL    HW123957   2.336   4.101   5.572 -0.5464 -1.8329  1.7931
 4108SOL    HW223958   2.283   4.040   5.440 -0.2763  0.6011  0.2137
 4109SOL     OW23959   2.156   1.497   4.728 -0.6333  0.9060 -0.6133
 4109SOL    HW123960   2.163   1.572   4.669  0.8828  0.9409 -0.3820
 4109SOL    HW223961   2.061   1.488   4.724 -0.5773  0.7024 -1.5261
 4110SOL     OW23962   0.678   2.445   9.439 -0.2307  0.3842 -0.2600
 4110SOL    HW123963   0.670   2.531   9.398  0.5862 -0.2512 -1.7487
 4110SOL    HW223964   0.593   2.422   9.476  0.5635 -0.8084  0.7979
 4111SOL     OW23965   1.740   0.218  10.354 -0.0678  0.1665 -0.2772
 4111SOL    HW123966   1.722   0.246  10.264 -0.9364  1.5081  0.3249
 4111SOL    HW223967   1.649   0.210  10.381 -0.0672 -0.4547 -0.4504
 4112SOL     OW23968   0.990   1.998  17.146  0.2485 -0.0226  0.0971
 4112SOL    HW123969   0.978   2.093  17.141  2.0627  0.2584  0.9947
 4112SOL    HW223970   1.085   2.002  17.135 -0.0050  0.3238 -1.9337
 4113SOL     OW23971   1.167   4.181   3.414  0.2860 -0.1835 -0.4069
 4113SOL    HW123972   1.239   4.121   3.395  1.1396  0.5365  0.5654
 4113SOL    HW223973   1.126   4.184   3.327 -0.0039 -0.2523 -0.2727
 4114SOL     OW23974   4.649   2.478  10.001  0.6428 -0.1378 -0.1719
 4114SOL    HW123975   4.590   2.449  10.071  0.8726  1.4176  0.6830
 4114SOL    HW223976   4.626   2.421   9.928  1.7360 -2.1035  1.0340
 4115SOL     OW23977   4.539   1.329   4.959  0.6285 -0.1096 -0.1925
 4115SOL    HW123978   4.608   1.388   4.927  0.1161  1.2267  1.1770
 4115SOL    HW223979   4.496   1.306   4.877  2.0113 -1.3728 -0.5605
 4116SOL     OW23980   1.667   2.118   5.952  0.3395 -0.2447  0.1076
 4116SOL    HW123981   1.622   2.131   6.036  0.0535 -0.2796 -0.0410
 4116SOL    HW223982   1.750   2.084   5.986  0.1293 -1.9635 -1.1230
 4117SOL     OW23983   0.501   0.923   7.544  0.3835 -0.4122 -0.4721
 4117SOL    HW123984   0.584   0.965   7.567  0.2152 -0.6359  0.5298
 4117SOL    HW223985   0.454   0.911   7.626  0.5230 -0.5973 -0.4190
 4118SOL     OW23986   4.332   0.644   0.091  0.4874 -0.3514 -0.2731
 4118SOL    HW123987   4.325   0.647   0.187  1.1045 -1.0085 -0.2095
 4118SOL    HW223988   4.250   0.680   0.057  1.7930  3.0196  0.1694
 4119SOL     OW23989   2.444   1.047   1.730  0.0415 -0.1125  0.0687
 4119SOL    HW123990   2.534   1.069   1.705 -0.3356  0.4779 -0.7705
 4119SOL    HW223991   2.449   1.058   1.825 -0.3061 -4.2658  0.5965
 4120SOL     OW23992   2.494   3.926   4.780 -0.4919  0.5705  0.1036
 4120SOL    HW123993   2.537   3.854   4.827  0.0914 -0.8756 -2.6591
 4120SOL    HW223994   2.406   3.922   4.819 -0.7490  0.4078 -0.4895
 4121SOL     OW23995   4.379   0.560  11.089  0.0057 -0.0416  0.2507
 4121SOL    HW123996   4.314   0.602  11.145 -1.4258 -0.9443 -0.7447
 4121SOL    HW223997   4.341   0.478  11.057 -1.1186  0.6696 -0.2412
 4122SOL     OW23998   2.306   1.812  14.813  0.4547 -0.0731 -0.6014
 4122SOL    HW123999   2.272   1.856  14.891  0.0605  1.6245 -1.7251
 4122SOL    HW224000   2.234   1.825  14.751  0.0352 -2.5179 -0.6197
 4123SOL     OW24001   1.644   4.339  14.480  0.4358  0.1575 -0.8695
 4123SOL    HW124002   1.585   4.362  14.408  1.0584 -2.5462 -2.2473
 4123SOL    HW224003   1.717   4.397  14.458 -0.0652  1.1449  0.0655
 4124SOL     OW24004   2.368   0.566  13.540 -0.2013 -0.1963  0.0676
 4124SOL    HW124005   2.417   0.574  13.458  0.9970 -3.0447  0.4827
 4124SOL    HW224006   2.396   0.484  13.581 -0.4367 -1.6874 -2.7832
 4125SOL     OW24007   0.959   2.557   4.653  0.5316 -0.0017 -0.4319
 4125SOL    HW124008   0.982   2.647   4.630  2.5608 -1.2059 -3.0263
 4125SOL    HW224009   0.918   2.572   4.739  1.0944 -0.5021 -0.0699
 4126SOL     OW24010   1.556   0.021  14.485  0.3901 -0.0654 -0.0364
 4126SOL    HW124011   1.526   4.669  14.465 -1.1045 -0.3218  3.3365
 4126SOL    HW224012   1.470   0.061  14.476  0.5014  0.3316  0.6609
 4127SOL     OW24013   3.673   2.529   3.899  0.4338 -0.1193  0.0239
 4127SOL    HW124014   3.632   2.506   3.816 -1.6087  0.2180  0.9362
 4127SOL    HW224015   3.681   2.624   3.892 -1.5138  0.2193  2.2423
 4128SOL     OW24016   1.813   2.218  12.960  1.1071  0.1381 -0.0254
 4128SOL    HW124017   1.772   2.274  12.894 -1.6234 -3.8599 -1.7130
 4128SOL    HW224018   1.904   2.224  12.931  1.0805  4.1677  0.7245
 4129SOL     OW24019   3.057   4.463   6.105 -0.2110 -0.3815  0.8886
 4129SOL    HW124020   3.144   4.453   6.065 -1.1187 -2.7696 -0.4482
 4129SOL    HW224021   3.046   4.557   6.091 -0.3458 -0.2816  1.7122
 4130SOL     OW24022   0.839   4.383  15.090 -0.1446  0.1053 -0.6995
 4130SOL    HW124023   0.765   4.425  15.047 -0.9217 -0.9056 -0.3779
 4130SOL    HW224024   0.847   4.302  15.039 -2.3680 -1.6084  1.6197
 4131SOL     OW24025   3.895   4.172   7.155 -0.1616  0.1737 -0.5837
 4131SOL    HW124026   3.944   4.198   7.078  2.1054 -0.5869  0.6061
 4131SOL    HW224027   3.889   4.253   7.206  0.5395  0.0949 -0.3775
 4132SOL     OW24028   2.410   2.694  12.529  0.2155  0.3553  0.1301
 4132SOL    HW124029   2.368   2.733  12.606  3.0386  0.5450  1.5753
 4132SOL    HW224030   2.389   2.605  12.557  1.5845  0.0880  0.3092
 4133SOL     OW24031   0.519   0.809   6.698  0.9356  0.8748  0.3826
 4133SOL    HW124032   0.541   0.758   6.620 -1.1570  0.1846  0.2280
 4133SOL    HW224033   0.436   0.767   6.723  0.0250  1.9423 -0.8373
 4134SOL     OW24034   4.451   3.858   8.686  0.5885 -0.1502 -0.8877
 4134SOL    HW124035   4.470   3.810   8.767  1.2085  0.5981 -0.5932
 4134SOL    HW224036   4.456   3.947   8.719 -1.2008  0.4007 -2.0956
 4135SOL     OW24037   0.712   0.817  12.904 -0.2580  0.3287  0.1405
 4135SOL    HW124038   0.761   0.900  12.905 -1.2872  0.9584 -0.7383
 4135SOL    HW224039   0.764   0.757  12.851  0.7148  0.6572  0.7230
 4136SOL     OW24040   4.678   2.203   4.891  0.7440 -0.6237  0.4255
 4136SOL    HW124041   0.018   2.187   4.835  0.3290 -3.8414  0.7624
 4136SOL    HW224042   4.608   2.216   4.828  2.5514  1.5407 -1.1509
 4137SOL     OW24043   0.012   4.202  15.584 -0.0419 -0.4196 -0.3328
 4137SOL    HW124044   4.686   4.235  15.648  0.6847  0.4000 -0.0415
 4137SOL    HW224045   0.088   4.192  15.642  0.4530  0.2330 -0.8640
 4138SOL     OW24046   1.916   4.677   0.186 -0.7252 -0.3325  0.1287
 4138SOL    HW124047   1.950   4.704   0.101 -0.8437  0.2013  0.2512
 4138SOL    HW224048   1.976   4.612   0.223 -1.1789 -1.8675 -1.8011
 4139SOL     OW24049   3.504   0.066   9.727 -0.2700  0.8282  0.0941
 4139SOL    HW124050   3.460   0.073   9.811  2.5326  1.9120  1.4237
 4139SOL    HW224051   3.490   0.151   9.685  0.0942  0.0644 -1.5737
 4140SOL     OW24052   1.363   0.598   7.189  0.3880  0.1143 -0.2989
 4140SOL    HW124053   1.289   0.647   7.225  0.0549  0.6571 -1.7045
 4140SOL    HW224054   1.323   0.512   7.199  0.7788  0.2183  2.1669
 4141SOL     OW24055   3.014   2.166   2.392  0.1971 -0.5844 -0.0389
 4141SOL    HW124056   3.069   2.200   2.462  0.2419 -1.3819  0.3091
 4141SOL    HW224057   3.073   2.103   2.350  0.1511  0.1206 -1.1623
 4142SOL     OW24058   3.810   3.477   6.143  0.1933  0.2797  0.2231
 4142SOL    HW124059   3.887   3.423   6.125 -0.4517 -0.7363  0.5383
 4142SOL    HW224060   3.742   3.424   6.102 -0.5900  1.7817 -0.4388
 4143SOL     OW24061   2.600   0.602  16.208  0.0626  0.1323  0.5236
 4143SOL    HW124062   2.694   0.610  16.225 -0.0025  0.3038  0.8082
 4143SOL    HW224063   2.571   0.582  16.297 -0.1947 -2.3075 -0.1039
 4144SOL     OW24064   3.740   3.382   7.411  0.2618 -0.5733  0.0669
 4144SOL    HW124065   3.819   3.328   7.419  0.4764 -0.3417 -0.5000
 4144SOL    HW224066   3.713   3.388   7.503 -0.0899  0.5459 -0.1124
 4145SOL     OW24067   4.529   4.074   1.276  0.2049  0.0094  0.4577
 4145SOL    HW124068   4.611   4.121   1.290  1.4047 -2.3978  1.5772
 4145SOL    HW224069   4.547   4.006   1.341 -3.1839  0.4330  1.8485
 4146SOL     OW24070   3.788   1.527   2.751 -0.2019  0.6464  0.3578
 4146SOL    HW124071   3.845   1.530   2.674  0.8471 -3.5690  0.9801
 4146SOL    HW224072   3.719   1.479   2.705  0.5706  0.8512 -1.0145
 4147SOL     OW24073   1.208   3.012   8.313 -0.6232  0.6174  0.8599
 4147SOL    HW124074   1.126   2.993   8.359 -0.1733  3.6100  2.8234
 4147SOL    HW224075   1.267   2.945   8.347 -1.9886  0.2819  2.5868
 4148SOL     OW24076   2.147   0.416   1.967 -0.4150  0.6751  0.7282
 4148SOL    HW124077   2.169   0.447   1.879  2.8252 -1.4399  0.8004
 4148SOL    HW224078   2.194   0.479   2.022  0.3350  0.9404 -0.2139
 4149SOL     OW24079   3.845   4.402   9.239 -0.1065 -0.1196 -0.6844
 4149SOL    HW124080   3.774   4.435   9.184 -0.0446  1.4540  0.1736
 4149SOL    HW224081   3.805   4.393   9.325  2.8281 -0.9042  0.5811
 4150SOL     OW24082   0.439   1.337   6.681 -1.0227  0.3827  0.5135
 4150SOL    HW124083   0.413   1.319   6.772  0.7587 -1.2313  0.7273
 4150SOL    HW224084   0.390   1.266   6.639  1.3806 -0.4967 -0.8032
 4151SOL     OW24085   2.548   0.785  15.047  0.2636  0.4849  0.4650
 4151SOL    HW124086   2.459   0.781  15.011  0.3395 -0.9589  0.4401
 4151SOL    HW224087   2.581   0.711  14.997 -1.0599 -0.9997  1.7846
 4152SOL     OW24088   3.026   1.595   3.419 -0.8312 -0.4418  0.6866
 4152SOL    HW124089   2.933   1.585   3.396 -1.1233 -0.8972  2.0437
 4152SOL    HW224090   3.057   1.670   3.369  0.1596 -0.3679  1.4210
 4153SOL     OW24091   2.274   1.978   3.739  0.0854  0.0345 -0.5370
 4153SOL    HW124092   2.302   1.996   3.829  0.5960  0.5061 -0.7937
 4153SOL    HW224093   2.280   1.882   3.742  2.3625  0.1235 -2.1820
 4154SOL     OW24094   3.378   0.626   2.096  0.4477  0.1302 -0.3836
 4154SOL    HW124095   3.456   0.641   2.149 -0.1199 -1.9020  1.0271
 4154SOL    HW224096   3.325   0.574   2.156  2.0074  0.7104  1.5093
 4155SOL     OW24097   2.793   0.442   8.548  0.0423  0.0193 -0.8868
 4155SOL    HW124098   2.853   0.409   8.614  0.3218  2.3013 -0.0214
 4155SOL    HW224099   2.815   0.378   8.480  0.3529 -2.0374  1.1680
 4156SOL     OW24100   4.120   0.712   6.888 -0.3035  0.3794 -0.4206
 4156SOL    HW124101   4.104   0.626   6.849 -2.5969  0.9856 -0.8130
 4156SOL    HW224102   4.215   0.708   6.900 -0.1876  0.6463 -1.1960
 4157SOL     OW24103   2.913   1.711  11.403 -0.4294  0.4557 -0.1893
 4157SOL    HW124104   2.962   1.788  11.372  2.1472 -0.0311  2.7341
 4157SOL    HW224105   2.926   1.658  11.324 -0.6679  1.3231 -0.8190
 4158SOL     OW24106   1.384   2.869  14.341 -0.1749 -0.4610 -0.3799
 4158SOL    HW124107   1.302   2.867  14.391 -0.2952 -0.8048 -0.5947
 4158SOL    HW224108   1.339   2.875  14.257  0.2176  3.1251 -0.3371
 4159SOL     OW24109   3.036   3.651   0.602  0.0848 -0.0945 -0.7191
 4159SOL    HW124110   2.990   3.571   0.576  0.8497 -0.5045 -0.8168
 4159SOL    HW224111   2.961   3.709   0.611 -0.0523 -0.2848 -0.6357
 4160SOL     OW24112   1.581   3.052  14.396 -0.2104 -0.0420 -0.4476
 4160SOL    HW124113   1.541   3.135  14.373 -0.9610 -0.2051  0.2672
 4160SOL    HW224114   1.524   2.980  14.369  2.1317 -1.6981 -0.9801
 4161SOL     OW24115   4.343   4.461   3.425 -0.0044  0.1169 -0.4602
 4161SOL    HW124116   4.434   4.440   3.405  0.7031  2.4875  0.2549
 4161SOL    HW224117   4.319   4.498   3.340 -0.9725  1.1723  0.2873
 4162SOL     OW24118   3.710   1.599   7.989 -0.0854  0.0810 -0.2690
 4162SOL    HW124119   3.805   1.596   8.005 -0.1386  1.9938  0.3752
 4162SOL    HW224120   3.717   1.592   7.893  1.7011  2.2536 -0.3031
 4163SOL     OW24121   3.993   3.059  16.934  0.0452  0.0402 -0.3197
 4163SOL    HW124122   3.999   2.985  16.874  1.6270 -0.0590 -0.0394
 4163SOL    HW224123   4.080   3.098  16.923 -0.5202  1.5678  0.5816
 4164SOL     OW24124   2.798   2.155  12.197  0.0240  0.7478  0.0356
 4164SOL    HW124125   2.704   2.166  12.179 -0.2657  1.1051  1.8188
 4164SOL    HW224126   2.812   2.244  12.227 -0.7296  0.9215 -0.1131
 4165SOL     OW24127   1.698   4.623   4.774 -0.0656 -0.0790  0.3234
 4165SOL    HW124128   1.756   4.697   4.757 -2.2877  2.0734  2.1858
 4165SOL    HW224129   1.634   4.657   4.836 -0.2706 -3.3493  1.8646
 4166SOL     OW24130   4.414   4.573   3.894 -0.0533  0.0757  0.2502
 4166SOL    HW124131   4.358   4.550   3.819 -0.1571  0.5875  0.1637
 4166SOL    HW224132   4.458   4.651   3.860  2.1800 -1.2193  0.2311
 4167SOL     OW24133   0.940   4.326   6.968 -0.2203 -0.2698  0.2498
 4167SOL    HW124134   0.892   4.368   6.896  1.3120  0.4980 -0.3062
 4167SOL    HW224135   0.888   4.247   6.980 -0.6805  0.0327  0.2625
 4168SOL     OW24136   4.189   0.761   8.966  0.1045  0.1057 -0.0543
 4168SOL    HW124137   4.250   0.829   8.937  0.8905 -0.0516  1.2147
 4168SOL    HW224138   4.153   0.725   8.885  1.8011  0.1093 -0.8280
 4169SOL     OW24139   3.858   2.011   7.985  0.1952  0.2896  0.3122
 4169SOL    HW124140   3.934   2.054   8.025 -0.2891  1.2916  0.1579
 4169SOL    HW224141   3.842   2.066   7.909 -0.6617 -1.3411 -0.6947
 4170SOL     OW24142   3.954   1.348   7.517 -0.3327 -0.7382  0.3779
 4170SOL    HW124143   3.971   1.440   7.499 -0.3435 -0.7502  0.3060
 4170SOL    HW224144   3.875   1.361   7.569 -0.2874  1.0331 -0.0247
 4171SOL     OW24145   3.780   0.577   7.321  0.2143 -0.6410 -0.0679
 4171SOL    HW124146   3.730   0.516   7.374 -0.1150  1.3079  1.8719
 4171SOL    HW224147   3.866   0.535   7.317  0.2652 -0.2651 -2.9547
 4172SOL     OW24148   3.733   2.658   7.529  0.5746  0.2254 -0.4632
 4172SOL    HW124149   3.691   2.584   7.573 -1.4224  0.6546 -1.6738
 4172SOL    HW224150   3.655   2.713   7.532  0.1758 -0.3067 -1.1515
 4173SOL     OW24151   4.489   4.515   8.319  0.2292  0.3127  0.2459
 4173SOL    HW124152   4.512   4.435   8.271 -0.2423  0.9808 -1.0920
 4173SOL    HW224153   4.411   4.548   8.275  0.6185 -0.5436 -1.1005
 4174SOL     OW24154   0.714   0.056   5.970  0.6510 -0.3823  0.4157
 4174SOL    HW124155   0.736   0.132   6.023  0.0493  0.2992 -0.2975
 4174SOL    HW224156   0.781   4.727   5.984  1.4448  0.1237 -0.9828
 4175SOL     OW24157   3.044   1.346   5.002  0.3426 -0.0092 -0.6318
 4175SOL    HW124158   3.092   1.269   4.973  2.5402  1.1311  0.0387
 4175SOL    HW224159   3.100   1.415   4.968  1.9570 -1.8092 -1.6236
 4176SOL     OW24160   1.517   1.664  14.314  0.2601 -0.5687 -0.2916
 4176SOL    HW124161   1.571   1.672  14.393  1.0488 -0.6545 -0.8224
 4176SOL    HW224162   1.467   1.745  14.321 -2.2384 -1.9705 -1.8556
 4177SOL     OW24163   3.873   3.552  12.681  0.7089 -0.1124 -0.2518
 4177SOL    HW124164   3.878   3.612  12.755 -0.9710  0.3562 -0.5205
 4177SOL    HW224165   3.958   3.510  12.672  0.5621  0.0130 -2.2289
 4178SOL     OW24166   3.891   0.291   1.370 -0.1269  0.2820  0.3410
 4178SOL    HW124167   3.814   0.243   1.340 -0.5180  1.5800 -0.7154
 4178SOL    HW224168   3.903   0.365   1.311  0.6912 -1.5131 -1.7612
 4179SOL     OW24169   2.065   3.498   0.982  0.2021 -0.0650 -0.0837
 4179SOL    HW124170   2.018   3.487   1.065  1.3556  0.4655  0.6443
 4179SOL    HW224171   2.134   3.433   1.002  0.6411  0.9111  1.5970
 4180SOL     OW24172   2.835   1.040   9.051  0.5912 -0.1122 -0.0137
 4180SOL    HW124173   2.796   1.105   8.992 -2.2206 -0.6151  1.3171
 4180SOL    HW224174   2.825   0.967   8.990  1.0674  1.0277 -1.4800
 4181SOL     OW24175   0.301   1.658   1.179  0.3985  0.0272 -0.4569
 4181SOL    HW124176   0.224   1.712   1.200  0.3507  0.4411 -1.7269
 4181SOL    HW224177   0.334   1.707   1.104  1.8626 -0.9923 -0.4743
 4182SOL     OW24178   3.564   1.417   5.841 -0.1439  0.6890  0.3983
 4182SOL    HW124179   3.485   1.399   5.891  1.0280  1.0607  2.3654
 4182SOL    HW224180   3.542   1.376   5.757 -2.2803  1.9876  0.3244
 4183SOL     OW24181   2.192   0.716  10.642 -0.7136  0.0969 -0.3274
 4183SOL    HW124182   2.263   0.711  10.577 -1.8990 -1.1665 -1.5191
 4183SOL    HW224183   2.212   0.802  10.678  0.1845  0.1840 -1.0290
 4184SOL     OW24184   2.386   0.903   7.171  0.0963  0.2686 -0.0317
 4184SOL    HW124185   2.382   0.996   7.191  0.5802 -0.1274  1.8791
 4184SOL    HW224186   2.435   0.866   7.245  1.6073  1.8223 -0.2660
 4185SOL     OW24187   1.656   2.881  16.880 -0.6062  0.5035 -0.4135
 4185SOL    HW124188   1.710   2.873  16.801 -0.3100 -1.4263 -0.0175
 4185SOL    HW224189   1.594   2.953  16.869 -0.8793  0.6788  2.2228
 4186SOL     OW24190   0.192   2.242   8.142  0.7407 -0.0754 -0.3538
 4186SOL    HW124191   0.120   2.188   8.109 -0.4972  0.7444  0.9846
 4186SOL    HW224192   0.180   2.314   8.080  1.7826  1.2368  0.9729
 4187SOL     OW24193   3.734   2.908   6.381  0.0130 -0.9368  0.1363
 4187SOL    HW124194   3.781   2.885   6.301  0.3117 -1.9823  0.6177
 4187SOL    HW224195   3.650   2.864   6.369 -1.4992  1.3808  2.2342
 4188SOL     OW24196   1.298   4.372   5.743 -0.7977  0.2071 -0.2366
 4188SOL    HW124197   1.284   4.459   5.779  2.2885  0.6119  0.0442
 4188SOL    HW224198   1.293   4.326   5.826  0.4440 -2.6791 -1.7513
 4189SOL     OW24199   3.040   3.258   1.730  0.2400  0.3009  0.6503
 4189SOL    HW124200   3.124   3.253   1.683  0.0369  1.9234  0.1327
 4189SOL    HW224201   3.050   3.344   1.770 -1.6885 -0.1791  2.1188
 4190SOL     OW24202   3.408   4.016   1.527  0.0046 -0.3681 -0.1838
 4190SOL    HW124203   3.371   4.062   1.451  2.1778  0.2166 -0.8831
 4190SOL    HW224204   3.412   3.930   1.484 -1.0962  0.3330 -1.6727
 4191SOL     OW24205   2.333   1.182   7.241  0.1882  0.3579 -0.3047
 4191SOL    HW124206   2.382   1.233   7.306  1.8349 -0.8971 -0.5451
 4191SOL    HW224207   2.345   1.242   7.167  0.9946 -0.1976 -0.6355
 4192SOL     OW24208   2.960   4.355   7.069  0.4381  1.2541 -0.6158
 4192SOL    HW124209   2.884   4.301   7.094  1.0553 -0.3203 -2.1183
 4192SOL    HW224210   2.967   4.321   6.979  2.4040  1.7629 -0.6497
 4193SOL     OW24211   3.977   3.139   5.269  0.0584 -0.2331  0.1192
 4193SOL    HW124212   4.072   3.139   5.256  0.1405 -0.0653  0.7138
 4193SOL    HW224213   3.950   3.087   5.192  0.0020 -1.8007  1.2005
 4194SOL     OW24214   1.481   0.857  16.420  0.2619 -0.5277  0.0873
 4194SOL    HW124215   1.538   0.916  16.468 -0.7697  0.2875  0.3113
 4194SOL    HW224216   1.468   0.788  16.485 -1.1328 -1.6159 -1.3253
 4195SOL     OW24217   0.273   0.822  15.183  0.2670  0.5633 -0.5809
 4195SOL    HW124218   0.209   0.889  15.207  0.1942 -0.3200  1.6877
 4195SOL    HW224219   0.341   0.859  15.239 -0.7120  0.4137  0.6907
 4196SOL     OW24220   3.910   3.420   2.959 -0.4460  0.1940  0.4979
 4196SOL    HW124221   3.893   3.345   3.017 -1.8733  0.2715  0.1692
 4196SOL    HW224222   3.835   3.478   2.975  0.1319  1.2379 -0.6197
 4197SOL     OW24223   1.224   0.652   6.639  0.2910 -0.1689 -0.1425
 4197SOL    HW124224   1.199   0.737   6.602 -1.9439 -0.2207  1.2739
 4197SOL    HW224225   1.302   0.660   6.695 -0.3348 -1.2294  0.8820
 4198SOL     OW24226   4.250   2.664  12.882 -0.7899  0.3523 -0.2607
 4198SOL    HW124227   4.268   2.664  12.976 -0.8204  3.0439 -0.2713
 4198SOL    HW224228   4.334   2.681  12.839 -1.8530  0.0759 -2.4484
 4199SOL     OW24229   2.722   3.889   3.561 -0.4225 -0.3575  0.0197
 4199SOL    HW124230   2.769   3.972   3.553 -0.0405 -0.7600 -1.7983
 4199SOL    HW224231   2.680   3.908   3.645  0.2108  0.0467  0.2427
 4200SOL     OW24232   4.212   1.876   4.365 -1.0732  0.0209 -0.1514
 4200SOL    HW124233   4.234   1.960   4.323  0.4671 -0.0922  0.4382
 4200SOL    HW224234   4.235   1.900   4.454  0.2369 -0.4546 -0.3511
 4201SOL     OW24235   0.532   1.681   6.306  0.2712  0.3139 -0.1396
 4201SOL    HW124236   0.519   1.776   6.305 -0.2432  0.2529  1.3202
 4201SOL    HW224237   0.623   1.666   6.331 -0.2530 -1.5691  0.6045
 4202SOL     OW24238   3.837   1.111   2.785 -0.0338  0.7487 -0.1928
 4202SOL    HW124239   3.844   1.017   2.772 -2.8079  0.2853  1.8068
 4202SOL    HW224240   3.854   1.143   2.697  3.3287  2.5832  1.0877
 4203SOL     OW24241   0.523   4.398   3.225  0.0521  0.1369 -0.0989
 4203SOL    HW124242   0.591   4.433   3.282 -0.5976  0.3223  0.5740
 4203SOL    HW224243   0.453   4.370   3.285  0.2151 -2.6967 -1.2603
 4204SOL     OW24244   3.722   3.531   8.606  0.2561 -0.4730 -0.2020
 4204SOL    HW124245   3.679   3.462   8.656 -0.7552  0.6469  0.4883
 4204SOL    HW224246   3.773   3.563   8.681  1.8903  0.0328 -1.5194
 4205SOL     OW24247   1.224   3.799  13.759 -0.4734 -0.4995 -0.2395
 4205SOL    HW124248   1.208   3.719  13.810 -1.0365 -0.3545 -0.1897
 4205SOL    HW224249   1.309   3.824  13.795  0.0756 -1.7618 -0.6789
 4206SOL     OW24250   3.617   1.979   3.648  0.6707  0.6008  0.0112
 4206SOL    HW124251   3.645   2.052   3.704  1.3946 -0.0264  0.4563
 4206SOL    HW224252   3.523   1.989   3.666  0.5588  0.4936 -0.5167
 4207SOL     OW24253   3.978   2.046   3.015  0.3904  0.4711  0.1171
 4207SOL    HW124254   4.000   1.988   3.087 -0.4732  0.8684  0.6990
 4207SOL    HW224255   3.904   2.005   2.971  1.8612  0.4145 -2.3159
 4208SOL     OW24256   4.465   4.588  13.888 -0.3764 -0.0640 -0.2353
 4208SOL    HW124257   4.454   4.677  13.919 -0.4308 -0.2119  0.1628
 4208SOL    HW224258   4.452   4.598  13.793  3.7837  1.1574 -0.6488
 4209SOL     OW24259   4.440   1.798   0.184  0.2091  0.3848 -0.2212
 4209SOL    HW124260   4.473   1.728   0.128  3.3660  0.1803  1.8900
 4209SOL    HW224261   4.345   1.800   0.176  0.2513 -0.0085 -0.8124
 4210SOL     OW24262   3.919   4.077   9.383  0.1665  0.9267  0.0499
 4210SOL    HW124263   4.004   4.093   9.425  1.1199  1.6308 -2.1332
 4210SOL    HW224264   3.858   4.073   9.456  0.1908  2.0423  0.1323
 4211SOL     OW24265   3.120   0.863   7.908 -0.1536 -0.1001 -0.2490
 4211SOL    HW124266   3.204   0.910   7.907  0.9954 -2.1949 -0.8095
 4211SOL    HW224267   3.136   0.807   7.984  0.6421 -1.4890 -1.4396
 4212SOL     OW24268   0.833   0.175   3.073  0.0212 -0.0012  0.5410
 4212SOL    HW124269   0.752   0.219   3.047  0.6007  0.8887  0.2256
 4212SOL    HW224270   0.865   0.216   3.153 -1.6181  3.1107 -0.3804
 4213SOL     OW24271   0.458   2.353   9.545 -0.2822  0.4415  0.4325
 4213SOL    HW124272   0.390   2.287   9.559 -1.1014  0.9814 -0.9651
 4213SOL    HW224273   0.432   2.417   9.612  0.9627 -0.9739  2.2585
 4214SOL     OW24274   4.205   4.336   8.113  0.7643 -0.1066 -0.6981
 4214SOL    HW124275   4.250   4.309   8.033  0.4392 -0.1871 -0.8520
 4214SOL    HW224276   4.270   4.393   8.154  1.2323 -0.4447 -0.9804
 4215SOL     OW24277   0.898   2.047   8.113 -0.6069 -0.2466  0.2558
 4215SOL    HW124278   0.820   1.990   8.115 -1.6338  1.1994  1.5099
 4215SOL    HW224279   0.850   2.124   8.083 -0.0405 -0.9961 -2.5364
 4216SOL     OW24280   3.556   2.482   6.526 -0.1180  0.3359  0.2056
 4216SOL    HW124281   3.480   2.426   6.511 -0.3410  0.5177  0.6547
 4216SOL    HW224282   3.604   2.460   6.446 -1.7314 -1.9872 -0.1050
 4217SOL     OW24283   0.940   4.660  13.876  0.3880 -0.4719 -0.0073
 4217SOL    HW124284   0.880   4.730  13.903  0.4900  0.3689 -1.9415
 4217SOL    HW224285   0.903   4.605  13.807  0.6760 -1.9784  1.0541
 4218SOL     OW24286   3.441   2.599   7.345 -0.1925 -0.2049  0.1627
 4218SOL    HW124287   3.447   2.648   7.427 -2.5266 -1.7383  1.2489
 4218SOL    HW224288   3.392   2.524   7.379 -2.0776  0.1745 -1.7265
 4219SOL     OW24289   1.619   0.822  13.248  0.0635  0.0751  0.2156
 4219SOL    HW124290   1.598   0.740  13.293  3.2303 -1.3171 -0.8561
 4219SOL    HW224291   1.647   0.794  13.161 -0.2901 -0.8585  0.4001
 4220SOL     OW24292   1.019   4.535   7.698 -0.4976  0.2601  0.1484
 4220SOL    HW124293   1.093   4.596   7.701  0.1621 -0.6060  1.8351
 4220SOL    HW224294   1.020   4.510   7.791  0.4416 -1.7137 -0.3859
 4221SOL     OW24295   3.159   0.311   6.946  0.3651  0.1201  0.4948
 4221SOL    HW124296   3.150   0.393   6.993 -0.5776  0.4716 -0.3046
 4221SOL    HW224297   3.225   0.261   6.994 -0.7758 -1.3286  0.5796
 4222SOL     OW24298   2.969   1.687  11.675 -0.1377 -0.5217 -0.0636
 4222SOL    HW124299   2.959   1.669  11.581 -2.7353  1.1407 -0.0992
 4222SOL    HW224300   2.930   1.773  11.690 -0.0301 -0.6167  0.7333
 4223SOL     OW24301   0.901   3.047   0.047 -0.2898  0.8932 -0.3408
 4223SOL    HW124302   0.932   3.100   0.120  0.1738 -1.2092  0.9991
 4223SOL    HW224303   0.823   3.004   0.083 -1.4756  2.1284 -1.4586
 4224SOL     OW24304   0.899   1.717   4.130  0.2668 -0.3089  0.6378
 4224SOL    HW124305   0.975   1.743   4.078 -0.3645 -1.0331 -0.6288
 4224SOL    HW224306   0.937   1.651   4.188  2.0207  0.5603  0.4711
 4225SOL     OW24307   1.901   1.919   5.173 -0.0771  0.3003 -0.6222
 4225SOL    HW124308   1.854   1.969   5.239 -0.0100  0.9245 -1.0488
 4225SOL    HW224309   1.985   1.922   5.219 -0.0117 -1.1976 -0.6368
 4226SOL     OW24310   0.814   3.671   8.627  0.1448  0.2570 -0.3740
 4226SOL    HW124311   0.845   3.760   8.640 -2.0658  0.7266  1.7485
 4226SOL    HW224312   0.773   3.661   8.713 -2.7009  3.5638 -1.3763
 4227SOL     OW24313   0.721   2.209  12.576  0.5934  0.1238 -0.0050
 4227SOL    HW124314   0.782   2.283  12.572 -1.0337  1.3127 -2.9055
 4227SOL    HW224315   0.739   2.168  12.492  1.9046 -2.3477  1.5100
 4228SOL     OW24316   1.297   0.227   6.728  0.2182  0.1644  0.5788
 4228SOL    HW124317   1.298   0.322   6.741 -0.9289  0.5197 -1.9762
 4228SOL    HW224318   1.236   0.200   6.797 -0.5699 -0.4420 -0.3515
 4229SOL     OW24319   2.081   2.647   4.338 -0.4046 -0.6194 -0.4258
 4229SOL    HW124320   2.093   2.720   4.277 -0.2454 -0.2769  0.0195
 4229SOL    HW224321   2.148   2.588   4.303 -0.2117 -0.6421 -0.0099
 4230SOL     OW24322   0.837   1.749   0.868 -0.3532 -0.6050  0.2310
 4230SOL    HW124323   0.793   1.802   0.801  0.1328 -0.2570  0.1835
 4230SOL    HW224324   0.908   1.709   0.818  0.6982 -1.0523  2.0910
 4231SOL     OW24325   4.346   1.922   5.395  0.2729 -0.1655  0.1137
 4231SOL    HW124326   4.278   1.939   5.460 -0.5901  1.1825 -1.1403
 4231SOL    HW224327   4.383   2.010   5.394  0.0079 -0.0379  1.0369
 4232SOL     OW24328   4.663   1.996   8.802 -0.4886  0.3247  0.0952
 4232SOL    HW124329   4.697   1.975   8.889  0.0879 -0.9539 -0.4483
 4232SOL    HW224330   4.658   1.913   8.755  0.3060  1.1057 -1.4049
 4233SOL     OW24331   3.399   3.266   7.274 -0.5707 -0.0879  0.2249
 4233SOL    HW124332   3.480   3.221   7.297  1.3035  1.6711 -2.9196
 4233SOL    HW224333   3.336   3.198   7.250 -0.2614 -0.4903  0.5480
 4234SOL     OW24334   0.393   0.675   5.571  0.1912  0.1178 -0.0423
 4234SOL    HW124335   0.464   0.630   5.525  1.1649  0.7188  0.8810
 4234SOL    HW224336   0.392   0.643   5.660  3.7371 -1.1839 -0.4761
 4235SOL     OW24337   1.882   3.908   1.120  0.1879 -0.1704 -0.0599
 4235SOL    HW124338   1.818   3.838   1.113 -0.5565  0.4714  0.3359
 4235SOL    HW224339   1.904   3.886   1.210 -0.3292 -1.5576 -0.2793
 4236SOL     OW24340   2.452   4.552   8.237  0.0812  0.1637  0.6038
 4236SOL    HW124341   2.482   4.461   8.224  1.3113  1.0436 -2.5296
 4236SOL    HW224342   2.379   4.557   8.176  1.1164  0.2308 -0.6330
 4237SOL     OW24343   3.530   3.841   8.032  0.6564  0.5399 -0.2951
 4237SOL    HW124344   3.459   3.778   8.016 -1.0710  1.7320  2.6313
 4237SOL    HW224345   3.531   3.894   7.953  1.1139 -0.9236 -1.2703
 4238SOL     OW24346   1.325   3.595  10.348  0.0822  0.2662  0.3653
 4238SOL    HW124347   1.288   3.536  10.414 -2.1760  0.6835 -0.5228
 4238SOL    HW224348   1.244   3.624  10.307  1.2108  0.6322 -1.5954
 4239SOL     OW24349   2.587   0.381  13.919  0.1119 -0.1730 -0.0031
 4239SOL    HW124350   2.679   0.386  13.895 -0.0707 -0.0907 -0.6811
 4239SOL    HW224351   2.547   0.389  13.833 -1.7555 -1.3435  0.7362
 4240SOL     OW24352   4.018   0.057   5.087  0.1087  0.7353 -0.2425
 4240SOL    HW124353   4.030   4.735   5.162  0.2756  0.1558 -0.7257
 4240SOL    HW224354   3.930   0.033   5.058  0.1919  0.6350 -0.4083
 4241SOL     OW24355   2.563   2.623   1.617  0.3783 -0.4362 -0.0696
 4241SOL    HW124356   2.590   2.685   1.548 -1.9074  1.4386  0.7414
 4241SOL    HW224357   2.617   2.662   1.686 -1.6541  2.3514 -0.0394
 4242SOL     OW24358   1.718   4.460   8.531 -0.4852 -0.4024  0.2063
 4242SOL    HW124359   1.765   4.379   8.510 -2.1575 -1.4309  0.4420
 4242SOL    HW224360   1.689   4.487   8.444 -2.0043  0.7833  1.0925
 4243SOL     OW24361   1.120   2.916   4.431  0.6509  0.2753  0.2385
 4243SOL    HW124362   1.074   2.880   4.507  0.8424  2.0840  1.2151
 4243SOL    HW224363   1.052   2.973   4.395  1.5878  2.1371  1.4341
 4244SOL     OW24364   3.800   0.573  15.524 -0.2311 -0.1079 -0.0125
 4244SOL    HW124365   3.847   0.643  15.477  0.5760 -0.7554 -0.1623
 4244SOL    HW224366   3.866   0.553  15.590 -1.3223  1.6539  1.6331
 4245SOL     OW24367   2.240   3.889   9.242 -0.2419 -0.2526 -0.0706
 4245SOL    HW124368   2.199   3.805   9.261  3.4987 -2.0452  0.0902
 4245SOL    HW224369   2.230   3.893   9.146  1.1447  0.5712 -0.1805
 4246SOL     OW24370   3.976   0.407   2.903  0.9432 -0.3093  0.3827
 4246SOL    HW124371   4.022   0.381   2.823  3.2276 -0.8107  1.8482
 4246SOL    HW224372   3.889   0.373   2.882  0.0882  0.6624  2.3758
 4247SOL     OW24373   4.076   1.899   3.227 -0.6528  0.0042 -0.1488
 4247SOL    HW124374   4.157   1.857   3.255  0.9361  2.2253 -1.3720
 4247SOL    HW224375   4.033   1.822   3.190 -2.2714  1.5409 -1.4701
 4248SOL     OW24376   2.646   0.597  16.629  0.0488  0.0459  0.1450
 4248SOL    HW124377   2.583   0.609  16.559  0.7074  0.2227 -0.4121
 4248SOL    HW224378   2.732   0.616  16.592  0.4352 -1.7955  0.0685
 4249SOL     OW24379   2.933   4.585   8.270 -0.1437  0.4633 -0.4585
 4249SOL    HW124380   2.992   4.556   8.201 -0.3528  1.4857 -1.0672
 4249SOL    HW224381   2.955   4.677   8.282 -2.6597  1.2580 -1.9250
 4250SOL     OW24382   1.124   3.852   4.664 -0.2971  0.3119 -0.5475
 4250SOL    HW124383   1.087   3.900   4.737 -0.2062  1.9697 -1.6066
 4250SOL    HW224384   1.047   3.821   4.616 -0.6880 -2.4806  1.8978
 4251SOL     OW24385   1.030   2.791   9.896 -0.0924  0.7675  0.4456
 4251SOL    HW124386   1.015   2.699   9.920 -2.4913  1.0247 -0.1131
 4251SOL    HW224387   1.121   2.803   9.922 -0.2536 -0.5025  1.5986
 4252SOL     OW24388   2.874   3.757  13.263 -0.0602  0.4538 -0.4712
 4252SOL    HW124389   2.914   3.744  13.177  2.0515 -3.6248  1.1385
 4252SOL    HW224390   2.948   3.732  13.319 -1.1033 -1.3691  0.0859
 4253SOL     OW24391   2.296   1.916   8.924  0.1611  0.1876 -0.1670
 4253SOL    HW124392   2.292   1.821   8.915 -0.4406  0.0672  1.3028
 4253SOL    HW224393   2.387   1.932   8.900  0.8222 -1.4600  1.2290
 4254SOL     OW24394   3.815   0.028   9.143  0.1634  0.5595  0.8339
 4254SOL    HW124395   3.902   0.050   9.108  0.3167 -3.0038 -1.0010
 4254SOL    HW224396   3.838   0.004   9.233 -1.5284  1.2276  1.4404
 4255SOL     OW24397   0.528   3.715   5.781  0.4667  0.4677  0.1752
 4255SOL    HW124398   0.550   3.634   5.827 -1.3858 -0.2960 -0.3070
 4255SOL    HW224399   0.567   3.699   5.695 -1.3701  0.9307 -0.7469
 4256SOL     OW24400   1.465   2.210   5.775 -0.0198  0.8772  0.1539
 4256SOL    HW124401   1.530   2.179   5.838 -0.3002  2.5819  1.2743
 4256SOL    HW224402   1.415   2.271   5.828 -1.7451 -1.3908  1.1036
 4257SOL     OW24403   4.486   1.966   6.083  0.0236 -0.8621 -0.1704
 4257SOL    HW124404   4.513   1.948   5.993  0.0297  0.0617 -0.3569
 4257SOL    HW224405   4.480   1.877   6.116 -1.3987 -0.3804  0.8746
 4258SOL     OW24406   4.320   0.767  11.916 -0.0213  0.2871 -0.0555
 4258SOL    HW124407   4.295   0.859  11.920 -0.7343  0.1484 -1.2496
 4258SOL    HW224408   4.255   0.738  11.852  0.2973 -1.3821  0.3784
 4259SOL     OW24409   3.837   1.737  15.951 -0.2668 -0.0866  0.1959
 4259SOL    HW124410   3.784   1.760  15.875 -0.5615 -0.9961  0.1247
 4259SOL    HW224411   3.924   1.718  15.917 -0.7055  0.6438 -1.3654
 4260SOL     OW24412   2.686   0.165   9.251 -0.1998  0.6085  0.3431
 4260SOL    HW124413   2.602   0.170   9.296 -0.7665  0.0831 -0.6817
 4260SOL    HW224414   2.660   0.200   9.166  0.4362  0.0181 -0.0975
 4261SOL     OW24415   2.166   4.685   0.999  0.1999 -0.3879 -0.0231
 4261SOL    HW124416   2.245   4.638   0.974  0.2642  0.5625 -1.6045
 4261SOL    HW224417   2.196   4.684   1.090  0.1577 -2.2126 -0.0311
 4262SOL     OW24418   0.284   1.924   8.889 -0.1055 -0.1109 -0.7166
 4262SOL    HW124419   0.284   1.967   8.803 -1.2007  0.7830 -0.2685
 4262SOL    HW224420   0.374   1.890   8.888  0.2298  0.8261 -2.6070
 4263SOL     OW24421   1.222   4.191   4.731 -0.1946 -0.0663 -0.4110
 4263SOL    HW124422   1.308   4.231   4.713 -0.1391 -0.3518 -0.7956
 4263SOL    HW224423   1.247   4.111   4.778  1.0414  0.3631 -0.3292
 4264SOL     OW24424   0.465   0.697   3.411 -0.2330 -0.3617  0.4895
 4264SOL    HW124425   0.435   0.787   3.424 -2.2668 -0.9539 -0.1113
 4264SOL    HW224426   0.560   0.711   3.417 -0.0950 -0.8576 -0.5834
 4265SOL     OW24427   0.415   1.034   1.579  0.3157 -0.4526  0.2052
 4265SOL    HW124428   0.344   1.084   1.621 -0.3697 -1.2334 -0.0118
 4265SOL    HW224429   0.437   1.090   1.505 -1.4780 -1.6627 -1.2445
 4266SOL     OW24430   2.220   2.442   5.784  0.8844 -0.4106  0.1914
 4266SOL    HW124431   2.283   2.465   5.716  0.2397 -1.6951 -0.8387
 4266SOL    HW224432   2.208   2.529   5.822 -1.2207 -0.1301 -1.1339
 4267SOL     OW24433   3.438   2.745   1.573  0.3000  0.2272  0.5826
 4267SOL    HW124434   3.360   2.788   1.607  0.1787 -0.4543  1.1789
 4267SOL    HW224435   3.452   2.807   1.501 -1.4613 -0.1571 -0.0777
 4268SOL     OW24436   3.039   1.237   7.320 -0.1850  0.6711  0.0351
 4268SOL    HW124437   2.990   1.315   7.346  0.7578  2.1806 -2.6381
 4268SOL    HW224438   3.129   1.270   7.308  0.4335 -0.5284  1.4835
 4269SOL     OW24439   2.125   3.684   2.929  0.2542  0.1024  0.1504
 4269SOL    HW124440   2.146   3.759   2.874  0.6877 -1.1616 -1.4056
 4269SOL    HW224441   2.160   3.716   3.012 -0.3478  0.0992  0.4117
 4270SOL     OW24442   1.032   2.602   6.459  0.3821 -0.7230  0.7199
 4270SOL    HW124443   1.053   2.586   6.551  2.4098 -1.4383  0.1205
 4270SOL    HW224444   0.991   2.519   6.435 -0.1965 -0.0620 -0.5492
 4271SOL     OW24445   2.108   4.713  11.096 -0.3842 -0.2313  0.0288
 4271SOL    HW124446   2.183   0.035  11.106  0.6563 -1.5914  0.0499
 4271SOL    HW224447   2.065   4.724  11.181 -0.4781  2.5014 -0.3557
 4272SOL     OW24448   3.889   3.953   2.070 -0.9217 -0.5310  0.0006
 4272SOL    HW124449   3.966   3.939   2.125 -0.0785 -0.1822 -1.0940
 4272SOL    HW224450   3.851   4.038   2.090  0.8400 -0.5194  3.2673
 4273SOL     OW24451   2.456   2.377   8.252 -0.2669  0.3911  0.2484
 4273SOL    HW124452   2.537   2.328   8.256 -1.3927 -1.6149 -1.6406
 4273SOL    HW224453   2.456   2.410   8.162  0.6904  0.1023  0.1432
 4274SOL     OW24454   1.731   0.188   4.713  0.6228 -0.2630  0.0758
 4274SOL    HW124455   1.638   0.175   4.727  0.4119 -0.2276 -1.3380
 4274SOL    HW224456   1.739   0.158   4.623  0.1814 -0.8922  0.2474
 4275SOL     OW24457   0.141   3.451  13.511  0.2909 -0.5233 -0.2905
 4275SOL    HW124458   0.048   3.441  13.534  0.9436  0.5717  2.7253
 4275SOL    HW224459   0.168   3.367  13.475 -1.1887 -1.5794  1.0720
 4276SOL     OW24460   2.733   0.266   5.170 -0.0115 -0.1934  0.6674
 4276SOL    HW124461   2.718   0.352   5.130 -1.2258 -0.0656  1.4177
 4276SOL    HW224462   2.652   0.222   5.147 -0.5065  0.6978  0.7052
 4277SOL     OW24463   2.868   0.254  10.276 -0.2502  0.1407 -0.5280
 4277SOL    HW124464   2.954   0.290  10.300  0.6512 -1.5008 -1.3517
 4277SOL    HW224465   2.870   0.263  10.181 -0.0717  1.0228 -0.4420
 4278SOL     OW24466   1.543   0.889   0.390 -0.0296 -0.2187  0.2365
 4278SOL    HW124467   1.557   0.931   0.475 -0.6667 -1.3858  0.9107
 4278SOL    HW224468   1.621   0.835   0.373 -0.4435 -0.3378 -1.2669
 4279SOL     OW24469   4.249   2.534   3.469 -0.0198 -0.3493  0.0896
 4279SOL    HW124470   4.317   2.470   3.491  0.6478  0.5970  0.7779
 4279SOL    HW224471   4.173   2.479   3.485 -1.1940  1.2052 -0.1347
 4280SOL     OW24472   0.274   0.201   5.872  0.0988  0.6059  0.1966
 4280SOL    HW124473   0.313   0.281   5.908  0.8230  0.0242  0.7226
 4280SOL    HW224474   0.293   0.132   5.937  4.4048 -0.2542 -1.9562
 4281SOL     OW24475   3.021   2.819   7.753  0.0210 -0.9036  0.0459
 4281SOL    HW124476   2.962   2.781   7.688  0.7411  0.7397 -1.5690
 4281SOL    HW224477   3.028   2.740   7.807  2.4491  0.5285  1.8352
 4282SOL     OW24478   2.432   2.982   5.634  0.0272 -0.5709  0.5958
 4282SOL    HW124479   2.440   2.907   5.575  1.4435 -0.2516  0.3761
 4282SOL    HW224480   2.467   2.947   5.716  2.5128 -1.2993 -0.7683
 4283SOL     OW24481   2.733   1.330   2.345  0.0272 -0.7843 -0.8356
 4283SOL    HW124482   2.720   1.424   2.356  0.0516 -0.6920 -1.5999
 4283SOL    HW224483   2.661   1.319   2.283  0.0354  1.8649 -1.3138
 4284SOL     OW24484   1.663   3.317   4.402 -0.4599  0.0736  0.3900
 4284SOL    HW124485   1.581   3.269   4.403 -0.7303  0.4868 -2.5898
 4284SOL    HW224486   1.633   3.400   4.367 -2.2961 -1.1505 -0.8911
 4285SOL     OW24487   2.612   0.155   3.696 -0.7202 -0.2923 -0.2212
 4285SOL    HW124488   2.563   0.087   3.649 -1.3920 -0.5024  0.7692
 4285SOL    HW224489   2.589   0.229   3.640  0.9196 -0.3176 -0.9151
 4286SOL     OW24490   4.207   3.209   8.473 -0.6401  0.8258 -0.3798
 4286SOL    HW124491   4.120   3.223   8.435 -0.7616  0.9035 -0.0724
 4286SOL    HW224492   4.257   3.174   8.399 -0.0087  2.4534 -0.7272
 4287SOL     OW24493   1.809   1.924  11.643  0.0216  0.0820  0.5468
 4287SOL    HW124494   1.767   1.841  11.666  0.8591 -1.0497 -1.9719
 4287SOL    HW224495   1.833   1.951  11.731  2.5707  1.8774 -0.6826
 4288SOL     OW24496   4.703   1.555   3.455 -0.7483 -0.2541 -0.0617
 4288SOL    HW124497   4.629   1.505   3.491 -0.5434 -1.3482 -1.1764
 4288SOL    HW224498   0.028   1.569   3.527  0.1984  0.0961 -0.9496
 4289SOL     OW24499   3.701   3.807   7.117 -0.0177 -0.1391  0.3782
 4289SOL    HW124500   3.748   3.733   7.153  1.5504  1.1528  1.0060
 4289SOL    HW224501   3.613   3.787   7.149 -0.5485  0.7326 -0.5172
 4290SOL     OW24502   2.610   3.136   9.565  0.3763 -0.1268 -0.2270
 4290SOL    HW124503   2.678   3.148   9.499  0.1338 -2.9571 -0.9861
 4290SOL    HW224504   2.663   3.082   9.624 -0.0527  0.5735  0.7941
 4291SOL     OW24505   3.597   0.265  11.205 -0.2147 -0.3539 -0.1111
 4291SOL    HW124506   3.511   0.265  11.163  0.0172  0.3140 -0.5786
 4291SOL    HW224507   3.577   0.271  11.299 -0.0609 -0.3445 -0.0790
 4292SOL     OW24508   0.820   3.530   4.427 -0.0275 -0.6202  0.1950
 4292SOL    HW124509   0.803   3.623   4.441  2.6035 -0.1987  0.5186
 4292SOL    HW224510   0.870   3.525   4.346 -1.9245  1.7827 -1.1253
 4293SOL     OW24511   4.609   1.783   6.771 -0.4397  0.0243 -0.6233
 4293SOL    HW124512   4.576   1.699   6.739  2.4110 -0.6323 -1.8277
 4293SOL    HW224513   4.699   1.777   6.738 -0.5442 -0.8677 -0.7535
 4294SOL     OW24514   3.128   1.408  15.946 -0.5971  0.3853  0.2397
 4294SOL    HW124515   3.219   1.400  15.974 -0.9512 -3.1550  0.3476
 4294SOL    HW224516   3.098   1.485  15.995 -3.4372 -1.7988  1.9454
 4295SOL     OW24517   0.562   1.314   7.440 -0.3024  0.3731 -0.1951
 4295SOL    HW124518   0.517   1.388   7.399  0.8517  0.2414 -1.7028
 4295SOL    HW224519   0.626   1.306   7.369 -0.8061  1.6720 -0.7982
 4296SOL     OW24520   1.100   4.676   8.677  0.2088 -0.0768 -0.2720
 4296SOL    HW124521   1.064   0.009   8.732 -0.3851 -1.0040  0.5230
 4296SOL    HW224522   1.188   4.666   8.715  0.1971  1.7390  0.2453
 4297SOL     OW24523   2.720   3.264   0.560 -0.0657  0.0881 -0.6009
 4297SOL    HW124524   2.653   3.291   0.623 -0.4293 -1.0798 -0.4761
 4297SOL    HW224525   2.766   3.345   0.536  0.8137 -0.0078  0.7356
 4298SOL     OW24526   3.550   0.658  11.434  0.1322 -0.0598 -0.0542
 4298SOL    HW124527   3.539   0.731  11.494 -0.7173  1.6750 -2.3322
 4298SOL    HW224528   3.508   0.588  11.483 -0.9121  1.3527  1.0604
 4299SOL     OW24529   2.955   3.354   2.992 -0.4374 -0.1278  1.0065
 4299SOL    HW124530   3.012   3.283   2.962  0.4501  1.0378 -0.0901
 4299SOL    HW224531   3.017   3.398   3.051  1.0890 -0.6275 -0.2322
 4300SOL     OW24532   2.507   3.006  12.514 -0.5001 -0.6172  0.6507
 4300SOL    HW124533   2.570   3.010  12.442 -1.6309 -2.7955 -0.4819
 4300SOL    HW224534   2.560   2.949  12.569  2.0319  0.1760 -0.9845
 4301SOL     OW24535   1.858   4.701   3.217  0.3050  0.4108  0.0764
 4301SOL    HW124536   1.835   0.053   3.190  1.2429  0.6757  0.1420
 4301SOL    HW224537   1.826   4.694   3.306  1.0685  0.1424  0.3296
 4302SOL     OW24538   3.480   3.620   9.593  0.2367  0.4740  0.1384
 4302SOL    HW124539   3.507   3.708   9.620 -1.9609  1.5113 -1.0258
 4302SOL    HW224540   3.438   3.588   9.672  0.3524 -0.5355 -0.2043
 4303SOL     OW24541   2.081   0.178   8.047  0.2392  0.1718  0.1409
 4303SOL    HW124542   2.156   0.222   8.088  2.1048 -1.7426 -1.2657
 4303SOL    HW224543   2.047   0.252   7.997 -0.4699  0.5812  1.2254
 4304SOL     OW24544   4.316   2.234  14.873 -0.5372  0.2777 -0.2062
 4304SOL    HW124545   4.410   2.247  14.856 -0.8238  2.4986 -0.0333
 4304SOL    HW224546   4.289   2.218  14.783 -0.6692  0.7023 -0.2423
 4305SOL     OW24547   2.001   0.596   4.409  0.3675 -0.2929  0.2431
 4305SOL    HW124548   2.063   0.558   4.347  0.2725  1.6569 -1.0378
 4305SOL    HW224549   1.934   0.528   4.397  0.8896 -0.5026 -1.3983
 4306SOL     OW24550   3.456   1.376   5.251  0.3774 -0.6161  0.0377
 4306SOL    HW124551   3.363   1.352   5.261  0.1341  0.7071  1.0321
 4306SOL    HW224552   3.489   1.299   5.204 -0.0863 -0.2605 -0.8743
 4307SOL     OW24553   1.620   1.284   7.582  0.1118 -0.3489 -0.0938
 4307SOL    HW124554   1.706   1.278   7.542  0.9893 -1.2637  1.9466
 4307SOL    HW224555   1.576   1.217   7.530  2.2925 -0.1848 -2.1356
 4308SOL     OW24556   1.290   0.408   6.114  0.4524 -0.4773  0.0031
 4308SOL    HW124557   1.254   0.492   6.084 -0.9783 -1.1871 -0.2751
 4308SOL    HW224558   1.218   0.348   6.096  0.6186 -0.8795  0.7172
 4309SOL     OW24559   0.618   0.413   6.647 -0.2325 -0.0077  0.0201
 4309SOL    HW124560   0.689   0.401   6.583  1.3043  2.9398  1.1783
 4309SOL    HW224561   0.623   0.509   6.646  2.3318 -0.1547 -1.9747
 4310SOL     OW24562   0.591   2.412   1.061 -0.3849  0.3991  0.5834
 4310SOL    HW124563   0.496   2.421   1.062 -0.6102 -1.9087  0.4387
 4310SOL    HW224564   0.589   2.318   1.081  2.6619 -0.1778 -1.7959
 4311SOL     OW24565   2.639   1.530   6.880  0.0116  0.3010 -0.1030
 4311SOL    HW124566   2.623   1.589   6.806  0.1097 -0.5187 -0.7794
 4311SOL    HW224567   2.715   1.579   6.912  0.4591  0.0879 -0.8146
 4312SOL     OW24568   4.190   2.640   3.749  0.0366  0.2354  0.0995
 4312SOL    HW124569   4.213   2.732   3.745  0.5871  0.1223  0.6184
 4312SOL    HW224570   4.214   2.619   3.659  1.0743 -3.9955  1.3256
 4313SOL     OW24571   0.774   0.501  11.019  0.5253 -0.2059 -0.6103
 4313SOL    HW124572   0.707   0.558  10.981  1.7699  1.9669  0.4851
 4313SOL    HW224573   0.811   0.562  11.083  1.6174 -1.5655  0.0634
 4314SOL     OW24574   0.713   4.731   5.091 -0.2485  0.1073 -0.3025
 4314SOL    HW124575   0.742   0.056   5.024 -1.9147  0.1517 -0.9931
 4314SOL    HW224576   0.622   0.022   5.096  0.1316  1.4881 -1.0460
 4315SOL     OW24577   4.606   4.110   9.402  0.0793 -0.0197  0.1477
 4315SOL    HW124578   4.549   4.070   9.467 -1.7940 -0.1327 -1.5663
 4315SOL    HW224579   4.693   4.090   9.437 -0.8723 -1.7634  1.4498
 4316SOL     OW24580   2.602   0.121  10.253  0.5716  0.2374  0.5967
 4316SOL    HW124581   2.538   0.186  10.284  2.1993  1.5928  1.1519
 4316SOL    HW224582   2.679   0.178  10.255 -0.9988  2.3893 -1.1883
 4317SOL     OW24583   2.516   2.785   3.615 -0.4174 -0.2662  0.6708
 4317SOL    HW124584   2.507   2.731   3.694 -1.2526 -1.0038  0.0675
 4317SOL    HW224585   2.562   2.724   3.557  0.4258 -1.3069  2.3943
 4318SOL     OW24586   1.404   1.739   3.795  0.0227  0.5612 -0.7468
 4318SOL    HW124587   1.453   1.659   3.813 -0.7591  0.0692 -0.8117
 4318SOL    HW224588   1.355   1.723   3.714  0.9194 -0.3783 -1.1049
 4319SOL     OW24589   0.256   4.124   7.880  0.0848 -0.1896  0.3438
 4319SOL    HW124590   0.318   4.088   7.943  3.7739  0.9933 -2.5482
 4319SOL    HW224591   0.174   4.136   7.926 -0.2022  0.1528 -0.2505
 4320SOL     OW24592   4.290   0.944   1.164 -0.3598  0.1681 -0.7752
 4320SOL    HW124593   4.337   0.921   1.244  0.9153 -0.5229 -1.7250
 4320SOL    HW224594   4.199   0.953   1.192  0.3989 -0.5233  1.9162
 4321SOL     OW24595   4.152   1.394   8.268 -0.0102  0.6241 -0.0270
 4321SOL    HW124596   4.217   1.387   8.199 -1.5700  2.1836 -1.6712
 4321SOL    HW224597   4.185   1.458   8.330 -1.2171  0.8706  0.3672
 4322SOL     OW24598   2.037   3.868   3.201 -0.1389 -0.2820  0.4186
 4322SOL    HW124599   2.120   3.878   3.248 -0.8278 -0.2786  1.6453
 4322SOL    HW224600   2.057   3.895   3.112 -1.8983  0.7539  0.3360
 4323SOL     OW24601   3.516   0.011   2.011 -0.3846  0.2524 -0.3660
 4323SOL    HW124602   3.529   0.102   1.983  1.9302  0.4597  1.4060
 4323SOL    HW224603   3.478   4.716   1.929 -0.3458  2.3607 -1.2031
 4324SOL     OW24604   0.416   4.305  10.642 -0.5576  0.1664  0.7542
 4324SOL    HW124605   0.418   4.219  10.599  1.6467  0.1512  0.9068
 4324SOL    HW224606   0.468   4.283  10.718  0.8544  1.1365  0.0597
 4325SOL     OW24607   0.558   2.508  17.690  0.0696 -0.2740  0.2016
 4325SOL    HW124608   0.520   2.540   0.026  1.5096 -0.2876  0.8850
 4325SOL    HW224609   0.634   2.565  17.688 -0.1386 -0.0300 -1.2506
 4326SOL     OW24610   2.087   0.981   6.465  0.3657 -0.2699  0.6769
 4326SOL    HW124611   2.080   0.886   6.457 -1.0814  0.0240 -1.5223
 4326SOL    HW224612   2.152   0.976   6.535  0.8220  0.3712  0.3005
 4327SOL     OW24613   2.060   2.308  12.873 -0.5472 -0.6151  0.1700
 4327SOL    HW124614   2.104   2.362  12.807 -0.0773  0.3841  1.3017
 4327SOL    HW224615   2.104   2.225  12.851  0.9103  0.5209 -1.2141
 4328SOL     OW24616   0.011   3.860   5.341 -0.5618 -1.0056 -0.1929
 4328SOL    HW124617   0.009   3.892   5.251 -0.7697 -0.4513  0.0047
 4328SOL    HW224618   0.005   3.765   5.332 -1.0186 -0.8818 -1.1478
 4329SOL     OW24619   2.984   2.027   8.433 -0.0103  0.6383  0.1319
 4329SOL    HW124620   2.970   2.041   8.339 -0.7757 -2.1103 -0.1501
 4329SOL    HW224621   3.071   1.986   8.433 -0.3811 -0.1595  1.4820
 4330SOL     OW24622   1.995   0.339  15.688 -0.5765 -0.3482 -0.1198
 4330SOL    HW124623   1.910   0.364  15.723  0.3401  1.7347  0.5967
 4330SOL    HW224624   2.026   0.263  15.737  0.3117 -0.3896 -0.7411
 4331SOL     OW24625   0.303   2.816   3.004  0.2561  0.2287 -0.6621
 4331SOL    HW124626   0.213   2.808   3.034  0.8955 -0.7133  1.0044
 4331SOL    HW224627   0.343   2.868   3.073 -0.2846 -1.4723  0.9350
 4332SOL     OW24628   1.674   3.200   8.534 -0.1623  0.0399  0.5732
 4332SOL    HW124629   1.752   3.247   8.563  1.1190 -2.6599  1.5757
 4332SOL    HW224630   1.616   3.261   8.580  1.0063  0.4745  1.4645
 4333SOL     OW24631   3.220   2.226   7.946 -0.1447  0.1448 -0.0231
 4333SOL    HW124632   3.235   2.181   8.029 -0.1285  3.2123  1.6573
 4333SOL    HW224633   3.311   2.243   7.922 -0.6100  1.1885 -1.0418
 4334SOL     OW24634   4.590   1.840   8.553 -0.1849  0.2976 -0.3175
 4334SOL    HW124635   4.502   1.860   8.519 -0.5770 -0.4884  0.2368
 4334SOL    HW224636   4.626   1.914   8.504 -1.2901 -0.2799 -2.0114
 4335SOL     OW24637   2.121   4.580   7.652  0.2656  0.4271  0.6359
 4335SOL    HW124638   2.134   4.485   7.659 -2.1015 -0.1256 -2.6305
 4335SOL    HW224639   2.202   4.614   7.614 -0.7678  2.8654  0.6470
 4336SOL     OW24640   2.524   3.227   8.044  0.3452  0.6263  0.0416
 4336SOL    HW124641   2.462   3.284   7.998 -0.9668 -1.7582 -1.1340
 4336SOL    HW224642   2.559   3.173   7.973 -0.1021 -2.0743  1.8877
 4337SOL     OW24643   2.056   2.102   2.791 -0.8210  0.1927  0.5000
 4337SOL    HW124644   2.020   2.127   2.705  1.2748  0.3428 -0.3237
 4337SOL    HW224645   2.079   2.011   2.774  0.2386  0.8846 -1.7515
 4338SOL     OW24646   1.016   4.625   3.623 -0.0830  0.6374  0.1748
 4338SOL    HW124647   0.945   4.681   3.592 -0.1776 -0.8925 -2.3351
 4338SOL    HW224648   1.000   4.552   3.563 -2.6780  1.0601  0.3354
 4339SOL     OW24649   3.202   1.301  12.907 -0.4322  0.3599 -0.0887
 4339SOL    HW124650   3.252   1.268  12.832 -2.0723 -1.4547 -0.3850
 4339SOL    HW224651   3.114   1.293  12.872 -0.3096  0.9930 -0.5353
 4340SOL     OW24652   3.100   1.818   7.030  0.1153 -0.3275  0.1423
 4340SOL    HW124653   3.159   1.855   7.096  0.7450 -1.1712  0.0540
 4340SOL    HW224654   3.146   1.835   6.947 -1.8539  1.0543 -0.6472
 4341SOL     OW24655   0.204   3.395   2.941 -0.2104 -0.0213  0.0260
 4341SOL    HW124656   0.134   3.460   2.931  0.2170 -0.0683 -3.4224
 4341SOL    HW224657   0.282   3.435   2.904  0.1157  0.3422  1.1196
 4342SOL     OW24658   4.119   2.877   4.731 -0.1116  0.2594  0.0019
 4342SOL    HW124659   4.061   2.938   4.779  1.0333  0.8091  0.6804
 4342SOL    HW224660   4.197   2.865   4.785  0.2186 -0.2799 -0.6051
 4343SOL     OW24661   0.218   3.265  14.684  0.3621  0.3041 -0.0270
 4343SOL    HW124662   0.260   3.181  14.703 -1.4182 -0.5714  0.1085
 4343SOL    HW224663   0.277   3.327  14.726  1.1041  1.5453 -2.9134
 4344SOL     OW24664   4.154   4.163   8.906  0.5984 -0.0168  0.0079
 4344SOL    HW124665   4.184   4.232   8.965 -0.1863 -1.0240  1.5852
 4344SOL    HW224666   4.109   4.210   8.837  1.1019  1.2073  0.5209
 4345SOL     OW24667   2.354   1.764   1.682  0.1210 -0.1820  0.4959
 4345SOL    HW124668   2.383   1.697   1.743  0.1013 -2.3764 -1.8896
 4345SOL    HW224669   2.396   1.733   1.602  0.5105 -0.3853  0.7834
 4346SOL     OW24670   1.200   4.356   6.238 -0.1283 -0.7542  0.0936
 4346SOL    HW124671   1.142   4.431   6.225 -0.8346 -1.6839 -2.2260
 4346SOL    HW224672   1.159   4.322   6.317  0.0047  1.5785  1.1376
 4347SOL     OW24673   1.232   1.954  17.469 -0.8902 -0.0237 -0.0327
 4347SOL    HW124674   1.325   1.931  17.474 -1.1987 -1.3634 -0.5824
 4347SOL    HW224675   1.222   2.043  17.435  0.3965 -0.2586 -0.9979
 4348SOL     OW24676   0.156   2.788   6.613 -0.3605  0.2856 -0.0909
 4348SOL    HW124677   0.163   2.700   6.576  1.0757  0.9301 -1.3153
 4348SOL    HW224678   0.163   2.847   6.538  0.1497 -0.1657 -0.4015
 4349SOL     OW24679   2.515   3.981   9.508  0.0131 -0.1819 -0.1350
 4349SOL    HW124680   2.489   4.031   9.585  1.7789 -0.8593  0.9020
 4349SOL    HW224681   2.425   3.961   9.481  0.4819 -2.4464 -0.0088
 4350SOL     OW24682   3.704   0.822   6.680 -0.1289 -0.6837 -0.0135
 4350SOL    HW124683   3.618   0.783   6.697 -0.8260 -0.4302 -2.8671
 4350SOL    HW224684   3.716   0.879   6.756 -1.3205 -1.3205  0.6501
 4351SOL     OW24685   1.661   0.731   6.399  0.5422 -0.1907  0.1088
 4351SOL    HW124686   1.708   0.794   6.344 -1.3612  0.2748 -1.0073
 4351SOL    HW224687   1.735   0.674   6.422 -1.4173 -3.2256 -1.0677
 4352SOL     OW24688   1.592   1.139   4.342  0.1451 -0.3502  0.5688
 4352SOL    HW124689   1.518   1.146   4.281  1.4325 -0.0924 -0.9749
 4352SOL    HW224690   1.613   1.229   4.366  3.1274 -1.4711  2.1646
 4353SOL     OW24691   0.160   2.164  16.911 -0.1621  0.2967 -0.0212
 4353SOL    HW124692   0.181   2.078  16.949 -0.7132  0.4468  0.6139
 4353SOL    HW224693   0.226   2.162  16.841  0.8521  0.4387  0.9212
 4354SOL     OW24694   3.826   3.416   5.581  1.0229 -0.0235  0.2923
 4354SOL    HW124695   3.751   3.473   5.563  0.0679 -0.9597  1.2965
 4354SOL    HW224696   3.819   3.357   5.506  1.9217 -0.5098  0.5864
 4355SOL     OW24697   1.604   2.136   8.380  0.5249 -0.6564  0.3837
 4355SOL    HW124698   1.651   2.214   8.351 -1.3618  0.4288  0.2402
 4355SOL    HW224699   1.518   2.156   8.342  1.6803  2.7947 -0.4407
 4356SOL     OW24700   3.305   2.138  12.725  0.1372  0.5575  0.1631
 4356SOL    HW124701   3.324   2.051  12.760 -1.3925 -0.5184 -1.6603
 4356SOL    HW224702   3.265   2.116  12.641 -0.9275 -0.3699  0.9140
 4357SOL     OW24703   0.301   4.374   7.090 -0.2541 -0.0737 -0.3622
 4357SOL    HW124704   0.226   4.345   7.037  0.2339  0.8535 -1.5629
 4357SOL    HW224705   0.368   4.392   7.024 -1.6895  0.5779 -1.6510
 4358SOL     OW24706   3.870   3.399   6.425 -0.0739 -0.0732  0.5529
 4358SOL    HW124707   3.835   3.436   6.344 -0.6479  1.4227  1.4930
 4358SOL    HW224708   3.824   3.315   6.431  1.1995 -0.7499  0.7361
 4359SOL     OW24709   2.572   1.888   8.884  0.4087  0.2052  0.0752
 4359SOL    HW124710   2.636   1.931   8.941  0.2574  0.1034  0.3225
 4359SOL    HW224711   2.616   1.892   8.799 -1.7042 -0.2903 -1.0524
 4360SOL     OW24712   0.436   4.490   5.452  0.1641 -0.0664  0.1923
 4360SOL    HW124713   0.377   4.435   5.504 -1.5988  1.7954  0.1298
 4360SOL    HW224714   0.446   4.435   5.374 -1.4213 -1.7341  1.1634
 4361SOL     OW24715   0.254   4.035   2.294 -0.1562  0.0496 -0.5295
 4361SOL    HW124716   0.315   4.055   2.223  1.5354  1.1363  1.2405
 4361SOL    HW224717   0.231   4.120   2.331  1.3587 -0.7098  2.0993
 4362SOL     OW24718   1.607   0.878   4.812  0.0702  0.1839  0.6231
 4362SOL    HW124719   1.699   0.852   4.817 -0.0272 -0.1279  0.7662
 4362SOL    HW224720   1.557   0.803   4.780 -1.2151  0.7271  1.3846
 4363SOL     OW24721   2.305   4.009   2.299  0.1750 -0.5123  0.7975
 4363SOL    HW124722   2.270   4.096   2.315 -0.3321 -0.9517  2.1158
 4363SOL    HW224723   2.327   4.000   2.207  0.5382 -1.3764  0.9666
 4364SOL     OW24724   0.044   4.423   5.218  0.0268 -0.1689  0.0860
 4364SOL    HW124725   0.023   4.503   5.266  1.9726  1.4333 -1.7515
 4364SOL    HW224726   4.693   4.398   5.188 -0.1009  0.0073  0.3083
 4365SOL     OW24727   2.432   3.788   5.085  0.2279  0.2602  0.1415
 4365SOL    HW124728   2.476   3.740   5.015  1.1017 -0.2370  1.0334
 4365SOL    HW224729   2.491   3.767   5.158  0.9320  1.4221 -0.0887
 4366SOL     OW24730   3.338   0.082   5.864 -0.0100  0.5858 -0.4359
 4366SOL    HW124731   3.418   0.053   5.907 -1.3284  0.7142  2.0979
 4366SOL    HW224732   3.298   4.732   5.855 -0.2683  0.7882 -1.2782
 4367SOL     OW24733   2.880   2.034   5.565  0.0861  0.5755 -0.0866
 4367SOL    HW124734   2.817   2.050   5.635 -2.8429  0.6158 -2.6980
 4367SOL    HW224735   2.827   2.055   5.488  0.1591 -1.1273 -0.6090
 4368SOL     OW24736   1.486   4.126   0.674  0.3818  0.0643  0.2487
 4368SOL    HW124737   1.554   4.180   0.634  2.5216 -0.5339  3.0291
 4368SOL    HW224738   1.433   4.114   0.596  1.8586  1.1362 -0.9227
 4369SOL     OW24739   1.319   1.007   7.074  0.1165  0.0631  0.4789
 4369SOL    HW124740   1.336   1.067   7.146  1.5135  1.4195 -0.9874
 4369SOL    HW224741   1.226   0.998   7.092 -0.0430  0.7252 -0.0222
 4370SOL     OW24742   0.483   1.401   0.919  0.9051  0.2050  0.3108
 4370SOL    HW124743   0.546   1.363   0.858  0.0459 -0.8544  0.0787
 4370SOL    HW224744   0.465   1.326   0.975 -1.1872  2.1330  2.2134
 4371SOL     OW24745   4.252   2.534   5.030  0.3521  0.1630  0.0625
 4371SOL    HW124746   4.276   2.586   4.954  0.9483  0.2010  0.2803
 4371SOL    HW224747   4.172   2.487   5.005  0.5168  0.9427 -1.8685
 4372SOL     OW24748   2.065   0.218   4.074 -0.2821  0.1521 -0.7836
 4372SOL    HW124749   2.046   0.251   3.986 -1.9170 -1.6593 -1.1063
 4372SOL    HW224750   1.987   0.245   4.123  0.0969  1.1183 -0.7238
 4373SOL     OW24751   4.594   4.153   6.968  0.6774 -0.2333  0.1776
 4373SOL    HW124752   4.654   4.143   7.042  1.1666 -0.7745 -0.2950
 4373SOL    HW224753   4.541   4.225   7.000 -1.4709 -2.0122  0.6513
 4374SOL     OW24754   3.260   0.532  10.006 -0.4067 -0.2439  0.1184
 4374SOL    HW124755   3.236   0.557   9.917  0.9449  1.6818  0.2890
 4374SOL    HW224756   3.235   0.610  10.055  0.1249  0.4423 -0.6965
 4375SOL     OW24757   2.806   0.065  16.363 -0.1011 -0.0727 -0.2471
 4375SOL    HW124758   2.746   0.109  16.422  0.3663 -0.7066  0.7003
 4375SOL    HW224759   2.753   0.051  16.285  0.0923  1.6672 -0.6905
 4376SOL     OW24760   2.750   0.146   8.318 -0.3483 -0.1043  0.3565
 4376SOL    HW124761   2.693   0.120   8.391  0.1040  0.2575  0.8373
 4376SOL    HW224762   2.834   0.105   8.338  0.5531  1.4858 -0.1750
 4377SOL     OW24763   3.835   1.250   4.586 -0.5794 -0.2470  0.2844
 4377SOL    HW124764   3.764   1.313   4.580  0.6170  0.8846 -1.9530
 4377SOL    HW224765   3.775   1.177   4.603 -1.3292  0.0475 -1.1403
 4378SOL     OW24766   2.826   1.699   3.700 -0.4890 -0.2629 -0.0984
 4378SOL    HW124767   2.814   1.607   3.723 -1.2537  0.1888  1.2978
 4378SOL    HW224768   2.801   1.705   3.608 -1.1076  0.5374  0.1104
 4379SOL     OW24769   1.376   2.942   4.486  0.8743 -0.3418  0.1671
 4379SOL    HW124770   1.283   2.941   4.464  1.0512  0.2363 -0.5995
 4379SOL    HW224771   1.386   3.035   4.465 -1.3961  0.0215  0.6460
 4380SOL     OW24772   2.978   3.089  11.211  0.2811  0.0028 -0.3808
 4380SOL    HW124773   2.938   3.176  11.213 -0.0669 -0.1891  1.1015
 4380SOL    HW224774   2.976   3.066  11.304  2.9265  2.1342  0.1969
 4381SOL     OW24775   3.285   3.141   4.850  0.3095  0.5164 -0.0280
 4381SOL    HW124776   3.360   3.199   4.859  0.7177  0.0258 -0.2373
 4381SOL    HW224777   3.303   3.095   4.768  0.1112 -2.2176  1.4492
 4382SOL     OW24778   2.837   0.592   4.647 -0.2614 -0.5630  0.2710
 4382SOL    HW124779   2.910   0.605   4.708  0.0433  0.7285 -0.3819
 4382SOL    HW224780   2.855   0.514   4.595  0.8328 -0.1340  0.0229
 4383SOL     OW24781   2.460   2.824   8.111  0.5852 -0.2376  0.3033
 4383SOL    HW124782   2.455   2.807   8.205  0.6878 -0.7020  0.2244
 4383SOL    HW224783   2.419   2.910   8.105 -1.7559 -1.3547  0.2461
 4384SOL     OW24784   0.080   3.245   9.310  0.4357 -0.0091 -0.6024
 4384SOL    HW124785   0.148   3.255   9.376  0.9896 -1.2699 -0.9873
 4384SOL    HW224786   0.007   3.215   9.363  0.5267 -0.1257 -0.5429
 4385SOL     OW24787   2.992   2.068   6.404  0.5915 -0.0951 -0.2551
 4385SOL    HW124788   2.945   2.044   6.324 -1.5079  1.8138  0.3911
 4385SOL    HW224789   3.079   2.087   6.369  1.2268  0.6449  1.6927
 4386SOL     OW24790   2.962   1.299   3.386  0.1242 -0.0289 -0.3533
 4386SOL    HW124791   2.981   1.207   3.370 -0.8868 -0.5561  1.4631
 4386SOL    HW224792   3.047   1.333   3.357 -0.5994  3.7306  1.8926
 4387SOL     OW24793   1.264   0.748   8.733 -0.0075 -0.5486  0.0404
 4387SOL    HW124794   1.356   0.721   8.736  0.2872  0.7314  1.8260
 4387SOL    HW224795   1.263   0.833   8.776  2.0699 -1.2846  1.5251
 4388SOL     OW24796   2.834   0.353   2.994  0.2197  0.6407 -0.7553
 4388SOL    HW124797   2.758   0.367   2.937 -0.0380 -0.3089 -0.6386
 4388SOL    HW224798   2.892   0.427   2.975  1.6536 -0.0980  0.7710
 4389SOL     OW24799   1.956   2.426   7.878 -0.3572  0.5468  0.0542
 4389SOL    HW124800   2.017   2.461   7.943  0.0751 -0.8750  0.4386
 4389SOL    HW224801   1.886   2.376   7.920 -0.8892  1.0139 -0.2770
 4390SOL     OW24802   3.668   0.982   6.916 -0.3199  0.2765 -0.5868
 4390SOL    HW124803   3.686   0.891   6.942 -0.1318 -0.0792 -1.9320
 4390SOL    HW224804   3.572   0.988   6.917 -0.3562 -0.3848  0.1243
 4391SOL     OW24805   0.129   1.281   4.810 -0.7160  0.3503 -0.2098
 4391SOL    HW124806   0.119   1.273   4.905 -1.6862 -4.9482 -0.7419
 4391SOL    HW224807   0.076   1.359   4.797  1.5258  2.0180  0.7498
 4392SOL     OW24808   3.111   0.030  11.840 -0.0326 -0.3327  0.0584
 4392SOL    HW124809   3.092   4.708  11.766 -0.2818  0.0047 -0.1502
 4392SOL    HW224810   3.070   0.107  11.801 -0.1847  0.4214  1.7442
 4393SOL     OW24811   2.618   1.611  16.379 -0.0309  0.0760 -0.9400
 4393SOL    HW124812   2.669   1.552  16.323  0.2857 -1.1312  0.6151
 4393SOL    HW224813   2.546   1.554  16.406  0.4838 -0.5003 -0.7828
 4394SOL     OW24814   2.774   0.105   6.104  0.5740  0.3535 -0.0152
 4394SOL    HW124815   2.704   0.096   6.169  2.3636 -0.2805  1.8178
 4394SOL    HW224816   2.811   0.188   6.133  2.6690 -1.5965  2.9200
 4395SOL     OW24817   2.463   1.027   6.422  0.0877  0.0843 -0.6551
 4395SOL    HW124818   2.420   1.046   6.505 -0.7740 -1.6995 -0.7015
 4395SOL    HW224819   2.407   1.086   6.370 -0.1443 -0.0076 -0.5088
 4396SOL     OW24820   1.783   2.934  17.119  0.3052  0.1894  0.1701
 4396SOL    HW124821   1.875   2.955  17.132 -0.6967  4.2569  0.8433
 4396SOL    HW224822   1.770   2.907  17.028  0.5611 -0.4539  0.3278
 4397SOL     OW24823   3.476   4.166   2.144 -0.0542  0.1330 -0.6322
 4397SOL    HW124824   3.380   4.169   2.141  0.0119  1.9202 -0.8148
 4397SOL    HW224825   3.492   4.095   2.206  2.2129  1.2929  0.1143
 4398SOL     OW24826   1.805   4.361   4.421 -0.0786  0.1013  0.5762
 4398SOL    HW124827   1.800   4.301   4.495 -2.4676 -0.8642 -0.3889
 4398SOL    HW224828   1.811   4.446   4.465  1.3659  0.6762 -0.7231
 4399SOL     OW24829   0.737   4.475  10.192 -0.2969 -0.8543  0.9161
 4399SOL    HW124830   0.827   4.461  10.222  0.2047 -2.1014 -1.1462
 4399SOL    HW224831   0.689   4.460  10.274  0.3679  0.0224  1.4704
 4400SOL     OW24832   3.678   0.441   6.656  0.2625 -0.7465 -0.1259
 4400SOL    HW124833   3.707   0.461   6.567 -0.8594 -1.0849 -0.5668
 4400SOL    HW224834   3.585   0.464   6.656  0.3188 -0.5149  0.2029
 4401SOL     OW24835   4.642   2.419  16.829 -0.6674 -0.4865 -0.3559
 4401SOL    HW124836   4.646   2.513  16.813 -1.1741 -0.0015  2.3721
 4401SOL    HW224837   4.553   2.390  16.810 -1.6750  1.8298  0.8071
 4402SOL     OW24838   2.350   4.478   6.475 -0.4886  0.7479  0.2280
 4402SOL    HW124839   2.423   4.524   6.517  1.5204 -1.3632 -0.9302
 4402SOL    HW224840   2.351   4.398   6.528  0.2564 -0.3114 -1.3842
 4403SOL     OW24841   4.468   4.452   7.619 -0.6283 -0.4802 -0.5239
 4403SOL    HW124842   4.459   4.533   7.570 -1.3535 -0.2414  0.0015
 4403SOL    HW224843   4.504   4.394   7.552  2.2916  0.8351 -0.0680
 4404SOL     OW24844   4.726   2.902   2.041 -0.0303 -0.1601 -0.4010
 4404SOL    HW124845   4.666   2.849   1.989 -0.5292 -0.2226  0.2353
 4404SOL    HW224846   4.735   2.981   1.988  0.0699 -0.2120 -0.4614
 4405SOL     OW24847   2.379   3.305   3.261 -0.3244  0.0910 -1.0520
 4405SOL    HW124848   2.386   3.276   3.352 -0.2894  2.0666 -0.4089
 4405SOL    HW224849   2.447   3.369   3.238  0.9378 -0.8438  0.0723
 4406SOL     OW24850   2.902   2.581   2.489 -0.0913  0.3370 -0.9407
 4406SOL    HW124851   2.868   2.492   2.483 -1.1259  0.8388 -2.6257
 4406SOL    HW224852   2.859   2.608   2.570 -0.5225 -2.0619 -0.3642
 4407SOL     OW24853   4.045   4.248   0.583 -0.3824  0.6332 -0.0604
 4407SOL    HW124854   3.994   4.181   0.538 -1.5329  1.7795 -0.4539
 4407SOL    HW224855   3.994   4.327   0.565 -3.0672 -1.4339 -1.5059
 4408SOL     OW24856   3.775   4.591   3.237  0.2377 -0.5040 -0.1622
 4408SOL    HW124857   3.803   4.514   3.189 -0.6268 -1.5462  1.0237
 4408SOL    HW224858   3.797   4.561   3.326 -4.0281  0.4947  1.2108
 4409SOL     OW24859   4.429   1.378   5.744  0.4802  0.4657  0.3084
 4409SOL    HW124860   4.334   1.393   5.751  0.4177  0.1369  0.1680
 4409SOL    HW224861   4.457   1.425   5.666  0.9187  0.2720  0.3477
 4410SOL     OW24862   2.310   0.436  11.945  0.0825  0.0969  0.3999
 4410SOL    HW124863   2.399   0.401  11.944 -0.7029 -1.8440 -1.1723
 4410SOL    HW224864   2.259   0.391  12.012  0.4296 -0.3561  0.3623
 4411SOL     OW24865   1.052   2.083   5.069 -0.1119  0.4316  0.0598
 4411SOL    HW124866   1.061   2.037   5.153 -2.1261 -0.1345 -0.0220
 4411SOL    HW224867   1.071   2.011   5.009  1.7827  1.4291 -0.5328
 4412SOL     OW24868   2.548   1.938  12.361 -0.2556  0.3663 -0.5406
 4412SOL    HW124869   2.570   2.003  12.427  3.9320 -0.2357 -1.3788
 4412SOL    HW224870   2.519   1.999  12.293 -0.2302 -0.7586 -1.5787
 4413SOL     OW24871   3.168   4.059   8.108 -0.0686 -0.0495 -0.1403
 4413SOL    HW124872   3.241   4.086   8.164 -0.5895  0.4251  0.3029
 4413SOL    HW224873   3.182   3.964   8.108  0.4159  0.0283 -4.2062
 4414SOL     OW24874   0.272   3.600   7.374 -0.4736  0.1569 -0.0128
 4414SOL    HW124875   0.323   3.587   7.454  0.8994 -0.2042 -0.9428
 4414SOL    HW224876   0.187   3.632   7.403 -0.7918 -0.7244  0.0206
 4415SOL     OW24877   1.810   1.530   7.464 -0.2555 -0.6048  0.6814
 4415SOL    HW124878   1.845   1.442   7.449 -0.5819 -0.8350  1.2811
 4415SOL    HW224879   1.817   1.531   7.559  2.2402  2.1066  0.4412
 4416SOL     OW24880   0.854   2.421  16.635 -0.1116 -0.0807 -0.1298
 4416SOL    HW124881   0.913   2.439  16.561  0.7816 -0.8702  0.3954
 4416SOL    HW224882   0.903   2.378  16.704  0.6893  1.4510  0.2569
 4417SOL     OW24883   0.460   0.681   1.855 -0.8127  0.0047 -0.3802
 4417SOL    HW124884   0.473   0.658   1.763  0.1861 -0.2895 -0.1557
 4417SOL    HW224885   0.451   0.776   1.858 -0.1951  0.0139  1.3566
 4418SOL     OW24886   4.391   2.634  10.010  0.2210  0.2917 -0.0443
 4418SOL    HW124887   4.442   2.642   9.930 -0.7914 -1.8282 -0.8902
 4418SOL    HW224888   4.432   2.554  10.044 -2.7059 -0.7702  0.9851
 4419SOL     OW24889   2.591   1.866   5.646 -0.1493  0.4520  0.2801
 4419SOL    HW124890   2.631   1.827   5.569  0.7181  3.5188 -0.8040
 4419SOL    HW224891   2.593   1.955   5.611  2.5028  0.8155  1.3809
 4420SOL     OW24892   1.885   1.189  17.391 -0.2902  0.2740 -0.2424
 4420SOL    HW124893   1.846   1.133  17.323 -1.8328  1.9172 -0.7347
 4420SOL    HW224894   1.845   1.276  17.381  1.0293  0.9322  0.2472
 4421SOL     OW24895   4.082   2.950   9.278 -0.3253 -0.0013 -0.8787
 4421SOL    HW124896   4.117   2.917   9.194  2.2365  1.5444 -0.3921
 4421SOL    HW224897   4.120   3.037   9.281 -0.3725 -0.0731  1.5806
 4422SOL     OW24898   3.791   1.039   4.119  0.3198  0.3619 -0.2603
 4422SOL    HW124899   3.804   1.017   4.212 -1.5492  0.8243  0.1114
 4422SOL    HW224900   3.760   1.130   4.121  0.4297  0.3927  0.2214
 4423SOL     OW24901   1.924   4.648  10.916 -0.1322 -0.2623 -0.3125
 4423SOL    HW124902   1.987   4.657  10.988 -0.1460 -0.5482 -0.2635
 4423SOL    HW224903   1.885   4.560  10.918  1.2080 -0.8452  0.0870
 4424SOL     OW24904   4.272   4.320   6.088 -0.1449  0.2652 -0.4047
 4424SOL    HW124905   4.294   4.227   6.077 -0.3553 -0.0013  1.4899
 4424SOL    HW224906   4.217   4.304   6.164  0.6725  0.1380  0.1624
 4425SOL     OW24907   4.057   0.361   0.113  0.0518  0.0568 -0.0124
 4425SOL    HW124908   4.135   0.327   0.155 -0.4140 -0.8501  0.1131
 4425SOL    HW224909   4.013   0.412   0.182 -1.8641 -0.3693 -0.9088
 4426SOL     OW24910   2.079   2.658  12.306  0.0346  0.1220  0.1753
 4426SOL    HW124911   2.160   2.608  12.307 -1.2037 -1.8945 -0.2414
 4426SOL    HW224912   2.081   2.721  12.379  1.1075  0.1760  0.0887
 4427SOL     OW24913   1.761   1.102  17.156  0.2827  0.3385  0.3611
 4427SOL    HW124914   1.814   1.119  17.078 -0.4528 -2.3535 -0.7212
 4427SOL    HW224915   1.702   1.030  17.133  0.1887  0.2214  0.9647
 4428SOL     OW24916   2.485   4.477  16.891 -0.4827 -0.2784 -0.5410
 4428SOL    HW124917   2.393   4.467  16.919 -0.3639  0.7493  0.2602
 4428SOL    HW224918   2.475   4.509  16.802 -2.0051 -0.6366 -0.5038
 4429SOL     OW24919   4.716   3.270   8.024 -0.1516  0.1464 -0.2751
 4429SOL    HW124920   4.655   3.231   8.087  0.9696  0.5913  1.0892
 4429SOL    HW224921   4.720   3.362   8.049 -3.3392 -0.0003  0.7315
 4430SOL     OW24922   0.455   0.735  12.962  0.3665 -0.1715 -0.5958
 4430SOL    HW124923   0.429   0.744  12.870  0.6284 -1.0597 -0.7544
 4430SOL    HW224924   0.549   0.749  12.960  0.3599 -0.2165 -1.2358
 4431SOL     OW24925   0.067   1.134   2.492 -0.5779 -0.0265  0.0363
 4431SOL    HW124926   0.010   1.137   2.569  0.7884  0.7208  1.0386
 4431SOL    HW224927   0.146   1.182   2.519 -0.8075  0.6649 -0.5135
 4432SOL     OW24928   1.941   0.391   7.901  0.3332 -0.5997  0.4578
 4432SOL    HW124929   2.010   0.437   7.949 -0.6522  1.3743 -0.0169
 4432SOL    HW224930   1.876   0.462   7.903  0.2394 -0.6809  0.2950
 4433SOL     OW24931   0.652   0.016  12.808  0.9301 -0.0392  0.2393
 4433SOL    HW124932   0.563   0.001  12.776  2.2702 -0.4570 -3.3100
 4433SOL    HW224933   0.702   0.014  12.726 -1.3826 -3.8730 -1.0567
 4434SOL     OW24934   3.041   3.164   8.762  0.4655  0.1644  0.0277
 4434SOL    HW124935   3.041   3.098   8.693  1.1376 -0.8940  1.0286
 4434SOL    HW224936   2.983   3.232   8.728  0.9302  1.4836  1.8585
 4435SOL     OW24937   1.926   3.734   6.258  0.1112 -0.1195  0.0899
 4435SOL    HW124938   1.931   3.770   6.170 -1.1910  0.7595  0.3647
 4435SOL    HW224939   1.898   3.811   6.308  0.2661  0.3156 -0.4920
 4436SOL     OW24940   2.950   0.109   2.928 -0.1280  0.5819 -0.3718
 4436SOL    HW124941   2.957   0.091   3.022 -1.6768  2.5597  0.1003
 4436SOL    HW224942   2.894   0.186   2.925 -1.2793 -0.0821  3.3140
 4437SOL     OW24943   4.216   0.350  10.516 -0.5609  0.3426  0.0619
 4437SOL    HW124944   4.208   0.425  10.457 -0.9389  0.4581  0.2596
 4437SOL    HW224945   4.238   0.394  10.599  0.0249 -0.9729  0.6061
 4438SOL     OW24946   1.686   2.535   2.543  0.0206 -0.1545  0.3491
 4438SOL    HW124947   1.623   2.546   2.473 -0.6827 -0.6025  0.9085
 4438SOL    HW224948   1.672   2.623   2.577  3.0330 -0.4830  2.5070
 4439SOL     OW24949   2.447   1.972   3.516 -0.1666 -0.3508 -0.2341
 4439SOL    HW124950   2.381   1.971   3.586  0.2599 -1.7328  0.1632
 4439SOL    HW224951   2.463   1.877   3.520  1.3483 -0.1095 -0.6842
 4440SOL     OW24952   2.936   0.686   8.918 -0.2875 -0.4211  0.2080
 4440SOL    HW124953   2.967   0.671   8.828  3.0575  1.4373  1.0676
 4440SOL    HW224954   2.899   0.772   8.900  4.0437  1.0799 -1.4800
 4441SOL     OW24955   2.992   1.430  12.025  0.3216  0.2162 -0.4384
 4441SOL    HW124956   2.990   1.415  12.119 -1.7505 -0.7545 -0.6276
 4441SOL    HW224957   3.041   1.352  11.997 -1.7153 -0.8540 -1.0255
 4442SOL     OW24958   1.187   0.456   5.547  0.2586 -0.1178  0.2585
 4442SOL    HW124959   1.195   0.499   5.461 -0.2538  1.9277  1.2507
 4442SOL    HW224960   1.204   0.363   5.529 -1.9468 -0.6624  1.1117
 4443SOL     OW24961   2.948   2.902   4.447  0.0826  0.1173  0.5518
 4443SOL    HW124962   2.871   2.959   4.454 -1.7121 -2.6967  3.6589
 4443SOL    HW224963   3.021   2.942   4.494  0.3992 -0.7612  0.8096
 4444SOL     OW24964   4.359   0.582   3.696 -0.3596  0.0746  0.2695
 4444SOL    HW124965   4.273   0.540   3.700 -0.1817 -0.3842 -0.8328
 4444SOL    HW224966   4.380   0.553   3.608  1.0353 -2.4123  1.4239
 4445SOL     OW24967   0.112   3.502   4.959  0.2378  0.1605 -0.6669
 4445SOL    HW124968   0.196   3.457   4.947  0.6017  0.1661  1.7998
 4445SOL    HW224969   0.056   3.472   4.888 -0.4434  1.4670 -0.6680
 4446SOL     OW24970   0.086   3.970   5.841  0.0932  0.5775  0.4632
 4446SOL    HW124971   0.064   4.024   5.917 -2.3508 -0.1035  0.2246
 4446SOL    HW224972   0.161   3.925   5.880  0.3969 -0.7213 -1.6466
 4447SOL     OW24973   1.072   0.411   6.371 -0.0720  0.1361 -0.6112
 4447SOL    HW124974   1.135   0.428   6.442 -0.4599  2.1461 -0.7534
 4447SOL    HW224975   1.087   0.482   6.309 -1.5504 -0.6811 -1.8838
 4448SOL     OW24976   2.885   2.084   4.087 -0.6150  0.2873  0.6288
 4448SOL    HW124977   2.819   2.086   4.019  0.0231  0.9931  0.0363
 4448SOL    HW224978   2.906   1.990   4.084  2.0616  0.8557  0.9521
 4449SOL     OW24979   3.496   3.621   0.298 -0.1882  0.6772 -0.0972
 4449SOL    HW124980   3.584   3.585   0.282 -0.6255 -1.0171  1.3080
 4449SOL    HW224981   3.452   3.563   0.361  1.3907 -1.0706 -0.5899
 4450SOL     OW24982   3.722   3.240   5.378  0.5845  0.7683  0.2748
 4450SOL    HW124983   3.691   3.312   5.323  1.4367 -0.1076 -1.3330
 4450SOL    HW224984   3.810   3.215   5.351  1.7326  2.3914  2.5412
 4451SOL     OW24985   0.473   2.821  14.041 -0.1897 -0.2719 -0.2532
 4451SOL    HW124986   0.517   2.905  14.027  1.2052 -1.1692 -1.2642
 4451SOL    HW224987   0.479   2.785  13.953 -2.1173  0.8587 -0.8205
 4452SOL     OW24988   0.067   2.546   7.360  0.2387  0.0247  0.0020
 4452SOL    HW124989   0.068   2.636   7.393 -1.5580  1.1560 -2.9517
 4452SOL    HW224990   4.729   2.549   7.299 -0.3545 -0.6660  0.7055
 4453SOL     OW24991   3.178   0.587   5.435  0.0917 -0.1296 -0.3375
 4453SOL    HW124992   3.153   0.566   5.525 -0.0544  0.8464 -0.1471
 4453SOL    HW224993   3.184   0.683   5.430 -2.8918 -0.0508 -2.7310
 4454SOL     OW24994   0.581   1.430   7.686  0.4870  0.2220  0.2572
 4454SOL    HW124995   0.609   1.380   7.609  1.4539 -0.6644  1.1947
 4454SOL    HW224996   0.493   1.396   7.702 -0.2526  1.2314 -1.6877
 4455SOL     OW24997   2.075   0.145  13.989 -0.6491 -0.2458 -0.4488
 4455SOL    HW124998   2.108   0.080  13.927 -0.1866 -0.3886 -0.0493
 4455SOL    HW224999   2.100   0.225  13.943  2.3899 -0.2092  1.3019
 4456SOL     OW25000   1.461   0.847   5.545 -0.3522 -0.1641  0.5002
 4456SOL    HW125001   1.423   0.853   5.457 -0.7088  3.3216  0.8664
 4456SOL    HW225002   1.393   0.797   5.589 -0.6497  0.5613  0.8572
 4457SOL     OW25003   1.031   1.210   5.379 -0.2015  0.5677 -0.5034
 4457SOL    HW125004   0.995   1.206   5.290 -0.8083 -0.6741 -0.1992
 4457SOL    HW225005   1.055   1.303   5.387 -3.6238  1.3704  0.2203
 4458SOL     OW25006   0.545   1.820   7.563  0.3341 -0.4686 -0.3579
 4458SOL    HW125007   0.529   1.912   7.543 -2.2395 -1.1907 -1.5939
 4458SOL    HW225008   0.612   1.795   7.499  1.2853 -1.1770  0.9358
 4459SOL     OW25009   1.076   4.536   6.648 -0.2649 -0.0480 -0.5668
 4459SOL    HW125010   1.130   4.462   6.621  1.1248 -0.1545  2.5065
 4459SOL    HW225011   1.122   4.564   6.727 -0.3546 -3.7543  0.7786
 4460SOL     OW25012   2.236   4.667   6.308  0.3929 -0.0653  0.1710
 4460SOL    HW125013   2.245   0.008   6.363  1.2735  0.6578 -0.9885
 4460SOL    HW225014   2.280   4.604   6.365  1.2560 -0.5838 -1.0610
 4461SOL     OW25015   1.288   4.266   5.995  0.3501 -0.2513  0.4025
 4461SOL    HW125016   1.290   4.277   6.090 -1.1642 -2.2265  0.6472
 4461SOL    HW225017   1.277   4.171   5.994  1.4267 -0.3647 -1.0443
 4462SOL     OW25018   3.007   1.918   7.321 -0.0363  0.3599 -0.0664
 4462SOL    HW125019   2.978   2.001   7.283  1.9027  1.0149 -0.1481
 4462SOL    HW225020   3.054   1.949   7.399 -0.3940  0.2025  0.2098
 4463SOL     OW25021   3.092   4.492   4.703  0.2800 -0.4639  0.5450
 4463SOL    HW125022   3.026   4.422   4.706  0.3465 -0.6346 -1.9796
 4463SOL    HW225023   3.162   4.453   4.756  0.9204  1.1230  0.8490
 4464SOL     OW25024   3.354   3.387   3.714 -0.7836 -0.7316 -0.0007
 4464SOL    HW125025   3.365   3.338   3.632 -1.1265  0.2980 -0.6629
 4464SOL    HW225026   3.281   3.439   3.682 -0.6387 -0.8304 -0.4954
 4465SOL     OW25027   3.472   4.420   1.554 -0.2952  0.3025  0.1096
 4465SOL    HW125028   3.415   4.364   1.607  0.0994  2.4098  2.7741
 4465SOL    HW225029   3.525   4.463   1.622  1.2713  0.5757 -1.2925
 4466SOL     OW25030   0.538   0.877   0.789 -0.7433 -0.5936 -0.0390
 4466SOL    HW125031   0.485   0.826   0.728  0.6360 -0.8651 -0.9859
 4466SOL    HW225032   0.617   0.824   0.781  1.0193  2.1688 -0.9942
 4467SOL     OW25033   2.384   0.211   2.717 -0.5322  0.1171 -0.6331
 4467SOL    HW125034   2.338   0.189   2.636  0.5740 -0.6066 -1.0670
 4467SOL    HW225035   2.424   0.126   2.734 -0.4996  0.5307  1.3845
 4468SOL     OW25036   2.618   3.007   3.390  0.2965  0.3069 -0.5619
 4468SOL    HW125037   2.616   2.970   3.479  1.8689  1.6663  0.0214
 4468SOL    HW225038   2.536   2.976   3.351 -0.1430 -0.2747  0.8224
 4469SOL     OW25039   4.417   0.605   8.036 -0.0728  0.3435 -0.2764
 4469SOL    HW125040   4.486   0.664   8.066  1.3885 -1.3287 -0.3514
 4469SOL    HW225041   4.463   0.539   7.983 -1.7134 -0.4704 -0.6833
 4470SOL     OW25042   4.194   2.593   5.580 -0.2277 -0.0869 -0.1053
 4470SOL    HW125043   4.221   2.598   5.488  1.2479  2.7769  0.4727
 4470SOL    HW225044   4.163   2.503   5.581  0.7703 -0.4292 -0.0196
 4471SOL     OW25045   1.162   3.276   8.271 -0.4290  0.2236  0.2556
 4471SOL    HW125046   1.155   3.198   8.326  0.1120 -0.1592 -0.2235
 4471SOL    HW225047   1.252   3.304   8.287  0.4914 -2.6816  0.1174
 4472SOL     OW25048   1.518   0.567   3.226 -0.4861 -0.4066  0.0204
 4472SOL    HW125049   1.519   0.594   3.318  1.7387  1.5216 -0.5705
 4472SOL    HW225050   1.609   0.558   3.199  0.1041  2.0681  1.2191
 4473SOL     OW25051   3.850   0.194   9.456  0.2777  0.0656 -0.1587
 4473SOL    HW125052   3.886   0.108   9.475 -0.7170 -0.3558 -0.1904
 4473SOL    HW225053   3.893   0.224   9.376 -0.7329 -2.4213 -1.6543
 4474SOL     OW25054   1.557   0.977  15.214  0.1766  0.9197  0.2794
 4474SOL    HW125055   1.561   1.072  15.224  0.9606  0.8504  0.5923
 4474SOL    HW225056   1.644   0.963  15.178 -0.2163  1.5519 -0.9510
 4475SOL     OW25057   1.048   4.291  12.420  0.4177  0.0559 -0.4159
 4475SOL    HW125058   1.026   4.198  12.410  2.2978 -0.6717  2.1490
 4475SOL    HW225059   1.138   4.267  12.442  0.3710  1.8918  1.7166
 4476SOL     OW25060   2.887   4.029  13.335 -0.3236 -0.1931  0.2299
 4476SOL    HW125061   2.898   4.072  13.250 -1.6528  0.2168  0.2565
 4476SOL    HW225062   2.883   3.937  13.311  1.3261 -0.1320 -0.2508
 4477SOL     OW25063   1.529   4.430  12.351  0.1180  0.2829  0.6056
 4477SOL    HW125064   1.498   4.411  12.440 -1.0802  4.3402  1.0341
 4477SOL    HW225065   1.449   4.407  12.302  1.2750 -1.3867 -0.4845
 4478SOL     OW25066   1.362   2.774   8.046 -0.5665 -1.0603  0.2283
 4478SOL    HW125067   1.339   2.796   7.956 -2.6458  0.0908  1.0430
 4478SOL    HW225068   1.400   2.855   8.082 -1.8444  0.0866 -1.0313
 4479SOL     OW25069   2.113   3.963   2.543  0.0925  0.5513  0.4031
 4479SOL    HW125070   2.024   3.929   2.540  0.2940  0.0826 -0.2525
 4479SOL    HW225071   2.148   3.901   2.479 -0.6404 -0.7053  1.2026
 4480SOL     OW25072   3.313   2.356   4.201  0.7565  0.0372  0.3300
 4480SOL    HW125073   3.343   2.275   4.158  0.9186  0.9606 -1.2868
 4480SOL    HW225074   3.236   2.365   4.145  0.0993  0.0575  1.2271
 4481SOL     OW25075   0.411   3.425  13.893 -0.0601  0.4068  0.4083
 4481SOL    HW125076   0.476   3.491  13.867 -2.5121  3.1324  1.1715
 4481SOL    HW225077   0.400   3.442  13.987 -0.9532  2.9742 -0.1618
 4482SOL     OW25078   4.140   2.788   8.162 -0.0848  0.0840 -0.4560
 4482SOL    HW125079   4.101   2.795   8.249 -2.7243 -1.5151 -1.5230
 4482SOL    HW225080   4.068   2.818   8.107  0.6313  2.2918 -0.1588
 4483SOL     OW25081   1.275   2.517   0.116  0.4611 -0.7200  0.0972
 4483SOL    HW125082   1.233   2.577   0.053 -1.0886 -0.4266  1.4052
 4483SOL    HW225083   1.200   2.480   0.162 -0.5613  1.1276 -0.0478
 4484SOL     OW25084   2.699   4.679   2.917  0.2518  0.7857 -0.1049
 4484SOL    HW125085   2.759   4.645   2.983 -0.0504 -0.6477 -0.5665
 4484SOL    HW225086   2.762   4.697   2.847 -1.1616 -1.8173 -2.0437
 4485SOL     OW25087   4.157   3.497   4.746 -0.5092 -0.3353  0.1120
 4485SOL    HW125088   4.214   3.574   4.753 -0.6252 -0.3310  1.0182
 4485SOL    HW225089   4.143   3.472   4.837  0.5824  0.2048  0.4300
 4486SOL     OW25090   3.827   1.811   8.404 -0.2664 -0.9067  0.2496
 4486SOL    HW125091   3.896   1.758   8.363  0.9970  2.5672 -2.1409
 4486SOL    HW225092   3.873   1.826   8.487  2.3242  0.1682 -1.3637
 4487SOL     OW25093   2.758   0.684   7.469  0.6668  0.0766  0.0050
 4487SOL    HW125094   2.696   0.614   7.492 -0.2616  1.2978  1.1889
 4487SOL    HW225095   2.738   0.763   7.518 -1.4074  0.0539 -0.7819
 4488SOL     OW25096   1.965   1.838   7.703  0.1465  0.2024  0.1339
 4488SOL    HW125097   1.939   1.904   7.639  3.9567  1.6599  0.0947
 4488SOL    HW225098   1.881   1.797   7.725 -0.0322  1.1990  1.2706
 4489SOL     OW25099   2.313   4.075  10.061  0.3977 -0.1746  0.1922
 4489SOL    HW125100   2.249   4.143  10.085 -0.5777 -1.1020  0.2089
 4489SOL    HW225101   2.321   4.028  10.144 -0.8002 -0.4339  0.1659
 4490SOL     OW25102   4.640   1.830  17.213  0.0057  0.3571 -0.6297
 4490SOL    HW125103   4.673   1.919  17.214 -0.2608  0.4416  0.7870
 4490SOL    HW225104   4.712   1.778  17.248 -1.3891 -0.7421  0.6215
 4491SOL     OW25105   0.962   1.734   5.158 -0.0934  0.5648  0.0395
 4491SOL    HW125106   1.019   1.793   5.207  0.4882  2.1153 -2.5004
 4491SOL    HW225107   0.897   1.716   5.226  0.6463  0.2568  0.6727
 4492SOL     OW25108   4.365   2.071   7.390  0.5047  0.1048  0.0548
 4492SOL    HW125109   4.417   1.995   7.418  0.9241  0.1993 -0.4574
 4492SOL    HW225110   4.281   2.027   7.379  0.0842  1.0368 -0.4121
 4493SOL     OW25111   2.412   1.744   6.186  0.1723  0.2704 -0.3391
 4493SOL    HW125112   2.357   1.666   6.178 -0.0640  0.6684 -2.6710
 4493SOL    HW225113   2.399   1.787   6.101  0.2800 -0.2651 -0.6247
 4494SOL     OW25114   3.066   0.221   1.556  0.3803  0.0380 -0.4043
 4494SOL    HW125115   3.094   0.313   1.563 -1.1125  0.3262  1.9512
 4494SOL    HW225116   3.010   0.225   1.478  0.0827  1.8954 -0.1100
 4495SOL     OW25117   4.083   0.998   3.713  0.1640  0.0508  0.3471
 4495SOL    HW125118   4.008   0.975   3.769 -0.9832  2.7003 -0.0959
 4495SOL    HW225119   4.047   0.984   3.625  0.9460  2.3005 -0.3334
 4496SOL     OW25120   4.503   0.497  16.025 -0.1821  0.3492 -0.0814
 4496SOL    HW125121   4.573   0.553  15.994 -0.0636 -0.1591 -0.7191
 4496SOL    HW225122   4.436   0.524  15.962 -1.7084 -1.8773  0.5674
 4497SOL     OW25123   1.895   0.453   9.654  0.1690 -0.6622 -0.2504
 4497SOL    HW125124   1.987   0.436   9.676  0.1170 -0.0088  0.4648
 4497SOL    HW225125   1.854   0.480   9.736  1.2707 -2.5090  0.9207
 4498SOL     OW25126   3.499   1.851   6.415 -0.5650 -0.0818 -0.1391
 4498SOL    HW125127   3.535   1.936   6.393  1.2033 -1.1101 -1.1993
 4498SOL    HW225128   3.458   1.834   6.330 -0.2302  0.0001 -0.3138
 4499SOL     OW25129   2.988   3.647   4.805 -0.1891 -0.2792 -0.2471
 4499SOL    HW125130   2.962   3.588   4.735  1.1888 -1.5104  0.2658
 4499SOL    HW225131   3.071   3.608   4.834 -0.4380  0.3068  1.2337
 4500SOL     OW25132   0.729   3.635   2.178  0.6577 -0.6187  0.0520
 4500SOL    HW125133   0.807   3.613   2.229  0.3909  0.3703  0.8707
 4500SOL    HW225134   0.657   3.625   2.240 -0.5994  0.3281 -1.2668
 4501SOL     OW25135   2.547   4.514  15.059  0.1778 -0.4262  0.2316
 4501SOL    HW125136   2.544   4.572  14.983 -1.9468  0.6845  1.1782
 4501SOL    HW225137   2.481   4.553  15.116 -0.3258 -1.1949  0.1722
 4502SOL     OW25138   4.086   2.745   7.169  0.2002 -0.2295  0.1526
 4502SOL    HW125139   4.105   2.730   7.077 -2.3144  1.1591 -0.5739
 4502SOL    HW225140   4.018   2.678   7.178  1.9207 -1.3348  5.1064
 4503SOL     OW25141   4.623   2.138   6.910 -0.6003  0.2209  0.0663
 4503SOL    HW125142   4.714   2.107   6.916 -1.4842 -3.0523 -3.5411
 4503SOL    HW225143   4.623   2.193   6.988  2.0315 -0.6056  0.6593
 4504SOL     OW25144   1.091   4.503  14.643  0.1095  0.3077 -0.2415
 4504SOL    HW125145   1.114   4.568  14.709 -1.6048 -0.5330  1.1841
 4504SOL    HW225146   1.160   4.440  14.661  1.4145  0.9855 -2.8247
 4505SOL     OW25147   0.682   1.386   6.534  0.8954  0.4295  0.1249
 4505SOL    HW125148   0.702   1.356   6.623  0.7921 -0.5385 -0.1750
 4505SOL    HW225149   0.587   1.394   6.545  0.7819  0.8166 -1.1705
 4506SOL     OW25150   1.523   4.535   0.832 -0.7138 -0.3214 -0.5225
 4506SOL    HW125151   1.603   4.511   0.785  1.6000  0.0214  3.2456
 4506SOL    HW225152   1.552   4.607   0.888 -1.3087  1.0885 -2.0300
 4507SOL     OW25153   3.947   0.891  13.517 -0.0549  0.1225  0.3781
 4507SOL    HW125154   4.011   0.884  13.588 -1.2680 -0.4830  1.4072
 4507SOL    HW225155   3.885   0.954  13.553 -0.1351  0.7683 -0.8945
 4508SOL     OW25156   1.825   0.321   5.206  0.0546 -0.0196  0.9752
 4508SOL    HW125157   1.849   0.406   5.240 -1.1062  0.6068  0.2487
 4508SOL    HW225158   1.845   0.321   5.112  0.0242 -2.0688  0.9480
 4509SOL     OW25159   1.636   3.470  10.790 -0.0764 -0.3467 -0.2948
 4509SOL    HW125160   1.637   3.412  10.713 -0.1962  1.4852 -1.6736
 4509SOL    HW225161   1.548   3.508  10.784 -0.7471 -1.6200  1.3227
 4510SOL     OW25162   0.498   1.401   2.741 -0.1164 -0.5130 -0.0183
 4510SOL    HW125163   0.457   1.479   2.780  2.1837  0.4677  0.4412
 4510SOL    HW225164   0.480   1.331   2.804  1.1181  2.2748  3.4319
 4511SOL     OW25165   3.650   0.219  12.855 -0.7168 -0.6792 -0.1566
 4511SOL    HW125166   3.600   0.146  12.891  0.4523 -1.2374  0.3343
 4511SOL    HW225167   3.730   0.218  12.908 -1.1473  0.6313  0.5101
 4512SOL     OW25168   1.504   2.367   2.182 -0.1852 -0.0793  0.4169
 4512SOL    HW125169   1.548   2.317   2.112  2.0238 -2.3835  3.4816
 4512SOL    HW225170   1.454   2.299   2.228 -1.4741  1.6029  1.5143
 4513SOL     OW25171   4.719   4.130   7.700  0.0595  0.6768  0.0882
 4513SOL    HW125172   4.630   4.122   7.665  0.4707 -1.3402 -0.5110
 4513SOL    HW225173   0.006   4.038   7.709 -0.9869  0.2860 -1.1657
 4514SOL     OW25174   3.058   2.598   7.906 -0.2964 -0.4314  0.1778
 4514SOL    HW125175   3.137   2.548   7.927 -0.9772 -1.7345 -0.3280
 4514SOL    HW225176   3.016   2.606   7.992  0.3390  0.8927  0.3554
 4515SOL     OW25177   2.837   4.079  11.647 -0.0192 -0.7283 -0.1949
 4515SOL    HW125178   2.931   4.064  11.636  0.3873  3.2640 -2.1684
 4515SOL    HW225179   2.810   3.988  11.660 -0.4148 -0.5973 -0.0979
 4516SOL     OW25180   4.542   0.287   4.375 -0.4487  0.1534 -0.0765
 4516SOL    HW125181   4.517   0.292   4.282 -3.8116  0.1202  0.8603
 4516SOL    HW225182   4.482   0.356   4.404  0.6198  1.1983 -0.3372
 4517SOL     OW25183   2.229   1.278  16.424 -0.3197 -0.4289  0.1138
 4517SOL    HW125184   2.170   1.226  16.479  1.7653 -1.0478  1.7934
 4517SOL    HW225185   2.289   1.204  16.412 -1.2107 -1.1098 -0.1151
 4518SOL     OW25186   1.600   4.436   7.069  0.3510  0.4664  0.1198
 4518SOL    HW125187   1.669   4.451   7.134  1.5593 -1.3845 -0.7605
 4518SOL    HW225188   1.525   4.465   7.120 -0.4550  2.0557 -1.9475
 4519SOL     OW25189   1.857   1.945   8.729  0.7488  0.3268  0.2518
 4519SOL    HW125190   1.840   1.908   8.816  2.2510  1.1256  0.8720
 4519SOL    HW225191   1.942   1.982   8.749  0.7042  0.4623  0.1884
 4520SOL     OW25192   1.185   0.082   1.495 -0.2758 -0.0220  0.4937
 4520SOL    HW125193   1.093   0.062   1.477 -0.8135  0.0656  3.0013
 4520SOL    HW225194   1.178   0.110   1.587 -1.0333 -2.5600  1.2219
 4521SOL     OW25195   2.287   2.093   4.836  0.9569 -0.4746  0.0327
 4521SOL    HW125196   2.216   2.117   4.895  0.2333  0.9574 -1.4213
 4521SOL    HW225197   2.300   2.173   4.785 -1.2825 -0.3184 -0.2898
 4522SOL     OW25198   2.658   4.235   8.514  0.0798 -0.4603 -0.1208
 4522SOL    HW125199   2.565   4.258   8.516  0.5415  1.4821 -0.9702
 4522SOL    HW225200   2.678   4.306   8.454  0.8621 -2.0043 -1.6575
 4523SOL     OW25201   1.064   3.501   5.277  0.0052 -0.2581 -0.3205
 4523SOL    HW125202   1.048   3.595   5.266 -0.2193 -0.1740  0.7151
 4523SOL    HW225203   1.003   3.478   5.347  0.3792 -0.4585 -0.0664
 4524SOL     OW25204   3.646   1.708   7.468 -0.1722 -0.1768  0.0632
 4524SOL    HW125205   3.597   1.774   7.516 -3.5765 -1.4197 -1.6645
 4524SOL    HW225206   3.588   1.707   7.392 -0.5178  0.2203  0.3220
 4525SOL     OW25207   3.300   3.895   4.381  0.0821  0.0857  0.1925
 4525SOL    HW125208   3.235   3.938   4.325 -0.8005 -0.5810  0.7116
 4525SOL    HW225209   3.362   3.966   4.398  0.5022  0.1573 -1.6458
 4526SOL     OW25210   0.833   1.092   2.821 -0.4158  0.1428  0.2740
 4526SOL    HW125211   0.874   1.054   2.899 -1.8240 -0.4405  0.7241
 4526SOL    HW225212   0.842   1.184   2.847  1.8762 -0.0110  0.0621
 4527SOL     OW25213   3.400   1.707   6.605  0.0563  0.0238  0.2268
 4527SOL    HW125214   3.328   1.664   6.560  1.0208  0.8424 -2.0897
 4527SOL    HW225215   3.446   1.753   6.534 -1.6464 -1.8239 -2.0827
 4528SOL     OW25216   0.658   3.012   2.274  1.0768  0.4196  0.6215
 4528SOL    HW125217   0.605   2.940   2.239  2.7064 -0.1536 -0.6863
 4528SOL    HW225218   0.696   3.045   2.193  0.2236  0.0698  0.0714
 4529SOL     OW25219   4.542   1.169   6.993  0.0643 -0.7325 -0.2108
 4529SOL    HW125220   4.452   1.190   7.017  0.4659  0.0328  0.6317
 4529SOL    HW225221   4.565   1.127   7.076  2.5792 -0.1859 -0.6144
 4530SOL     OW25222   3.970   1.898   7.694 -0.3647  0.1336 -0.5702
 4530SOL    HW125223   3.961   1.980   7.742  0.6993 -0.7591  1.1484
 4530SOL    HW225224   4.051   1.860   7.726  1.1150  1.8194 -2.2902
 4531SOL     OW25225   3.729   0.793   6.195  0.0897 -0.0389 -0.4107
 4531SOL    HW125226   3.728   0.871   6.250  1.2180  0.6909 -1.4151
 4531SOL    HW225227   3.779   0.738   6.255 -0.4316  0.5875  0.5779
 4532SOL     OW25228   2.691   4.135   7.186  0.6528  0.4998  0.5213
 4532SOL    HW125229   2.641   4.181   7.118  1.7671  2.2204  0.8726
 4532SOL    HW225230   2.715   4.068   7.122 -1.7610  0.0991  0.0035
 4533SOL     OW25231   2.216   3.159   1.396 -0.1472 -0.3388  0.0781
 4533SOL    HW125232   2.129   3.121   1.388 -0.1108 -0.3401 -0.2715
 4533SOL    HW225233   2.234   3.177   1.304  3.0270 -1.8640  0.4039
 4534SOL     OW25234   1.990   0.740   2.671 -0.0022 -0.3390 -0.1590
 4534SOL    HW125235   1.925   0.673   2.693  0.1180 -1.5148 -3.4499
 4534SOL    HW225236   2.072   0.712   2.713  0.1248  1.1426  0.5658
 4535SOL     OW25237   0.373   4.004   3.250 -0.3381 -0.1508  0.1834
 4535SOL    HW125238   0.363   3.909   3.249 -2.0230  0.0242  0.2333
 4535SOL    HW225239   0.421   4.018   3.332 -1.8938  2.1372  0.7204
 4536SOL     OW25240   2.625   0.149  13.142  0.6325 -0.4631 -0.1577
 4536SOL    HW125241   2.623   0.059  13.176 -0.1552 -0.0308  0.9507
 4536SOL    HW225242   2.709   0.158  13.097  0.4527 -0.8553 -0.5656
 4537SOL     OW25243   1.423   0.015   2.189  0.2129  0.0663  0.2584
 4537SOL    HW125244   1.448   4.730   2.279  1.1617  1.2835  0.2920
 4537SOL    HW225245   1.497   0.072   2.170 -1.4328  1.6385 -1.5151
 4538SOL     OW25246   1.305   3.912   0.213 -0.3491 -0.0579  0.2125
 4538SOL    HW125247   1.258   3.834   0.244  0.1618 -0.4223  0.0605
 4538SOL    HW225248   1.361   3.871   0.148  1.2073  2.4379  0.0161
 4539SOL     OW25249   0.361   3.440   7.946 -0.0219 -0.4672  0.1744
 4539SOL    HW125250   0.270   3.460   7.925  0.3037  0.6499 -0.1606
 4539SOL    HW225251   0.348   3.371   8.012 -0.4121 -0.7706 -0.2189
 4540SOL     OW25252   3.192   2.425   5.754  0.0648  0.0124 -0.5501
 4540SOL    HW125253   3.172   2.448   5.845 -0.8335 -2.3921 -0.1401
 4540SOL    HW225254   3.161   2.335   5.745  1.4980 -0.5387  0.0185
 4541SOL     OW25255   1.443   3.225   2.470  0.4232 -0.3657 -0.1129
 4541SOL    HW125256   1.486   3.166   2.532  1.5456  0.8387  0.2363
 4541SOL    HW225257   1.366   3.258   2.516  0.6758  1.5607 -1.0767
 4542SOL     OW25258   4.122   3.145  13.984 -0.5487  0.7307  0.8911
 4542SOL    HW125259   4.174   3.065  13.983  0.8571  1.6528 -0.4029
 4542SOL    HW225260   4.175   3.197  13.923  0.9819  1.2701  2.7118
 4543SOL     OW25261   1.844   0.107  14.117 -0.0180  0.2076  0.2204
 4543SOL    HW125262   1.865   0.084  14.208 -1.6991  0.5040  0.6986
 4543SOL    HW225263   1.928   0.124  14.075  0.2463 -1.5212  0.0392
 4544SOL     OW25264   3.283   2.739   9.992  0.0313  0.3483  0.5553
 4544SOL    HW125265   3.264   2.674  10.061 -0.1642 -1.0908 -0.8498
 4544SOL    HW225266   3.199   2.752   9.949  0.8187  0.4890 -0.9212
 4545SOL     OW25267   2.632   1.700  11.413 -0.1576  0.4862 -0.6245
 4545SOL    HW125268   2.724   1.723  11.402 -0.1139  1.1490  1.1432
 4545SOL    HW225269   2.628   1.651  11.495  3.1694  1.6816  0.2612
 4546SOL     OW25270   1.365   2.217  11.989 -0.5954  0.1033 -0.8775
 4546SOL    HW125271   1.277   2.253  11.976 -1.3276 -1.6789 -0.8432
 4546SOL    HW225272   1.402   2.211  11.901  0.1525 -1.0901 -0.4792
 4547SOL     OW25273   1.613   1.683   3.537  0.0797  0.2034  0.5886
 4547SOL    HW125274   1.559   1.649   3.608  1.0517 -0.9694  0.7792
 4547SOL    HW225275   1.614   1.778   3.548  3.3288 -0.1158  3.1906
 4548SOL     OW25276   0.671   3.977  10.504  0.0158 -0.0593 -0.5727
 4548SOL    HW125277   0.581   3.967  10.535  0.1905 -1.6214 -0.5574
 4548SOL    HW225278   0.658   3.970  10.409 -2.2496 -0.9317 -0.2082
 4549SOL     OW25279   3.893   0.810   2.645  0.2586  0.3331  0.8174
 4549SOL    HW125280   3.935   0.733   2.606  1.9182  1.5530  0.2093
 4549SOL    HW225281   3.861   0.844   2.562 -0.6862 -1.4335  0.4586
 4550SOL     OW25282   3.052   1.259   7.706 -0.0435  0.0202 -0.3813
 4550SOL    HW125283   3.041   1.332   7.767  0.4002  0.0929 -0.3913
 4550SOL    HW225284   3.135   1.227   7.741  1.5899  1.5396 -2.8346
 4551SOL     OW25285   1.725   2.251   7.937  0.0538  0.4797 -0.1511
 4551SOL    HW125286   1.630   2.251   7.951  0.1662 -1.4447  0.6418
 4551SOL    HW225287   1.754   2.171   7.980 -0.5635  0.7181  0.7065
 4552SOL     OW25288   4.594   0.670   6.264  1.0581  0.5930 -0.0832
 4552SOL    HW125289   4.550   0.719   6.196  0.6129  2.3673  1.4851
 4552SOL    HW225290   4.661   0.623   6.214 -0.3716 -0.7947 -0.6718
 4553SOL     OW25291   2.305   2.798   4.576 -0.4249 -0.1405  0.0789
 4553SOL    HW125292   2.243   2.865   4.547  0.9388  0.7811 -0.6309
 4553SOL    HW225293   2.243   2.746   4.628 -1.1445  0.8960  0.2596
 4554SOL     OW25294   0.745   0.375   4.868 -0.3508 -0.0991 -0.2870
 4554SOL    HW125295   0.658   0.369   4.829 -0.1205 -0.2163 -0.7848
 4554SOL    HW225296   0.764   0.282   4.859 -1.3781 -0.0945 -2.4884
 4555SOL     OW25297   2.477   1.700  12.206  0.0483  0.1439  0.1668
 4555SOL    HW125298   2.531   1.777  12.187  0.3741 -0.1902 -0.2608
 4555SOL    HW225299   2.474   1.699  12.302  0.4907 -1.7617  0.1617
 4556SOL     OW25300   0.044   0.587   7.599  0.0942 -0.0437  0.1804
 4556SOL    HW125301   4.698   0.636   7.594  1.0806  1.5665 -0.4519
 4556SOL    HW225302   0.008   0.500   7.613  1.8281 -0.7878 -0.0321
 4557SOL     OW25303   3.875   3.963   3.714 -0.8465  0.2579  0.1985
 4557SOL    HW125304   3.807   3.905   3.681  0.3886 -1.0079 -0.1264
 4557SOL    HW225305   3.857   3.953   3.808 -2.6040 -0.5509 -0.2292
 4558SOL     OW25306   1.237   1.932   6.184 -0.2836  0.1058 -0.1177
 4558SOL    HW125307   1.268   1.973   6.103  1.2741 -0.3715  0.2393
 4558SOL    HW225308   1.299   1.861   6.200 -2.4661 -1.1164  3.0254
 4559SOL     OW25309   3.018   4.234  16.335 -0.1688  0.0297  0.0366
 4559SOL    HW125310   3.108   4.206  16.351  0.3856  1.7845  0.0481
 4559SOL    HW225311   3.011   4.201  16.245  2.1857 -0.1311 -0.1069
 4560SOL     OW25312   4.214   2.744   2.211 -0.0383  0.2066 -0.1262
 4560SOL    HW125313   4.208   2.690   2.132  0.7092 -2.1913  1.4570
 4560SOL    HW225314   4.200   2.668   2.267  1.2425  0.6148  0.7505
 4561SOL     OW25315   4.271   2.296  12.497  0.3607  0.5223  0.1023
 4561SOL    HW125316   4.324   2.217  12.495  0.7499  0.8256 -1.1245
 4561SOL    HW225317   4.201   2.267  12.438 -0.5236  1.9466  0.4424
 4562SOL     OW25318   3.938   2.076   7.236  0.1260  0.4894  0.9074
 4562SOL    HW125319   3.878   2.003   7.255  1.6351 -0.6958  1.0706
 4562SOL    HW225320   4.025   2.038   7.230  0.0257  0.6389 -1.3737
 4563SOL     OW25321   1.188   3.666   0.313 -0.3526  0.1972 -0.1576
 4563SOL    HW125322   1.117   3.602   0.319  1.8179 -2.0107  1.5509
 4563SOL    HW225323   1.258   3.606   0.287 -1.1106 -1.1918  1.0025
 4564SOL     OW25324   3.478   4.549  13.631  0.2873  0.6743 -0.2896
 4564SOL    HW125325   3.483   4.582  13.720  2.0687 -0.4108  0.0099
 4564SOL    HW225326   3.475   4.456  13.655 -0.0488  0.6218 -0.5303
 4565SOL     OW25327   2.301   1.312   6.999  0.0265  0.8099 -0.2292
 4565SOL    HW125328   2.211   1.284   6.984  0.6791 -0.9589 -0.8646
 4565SOL    HW225329   2.299   1.405   6.977 -0.5576  1.1264  1.1309
 4566SOL     OW25330   0.683   0.311  16.308  0.7490 -0.5053 -0.7289
 4566SOL    HW125331   0.744   0.285  16.239  0.5547  0.2377 -1.1825
 4566SOL    HW225332   0.745   0.299  16.379 -0.1366 -3.5018 -0.4701
 4567SOL     OW25333   1.876   3.641   8.526  0.0883 -0.9085 -0.0102
 4567SOL    HW125334   1.796   3.652   8.475 -0.3859  0.4576  0.9971
 4567SOL    HW225335   1.899   3.734   8.530  1.1094 -1.1627  0.1196
 4568SOL     OW25336   4.429   3.219   9.554  0.0100 -0.4301  0.1292
 4568SOL    HW125337   4.375   3.278   9.502  1.5792  0.5714 -0.3522
 4568SOL    HW225338   4.379   3.212   9.635 -1.5466  3.1611 -0.5243
 4569SOL     OW25339   2.649   0.684   9.607  0.3952  0.2589  0.4400
 4569SOL    HW125340   2.691   0.606   9.572 -1.3222 -0.9491  1.0857
 4569SOL    HW225341   2.567   0.673   9.560  0.9753 -2.7046  0.1279
 4570SOL     OW25342   1.425   1.537   3.242 -0.1389  0.4819  0.0608
 4570SOL    HW125343   1.375   1.584   3.175 -1.2112  0.0662  0.5751
 4570SOL    HW225344   1.482   1.603   3.280 -0.4766  1.5641 -1.2972
 4571SOL     OW25345   3.851   3.403   9.567 -0.4866  0.2231 -0.1432
 4571SOL    HW125346   3.808   3.318   9.557  1.6707 -0.7037 -1.7235
 4571SOL    HW225347   3.783   3.443   9.620 -0.0068 -1.2171  1.5490
 4572SOL     OW25348   1.819   1.153  11.897  0.1609 -0.2246 -0.3728
 4572SOL    HW125349   1.889   1.163  11.832  0.5166  0.8942  0.1801
 4572SOL    HW225350   1.805   1.242  11.929  1.8301 -1.0973  2.7902
 4573SOL     OW25351   2.100   1.051   2.451 -0.1115 -0.4372 -0.4329
 4573SOL    HW125352   2.153   0.994   2.506  0.0465 -1.1800 -1.3724
 4573SOL    HW225353   2.081   1.119   2.517 -0.3855 -1.1883  0.2634
 4574SOL     OW25354   1.664   1.959   9.382 -0.1413  0.2264 -0.4238
 4574SOL    HW125355   1.575   1.995   9.385 -0.7141 -1.2741  0.6272
 4574SOL    HW225356   1.718   2.037   9.394  0.2451 -0.1817  0.4774
 4575SOL     OW25357   2.447   3.906   4.255 -0.3631  0.1523  0.1500
 4575SOL    HW125358   2.459   3.981   4.313 -1.6475  1.6555 -1.5611
 4575SOL    HW225359   2.352   3.905   4.260 -0.3088  1.7582  1.2815
 4576SOL     OW25360   0.168   3.076  15.443 -0.3219 -0.1744 -0.0719
 4576SOL    HW125361   0.099   3.022  15.405  0.8626 -0.8349 -1.2985
 4576SOL    HW225362   0.235   3.007  15.451 -1.3575 -1.0341  1.2845
 4577SOL     OW25363   4.268   2.909   5.575  0.4657 -0.3835 -0.5176
 4577SOL    HW125364   4.345   2.962   5.594 -1.1595  2.0948 -0.8655
 4577SOL    HW225365   4.288   2.853   5.650 -1.4791 -0.4486 -0.0416
 4578SOL     OW25366   2.450   1.498  14.621  0.1813 -0.0795 -0.5423
 4578SOL    HW125367   2.464   1.449  14.701 -1.0396  0.3242 -0.0873
 4578SOL    HW225368   2.435   1.591  14.640  1.4267 -0.1140  0.6224
 4579SOL     OW25369   0.201   2.553   4.903 -0.6138  0.5446 -0.2752
 4579SOL    HW125370   0.200   2.542   4.808  0.5691 -0.2134 -0.2011
 4579SOL    HW225371   0.213   2.462   4.929 -1.7698  0.3613 -0.3654
 4580SOL     OW25372   4.713   2.786   3.028  0.1373  0.5420  0.8109
 4580SOL    HW125373   4.714   2.862   2.969 -2.7487  0.7396  1.0086
 4580SOL    HW225374   4.650   2.821   3.091  0.7717 -0.1954  1.8443
 4581SOL     OW25375   4.587   2.891   6.376  0.9008 -0.1749 -0.0271
 4581SOL    HW125376   4.582   2.796   6.364 -2.5105 -0.0020  0.0685
 4581SOL    HW225377   4.681   2.890   6.356  0.5624  1.1254 -1.7039
 4582SOL     OW25378   4.653   0.980   1.798 -0.6668  0.6068 -0.0698
 4582SOL    HW125379   4.583   0.934   1.844 -0.5726 -0.7046 -1.2289
 4582SOL    HW225380   4.670   1.056   1.853  1.2545 -0.7715  1.2662
 4583SOL     OW25381   2.750   3.258  12.902  0.3762 -0.3629 -0.2708
 4583SOL    HW125382   2.660   3.274  12.931  0.0676  1.9639 -2.5268
 4583SOL    HW225383   2.765   3.171  12.937 -0.2089 -0.6482 -0.7237
 4584SOL     OW25384   2.200   0.132   5.385 -0.2012  0.3490  0.4232
 4584SOL    HW125385   2.254   0.139   5.306 -0.2776  0.5872  0.3906
 4584SOL    HW225386   2.255   0.176   5.450 -1.0637 -0.4348  1.6731
 4585SOL     OW25387   1.524   2.063   5.449  0.3933  0.0317  0.7500
 4585SOL    HW125388   1.452   2.116   5.483 -0.0415 -0.4251  0.5449
 4585SOL    HW225389   1.562   2.025   5.528 -2.4491 -2.2850  1.0135
 4586SOL     OW25390   1.758   1.955   2.636  0.0153  0.4578 -0.0561
 4586SOL    HW125391   1.669   1.988   2.648  0.0369  0.4206  0.1918
 4586SOL    HW225392   1.806   2.033   2.606 -0.8901  1.8393  2.1229
 4587SOL     OW25393   1.242   0.589   5.284  0.6071 -0.1850  0.6284
 4587SOL    HW125394   1.151   0.579   5.257  0.7219  0.5184 -0.0483
 4587SOL    HW225395   1.270   0.659   5.224 -1.3178 -0.9196 -1.0878
 4588SOL     OW25396   2.720   1.558  16.132 -0.2943 -0.4733 -0.1548
 4588SOL    HW125397   2.637   1.563  16.084  1.2302  0.2534 -2.7203
 4588SOL    HW225398   2.780   1.604  16.073 -1.1252 -1.9471 -2.1570
 4589SOL     OW25399   2.624   1.987   9.467 -0.4200 -0.2777 -0.4314
 4589SOL    HW125400   2.614   1.905   9.515  0.1560 -0.0684  0.0510
 4589SOL    HW225401   2.548   2.038   9.495  2.0408  1.6977  2.6792
 4590SOL     OW25402   3.750   0.207   7.723 -0.3414 -0.4931  0.2622
 4590SOL    HW125403   3.717   0.214   7.813 -0.1552 -3.7316  0.5820
 4590SOL    HW225404   3.819   0.142   7.735  0.4986  0.1961 -0.8491
 4591SOL     OW25405   3.737   1.542  17.161  0.2144  0.3775  0.0649
 4591SOL    HW125406   3.820   1.496  17.149  0.4051  0.9601 -0.8467
 4591SOL    HW225407   3.683   1.477  17.205 -0.8547  1.3576  0.2010
 4592SOL     OW25408   4.495   4.197   2.407 -0.5094 -0.3692  0.2632
 4592SOL    HW125409   4.451   4.276   2.375 -0.5800  0.2714  1.9322
 4592SOL    HW225410   4.512   4.216   2.499 -1.8886 -2.9116  1.0358
 4593SOL     OW25411   2.572   1.515   4.980 -0.3674 -0.3947  0.1353
 4593SOL    HW125412   2.492   1.560   5.005 -0.6598 -1.0828  0.4372
 4593SOL    HW225413   2.621   1.516   5.063 -1.2303 -2.8541  0.6562
 4594SOL     OW25414   0.019   3.044   7.086  0.1043 -0.2024 -0.2910
 4594SOL    HW125415   4.713   3.064   7.169  1.1498  3.2433 -0.5741
 4594SOL    HW225416   0.077   3.119   7.079 -0.1081 -0.0813 -0.7796
 4595SOL     OW25417   2.122   2.473   3.030  0.5081  1.0263 -0.2609
 4595SOL    HW125418   2.057   2.460   2.962  0.4909 -3.6733  0.6441
 4595SOL    HW225419   2.101   2.398   3.085  0.6847  0.3186 -1.1589
 4596SOL     OW25420   1.160   0.170   1.745 -0.2459 -0.2808 -0.6535
 4596SOL    HW125421   1.152   0.177   1.841  0.1602  1.5865 -0.7497
 4596SOL    HW225422   1.224   0.240   1.729 -0.0905 -0.4428 -0.7289
 4597SOL     OW25423   3.778   1.392  14.593 -0.1321 -0.1976  0.3321
 4597SOL    HW125424   3.784   1.395  14.497  2.9968  0.3810  0.5378
 4597SOL    HW225425   3.689   1.423  14.608 -0.1978  0.4344 -1.3324
 4598SOL     OW25426   1.600   4.237   2.790 -0.2430 -0.0155  0.2791
 4598SOL    HW125427   1.615   4.320   2.835 -1.2118  0.4959 -0.3559
 4598SOL    HW225428   1.507   4.239   2.769  0.1516 -0.8598 -1.5685
 4599SOL     OW25429   3.236   3.065   6.128 -0.4236  0.4818  0.2478
 4599SOL    HW125430   3.216   3.038   6.218  1.5152 -0.3281  0.4391
 4599SOL    HW225431   3.289   3.143   6.146  0.5327  0.1032 -0.8986
 4600SOL     OW25432   4.680   1.570   1.890  0.3807 -0.5777  0.0353
 4600SOL    HW125433   4.692   1.502   1.956 -1.6344  0.3770  1.3853
 4600SOL    HW225434   4.697   1.653   1.935  1.2337 -1.2878  1.0081
 4601SOL     OW25435   1.151   2.326   7.373 -0.0660  0.2094 -0.0851
 4601SOL    HW125436   1.187   2.297   7.457  1.8628 -0.7569 -1.2613
 4601SOL    HW225437   1.234   2.318   7.326  0.9007 -2.1549  2.0104
 4602SOL     OW25438   0.350   1.843   0.969  0.1991 -0.1074  0.3948
 4602SOL    HW125439   0.352   1.767   0.911  3.1865  0.5965 -0.4350
 4602SOL    HW225440   0.259   1.870   0.957  0.0914 -0.6466  0.0072
 4603SOL     OW25441   3.957   0.594  10.387  0.3329 -0.5439  0.5149
 4603SOL    HW125442   3.915   0.580  10.302  0.5188  1.0233  0.1538
 4603SOL    HW225443   4.048   0.570  10.369  0.5992  0.9172 -0.1139
 4604SOL     OW25444   4.438   4.022   2.763  0.1768 -0.1426  0.1579
 4604SOL    HW125445   4.472   4.109   2.745  2.8320 -0.8231  1.9047
 4604SOL    HW225446   4.442   3.996   2.671  0.2139  0.7117 -0.0864
 4605SOL     OW25447   3.021   3.827   7.465 -0.0386  0.1120 -0.3640
 4605SOL    HW125448   3.114   3.838   7.483 -0.4531 -0.6185  2.3435
 4605SOL    HW225449   3.019   3.737   7.435 -0.9344 -0.4792  1.4169
 4606SOL     OW25450   3.332   2.381   5.320 -0.6347  0.4267 -0.2767
 4606SOL    HW125451   3.365   2.453   5.372  1.0175 -0.9858  0.6204
 4606SOL    HW225452   3.252   2.359   5.367 -0.5963  0.1740 -0.3299
 4607SOL     OW25453   0.919   2.032   7.765  0.2867 -0.2282  0.4184
 4607SOL    HW125454   0.894   1.957   7.819  0.6973 -0.4121  0.3501
 4607SOL    HW225455   0.887   2.108   7.815  1.0230 -0.9698  2.0121
 4608SOL     OW25456   2.287   4.370  14.991 -0.1929 -0.3820 -0.0506
 4608SOL    HW125457   2.359   4.433  14.989  0.8993 -1.7350 -2.4901
 4608SOL    HW225458   2.280   4.359  15.086 -0.1445 -2.1112 -0.2526
 4609SOL     OW25459   0.978   0.447   2.797  0.5641  0.6910 -0.6891
 4609SOL    HW125460   0.887   0.455   2.825  0.6335 -1.9626  0.3118
 4609SOL    HW225461   1.018   0.509   2.858  0.0598 -0.0603  0.4157
 4610SOL     OW25462   0.238   2.417   0.192 -0.4261  0.5606 -0.8202
 4610SOL    HW125463   0.328   2.384   0.193 -1.0015 -0.9283  2.1474
 4610SOL    HW225464   0.206   2.385   0.277 -0.7915  0.5958 -0.9427
 4611SOL     OW25465   4.670   0.914   2.948 -0.2394 -0.1211 -0.6264
 4611SOL    HW125466   4.694   0.968   3.023  1.1048 -0.7549 -0.5850
 4611SOL    HW225467   4.593   0.869   2.982  1.3852 -2.4379  0.0451
 4612SOL     OW25468   1.759   4.634   2.243 -0.0710  0.5285  0.1140
 4612SOL    HW125469   1.836   4.657   2.295  0.7768 -0.0791 -0.8813
 4612SOL    HW225470   1.727   4.720   2.215  1.7000  0.9571 -0.5987
 4613SOL     OW25471   0.044   0.864   7.288 -0.1199  0.4334 -0.3354
 4613SOL    HW125472   4.730   0.786   7.312  0.7261  0.7280  2.4703
 4613SOL    HW225473   0.075   0.830   7.204  1.0707  0.5028  0.0773
 4614SOL     OW25474   0.860   4.492   6.450  0.2285 -0.4754 -0.0944
 4614SOL    HW125475   0.914   4.503   6.528  1.2056 -1.1699 -0.6833
 4614SOL    HW225476   0.918   4.520   6.380  1.0752 -1.1809  0.3203
 4615SOL     OW25477   1.520   2.780   5.566 -0.2087 -0.0728  0.4794
 4615SOL    HW125478   1.529   2.780   5.471 -0.9707  1.4490  0.4073
 4615SOL    HW225479   1.425   2.785   5.578 -0.6855 -5.5990 -0.8279
 4616SOL     OW25480   0.509   1.809  15.035  0.3781 -0.1610  0.1673
 4616SOL    HW125481   0.435   1.749  15.033  0.5282 -0.3035 -1.1494
 4616SOL    HW225482   0.488   1.879  14.973  1.1684  2.1519  2.4645
 4617SOL     OW25483   4.179   1.442   5.733 -0.1782  0.1376  0.1673
 4617SOL    HW125484   4.156   1.534   5.739  0.9311  0.3632  0.9914
 4617SOL    HW225485   4.098   1.396   5.710 -1.2640  2.1122  0.1135
 4618SOL     OW25486   1.499   1.916   6.804 -0.1054 -0.3488 -0.2691
 4618SOL    HW125487   1.422   1.954   6.761 -0.2154  0.5949  0.7761
 4618SOL    HW225488   1.524   1.838   6.754  0.8284 -0.2265  0.0074
 4619SOL     OW25489   0.612   4.612   6.562  0.3154 -0.1515 -0.6043
 4619SOL    HW125490   0.591   4.703   6.540 -1.0947 -0.8155 -2.0476
 4619SOL    HW225491   0.624   4.581   6.472 -0.5316  1.4576 -1.2697
 4620SOL     OW25492   0.042   1.854  10.264  0.4368  0.1364 -0.2311
 4620SOL    HW125493   4.721   1.927  10.289  1.4170  0.2320  1.8350
 4620SOL    HW225494   0.047   1.866  10.170  1.8379  0.5763 -0.0987
 4621SOL     OW25495   2.482   3.689   5.812  0.0360 -0.9852  0.3475
 4621SOL    HW125496   2.520   3.619   5.866  2.1673 -0.5183 -0.5426
 4621SOL    HW225497   2.393   3.691   5.847  0.7033  3.4752  1.7040
 4622SOL     OW25498   2.012   2.167   5.535 -0.0588  0.0528  0.1742
 4622SOL    HW125499   1.962   2.173   5.616 -0.3965 -0.8058  0.0364
 4622SOL    HW225500   1.983   2.244   5.486 -0.9474 -0.8237 -0.6952
 4623SOL     OW25501   3.433   4.428   1.291 -0.6085  0.0426 -0.0851
 4623SOL    HW125502   3.450   4.402   1.382  1.2028  1.5680  0.0051
 4623SOL    HW225503   3.501   4.380   1.244  0.2694  1.2359 -0.0448
 4624SOL     OW25504   3.202   0.274   9.672  0.3496  0.3104  0.3334
 4624SOL    HW125505   3.124   0.307   9.716 -0.9837  1.6133 -3.0605
 4624SOL    HW225506   3.244   0.231   9.747 -0.7281 -1.5532 -0.1338
 4625SOL     OW25507   1.948   3.922  17.584 -0.0681  0.1345  0.1488
 4625SOL    HW125508   1.925   3.957  17.498 -0.6557  0.4274  0.4268
 4625SOL    HW225509   2.034   3.882  17.575  0.7074  1.9662 -0.5378
 4626SOL     OW25510   1.597   1.792   7.614 -0.1223 -0.3878  0.1952
 4626SOL    HW125511   1.628   1.796   7.704  1.0317  0.3413 -0.2281
 4626SOL    HW225512   1.582   1.885   7.600  1.0837 -0.2052  0.1145
 4627SOL     OW25513   0.539   1.530   5.597  0.2762 -0.2535  0.0219
 4627SOL    HW125514   0.600   1.491   5.661 -0.7790 -0.3266  0.9900
 4627SOL    HW225515   0.578   1.617   5.595 -0.0684 -0.0345  2.9185
 4628SOL     OW25516   0.792   1.547  15.770 -0.2197 -0.2510  0.0539
 4628SOL    HW125517   0.744   1.466  15.754  1.4082 -1.2215  0.0437
 4628SOL    HW225518   0.727   1.603  15.726  0.7036  0.6583 -0.1754
 4629SOL     OW25519   2.668   2.085   6.036 -0.4605 -0.2813 -0.7272
 4629SOL    HW125520   2.632   2.132   6.111  1.0526 -0.6597  0.2313
 4629SOL    HW225521   2.589   2.046   5.998 -1.7671  0.6250  1.0450
 4630SOL     OW25522   2.336   4.365   3.676 -0.0965  0.0918  0.0340
 4630SOL    HW125523   2.369   4.390   3.590  1.3114 -0.9810  0.2618
 4630SOL    HW225524   2.278   4.294   3.649  0.7504  0.3922 -2.5346
 4631SOL     OW25525   1.563   2.144   6.486 -0.4994 -0.2213  0.3717
 4631SOL    HW125526   1.540   2.181   6.571  2.0855  2.0366  0.1088
 4631SOL    HW225527   1.525   2.057   6.488 -0.3074 -0.3222 -0.1727
 4632SOL     OW25528   0.943   1.795   6.247 -0.0933  0.0488 -0.3110
 4632SOL    HW125529   0.962   1.729   6.314  0.5612 -0.5434 -1.0642
 4632SOL    HW225530   0.861   1.762   6.211 -0.6653  3.6661 -2.3264
 4633SOL     OW25531   0.254   2.957  12.823 -0.4162  0.2296 -0.2718
 4633SOL    HW125532   0.256   3.037  12.770  1.5706  0.1366 -0.3091
 4633SOL    HW225533   0.345   2.951  12.850 -0.5213  0.1773  0.0758
 4634SOL     OW25534   4.155   2.621  10.882 -0.2578  0.2791 -0.0531
 4634SOL    HW125535   4.097   2.697  10.881 -0.7221 -0.0802 -1.0511
 4634SOL    HW225536   4.147   2.594  10.974 -0.8471  2.2866  0.4814
 4635SOL     OW25537   3.964   3.893   3.389 -0.0207  0.2063 -0.1504
 4635SOL    HW125538   4.006   3.956   3.330  0.2750 -1.0500 -1.2894
 4635SOL    HW225539   4.021   3.817   3.386 -0.2104  0.2037 -4.1810
 4636SOL     OW25540   0.293   3.940   7.496 -0.0733 -0.2643 -0.8100
 4636SOL    HW125541   0.265   3.852   7.470 -1.1186 -0.4142  0.7799
 4636SOL    HW225542   0.218   4.000   7.498 -0.5269 -0.9046  2.0437
 4637SOL     OW25543   4.639   3.130   5.351 -0.4334 -0.2165  0.3136
 4637SOL    HW125544   4.659   3.174   5.268  2.2522  1.4152  1.8302
 4637SOL    HW225545   4.631   3.038   5.326 -0.9599 -0.1269  0.1513
 4638SOL     OW25546   1.860   2.922   8.514 -0.1962 -0.2796 -0.1522
 4638SOL    HW125547   1.942   2.969   8.532  0.5607 -1.1956 -1.1972
 4638SOL    HW225548   1.821   2.989   8.459  0.0357 -0.1206 -0.1263
 4639SOL     OW25549   1.764   4.030   2.900  0.0519 -0.6657 -0.1822
 4639SOL    HW125550   1.746   3.961   2.836  2.0715 -2.9417  1.7053
 4639SOL    HW225551   1.706   4.088   2.851  0.4921  2.0872  2.5158
 4640SOL     OW25552   2.830   1.691   0.515 -0.0204 -0.6566  0.7538
 4640SOL    HW125553   2.925   1.695   0.528 -0.0790  0.1322  0.9307
 4640SOL    HW225554   2.820   1.739   0.433  2.2746  1.1371  1.5204
 4641SOL     OW25555   0.063   2.219  10.884  0.6930  0.3391 -0.3159
 4641SOL    HW125556   0.113   2.167  10.821 -0.5581  0.4218 -1.3825
 4641SOL    HW225557   0.075   2.162  10.960 -0.2680  2.1348  1.1670
 4642SOL     OW25558   1.068   1.341   7.383  0.3635 -0.0238 -0.1844
 4642SOL    HW125559   1.123   1.267   7.361 -0.4482 -0.5259 -0.5251
 4642SOL    HW225560   1.130   1.405   7.419  1.0868  0.3126 -2.0339
 4643SOL     OW25561   1.766   2.605   7.172  0.3988  0.6697 -0.8207
 4643SOL    HW125562   1.798   2.514   7.176 -1.0071  0.2973  2.0775
 4643SOL    HW225563   1.803   2.647   7.250  0.4440  0.4397 -0.7174
 4644SOL     OW25564   1.895   0.343  13.217 -0.1508 -0.0475 -0.5873
 4644SOL    HW125565   1.961   0.286  13.177  0.3737  2.0435 -2.6629
 4644SOL    HW225566   1.941   0.371  13.296  0.1186 -1.8511 -0.0871
 4645SOL     OW25567   0.578   0.019  15.776 -0.0574  0.3643 -0.0615
 4645SOL    HW125568   0.483   0.019  15.782  0.0067  2.7903  0.9927
 4645SOL    HW225569   0.588   0.069  15.857  3.2137 -1.2468  0.5408
 4646SOL     OW25570   2.712   0.073   8.046  0.1244  0.5483  0.4155
 4646SOL    HW125571   2.631   0.022   8.035  1.4784 -1.6884  1.0221
 4646SOL    HW225572   2.740   0.056   8.136  0.5391 -4.6134 -0.7192
 4647SOL     OW25573   0.195   1.289   3.028 -0.3288 -0.2647  0.2897
 4647SOL    HW125574   0.160   1.332   3.107 -0.5404  1.2771 -0.6384
 4647SOL    HW225575   0.181   1.363   2.969  0.0196  0.0554  0.6075
 4648SOL     OW25576   0.290   1.378   1.536  0.1433  0.1865  0.3274
 4648SOL    HW125577   0.247   1.378   1.450 -0.7433 -1.1364  0.7743
 4648SOL    HW225578   0.318   1.469   1.543 -0.2366  0.2240  1.3899
 4649SOL     OW25579   3.386   1.643   3.434 -0.0968 -0.3649 -0.2353
 4649SOL    HW125580   3.322   1.638   3.505  1.2026  2.8620  1.1598
 4649SOL    HW225581   3.415   1.553   3.418  0.1313 -0.5060  0.9681
 4650SOL     OW25582   0.860   2.634  17.712 -0.1389 -0.4254 -0.2270
 4650SOL    HW125583   0.811   2.699  17.662 -0.7052 -0.1594  0.6675
 4650SOL    HW225584   0.932   2.613  17.653  0.7702  2.3283 -0.0676
 4651SOL     OW25585   2.371   1.749  10.556  0.1609 -0.0984 -0.7535
 4651SOL    HW125586   2.325   1.665  10.561 -1.5386  0.9198  0.3764
 4651SOL    HW225587   2.350   1.787  10.641  0.4099 -1.7312  0.0421
 4652SOL     OW25588   2.548   3.414   6.900 -1.0058 -0.1837  0.1829
 4652SOL    HW125589   2.482   3.347   6.916 -1.4904 -0.3167 -2.4333
 4652SOL    HW225590   2.533   3.484   6.964 -0.5259 -1.1344  1.3358
 4653SOL     OW25591   0.023   1.454   4.415  0.2642 -0.5996 -0.2969
 4653SOL    HW125592   4.693   1.388   4.437  0.0789 -0.1442  0.4912
 4653SOL    HW225593   4.720   1.499   4.341 -2.1313 -0.1342  1.2476
 4654SOL     OW25594   0.872   1.996   2.892  0.4660 -0.4122  0.1708
 4654SOL    HW125595   0.835   2.008   2.804  0.9433 -0.1978  0.0016
 4654SOL    HW225596   0.884   2.085   2.923  0.5778 -0.7377  1.0524
 4655SOL     OW25597   4.238   1.997  11.494  0.6549 -0.3564  0.2162
 4655SOL    HW125598   4.230   2.082  11.538 -0.9368  0.0950 -0.9814
 4655SOL    HW225599   4.205   1.939  11.563  0.5049  1.2578  1.5050
 4656SOL     OW25600   3.286   2.810   6.079  0.5357 -0.2741  0.6541
 4656SOL    HW125601   3.312   2.819   6.171 -0.3883 -2.7783  1.1699
 4656SOL    HW225602   3.244   2.896   6.075 -0.6115 -0.9339 -1.2641
 4657SOL     OW25603   0.780   1.866   1.758  0.3950 -0.0542 -0.0039
 4657SOL    HW125604   0.807   1.779   1.730 -0.5165 -0.1213 -0.6683
 4657SOL    HW225605   0.744   1.846   1.844 -0.6354 -0.3125 -0.4990
 4658SOL     OW25606   4.459   2.697  11.194  0.2920 -0.5308 -0.6157
 4658SOL    HW125607   4.399   2.643  11.245  0.8209 -0.0602  0.4935
 4658SOL    HW225608   4.522   2.721  11.262 -1.6053  0.0746  0.9210
 4659SOL     OW25609   4.505   1.135   1.295  0.5183 -0.0560 -0.1755
 4659SOL    HW125610   4.492   1.200   1.363 -2.0364 -1.0416  0.2808
 4659SOL    HW225611   4.437   1.071   1.317 -0.5126  1.8092  2.0108
 4660SOL     OW25612   0.783   0.575   6.282  0.1105 -0.2888 -0.9323
 4660SOL    HW125613   0.731   0.615   6.213 -2.6200 -4.0188 -1.0603
 4660SOL    HW225614   0.870   0.580   6.242  0.6940  1.3487  0.5444
 4661SOL     OW25615   2.712   3.561   4.691  0.1881 -0.5011  0.0459
 4661SOL    HW125616   2.762   3.481   4.702  0.3376 -0.5162 -0.7531
 4661SOL    HW225617   2.736   3.585   4.602  4.9489 -2.2009  0.9161
 4662SOL     OW25618   3.346   0.842  16.401  0.0742  0.3013  0.0777
 4662SOL    HW125619   3.415   0.904  16.378  1.6634 -0.6293  2.2305
 4662SOL    HW225620   3.281   0.866  16.335  0.7622 -1.5803 -1.2999
 4663SOL     OW25621   4.554   4.412   6.228  0.1765  0.1933  0.0683
 4663SOL    HW125622   4.514   4.432   6.313 -0.8130  1.0194 -0.5814
 4663SOL    HW225623   4.474   4.384   6.183  1.4463 -1.3276 -1.1961
 4664SOL     OW25624   0.150   0.794   5.480  0.3822  0.0960 -0.2860
 4664SOL    HW125625   0.171   0.736   5.407 -0.7985 -0.3383 -0.2867
 4664SOL    HW225626   0.242   0.818   5.493  0.5141 -1.2986  1.3105
 4665SOL     OW25627   0.953   2.686   8.082 -0.1338 -0.2362  0.5863
 4665SOL    HW125628   0.972   2.717   8.171 -2.7451 -1.4587  1.5648
 4665SOL    HW225629   1.030   2.628   8.079 -0.6648 -0.9350  0.4709
 4666SOL     OW25630   0.324   1.576  12.365  0.1760  0.2934  0.1571
 4666SOL    HW125631   0.275   1.633  12.423 -1.7928 -0.8605 -0.3876
 4666SOL    HW225632   0.257   1.514  12.338  0.0980 -0.1975  1.4860
 4667SOL     OW25633   3.279   1.015   1.716  0.0418  0.5012  0.0327
 4667SOL    HW125634   3.334   1.093   1.702 -0.6153  0.5378 -2.4325
 4667SOL    HW225635   3.328   0.959   1.776 -3.3381 -1.3748  1.0017
 4668SOL     OW25636   4.096   0.625  12.270  0.1437  0.0210 -0.5276
 4668SOL    HW125637   4.065   0.654  12.356  0.1124  0.3836 -0.6586
 4668SOL    HW225638   4.044   0.545  12.268 -0.0269  0.0879  1.3378
 4669SOL     OW25639   3.122   1.997  10.379 -0.3753  0.3188  0.1393
 4669SOL    HW125640   3.213   2.021  10.399  0.2365  0.8605 -3.3569
 4669SOL    HW225641   3.125   1.903  10.363  1.7885  0.3939  0.0491
 4670SOL     OW25642   0.397   2.642   6.308  0.0745 -0.1406 -0.4770
 4670SOL    HW125643   0.353   2.569   6.265  0.6507 -0.6618 -0.1857
 4670SOL    HW225644   0.384   2.709   6.242 -0.1906 -1.4525 -1.7540
 4671SOL     OW25645   2.589   0.880  16.275 -0.3012  0.6838 -0.0454
 4671SOL    HW125646   2.680   0.884  16.305 -0.3369 -0.6905  0.2469
 4671SOL    HW225647   2.580   0.796  16.231 -1.3550  2.5651 -3.4102
 4672SOL     OW25648   4.155   1.875  14.447  0.4067  0.2588 -0.6856
 4672SOL    HW125649   4.195   1.877  14.534  0.3547 -0.2010 -0.6518
 4672SOL    HW225650   4.207   1.805  14.408  1.9293 -0.3716  2.4823
 4673SOL     OW25651   1.942   3.900   6.029 -0.9148  0.4836  0.1710
 4673SOL    HW125652   2.005   3.870   5.964 -4.1090  0.7516 -3.0288
 4673SOL    HW225653   1.968   3.987   6.059 -3.6240  1.0048  1.0542
 4674SOL     OW25654   2.313   4.331   7.990  0.1846  0.3027  0.3853
 4674SOL    HW125655   2.330   4.426   7.990  0.4225  0.2718  2.8241
 4674SOL    HW225656   2.378   4.293   8.049 -1.8550 -1.0381  1.7617
 4675SOL     OW25657   3.239   2.290  13.257 -0.0906 -0.0146  0.1055
 4675SOL    HW125658   3.191   2.321  13.334  0.6473 -0.6926  0.8391
 4675SOL    HW225659   3.171   2.300  13.190 -1.2965  1.4855  1.5515
 4676SOL     OW25660   3.172   0.744  11.340 -0.3715 -0.1464  0.0555
 4676SOL    HW125661   3.160   0.838  11.351  0.1687 -0.0518 -0.1456
 4676SOL    HW225662   3.257   0.759  11.299 -0.6890 -0.4712 -0.7258
 4677SOL     OW25663   0.509   2.807   8.281  0.2349  0.0273  0.1037
 4677SOL    HW125664   0.590   2.805   8.332 -0.2492  0.1284  0.8931
 4677SOL    HW225665   0.548   2.842   8.201 -0.2484  0.3408  0.0032
 4678SOL     OW25666   3.071   0.607   6.271 -0.1542 -0.4697  0.2100
 4678SOL    HW125667   2.997   0.575   6.219 -0.8294 -0.5864  1.2323
 4678SOL    HW225668   3.041   0.695   6.295 -0.7055 -1.1080  1.8757
 4679SOL     OW25669   3.321   0.063   5.485  0.0183 -0.2802 -0.3680
 4679SOL    HW125670   3.266   0.064   5.407  1.4924 -1.1403 -1.4328
 4679SOL    HW225671   3.402   0.063   5.434 -1.4794 -0.0000 -2.7631
 4680SOL     OW25672   1.171   1.021   7.474 -0.5922  0.1382 -0.0776
 4680SOL    HW125673   1.075   1.021   7.479 -0.5396 -0.2035  0.9141
 4680SOL    HW225674   1.189   0.999   7.565 -3.5804  1.0392  0.7355
 4681SOL     OW25675   4.033   3.034   8.808  0.1951 -0.2939  0.0935
 4681SOL    HW125676   4.005   3.048   8.718 -1.1556 -2.4228  0.1868
 4681SOL    HW225677   4.050   3.124   8.838 -1.1835  0.4651 -1.3452
 4682SOL     OW25678   4.263   2.223   8.696 -0.3951  0.3405 -0.5872
 4682SOL    HW125679   4.210   2.160   8.745  2.0168  0.4466  2.1594
 4682SOL    HW225680   4.258   2.184   8.609  0.3530 -1.3991  0.1710
 4683SOL     OW25681   0.469   0.319   7.049  0.3777 -0.3695 -0.2064
 4683SOL    HW125682   0.392   0.332   7.104 -0.6442 -1.7989 -1.3076
 4683SOL    HW225683   0.505   0.247   7.100 -1.6270 -1.1692  0.0396
 4684SOL     OW25684   2.460   3.833  12.176  0.2165 -0.1106  0.5335
 4684SOL    HW125685   2.535   3.827  12.118  0.0779 -0.9306  0.4261
 4684SOL    HW225686   2.462   3.748  12.219 -1.5251 -0.3428  0.1711
 4685SOL     OW25687   3.803   0.829   1.445  0.5499  0.2002  0.0811
 4685SOL    HW125688   3.860   0.835   1.522  0.2915 -1.1925  0.3908
 4685SOL    HW225689   3.723   0.868   1.482  0.3996 -0.7008  0.6933
 4686SOL     OW25690   0.156   1.682   0.644 -0.8888 -0.2371  0.1356
 4686SOL    HW125691   0.210   1.686   0.724  1.3738 -0.1450 -1.3859
 4686SOL    HW225692   0.079   1.719   0.687 -1.3631 -0.5836 -0.4261
 4687SOL     OW25693   1.467   4.436  14.311 -0.9304 -0.0550  0.1435
 4687SOL    HW125694   1.412   4.488  14.371  0.8877  0.8419  1.0438
 4687SOL    HW225695   1.401   4.402  14.251 -1.5527  2.7706 -0.7751
 4688SOL     OW25696   0.064   0.918  14.184 -0.1561 -0.6216  0.7944
 4688SOL    HW125697   0.072   0.892  14.093 -0.2847 -1.2707  0.9699
 4688SOL    HW225698   4.708   0.900  14.197 -0.9737  2.4203 -0.8027
 4689SOL     OW25699   4.377   3.676   3.593 -0.0366 -0.3034 -0.2120
 4689SOL    HW125700   4.326   3.630   3.525 -1.5128 -1.6818  1.8150
 4689SOL    HW225701   4.306   3.691   3.656 -1.4714 -2.2578 -1.3330
 4690SOL     OW25702   2.026   2.889   5.842 -0.2597 -0.1851 -0.3928
 4690SOL    HW125703   2.028   2.804   5.798 -0.5730  0.4783 -1.6710
 4690SOL    HW225704   1.934   2.887   5.869  0.3560 -1.2581  1.6414
 4691SOL     OW25705   0.615   3.817   3.279 -1.0514  0.3427 -0.5496
 4691SOL    HW125706   0.657   3.795   3.363 -0.5803  0.2395 -0.8107
 4691SOL    HW225707   0.620   3.913   3.279 -3.8814  0.4971  0.2496
 4692SOL     OW25708   1.179   0.968   6.713  0.2137  0.1212  0.0331
 4692SOL    HW125709   1.162   1.062   6.712  0.0034  0.0853  1.1496
 4692SOL    HW225710   1.265   0.960   6.754  0.2971  1.1138  0.0294
 4693SOL     OW25711   2.118   1.503   5.928  0.2512  0.2562 -0.0793
 4693SOL    HW125712   2.112   1.409   5.907  0.2641  0.2526 -0.0667
 4693SOL    HW225713   2.068   1.539   5.855 -2.5307 -1.1646  1.1110
 4694SOL     OW25714   3.719   4.126   1.363  0.3770  0.2513  0.3636
 4694SOL    HW125715   3.728   4.125   1.459 -0.4083 -2.1564  0.4010
 4694SOL    HW225716   3.799   4.083   1.334  0.2211  0.2297 -0.0225
 4695SOL     OW25717   2.478   0.930   8.703  0.1745  0.1306 -0.5967
 4695SOL    HW125718   2.547   0.979   8.659  1.1817 -1.0252 -0.3075
 4695SOL    HW225719   2.400   0.977   8.673  1.2416  0.8644 -2.1970
 4696SOL     OW25720   1.676   3.347   2.099 -0.3822  0.2440 -0.0251
 4696SOL    HW125721   1.734   3.271   2.111 -0.2027  0.2396 -0.8853
 4696SOL    HW225722   1.669   3.362   2.193 -1.4239  2.8940 -0.5202
 4697SOL     OW25723   2.059   1.256   6.840 -0.9827 -0.2690  0.8113
 4697SOL    HW125724   2.081   1.330   6.783  0.9766  0.1889  2.1517
 4697SOL    HW225725   1.993   1.214   6.786 -1.7163  2.3588 -0.3703
 4698SOL     OW25726   0.980   4.369   4.997  1.0419  0.0792 -0.2509
 4698SOL    HW125727   1.021   4.296   5.043  0.0968 -0.2688  0.0424
 4698SOL    HW225728   0.958   4.432   5.065  1.0120 -0.7462  0.5148
 4699SOL     OW25729   2.526   0.558  14.169 -0.2130  0.1525 -0.2533
 4699SOL    HW125730   2.517   0.503  14.091  2.0188  0.3169 -0.6208
 4699SOL    HW225731   2.620   0.574  14.173 -0.0857 -0.6604  0.0613
 4700SOL     OW25732   0.409   4.554   8.635 -0.1145  0.2114 -0.3504
 4700SOL    HW125733   0.495   4.525   8.605 -0.6137  0.5442 -2.1501
 4700SOL    HW225734   0.410   4.647   8.609 -0.2307  0.4623  0.5578
 4701SOL     OW25735   0.993   1.156   7.919  0.6560 -0.4386 -0.2252
 4701SOL    HW125736   0.975   1.087   7.855  2.2178 -0.2736 -0.8413
 4701SOL    HW225737   0.962   1.236   7.876  1.1498  0.0673  0.3606
 4702SOL     OW25738   4.082   2.268   5.674 -0.1787  0.2457  0.2389
 4702SOL    HW125739   4.149   2.212   5.714  0.5803  0.8291 -0.2236
 4702SOL    HW225740   4.094   2.248   5.581  0.3786 -0.3627  0.4345
 4703SOL     OW25741   2.647   0.099   8.761 -0.0207  0.1417  0.0850
 4703SOL    HW125742   2.693   0.073   8.682 -0.7343  0.5929 -0.4763
 4703SOL    HW225743   2.579   0.031   8.760  1.7918 -1.6611  0.3431
 4704SOL     OW25744   1.129   1.406   8.744  0.2217 -0.3368 -0.3851
 4704SOL    HW125745   1.163   1.383   8.657 -2.9178  0.5851 -1.8275
 4704SOL    HW225746   1.185   1.352   8.801  0.4470  0.9565  0.6141
 4705SOL     OW25747   0.655   3.157   3.214 -0.5939 -0.3764 -0.7038
 4705SOL    HW125748   0.712   3.186   3.142  2.2400 -0.3182  1.5502
 4705SOL    HW225749   0.725   3.125   3.271 -1.1573  1.9897  1.3240
 4706SOL     OW25750   1.164   1.053   8.596 -0.3543 -0.2806 -0.3157
 4706SOL    HW125751   1.180   0.959   8.590  2.4897  0.2658 -0.9700
 4706SOL    HW225752   1.100   1.063   8.666 -0.0650 -2.0136  0.2161
 4707SOL     OW25753   2.959   3.771   8.404 -0.0575 -0.0579 -0.2298
 4707SOL    HW125754   3.008   3.696   8.370  0.2159  0.1852 -0.3701
 4707SOL    HW225755   3.002   3.837   8.350  1.7049 -2.5117 -1.8505
 4708SOL     OW25756   3.827   1.383   6.802 -0.2473  0.2535  0.0323
 4708SOL    HW125757   3.850   1.308   6.747  1.0683  1.4504 -1.0667
 4708SOL    HW225758   3.732   1.368   6.798 -0.2004  0.1404 -0.6930
 4709SOL     OW25759   4.070   1.382   4.636 -0.2716  0.1524 -0.1638
 4709SOL    HW125760   3.986   1.349   4.603  1.0201 -1.1336 -2.1257
 4709SOL    HW225761   4.067   1.468   4.594  3.0636  0.4621  0.2927
 4710SOL     OW25762   2.205   3.079   4.094  0.2950 -0.1157  0.7735
 4710SOL    HW125763   2.144   3.106   4.025  0.0767 -1.5291  0.4003
 4710SOL    HW225764   2.156   3.005   4.130 -0.9702  1.1975  1.7340
 4711SOL     OW25765   1.770   1.758   3.995 -0.5558  0.0682  0.2601
 4711SOL    HW125766   1.766   1.753   4.090 -2.7236  0.2476  0.1802
 4711SOL    HW225767   1.831   1.829   3.976 -0.8835  0.1646 -0.4512
 4712SOL     OW25768   0.281   1.061  12.916  0.4624 -0.0201  0.0186
 4712SOL    HW125769   0.243   0.986  12.871 -1.9449  3.0427 -3.0993
 4712SOL    HW225770   0.349   1.031  12.976 -0.9789 -0.1660  1.5852
 4713SOL     OW25771   4.068   2.521   2.279  0.1411 -0.7458  0.0397
 4713SOL    HW125772   3.990   2.496   2.328 -0.4628 -0.6903 -0.8919
 4713SOL    HW225773   4.098   2.431   2.265  0.4967 -0.6672  0.2897
 4714SOL     OW25774   0.762   3.786   3.569 -0.3719 -0.2226  0.6365
 4714SOL    HW125775   0.836   3.837   3.602  0.7894 -0.7396 -1.1969
 4714SOL    HW225776   0.807   3.704   3.550 -0.8366 -0.4632  0.5733
 4715SOL     OW25777   0.172   0.188   2.269 -0.0660 -0.2261 -0.5699
 4715SOL    HW125778   0.218   0.167   2.188  0.9819  0.8692 -0.2619
 4715SOL    HW225779   0.149   0.279   2.248  0.9762 -0.6174 -3.3457
 4716SOL     OW25780   3.672   2.388   9.316  0.0592 -0.5048  0.3388
 4716SOL    HW125781   3.654   2.297   9.293 -1.8504  0.3602 -1.6401
 4716SOL    HW225782   3.762   2.383   9.348  0.9156  0.8899 -1.7970
 4717SOL     OW25783   2.761   1.146   5.206  0.3334 -0.5934 -0.2969
 4717SOL    HW125784   2.794   1.231   5.234  2.5838 -0.7714 -2.3605
 4717SOL    HW225785   2.670   1.168   5.227  0.3126 -0.8396 -0.1283
 4718SOL     OW25786   1.005   4.544   4.567  0.1334  0.4897 -0.0039
 4718SOL    HW125787   1.029   4.536   4.475 -0.4713 -0.0682 -0.1097
 4718SOL    HW225788   1.000   4.639   4.569 -2.1210  0.3147  2.6784
 4719SOL     OW25789   2.746   2.721   1.423 -0.1801 -0.3700  0.1622
 4719SOL    HW125790   2.828   2.690   1.459 -0.0803 -1.6673 -1.1970
 4719SOL    HW225791   2.761   2.811   1.392  0.5116 -0.3188  0.6417
 4720SOL     OW25792   4.381   3.525   3.076 -0.1527  0.4445 -0.1428
 4720SOL    HW125793   4.394   3.616   3.104  0.4715 -0.5998  2.9416
 4720SOL    HW225794   4.307   3.536   3.016 -0.5539 -0.2959  0.2140
 4721SOL     OW25795   1.946   1.238   2.636 -0.3866 -0.0671 -0.1659
 4721SOL    HW125796   1.927   1.332   2.644 -0.0246  0.1108 -1.2762
 4721SOL    HW225797   1.870   1.213   2.585  0.2564 -0.0979 -1.1194
 4722SOL     OW25798   2.060   1.253   5.868  0.2671  0.3279 -0.5722
 4722SOL    HW125799   1.982   1.266   5.923  0.2242 -2.1320 -0.0701
 4722SOL    HW225800   2.026   1.178   5.821 -0.2006 -0.8132  1.6119
 4723SOL     OW25801   0.013   3.495   8.185 -0.5706 -0.5547  0.0134
 4723SOL    HW125802   4.708   3.566   8.235  1.2975  2.0430 -2.1188
 4723SOL    HW225803   0.100   3.525   8.209 -1.1710  0.3503  1.0349
 4724SOL     OW25804   0.110   3.219   2.713 -0.1736 -0.2708 -0.5712
 4724SOL    HW125805   0.145   3.240   2.799  0.5155 -2.8450 -0.2079
 4724SOL    HW225806   0.164   3.275   2.657 -1.8420  2.1579  0.2369
 4725SOL     OW25807   3.118   4.493   8.084 -0.0342 -0.0445  0.5027
 4725SOL    HW125808   3.118   4.412   8.033  0.6843  1.0120 -1.1844
 4725SOL    HW225809   3.213   4.506   8.081 -0.1218  1.0025  2.1534
 4726SOL     OW25810   1.584   1.502  16.668  0.3682 -0.7183  0.2226
 4726SOL    HW125811   1.533   1.543  16.598 -0.0433 -0.2394  0.8076
 4726SOL    HW225812   1.607   1.582  16.716  0.7433 -1.1735  0.8051
 4727SOL     OW25813   3.704   0.168   8.785  0.4321 -0.5800  0.9710
 4727SOL    HW125814   3.686   0.211   8.869 -1.1762 -0.9722  0.8332
 4727SOL    HW225815   3.741   0.085   8.816  2.0301 -0.2264 -0.0125
 4728SOL     OW25816   4.196   0.911   9.236 -0.8328 -0.0789 -0.6741
 4728SOL    HW125817   4.127   0.944   9.178 -0.4579  3.4609  0.9111
 4728SOL    HW225818   4.223   0.837   9.181 -0.0000 -1.9997  2.2920
 4729SOL     OW25819   3.121   0.233   8.962 -0.0351 -0.1377 -0.1789
 4729SOL    HW125820   3.081   0.146   8.967  2.4723 -1.3061  0.0038
 4729SOL    HW225821   3.207   0.210   8.926 -0.5610 -1.6150 -0.4816
 4730SOL     OW25822   0.926   0.048   2.848 -0.3075  0.3851  0.0501
 4730SOL    HW125823   1.014   0.016   2.827 -0.2421  0.2395  0.5476
 4730SOL    HW225824   0.952   0.108   2.918 -0.1345  0.0298  0.2940
 4731SOL     OW25825   4.076   2.462  12.869 -0.6153 -0.4640 -0.5650
 4731SOL    HW125826   4.142   2.530  12.884 -1.1664  0.1050 -0.7042
 4731SOL    HW225827   4.011   2.501  12.810 -0.3863  1.2136  0.2782
 4732SOL     OW25828   3.766   2.471   3.275 -0.9097 -0.6032 -0.2460
 4732SOL    HW125829   3.777   2.530   3.201 -1.7972  0.7365  0.6944
 4732SOL    HW225830   3.705   2.401   3.250 -0.6402 -0.2360 -1.9657
 4733SOL     OW25831   3.928   3.708   5.093  0.0010  0.1470  0.3529
 4733SOL    HW125832   3.853   3.706   5.154 -0.8036  1.3799 -0.5924
 4733SOL    HW225833   3.883   3.706   5.008 -1.0984  1.1813  0.9055
 4734SOL     OW25834   0.193   2.380   8.378 -0.1735  0.2399  0.0285
 4734SOL    HW125835   0.249   2.449   8.343  0.9128 -0.4521  0.3916
 4734SOL    HW225836   0.211   2.309   8.316  0.2422 -0.4395  0.9336
 4735SOL     OW25837   0.417   1.552  11.632 -0.5471  0.1469 -0.0238
 4735SOL    HW125838   0.487   1.576  11.571 -0.5891 -0.0895 -0.1636
 4735SOL    HW225839   0.459   1.565  11.717 -0.7434 -0.0796  0.1066
 4736SOL     OW25840   0.708   2.136   7.138 -0.2059  0.1478 -0.0046
 4736SOL    HW125841   0.702   2.041   7.129 -1.3656  0.2576 -0.3637
 4736SOL    HW225842   0.615   2.157   7.132 -0.2036  0.1689  0.0293
 4737SOL     OW25843   0.774   1.614   7.647  0.0166  0.0180  0.1673
 4737SOL    HW125844   0.698   1.556   7.654  0.8431 -1.1677 -0.9603
 4737SOL    HW225845   0.746   1.679   7.583  1.1016  1.9272  1.6327
 4738SOL     OW25846   0.262   1.957   9.460 -0.2909  0.2363  0.0006
 4738SOL    HW125847   0.251   2.023   9.528 -0.8374 -0.5206  0.6555
 4738SOL    HW225848   0.349   1.929   9.489 -0.3724  0.4762  0.4809
 4739SOL     OW25849   0.055   4.213  10.036  1.1701 -0.0327 -0.4585
 4739SOL    HW125850   0.102   4.139  10.073 -1.7046 -1.3764  0.4996
 4739SOL    HW225851   4.700   4.186  10.038  1.3384 -0.7581 -2.0512
 4740SOL     OW25852   4.329   3.647  15.293 -0.2138  0.6288  0.4423
 4740SOL    HW125853   4.335   3.616  15.384  1.1524 -2.7843 -0.7929
 4740SOL    HW225854   4.398   3.711  15.280 -0.1288  0.6146  0.8254
 4741SOL     OW25855   0.666   1.495  11.510  0.2576 -0.1458  0.0812
 4741SOL    HW125856   0.758   1.516  11.496  0.4528 -0.6674  0.5512
 4741SOL    HW225857   0.674   1.406  11.545 -2.2359  0.2163  1.6332
 4742SOL     OW25858   2.593   4.458   9.136  0.0333 -0.1847  0.5286
 4742SOL    HW125859   2.608   4.390   9.201 -1.1852  0.6104  1.6451
 4742SOL    HW225860   2.509   4.485   9.173 -0.4724 -0.4590 -0.4138
 4743SOL     OW25861   1.114   2.895  14.411  0.2085 -0.0531  0.6539
 4743SOL    HW125862   1.023   2.882  14.440 -0.6397  1.3249 -1.3280
 4743SOL    HW225863   1.108   2.990  14.419  0.5590  0.1107 -1.1977
 4744SOL     OW25864   3.679   2.379   1.883  0.2131  0.7111 -0.2748
 4744SOL    HW125865   3.609   2.388   1.818  0.2488  0.9824 -0.2758
 4744SOL    HW225866   3.723   2.461   1.861  2.3995 -0.7642 -1.3939
 4745SOL     OW25867   2.445   0.570   9.456 -0.4076  0.0303  0.2288
 4745SOL    HW125868   2.438   0.525   9.539 -1.2656  2.6680  1.5788
 4745SOL    HW225869   2.387   0.523   9.396  1.2765 -1.8480  0.1131
 4746SOL     OW25870   2.183   4.256   9.831 -0.3431 -0.0077 -0.3811
 4746SOL    HW125871   2.169   4.269   9.925  0.2642  0.4426 -0.3495
 4746SOL    HW225872   2.098   4.228   9.798 -1.3113  1.8779  0.4877
 4747SOL     OW25873   1.385   3.769   2.435 -1.0262  0.0018  0.4443
 4747SOL    HW125874   1.394   3.736   2.345 -0.6121  2.0039 -0.2414
 4747SOL    HW225875   1.312   3.718   2.468 -0.0056 -2.6209 -1.3449
 4748SOL     OW25876   4.614   0.761  17.143  0.4051  0.2301 -0.2585
 4748SOL    HW125877   4.548   0.813  17.189 -0.8439 -1.2437 -0.4036
 4748SOL    HW225878   4.562   0.703  17.087  1.7940 -1.1003 -0.1411
 4749SOL     OW25879   3.018   4.734  14.381 -1.1313  0.5649 -0.0178
 4749SOL    HW125880   2.927   4.716  14.357 -0.4086 -1.0963 -1.5039
 4749SOL    HW225881   3.018   0.090  14.356 -0.4511  0.6585  0.3213
 4750SOL     OW25882   2.722   2.575  17.014  0.2106  0.6981 -0.2093
 4750SOL    HW125883   2.665   2.516  17.063  0.2712 -0.2231 -1.2408
 4750SOL    HW225884   2.693   2.567  16.923  1.3562 -1.2400 -0.3961
 4751SOL     OW25885   2.362   3.592   7.542 -0.4519  0.1769 -0.1530
 4751SOL    HW125886   2.389   3.626   7.628  0.5110  0.3444 -0.5196
 4751SOL    HW225887   2.331   3.674   7.502 -0.9844  0.7511  1.4340
 4752SOL     OW25888   0.421   2.731   7.061  0.5891 -0.2494 -0.1577
 4752SOL    HW125889   0.505   2.706   7.022  0.5277  1.2903 -1.2863
 4752SOL    HW225890   0.394   2.669   7.128  1.6239 -1.6639 -1.0686
 4753SOL     OW25891   0.088   0.994   3.869  0.2984 -0.3107 -0.4004
 4753SOL    HW125892   0.012   0.940   3.892  0.2627 -0.4458 -0.8234
 4753SOL    HW225893   0.145   0.996   3.946  0.8744 -0.4314 -0.8179
 4754SOL     OW25894   3.447   1.324  14.326  0.1077  0.0025 -0.0242
 4754SOL    HW125895   3.416   1.293  14.241  1.2433  0.8988 -0.7593
 4754SOL    HW225896   3.521   1.379  14.301 -0.2006  1.0555  1.3518
 4755SOL     OW25897   3.346   4.094   6.050  1.0333 -0.0937  0.1546
 4755SOL    HW125898   3.409   4.093   5.978  1.0516  1.5031  0.1517
 4755SOL    HW225899   3.397   4.051   6.118 -0.3902  0.8859  1.8187
 4756SOL     OW25900   0.343   3.760   0.634  0.2758  0.3937  0.0828
 4756SOL    HW125901   0.307   3.833   0.685 -1.9925 -1.9099  1.8146
 4756SOL    HW225902   0.414   3.737   0.694  0.1264  1.9809  0.8856
 4757SOL     OW25903   3.152   1.733   6.161 -0.5970  0.2222 -0.7709
 4757SOL    HW125904   3.063   1.742   6.195 -0.0117  3.5238 -0.1510
 4757SOL    HW225905   3.129   1.701   6.074  1.2900 -1.4605 -0.6594
 4758SOL     OW25906   3.885   3.203   0.566 -0.3506  0.1296  0.3273
 4758SOL    HW125907   3.953   3.264   0.537 -0.3783  0.4689  1.0025
 4758SOL    HW225908   3.926   3.116   0.557 -0.3403 -0.0342  1.9849
 4759SOL     OW25909   2.763   1.449   3.759  0.5313  0.1234  0.0680
 4759SOL    HW125910   2.770   1.373   3.816  0.4044 -0.5092 -0.7510
 4759SOL    HW225911   2.853   1.449   3.725  1.3536  2.6474  2.2927
 4760SOL     OW25912   3.601   3.211   2.361 -0.1517 -0.3708 -0.2466
 4760SOL    HW125913   3.548   3.280   2.400 -0.8231 -0.2943 -1.2782
 4760SOL    HW225914   3.676   3.205   2.419 -0.4663 -3.5416 -0.1466
 4761SOL     OW25915   4.275   0.267   3.244  0.2034 -0.1393  0.4561
 4761SOL    HW125916   4.305   0.196   3.302 -2.3413 -0.2611  1.6231
 4761SOL    HW225917   4.200   0.221   3.206  1.6773 -1.5152 -0.7809
 4762SOL     OW25918   4.441   4.573  14.784 -0.0944  0.2494  0.6672
 4762SOL    HW125919   4.357   4.617  14.794 -0.7407 -1.0608  0.9481
 4762SOL    HW225920   4.426   4.479  14.799  0.0047 -0.0908 -1.4062
 4763SOL     OW25921   2.985   3.290  16.271 -0.2643  0.0370  0.4657
 4763SOL    HW125922   3.021   3.201  16.269 -1.6999 -0.4917 -1.1567
 4763SOL    HW225923   2.942   3.277  16.355  0.2379  1.0203  0.8721
 4764SOL     OW25924   3.246   4.133   3.875  0.3162 -0.2251 -0.2909
 4764SOL    HW125925   3.266   4.043   3.902 -0.3995  0.1811  1.5880
 4764SOL    HW225926   3.326   4.174   3.908  0.6325  1.5254 -3.2789
 4765SOL     OW25927   0.479   1.751  17.742  0.0266 -0.2561 -0.2366
 4765SOL    HW125928   0.467   1.820   0.062 -2.1870 -1.4711  0.6455
 4765SOL    HW225929   0.547   1.799  17.696  1.5821 -1.0354  1.2586
 4766SOL     OW25930   1.720   4.393   5.465  0.2310 -0.2549  0.1758
 4766SOL    HW125931   1.777   4.468   5.479 -0.3319  0.1658  0.1934
 4766SOL    HW225932   1.668   4.406   5.544 -0.9025  4.5723 -1.4258
 4767SOL     OW25933   1.945   1.624   7.232 -0.1675  0.4581 -0.4352
 4767SOL    HW125934   2.013   1.557   7.225  0.5811  0.9440  2.3835
 4767SOL    HW225935   1.905   1.608   7.318 -0.7314 -1.7760 -1.1106
 4768SOL     OW25936   2.226   1.440  10.040  0.2334 -0.7140 -0.7486
 4768SOL    HW125937   2.208   1.437  10.134 -0.7220 -1.0433 -0.9441
 4768SOL    HW225938   2.188   1.526  10.020  0.8842 -0.1379  0.4769
 4769SOL     OW25939   2.363   2.526   3.878 -0.1386 -0.1610  0.4894
 4769SOL    HW125940   2.453   2.543   3.905 -0.2117 -0.7491  1.1004
 4769SOL    HW225941   2.323   2.492   3.958 -2.6117  1.1993 -0.1815
 4770SOL     OW25942   4.574   0.314   1.605 -0.1026 -0.0312 -0.2861
 4770SOL    HW125943   4.506   0.247   1.596  0.7127 -0.6035 -2.1024
 4770SOL    HW225944   4.608   0.318   1.516  0.2017  1.4184 -0.1103
 4771SOL     OW25945   4.338   1.680  11.605 -0.5417  0.1291 -0.4103
 4771SOL    HW125946   4.262   1.650  11.555 -0.6987 -1.1511  0.5981
 4771SOL    HW225947   4.286   1.721  11.675 -1.1917 -2.5926  0.6730
 4772SOL     OW25948   2.519   2.874   2.209 -0.0776  0.0303  0.0717
 4772SOL    HW125949   2.509   2.963   2.242 -1.3605 -0.0644 -0.0604
 4772SOL    HW225950   2.507   2.818   2.286 -0.4839  0.7608  0.5416
 4773SOL     OW25951   1.046   0.691   0.338 -0.0386  0.3195 -0.3822
 4773SOL    HW125952   0.966   0.742   0.353 -1.3760 -1.5021 -1.2314
 4773SOL    HW225953   1.119   0.752   0.350  0.8060 -0.4880 -1.5298
 4774SOL     OW25954   0.663   2.814  17.590 -0.5204 -0.2882  0.2295
 4774SOL    HW125955   0.606   2.758  17.537  0.3876 -0.2789 -0.7532
 4774SOL    HW225956   0.653   2.896  17.541 -1.0435 -0.0265  0.7735
 4775SOL     OW25957   4.544   0.914  14.272 -0.2227  0.4501  0.6802
 4775SOL    HW125958   4.553   1.008  14.289  1.1624  0.1575  1.5861
 4775SOL    HW225959   4.510   0.886  14.357 -0.2800 -0.2468  0.4243
 4776SOL     OW25960   3.526   1.270   4.609 -0.2430 -0.1436 -0.1968
 4776SOL    HW125961   3.537   1.340   4.544 -0.5080  1.2622  1.2601
 4776SOL    HW225962   3.469   1.311   4.674  0.3463 -0.2013  0.3529
 4777SOL     OW25963   0.757   2.775  10.975 -0.0215  0.6061  0.2174
 4777SOL    HW125964   0.771   2.681  10.977 -0.4804  0.5319 -0.0430
 4777SOL    HW225965   0.702   2.783  10.897  1.2294 -0.1608 -0.7389
 4778SOL     OW25966   2.740   2.694   2.685 -0.5550  0.1078 -0.2017
 4778SOL    HW125967   2.656   2.739   2.688 -0.5067  0.1356  0.6486
 4778SOL    HW225968   2.784   2.737   2.759 -2.1720 -0.3751  1.0216
 4779SOL     OW25969   3.837   1.156   5.324  1.1186  0.0469 -0.0933
 4779SOL    HW125970   3.919   1.139   5.370  1.7544  1.5128 -0.7003
 4779SOL    HW225971   3.867   1.228   5.269  2.3063  0.7651  1.5063
 4780SOL     OW25972   4.257   1.528   4.861 -0.0843  0.5415  0.4229
 4780SOL    HW125973   4.272   1.434   4.851  0.9875  0.9729 -1.8718
 4780SOL    HW225974   4.285   1.563   4.777 -2.1496  0.9536 -0.0985
 4781SOL     OW25975   3.319   1.876   2.878  0.5317 -0.6937 -0.4335
 4781SOL    HW125976   3.346   1.961   2.844  0.8827 -0.1602  1.1904
 4781SOL    HW225977   3.384   1.870   2.948 -0.1792  0.1334  0.2933
 4782SOL     OW25978   1.493   2.795  17.069  0.1271  0.5251 -0.6429
 4782SOL    HW125979   1.547   2.855  17.121  1.6986  0.4197 -2.1645
 4782SOL    HW225980   1.535   2.800  16.983  1.5945 -0.0927  0.0400
 4783SOL     OW25981   0.481   1.914  17.434 -0.3858  0.1078  0.1832
 4783SOL    HW125982   0.416   1.962  17.487 -2.8059 -0.7490 -1.9960
 4783SOL    HW225983   0.559   1.957  17.470  0.7328 -1.5438 -0.3028
 4784SOL     OW25984   1.869   0.512   6.242  0.4938  0.0122  0.1235
 4784SOL    HW125985   1.841   0.518   6.334  0.7044  0.0942  0.1838
 4784SOL    HW225986   1.954   0.555   6.258  0.9562 -1.1608  0.7636
 4785SOL     OW25987   4.181   2.441  13.198  0.0743  0.0604 -0.0274
 4785SOL    HW125988   4.204   2.533  13.196 -2.3468  0.6802  0.4685
 4785SOL    HW225989   4.179   2.420  13.292 -1.7826  1.2600  0.2097
 4786SOL     OW25990   1.507   1.897  17.497  0.5865 -0.0855 -0.0266
 4786SOL    HW125991   1.509   1.852  17.581  0.4082 -1.6200 -0.8407
 4786SOL    HW225992   1.576   1.962  17.494 -1.8718  2.6535  2.8506
 4787SOL     OW25993   2.024   1.152   4.123 -0.4814  0.0343  0.5043
 4787SOL    HW125994   2.073   1.070   4.123 -1.1416 -0.3670  0.4363
 4787SOL    HW225995   2.053   1.201   4.200  1.6094  1.6102 -1.3048
 4788SOL     OW25996   2.270   1.756  16.661  0.2623 -0.0251 -0.6864
 4788SOL    HW125997   2.208   1.828  16.666 -2.0247 -1.9468 -1.5073
 4788SOL    HW225998   2.218   1.678  16.683  0.3454  0.7593  2.2974
 4789SOL     OW25999   4.239   0.334   9.367 -0.1313  0.0727 -0.3179
 4789SOL    HW126000   4.184   0.364   9.439  0.7068  0.6993  0.0596
 4789SOL    HW226001   4.302   0.277   9.409  3.1491  3.3448 -0.7280
 4790SOL     OW26002   4.377   1.631  10.028  0.0464  0.0435 -0.0215
 4790SOL    HW126003   4.400   1.624  10.120 -1.3884  0.8627  0.4042
 4790SOL    HW226004   4.284   1.621  10.047 -0.2739 -0.6919 -2.0025
 4791SOL     OW26005   0.679   0.040   0.311 -0.3765  0.5510  0.3470
 4791SOL    HW126006   0.742   0.020   0.242  0.6791  2.4226  0.7351
 4791SOL    HW226007   0.614   0.076   0.252 -0.9757  0.2923  0.8532
 4792SOL     OW26008   4.036   3.035   3.946  0.3736 -0.6560  0.2252
 4792SOL    HW126009   4.076   3.122   3.939 -0.1256 -0.4127  0.3746
 4792SOL    HW226010   4.109   2.983   3.980 -0.3073 -0.8764  1.3314
 4793SOL     OW26011   3.856   3.506   4.094  0.0763 -0.4448  0.2118
 4793SOL    HW126012   3.870   3.564   4.019 -1.1509 -0.6588 -0.1819
 4793SOL    HW226013   3.882   3.553   4.173 -0.8317 -0.8843  0.7691
 4794SOL     OW26014   4.291   0.675   0.377  0.8270 -0.1563 -0.5671
 4794SOL    HW126015   4.250   0.638   0.456  0.8509  2.3121  0.5836
 4794SOL    HW226016   4.230   0.745   0.353 -1.0184 -2.4800 -2.6595
 4795SOL     OW26017   2.202   0.884   3.099  0.2044  0.2654 -0.2139
 4795SOL    HW126018   2.196   0.815   3.033  1.3666 -0.0284 -0.0107
 4795SOL    HW226019   2.234   0.827   3.169  0.9660  1.2743  0.2615
 4796SOL     OW26020   0.113   1.115  13.129 -0.6833 -0.1600  0.3314
 4796SOL    HW126021   0.036   1.111  13.072 -0.5964 -1.3863  0.3156
 4796SOL    HW226022   0.191   1.103  13.076 -2.0264  1.7185 -2.0855
 4797SOL     OW26023   1.875   0.379  12.908 -0.4397 -0.0582  0.0546
 4797SOL    HW126024   1.838   0.444  12.848  0.1732  1.2438  1.0794
 4797SOL    HW226025   1.913   0.438  12.973  0.7605  0.5284 -1.1898
 4798SOL     OW26026   1.308   0.682   5.719 -0.8271 -0.2593  0.8210
 4798SOL    HW126027   1.395   0.649   5.742  0.1292  2.4789  1.1336
 4798SOL    HW226028   1.263   0.611   5.672 -2.4438  1.6836 -0.6050
 4799SOL     OW26029   0.747   4.309   7.904  0.7343 -0.8764  0.0094
 4799SOL    HW126030   0.687   4.377   7.874  0.4645 -0.5523  1.3174
 4799SOL    HW226031   0.713   4.244   7.843  0.3848 -1.7357  1.1231
 4800SOL     OW26032   4.727   3.592   5.179  0.3914  0.0903  0.0327
 4800SOL    HW126033   4.667   3.644   5.125 -1.5627 -2.3081 -0.1101
 4800SOL    HW226034   0.052   3.559   5.114  0.2920  2.2049 -1.1204
 4801SOL     OW26035   0.161   2.810   7.161 -0.7739  0.4542  0.3032
 4801SOL    HW126036   0.249   2.822   7.124 -0.2442 -1.7005  0.8824
 4801SOL    HW226037   0.114   2.877   7.112 -0.7686  0.2715  0.0495
 4802SOL     OW26038   0.621   0.428   3.694 -0.5132  0.2226  0.0762
 4802SOL    HW126039   0.652   0.394   3.610  0.9860  0.3159  0.5986
 4802SOL    HW226040   0.672   0.375   3.754 -2.1683 -0.8309  0.5593
 4803SOL     OW26041   2.226   1.536   9.217  0.0791  0.7834 -0.0630
 4803SOL    HW126042   2.192   1.472   9.280  0.2190 -0.6134 -1.4257
 4803SOL    HW226043   2.144   1.581   9.192 -0.3378 -2.2109 -4.0088
 4804SOL     OW26044   0.753   2.955   5.092  0.2426 -0.0182 -0.0418
 4804SOL    HW126045   0.756   2.953   5.188  0.7433 -0.6940 -0.0686
 4804SOL    HW226046   0.710   3.038   5.073  0.8325  0.3228  0.1193
 4805SOL     OW26047   1.903   2.845   4.790 -0.2359 -0.1642 -0.4267
 4805SOL    HW126048   1.951   2.832   4.872  2.7538  3.5203 -1.5772
 4805SOL    HW226049   1.974   2.871   4.732 -0.6576 -0.7568 -1.1988
 4806SOL     OW26050   1.952   4.203   6.040 -0.4577 -0.3376  0.4410
 4806SOL    HW126051   1.898   4.183   5.963  0.8492 -1.2885 -0.2293
 4806SOL    HW226052   2.036   4.217   5.996 -0.6809  0.0753  0.1464
 4807SOL     OW26053   1.462   1.856   4.689 -0.1670 -0.2051  0.1530
 4807SOL    HW126054   1.447   1.810   4.772 -2.5060 -2.0520 -1.2946
 4807SOL    HW226055   1.373   1.881   4.665 -1.5654 -3.5722  1.8262
 4808SOL     OW26056   2.988   1.653   5.936 -0.3192  0.2553 -0.1812
 4808SOL    HW126057   2.952   1.670   5.849 -0.1374 -0.7037 -0.4535
 4808SOL    HW226058   2.918   1.607   5.982 -0.1319 -1.1209 -1.2758
 4809SOL     OW26059   3.182   0.493   5.707  0.3303 -0.0414 -0.1926
 4809SOL    HW126060   3.191   0.401   5.683  0.0668  0.1366 -0.9750
 4809SOL    HW226061   3.086   0.495   5.713  0.2936  3.2271 -1.9124
 4810SOL     OW26062   0.372   2.543  14.699  0.2068  0.3361  0.0902
 4810SOL    HW126063   0.292   2.512  14.741  1.2570  0.3637  2.0866
 4810SOL    HW226064   0.331   2.512  14.618  0.2810 -0.5050  0.3722
 4811SOL     OW26065   1.458   0.123   4.682 -0.1023  0.5857  0.0423
 4811SOL    HW126066   1.423   0.084   4.602  0.5929 -2.1434  1.0483
 4811SOL    HW226067   1.395   0.192   4.701  0.1800  0.6161  0.8640
 4812SOL     OW26068   2.544   0.543   2.272  0.9062 -0.6601 -0.3657
 4812SOL    HW126069   2.449   0.553   2.266  1.4751  3.3466 -2.7292
 4812SOL    HW226070   2.540   0.468   2.212  0.3024 -2.0737  1.4605
 4813SOL     OW26071   2.103   1.840   6.198 -0.3945 -0.2728  0.7571
 4813SOL    HW126072   2.054   1.815   6.276  2.5289 -1.7079  2.0950
 4813SOL    HW226073   2.175   1.892   6.232  0.0348  0.9348 -1.9356
 4814SOL     OW26074   2.645   2.322   5.079 -0.1870  0.2310  0.2130
 4814SOL    HW126075   2.646   2.302   4.985  1.4901  0.7736  0.1184
 4814SOL    HW226076   2.699   2.401   5.081 -0.3596  0.4205 -2.5413
 4815SOL     OW26077   3.634   3.355   8.821 -0.1275  0.2552 -0.4959
 4815SOL    HW126078   3.652   3.379   8.912 -0.4284  0.2001 -0.4239
 4815SOL    HW226079   3.540   3.367   8.818 -0.0520  1.1788  1.1556
 4816SOL     OW26080   1.680   3.969   2.361  0.2798  0.1241  0.7123
 4816SOL    HW126081   1.681   4.064   2.371 -1.9148  0.0141  2.1365
 4816SOL    HW226082   1.662   3.953   2.454  2.3539 -1.8121  0.7749
 4817SOL     OW26083   1.784   4.438   0.775 -0.4630 -0.3374 -0.2296
 4817SOL    HW126084   1.855   4.500   0.793  0.6717 -1.1923 -1.7872
 4817SOL    HW226085   1.818   4.364   0.824 -0.8429 -0.1538  0.3184
 4818SOL     OW26086   0.620   2.408   4.336 -0.0460 -0.3317  0.5045
 4818SOL    HW126087   0.648   2.481   4.391  0.1557  1.0762 -1.4877
 4818SOL    HW226088   0.699   2.400   4.282  0.6641  1.0158  1.3318
 4819SOL     OW26089   2.429   1.131  16.331 -0.2945  0.1775 -0.3858
 4819SOL    HW126090   2.487   1.076  16.279  1.1416 -0.1613  1.6135
 4819SOL    HW226091   2.411   1.193  16.260  0.4477  1.4025  0.5018
 4820SOL     OW26092   4.460   0.574  16.693  0.1462  0.0021  0.2202
 4820SOL    HW126093   4.404   0.548  16.620 -0.1571  0.9991  0.0993
 4820SOL    HW226094   4.464   0.669  16.685  0.9795 -0.1271 -0.9501
 4821SOL     OW26095   1.989   0.891   1.387  0.2340  0.0459  0.6500
 4821SOL    HW126096   2.078   0.913   1.415 -0.0402  0.7756  0.9396
 4821SOL    HW226097   1.948   0.885   1.473  2.7636 -0.5972  1.8049
 4822SOL     OW26098   3.879   4.600   9.939 -0.2761  0.2917  0.2124
 4822SOL    HW126099   3.844   4.547  10.010 -1.0866 -0.5286 -0.8056
 4822SOL    HW226100   3.950   4.646   9.984  0.3864 -0.6949  0.1616
 4823SOL     OW26101   3.869   2.024  14.932  0.3937 -0.2363 -0.3532
 4823SOL    HW126102   3.951   2.047  14.975  0.0867 -0.6701  0.4658
 4823SOL    HW226103   3.890   2.000  14.842  1.0683  0.5256 -0.3932
 4824SOL     OW26104   1.739   0.777   3.186  0.4348 -0.3929  0.0764
 4824SOL    HW126105   1.784   0.759   3.104  0.2211  0.8348 -0.3236
 4824SOL    HW226106   1.741   0.873   3.183  2.7339 -0.4279  1.1455
 4825SOL     OW26107   3.497   3.281   5.819  0.4715  0.4810  0.0374
 4825SOL    HW126108   3.404   3.275   5.799  0.5430 -0.6951  0.0606
 4825SOL    HW226109   3.528   3.215   5.757  1.6835  0.1441  0.9907
 4826SOL     OW26110   1.075   2.061   6.816  0.1404  0.3694  0.5454
 4826SOL    HW126111   0.998   2.119   6.815  0.2697  0.5435  0.7262
 4826SOL    HW226112   1.045   1.987   6.868  0.6305 -0.3445 -0.1957
 4827SOL     OW26113   1.569   0.375   6.379  0.1671 -0.0703 -0.4970
 4827SOL    HW126114   1.620   0.347   6.454 -1.9700 -0.2371  0.8869
 4827SOL    HW226115   1.483   0.339   6.399 -0.4812  0.9218 -1.4296
 4828SOL     OW26116   2.129   2.503   2.206  0.0256 -0.1495  0.5075
 4828SOL    HW126117   2.119   2.509   2.111 -1.8049 -1.4274  0.6249
 4828SOL    HW226118   2.061   2.440   2.228  1.7248 -1.1206  2.9740
 4829SOL     OW26119   0.206   2.860   4.649  0.0336 -0.4274  0.1276
 4829SOL    HW126120   0.226   2.897   4.735  0.5955 -1.7101  0.5364
 4829SOL    HW226121   0.289   2.818   4.627  0.6323 -1.0059  3.4535
 4830SOL     OW26122   0.506   0.023   8.482  0.6596 -0.2216 -0.1367
 4830SOL    HW126123   0.585   0.068   8.514  0.0300 -1.1332  2.6491
 4830SOL    HW226124   0.471   0.093   8.427  0.5295 -0.5552 -0.4771
 4831SOL     OW26125   2.158   3.642   8.656  0.4246 -0.1013 -0.5844
 4831SOL    HW126126   2.062   3.652   8.656  0.3284 -0.9529 -2.5805
 4831SOL    HW226127   2.174   3.565   8.602 -1.6085 -0.7642 -0.2407
 4832SOL     OW26128   1.956   4.226   0.884  0.7451  0.2397  0.4431
 4832SOL    HW126129   1.967   4.195   0.794  0.7922 -1.3401  0.9985
 4832SOL    HW226130   2.038   4.276   0.891  0.7886  0.3911 -1.1046
 4833SOL     OW26131   2.721   0.457  10.349 -1.2039  0.1201 -0.4765
 4833SOL    HW126132   2.744   0.458  10.442 -1.0377  0.1112 -0.5163
 4833SOL    HW226133   2.783   0.392  10.315 -2.5340  0.5685 -3.7459
 4834SOL     OW26134   3.197   3.695   8.986 -0.2724 -0.1038 -0.4506
 4834SOL    HW126135   3.120   3.711   9.041 -0.2769  1.3240 -0.8835
 4834SOL    HW226136   3.153   3.645   8.917  2.8444  0.3610 -2.7629
 4835SOL     OW26137   2.202   2.078   9.155  0.1196  0.4255 -0.6462
 4835SOL    HW126138   2.264   2.045   9.220 -0.3755  0.3647 -0.2092
 4835SOL    HW226139   2.214   2.011   9.087 -1.0511  0.5644 -0.9751
 4836SOL     OW26140   3.035   1.756   4.180 -0.1491  0.2508 -0.0839
 4836SOL    HW126141   3.018   1.813   4.254  3.4781  0.5525  0.5075
 4836SOL    HW226142   3.042   1.671   4.225 -0.7505  0.4778  0.4254
 4837SOL     OW26143   0.104   2.128  10.466 -0.5876  0.6132  0.5250
 4837SOL    HW126144   0.147   2.173  10.538 -2.5770  2.0787  0.7892
 4837SOL    HW226145   0.173   2.070  10.432 -2.1378 -0.4492 -0.8301
 4838SOL     OW26146   4.418   2.713  12.450 -0.3338  0.1245 -0.9669
 4838SOL    HW126147   4.503   2.731  12.491 -0.4139 -1.6759  0.0155
 4838SOL    HW226148   4.398   2.630  12.493 -0.5219  0.7372  0.1012
 4839SOL     OW26149   3.150   2.070   5.923  0.1451  0.4527 -0.2707
 4839SOL    HW126150   3.070   2.056   5.974  0.3691  1.9208  0.4749
 4839SOL    HW226151   3.195   2.126   5.987 -0.5868  1.4400 -0.6268
 4840SOL     OW26152   4.599   0.399  12.416 -0.2849 -0.3912 -0.2056
 4840SOL    HW126153   4.530   0.372  12.476 -0.3806 -1.1137 -0.6397
 4840SOL    HW226154   4.544   0.454  12.360 -0.3095  1.1990  1.3845
 4841SOL     OW26155   1.168   3.341   6.419 -0.2351 -0.2043  0.5293
 4841SOL    HW126156   1.239   3.308   6.475  1.0973 -0.0895 -1.0696
 4841SOL    HW226157   1.100   3.297   6.469  0.4281 -0.0295  1.5858
 4842SOL     OW26158   1.590   1.499   7.292 -0.3885  0.1962 -0.0430
 4842SOL    HW126159   1.657   1.493   7.360  0.9637  0.0154 -1.4048
 4842SOL    HW226160   1.579   1.594   7.283  0.6056  0.5885  2.8853
 4843SOL     OW26161   2.452   2.860  13.461  0.0414 -0.1439 -0.0643
 4843SOL    HW126162   2.505   2.799  13.513  1.6157 -1.4561 -3.1989
 4843SOL    HW226163   2.421   2.810  13.386 -3.6624 -0.7214  1.8841
 4844SOL     OW26164   4.249   4.732   3.023  0.1495 -0.5733  0.3372
 4844SOL    HW126165   4.209   4.698   2.943  0.7549 -0.4054 -0.0365
 4844SOL    HW226166   4.184   0.062   3.042 -0.1632 -1.0866  1.0825
 4845SOL     OW26167   4.425   0.038   5.283  0.7319 -0.4453 -0.4245
 4845SOL    HW126168   4.392   0.002   5.201 -0.1895 -1.2090  0.2856
 4845SOL    HW226169   4.345   0.082   5.311  0.5811 -0.0024 -1.5142
 4846SOL     OW26170   0.590   1.672   3.038 -0.4338  0.0104  0.3173
 4846SOL    HW126171   0.629   1.741   3.092 -1.5119 -1.4820  2.9725
 4846SOL    HW226172   0.569   1.609   3.106 -2.6419  0.0269 -0.3520
 4847SOL     OW26173   2.670   0.307   4.483 -0.2694  0.2114 -0.2681
 4847SOL    HW126174   2.617   0.340   4.555 -1.6193 -2.4768 -0.0228
 4847SOL    HW226175   2.754   0.286   4.524 -0.3724  1.7289  0.7039
 4848SOL     OW26176   1.129   2.340   2.754  0.3626 -0.0642 -0.0015
 4848SOL    HW126177   1.120   2.259   2.704 -3.4866  0.1162  0.4552
 4848SOL    HW226178   1.193   2.389   2.702  0.9273 -2.6672 -1.7287
 4849SOL     OW26179   2.682   1.770   5.982 -0.7565  0.4425  0.2830
 4849SOL    HW126180   2.636   1.687   5.967  1.0421 -0.4878 -0.0372
 4849SOL    HW226181   2.607   1.821   5.950 -1.0375  0.7418  1.4187
 4850SOL     OW26182   1.862   2.455   9.081 -0.5650 -0.1361  0.1050
 4850SOL    HW126183   1.881   2.470   9.173  1.8082  3.2322 -0.9514
 4850SOL    HW226184   1.879   2.362   9.065  0.5856 -0.5267  3.5673
 4851SOL     OW26185   2.537   1.078   6.037  0.1562  0.2715  0.2248
 4851SOL    HW126186   2.533   0.988   6.005 -1.3634  0.1935  0.6440
 4851SOL    HW226187   2.482   1.120   5.971 -0.6895  1.1759  1.5066
 4852SOL     OW26188   2.531   0.225   7.672 -0.1999 -0.0397 -0.1122
 4852SOL    HW126189   2.448   0.202   7.714  0.6870 -0.9081  1.1734
 4852SOL    HW226190   2.558   0.134   7.660 -1.6166 -0.4813  0.0800
 4853SOL     OW26191   2.700   3.897   5.757 -0.8581 -0.1793 -0.6683
 4853SOL    HW126192   2.616   3.850   5.764 -1.6441  1.1023 -1.5575
 4853SOL    HW226193   2.770   3.832   5.761  0.0963  1.0329  2.2252
 4854SOL     OW26194   1.568   1.574  10.106 -0.1019 -0.3125 -0.0883
 4854SOL    HW126195   1.586   1.560  10.013 -0.5869  1.9324 -0.5105
 4854SOL    HW226196   1.481   1.535  10.118  0.2825 -1.1810 -0.1157
 4855SOL     OW26197   0.897   1.788   2.116  0.2841  0.2205 -0.5618
 4855SOL    HW126198   0.858   1.774   2.203  1.3311 -1.6144 -0.3973
 4855SOL    HW226199   0.821   1.768   2.061 -0.9559  0.7842  0.9574
 4856SOL     OW26200   2.883   1.938  14.870  0.2271 -0.9081  0.5173
 4856SOL    HW126201   2.915   2.015  14.822 -0.4328 -0.5096  0.7237
 4856SOL    HW226202   2.965   1.895  14.894  1.0464 -0.8453 -2.1851
 4857SOL     OW26203   3.383   2.319  12.897 -0.2285  0.1450 -0.0271
 4857SOL    HW126204   3.352   2.266  12.823  2.1730 -2.5742  0.9247
 4857SOL    HW226205   3.419   2.245  12.945 -2.2214 -0.0284  1.1717
 4858SOL     OW26206   1.865   3.990   5.380  0.0945  0.0203  0.2149
 4858SOL    HW126207   1.946   3.974   5.330  0.3624  0.2482  0.5784
 4858SOL    HW226208   1.842   4.077   5.348  0.0254 -0.1446 -0.1852
 4859SOL     OW26209   4.680   3.009   2.303 -0.1664  0.1766  0.0680
 4859SOL    HW126210   4.670   2.967   2.218  1.9848  1.2753 -0.7242
 4859SOL    HW226211   4.603   2.966   2.340  1.2970 -2.0840  0.5356
 4860SOL     OW26212   4.625   0.641   3.577  0.0142  0.3094  0.0199
 4860SOL    HW126213   4.584   0.574   3.522  1.5278 -2.2602  2.0260
 4860SOL    HW226214   4.602   0.717   3.523  0.1452  2.0734  2.4466
 4861SOL     OW26215   0.116   1.053  11.867  0.1430  0.2589 -0.0571
 4861SOL    HW126216   0.066   1.131  11.840 -1.1418  0.1223  1.9690
 4861SOL    HW226217   0.110   1.051  11.962  1.1753  0.3309  0.0044
 4862SOL     OW26218   2.004   0.683   3.519 -0.1691 -0.0078 -0.3474
 4862SOL    HW126219   2.061   0.759   3.516  1.1720 -0.9465  1.4334
 4862SOL    HW226220   2.066   0.612   3.532  0.2340  0.1278 -1.6082
 4863SOL     OW26221   2.668   3.870  10.850  0.3695 -0.0869  0.6276
 4863SOL    HW126222   2.585   3.882  10.896  1.3457  0.7999  2.1984
 4863SOL    HW226223   2.713   3.954  10.861  2.9308 -1.3696 -0.0024
 4864SOL     OW26224   1.098   1.460   4.443  0.3000  0.4612 -1.0687
 4864SOL    HW126225   1.026   1.512   4.406 -0.2676  0.3742 -0.0827
 4864SOL    HW226226   1.116   1.396   4.374 -1.3820  0.8937 -1.9254
 4865SOL     OW26227   1.170   3.374   0.506 -0.2830  0.0676 -0.2927
 4865SOL    HW126228   1.173   3.287   0.544 -1.1076  0.0018 -0.3804
 4865SOL    HW226229   1.125   3.426   0.573 -1.8917 -0.9331 -0.5884
 4866SOL     OW26230   2.800   1.794  12.439 -0.3512  0.7997 -0.1453
 4866SOL    HW126231   2.832   1.846  12.365 -3.0010 -0.1726 -1.9463
 4866SOL    HW226232   2.731   1.848  12.477 -0.3862  0.6266  0.0351
 4867SOL     OW26233   1.494   1.234   6.288 -0.4694  0.3399  0.0955
 4867SOL    HW126234   1.513   1.312   6.340  1.0072 -0.4220  0.6926
 4867SOL    HW226235   1.481   1.171   6.359 -1.4576 -0.7334 -1.0324
 4868SOL     OW26236   0.419   3.737   1.909  0.3151  0.6647  0.0951
 4868SOL    HW126237   0.444   3.651   1.875  2.5358  1.3095  0.0884
 4868SOL    HW226238   0.386   3.706   1.993  0.5890 -0.7638 -0.3297
 4869SOL     OW26239   2.620   0.887   8.446  0.1207 -0.1503 -0.4357
 4869SOL    HW126240   2.592   0.903   8.355 -0.3997 -1.1245 -0.4489
 4869SOL    HW226241   2.651   0.977   8.453 -0.1534  0.0089 -1.2033
 4870SOL     OW26242   2.761   0.778  10.289 -0.1332 -0.1094 -0.0761
 4870SOL    HW126243   2.671   0.766  10.258  0.1419 -0.5345 -0.6907
 4870SOL    HW226244   2.801   0.836  10.224 -0.4234  1.0427  0.7670
 4871SOL     OW26245   3.164   3.981   9.100  0.0494 -0.3674  0.4374
 4871SOL    HW126246   3.135   4.047   9.038  3.0069 -0.3933 -0.9725
 4871SOL    HW226247   3.109   3.997   9.177  0.7743  2.3678  0.3666
 4872SOL     OW26248   0.379   1.154   1.117  0.1496  0.1022  0.1381
 4872SOL    HW126249   0.346   1.116   1.035 -2.2996 -1.1256  1.7151
 4872SOL    HW226250   0.301   1.185   1.162 -0.5358 -0.4803 -0.6251
 4873SOL     OW26251   2.931   1.952   8.683  0.0475  0.3739 -0.8732
 4873SOL    HW126252   2.885   1.872   8.657  1.1113 -0.7491  0.6862
 4873SOL    HW226253   2.942   1.991   8.596 -1.0577 -1.1006 -1.6666
 4874SOL     OW26254   3.783   1.826   0.396 -0.2057 -0.4016 -0.0854
 4874SOL    HW126255   3.858   1.823   0.456 -1.1425 -0.0229  1.1094
 4874SOL    HW226256   3.744   1.896   0.448 -4.2380 -2.3658 -0.5123
 4875SOL     OW26257   0.757   1.482   8.225  0.2460 -0.4459 -0.2086
 4875SOL    HW126258   0.678   1.520   8.185 -2.1043 -2.7951  2.2423
 4875SOL    HW226259   0.751   1.538   8.303  2.7918  0.0423 -0.3698
 4876SOL     OW26260   1.274   1.863   0.074 -0.1647  0.0663 -0.1466
 4876SOL    HW126261   1.240   1.815  17.743 -1.4386  0.0554  0.4187
 4876SOL    HW226262   1.362   1.826   0.072  0.3111  1.1287  0.8263
 4877SOL     OW26263   2.366   4.331   6.731  0.4149 -0.1822  0.2817
 4877SOL    HW126264   2.307   4.256   6.744 -0.5431  0.1908 -1.9611
 4877SOL    HW226265   2.314   4.404   6.765  2.0122  1.8427 -1.6190
 4878SOL     OW26266   0.118   3.649   3.795 -0.0972 -0.4329 -0.6203
 4878SOL    HW126267   0.176   3.634   3.869  0.3603  2.1462 -0.4730
 4878SOL    HW226268   0.146   3.736   3.768 -0.0996 -0.2744 -0.0915
 4879SOL     OW26269   3.737   2.651   2.676 -0.3365  0.1717  0.2483
 4879SOL    HW126270   3.677   2.633   2.603  0.0052 -2.5014  0.6064
 4879SOL    HW226271   3.679   2.712   2.721 -0.6679 -0.0962  0.1815
 4880SOL     OW26272   4.429   2.491  12.626  0.2864  0.2352  0.2541
 4880SOL    HW126273   4.388   2.404  12.621 -2.4293  1.3721  3.2214
 4880SOL    HW226274   4.514   2.461  12.593  1.4768  0.5943  2.9775
 4881SOL     OW26275   4.516   0.621   2.799 -0.1978  0.0441  0.0850
 4881SOL    HW126276   4.523   0.659   2.887  1.1665  3.2747 -1.4148
 4881SOL    HW226277   4.490   0.703   2.758  0.1977  0.4721  0.6814
 4882SOL     OW26278   0.209   4.204  13.861  0.5080  0.1169 -0.2234
 4882SOL    HW126279   0.170   4.215  13.774 -0.6005  2.2938  0.5508
 4882SOL    HW226280   0.193   4.289  13.903  0.6927  0.3062 -0.5407
 4883SOL     OW26281   1.782   1.762   4.993  0.2400 -0.0522  0.0063
 4883SOL    HW126282   1.829   1.763   4.910 -0.3562 -0.5804 -0.3362
 4883SOL    HW226283   1.826   1.826   5.048  0.2794 -1.0329  1.1126
 4884SOL     OW26284   3.435   4.339   9.533 -0.1332 -0.1023  0.0773
 4884SOL    HW126285   3.352   4.316   9.493  1.2823 -0.7418 -2.4776
 4884SOL    HW226286   3.474   4.380   9.456  1.1165 -2.3989 -0.5099
 4885SOL     OW26287   3.652   3.527   7.673  0.5890  0.1274  0.5618
 4885SOL    HW126288   3.713   3.588   7.633 -0.7552  1.3269  0.3185
 4885SOL    HW226289   3.570   3.575   7.661  0.8197  0.2705 -0.3921
 4886SOL     OW26290   3.858   2.050  16.459  0.0081  0.1876  0.4253
 4886SOL    HW126291   3.847   2.098  16.377 -1.1009 -0.0958  0.4073
 4886SOL    HW226292   3.790   2.086  16.517  0.4446  1.0750  0.3933
 4887SOL     OW26293   3.155   2.684   4.620  0.3162  0.2822 -0.4226
 4887SOL    HW126294   3.248   2.680   4.643  0.4407 -1.3975 -1.2689
 4887SOL    HW226295   3.157   2.672   4.525  0.8781  0.8043 -0.4830
 4888SOL     OW26296   2.121   0.433   2.582  0.2989  0.4540  0.1320
 4888SOL    HW126297   2.064   0.505   2.557 -0.4271  0.3354  1.4702
 4888SOL    HW226298   2.073   0.350   2.589 -0.5703  1.0877  1.6700
 4889SOL     OW26299   1.809   0.401  15.077 -0.0558 -0.2974  0.5714
 4889SOL    HW126300   1.745   0.336  15.108 -2.0876  0.7252 -1.4854
 4889SOL    HW226301   1.794   0.393  14.983 -0.8887 -2.4148  0.8727
 4890SOL     OW26302   3.986   4.635  11.341 -0.1412  0.1777 -0.1387
 4890SOL    HW126303   3.933   4.635  11.261 -1.0559 -1.1868  0.4637
 4890SOL    HW226304   3.950   4.556  11.382 -0.0003 -0.0689 -0.4819
 4891SOL     OW26305   4.621   2.938   8.703 -0.4063 -0.3756 -0.4045
 4891SOL    HW126306   4.558   2.932   8.631 -1.1055 -0.6248  0.2276
 4891SOL    HW226307   4.611   2.851   8.743 -0.0109  0.0001  0.5162
 4892SOL     OW26308   1.879   3.790  16.758  0.7182 -0.2136 -0.2585
 4892SOL    HW126309   1.974   3.777  16.768  0.7936 -0.4694 -1.3466
 4892SOL    HW226310   1.871   3.859  16.693  1.5423 -1.8501 -2.0901
 4893SOL     OW26311   1.003   1.822  14.779  0.0881  0.3083 -0.2382
 4893SOL    HW126312   0.910   1.799  14.782  0.0796  0.3114 -0.4602
 4893SOL    HW226313   1.038   1.782  14.858  0.8954  0.6449 -0.4263
 4894SOL     OW26314   1.119   2.838   3.751 -0.2374 -0.0372  0.0926
 4894SOL    HW126315   1.141   2.745   3.742  1.2370  0.3529 -0.4412
 4894SOL    HW226316   1.120   2.847   3.847 -1.5315  0.2850  0.0688
 4895SOL     OW26317   1.760   4.485   7.279 -0.1428  0.0726  0.3300
 4895SOL    HW126318   1.774   4.453   7.368  2.5130  0.1284 -0.0491
 4895SOL    HW226319   1.846   4.461   7.245  0.0973 -2.6163  2.7938
 4896SOL     OW26320   4.333   0.622   2.098 -0.7653  0.3620  0.0232
 4896SOL    HW126321   4.335   0.684   2.171 -0.0348 -0.2514  0.5326
 4896SOL    HW226322   4.240   0.600   2.101 -0.9281  1.0211 -0.0818
 4897SOL     OW26323   1.896   1.274   7.471 -0.1168 -0.0117 -0.6416
 4897SOL    HW126324   1.953   1.214   7.423  2.1257  1.2663  0.4191
 4897SOL    HW226325   1.933   1.273   7.559 -1.3513  0.2948 -0.1197
 4898SOL     OW26326   4.413   1.932  11.296 -0.3141  0.5125  0.5159
 4898SOL    HW126327   4.424   2.019  11.258  1.5566  0.0723  0.0343
 4898SOL    HW226328   4.358   1.956  11.371 -1.8845 -1.6332  0.0709
 4899SOL     OW26329   3.000   3.703   7.776  0.6475  0.3911 -0.0461
 4899SOL    HW126330   2.992   3.798   7.764  1.6758  0.8542  2.9523
 4899SOL    HW226331   3.062   3.679   7.707 -0.8832 -0.5787 -1.0721
 4900SOL     OW26332   1.385   4.096   0.420 -0.2109 -0.1943 -0.3227
 4900SOL    HW126333   1.363   4.059   0.334 -0.3673 -0.5915 -0.1108
 4900SOL    HW226334   1.480   4.106   0.414 -0.2868  1.3400  1.1406
 4901SOL     OW26335   1.955   4.561   8.645 -0.5451  1.1568  0.2148
 4901SOL    HW126336   1.864   4.563   8.613 -0.1421  1.7858 -0.8893
 4901SOL    HW226337   1.944   4.571   8.740  0.0617  1.7812  0.2224
 4902SOL     OW26338   1.879   3.348   2.379  0.0072  0.0486  0.7359
 4902SOL    HW126339   1.856   3.276   2.321  2.3786  1.1111 -1.5514
 4902SOL    HW226340   1.837   3.325   2.462  0.0135 -3.2465 -0.1857
 4903SOL     OW26341   2.121   0.264   5.917  0.0550  0.2647 -0.4041
 4903SOL    HW126342   2.134   0.340   5.860  0.1680 -0.3973 -1.2594
 4903SOL    HW226343   2.174   0.197   5.875  0.6227  0.9033 -0.7184
 4904SOL     OW26344   3.644   4.450  15.163  0.2688 -0.1238  0.1309
 4904SOL    HW126345   3.588   4.524  15.141 -2.3908 -1.7885  1.1798
 4904SOL    HW226346   3.727   4.475  15.124 -0.7545  3.1945  0.0702
 4905SOL     OW26347   0.761   2.485  10.982  0.5093  0.5343 -0.1517
 4905SOL    HW126348   0.695   2.487  10.913 -0.3688  1.8201  0.7318
 4905SOL    HW226349   0.839   2.443  10.946  1.5085  1.7121  0.6205
 4906SOL     OW26350   1.903   2.280   4.868  0.3886  0.2256  0.2770
 4906SOL    HW126351   1.939   2.367   4.881  0.8525  0.1009 -0.1943
 4906SOL    HW226352   1.834   2.282   4.935  0.2103 -1.0718  0.1450
 4907SOL     OW26353   1.863   0.187   8.238  0.0764 -0.0154 -0.5753
 4907SOL    HW126354   1.895   0.246   8.306  2.5601 -0.8943 -0.9967
 4907SOL    HW226355   1.939   0.166   8.184  0.4809 -2.3986  0.9226
 4908SOL     OW26356   0.997   3.801   2.461  0.4529 -0.3320  0.5356
 4908SOL    HW126357   0.901   3.797   2.456  0.3761  1.7177  0.1832
 4908SOL    HW226358   1.002   3.897   2.454 -0.5870 -0.2221  1.1582
 4909SOL     OW26359   3.740   2.148   1.690  0.2007 -0.4232 -0.4335
 4909SOL    HW126360   3.758   2.222   1.748 -0.7925  1.4666 -2.5428
 4909SOL    HW226361   3.646   2.160   1.682  0.4113  2.0565  0.8680
 4910SOL     OW26362   3.366   4.156   8.271 -0.0759  0.0074 -0.1315
 4910SOL    HW126363   3.357   4.247   8.299 -2.2138  0.3035 -1.7518
 4910SOL    HW226364   3.419   4.185   8.197 -1.0693  0.3952 -0.6918
 4911SOL     OW26365   3.101   0.262   4.828  0.1041 -0.3872 -0.1970
 4911SOL    HW126366   3.095   0.325   4.900 -2.3527  0.2273 -0.9641
 4911SOL    HW226367   3.044   0.194   4.863  1.5152 -3.1623 -3.2894
 4912SOL     OW26368   1.649   4.196  16.564  0.2299 -0.4306 -0.0321
 4912SOL    HW126369   1.639   4.240  16.480 -0.2792  0.9918  0.7622
 4912SOL    HW226370   1.602   4.115  16.543 -0.6434 -0.3514  1.6023
 4913SOL     OW26371   1.773   1.245   0.041  0.8530  0.2415  0.1373
 4913SOL    HW126372   1.784   1.153   0.066  1.7127  0.8198  1.8841
 4913SOL    HW226373   1.850   1.289   0.076  0.8474 -0.4333  1.0175
 4914SOL     OW26374   2.370   2.427   1.613  0.0893 -0.4673 -0.1720
 4914SOL    HW126375   2.431   2.500   1.604 -2.6078  1.5713 -1.9533
 4914SOL    HW226376   2.349   2.403   1.522  2.5370  1.5057 -1.2558
 4915SOL     OW26377   2.863   3.234   5.127  0.6169  0.4453 -0.0145
 4915SOL    HW126378   2.797   3.302   5.109 -0.5891 -0.9101 -0.6868
 4915SOL    HW226379   2.928   3.253   5.059 -2.2745  1.1503 -2.5962
 4916SOL     OW26380   1.608   2.541  12.571  0.3412 -0.2129 -0.0072
 4916SOL    HW126381   1.701   2.532  12.551 -0.3551 -1.7326 -2.5533
 4916SOL    HW226382   1.590   2.604  12.501  0.5498  0.9133  0.9565
 4917SOL     OW26383   4.287   1.845   8.912 -0.5954 -0.1605 -0.4857
 4917SOL    HW126384   4.219   1.895   8.866 -1.6745 -1.4501 -0.3033
 4917SOL    HW226385   4.243   1.817   8.993 -0.8949 -0.0719 -0.6191
 4918SOL     OW26386   1.518   2.131   3.058 -0.4423 -0.0501 -0.0103
 4918SOL    HW126387   1.512   2.042   3.025  2.6037 -0.4996  0.6244
 4918SOL    HW226388   1.552   2.125   3.147 -0.1271 -0.3467 -0.1502
 4919SOL     OW26389   0.538   3.754  13.341  0.0145 -0.1864 -0.1492
 4919SOL    HW126390   0.483   3.689  13.296  0.1727  0.9578 -2.0190
 4919SOL    HW226391   0.563   3.808  13.265 -0.8360  1.9915  1.1187
 4920SOL     OW26392   2.941   1.350   0.245 -0.9655  0.0425 -0.2988
 4920SOL    HW126393   3.008   1.295   0.204  2.5452  2.5836  2.0866
 4920SOL    HW226394   2.972   1.365   0.334  0.2343 -0.9152 -0.5496
 4921SOL     OW26395   1.011   1.365   6.239 -0.1839  0.1966 -0.0367
 4921SOL    HW126396   0.915   1.365   6.239 -0.1945 -2.8832  2.8529
 4921SOL    HW226397   1.033   1.371   6.147  0.4184 -2.6908 -0.0815
 4922SOL     OW26398   0.195   3.343   4.171 -0.0606 -0.2759  0.9924
 4922SOL    HW126399   0.101   3.344   4.155 -0.0472  0.5369  0.9511
 4922SOL    HW226400   0.220   3.427   4.133  0.3400 -0.2865  1.2307
 4923SOL     OW26401   1.695   0.503  16.941  0.4070 -0.5074  0.1390
 4923SOL    HW126402   1.731   0.415  16.937  1.6877  0.0707 -0.9361
 4923SOL    HW226403   1.728   0.538  16.858  0.7954 -1.7724 -0.2282
 4924SOL     OW26404   3.617   3.331   0.110 -0.1777 -0.3124  0.2922
 4924SOL    HW126405   3.640   3.254   0.058  0.1489 -0.4379  0.6235
 4924SOL    HW226406   3.657   3.306   0.194  2.2497 -0.0746 -0.7887
 4925SOL     OW26407   0.542   4.247   2.491  0.3687 -0.0656  0.1859
 4925SOL    HW126408   0.516   4.313   2.427  1.3013 -1.1530 -1.2896
 4925SOL    HW226409   0.475   4.275   2.554  2.3892  2.1193  1.3405
 4926SOL     OW26410   2.522   2.756   6.588 -0.2004  0.7670 -0.6518
 4926SOL    HW126411   2.450   2.818   6.599 -0.0092  0.5948  1.5297
 4926SOL    HW226412   2.571   2.780   6.667  2.1342  0.6448 -2.0667
 4927SOL     OW26413   1.971   2.847   7.694  0.0677 -0.6209  0.2812
 4927SOL    HW126414   2.051   2.809   7.658  0.0701  1.2705 -1.6772
 4927SOL    HW226415   1.999   2.937   7.677 -0.7965 -0.3207  0.4664
 4928SOL     OW26416   1.605   0.494  11.364 -0.2356 -0.0245  0.4338
 4928SOL    HW126417   1.648   0.503  11.279 -2.0423  0.0336 -0.4747
 4928SOL    HW226418   1.649   0.556  11.423 -1.2229  0.8026  0.3169
 4929SOL     OW26419   1.121   2.401  11.569  0.0783 -0.3618  0.0257
 4929SOL    HW126420   1.032   2.432  11.554 -0.8224 -1.8425  2.2815
 4929SOL    HW226421   1.111   2.311  11.538  2.0150 -0.8250  0.7649
 4930SOL     OW26422   3.847   3.408  10.870 -0.4623 -0.3234  0.2706
 4930SOL    HW126423   3.755   3.431  10.861 -0.2986 -0.2980 -1.3910
 4930SOL    HW226424   3.867   3.412  10.963  0.9536  0.0944 -0.0537
 4931SOL     OW26425   2.490   0.044   5.636 -0.2512 -0.4391 -0.9044
 4931SOL    HW126426   2.530   0.052   5.549 -0.2347 -1.6159 -1.0142
 4931SOL    HW226427   2.560   0.058   5.700  0.6610 -1.8717 -1.5900
 4932SOL     OW26428   0.642   3.838  13.889  0.5346 -0.2341  0.2204
 4932SOL    HW126429   0.582   3.872  13.823 -0.7324  1.6574  2.3415
 4932SOL    HW226430   0.638   3.903  13.959 -1.4442 -1.2488  1.0751
 4933SOL     OW26431   1.697   0.600   6.864 -0.0136 -0.5198 -0.3495
 4933SOL    HW126432   1.777   0.647   6.887 -1.5518  1.9365  0.1035
 4933SOL    HW226433   1.651   0.579   6.946  0.5433 -0.0938  0.0705
 4934SOL     OW26434   0.995   2.344   4.038 -0.0246 -0.0606  0.3504
 4934SOL    HW126435   1.066   2.280   4.030  0.2729  0.2383  0.6354
 4934SOL    HW226436   1.029   2.422   4.082 -0.7625  0.9060 -0.7848
 4935SOL     OW26437   4.567   4.534   2.117 -0.7901 -0.0992  0.0478
 4935SOL    HW126438   4.607   4.600   2.061  0.3884 -1.9408 -1.2903
 4935SOL    HW226439   4.585   4.574   2.203  0.5366 -1.7848  0.5627
 4936SOL     OW26440   4.154   1.139   8.412  0.0944 -0.1980  0.0482
 4936SOL    HW126441   4.065   1.132   8.449  0.3359  0.6951  0.7916
 4936SOL    HW226442   4.151   1.223   8.368 -1.7056 -0.5120 -0.4391
 4937SOL     OW26443   1.460   3.628   1.842 -0.2861  0.2187 -0.4891
 4937SOL    HW126444   1.509   3.569   1.784  0.0799  1.0183 -0.9854
 4937SOL    HW226445   1.540   3.666   1.877 -0.3977  0.7468 -0.8146
 4938SOL     OW26446   3.563   1.104   5.429 -0.2295  0.6213  0.2051
 4938SOL    HW126447   3.597   1.033   5.483 -2.2319 -0.1406  0.4756
 4938SOL    HW226448   3.647   1.124   5.387  0.6703  1.8715  2.6074
 4939SOL     OW26449   2.636   1.042   7.091 -0.3661 -0.3035  0.1161
 4939SOL    HW126450   2.566   0.978   7.102 -1.3705  0.6332 -0.8217
 4939SOL    HW226451   2.644   1.086   7.176  3.3501  1.6930 -1.3000
 4940SOL     OW26452   3.223   1.120  16.431 -0.6804  0.2735 -0.1750
 4940SOL    HW126453   3.217   1.089  16.341  1.6980  0.3643 -0.3519
 4940SOL    HW226454   3.158   1.070  16.481 -0.0561 -1.3034 -0.9369
 4941SOL     OW26455   0.625   2.854   1.411 -0.0505  0.1014 -0.6390
 4941SOL    HW126456   0.552   2.881   1.467  0.5761 -0.8798  0.6500
 4941SOL    HW226457   0.594   2.886   1.326 -1.4164 -0.7048 -0.4514
 4942SOL     OW26458   4.071   4.676   5.725 -0.0469  1.2312  0.0301
 4942SOL    HW126459   3.978   4.685   5.706 -0.9913 -0.4695  3.8935
 4942SOL    HW226460   4.101   4.611   5.661 -0.6247 -0.2346  1.2609
 4943SOL     OW26461   1.473   3.730   5.592  0.4535 -0.3265 -0.0671
 4943SOL    HW126462   1.561   3.739   5.556 -0.0086  0.8099 -0.9071
 4943SOL    HW226463   1.420   3.727   5.512  1.6205  2.0176 -0.9234
 4944SOL     OW26464   2.183   0.846   0.703  0.4613  0.2465 -0.0579
 4944SOL    HW126465   2.267   0.823   0.665 -0.0999 -0.9201 -0.5965
 4944SOL    HW226466   2.148   0.757   0.715  1.3837  0.0438  1.2124
 4945SOL     OW26467   1.949   0.725   6.999  0.2964  0.4478  0.3931
 4945SOL    HW126468   1.976   0.638   7.027  1.0494  1.2489  2.1787
 4945SOL    HW226469   2.027   0.757   6.954  0.9232 -0.9863  0.4901
 4946SOL     OW26470   0.108   3.767   9.632 -0.6272 -0.0642 -0.0770
 4946SOL    HW126471   0.119   3.756   9.726 -3.2517  1.4433  0.4019
 4946SOL    HW226472   0.156   3.690   9.600 -1.9650  0.4093 -3.2138
 4947SOL     OW26473   0.057   2.078   2.139 -0.3107  0.4602 -0.3829
 4947SOL    HW126474   0.087   2.055   2.227 -3.4134  1.3509  0.9163
 4947SOL    HW226475   0.133   2.063   2.082 -2.1030 -0.6706 -2.4666
 4948SOL     OW26476   2.127   1.260   2.251 -0.3021  1.0636  0.4962
 4948SOL    HW126477   2.095   1.197   2.315  1.0380 -0.7443 -0.6123
 4948SOL    HW226478   2.052   1.319   2.250 -2.7520 -2.0411  1.0086
 4949SOL     OW26479   0.144   3.035   0.340 -0.1957  0.1236  0.2334
 4949SOL    HW126480   0.085   3.075   0.276 -1.2479 -0.3377  0.9285
 4949SOL    HW226481   0.161   2.954   0.291  2.0285  0.8299 -0.1454
 4950SOL     OW26482   1.794   0.565   2.106 -0.6236  0.4453 -0.8460
 4950SOL    HW126483   1.718   0.619   2.131 -0.7677  0.5881 -1.5863
 4950SOL    HW226484   1.781   0.547   2.013 -2.2933  0.4335 -0.6260
 4951SOL     OW26485   4.150   3.529   2.934  0.0449  0.2010  0.4678
 4951SOL    HW126486   4.097   3.608   2.950 -0.3357  0.5015 -2.1984
 4951SOL    HW226487   4.077   3.467   2.943  1.2384 -1.3139 -0.3966
 4952SOL     OW26488   2.765   1.537  12.353 -0.1611 -0.0214 -0.5662
 4952SOL    HW126489   2.767   1.628  12.383 -0.5094  0.3086 -1.5423
 4952SOL    HW226490   2.786   1.490  12.433  1.3998  0.8712 -0.4605
 4953SOL     OW26491   4.206   1.945  10.234  0.3328 -0.2909  0.3003
 4953SOL    HW126492   4.200   2.024  10.287  4.7636  0.4586 -0.2708
 4953SOL    HW226493   4.137   1.958  10.169  0.0576  0.3107  0.7212
 4954SOL     OW26494   2.943   1.381   9.598  0.6138  0.2029 -0.1848
 4954SOL    HW126495   3.029   1.404   9.635  1.2470  0.1911 -1.6655
 4954SOL    HW226496   2.881   1.382   9.671 -0.7558  1.3774 -1.3685
 4955SOL     OW26497   2.253   0.735  17.236 -0.2273  0.1934 -0.1903
 4955SOL    HW126498   2.226   0.826  17.242  2.6543  1.0105  0.4749
 4955SOL    HW226499   2.171   0.689  17.219  0.6445 -1.5176  0.2038
 4956SOL     OW26500   3.489   1.437   4.354 -0.4331 -0.1017  0.0512
 4956SOL    HW126501   3.440   1.491   4.291  0.0223  0.7930  0.4682
 4956SOL    HW226502   3.515   1.503   4.418  1.2571  1.6141 -2.3742
 4957SOL     OW26503   1.968   2.804   5.173  0.1240  0.0055  0.1801
 4957SOL    HW126504   2.044   2.818   5.117  1.5221 -0.0246  2.0440
 4957SOL    HW226505   1.919   2.745   5.117  0.3286 -2.3704  2.4709
 4958SOL     OW26506   2.105   0.149   6.822  0.0244 -0.3532 -0.8720
 4958SOL    HW126507   2.068   0.103   6.746 -1.0172  0.3553 -0.7901
 4958SOL    HW226508   2.187   0.171   6.778 -0.2656  0.6389 -0.9193
 4959SOL     OW26509   0.697   3.057   1.991  0.0370  0.1417 -0.3133
 4959SOL    HW126510   0.716   3.028   1.902 -0.1176  0.1554 -0.3509
 4959SOL    HW226511   0.642   2.984   2.019 -1.2052  0.7092 -1.3007
 4960SOL     OW26512   0.064   1.713   2.718  0.4785 -0.2553 -0.7861
 4960SOL    HW126513   0.127   1.772   2.675  0.3130  0.3058 -0.2539
 4960SOL    HW226514   0.022   1.778   2.773 -0.0881  0.0951 -1.6249
 4961SOL     OW26515   0.178   3.968   4.336  0.3889 -0.3685 -0.0444
 4961SOL    HW126516   0.229   3.995   4.260  0.4637 -0.2954  0.0312
 4961SOL    HW226517   0.220   3.883   4.350 -2.3896 -1.9075 -1.1663
 4962SOL     OW26518   0.528   2.064   3.048 -0.2065  0.0581 -0.3903
 4962SOL    HW126519   0.611   2.017   3.055  1.1201  2.6182  0.9900
 4962SOL    HW226520   0.527   2.115   3.129 -1.8332  0.6104 -0.7614
 4963SOL     OW26521   0.715   3.612   5.245 -0.2025  0.6528  0.7655
 4963SOL    HW126522   0.765   3.659   5.312 -0.8466  2.4667 -0.0173
 4963SOL    HW226523   0.715   3.523   5.280  0.7384  0.8236  1.1811
 4964SOL     OW26524   0.360   0.931  11.782 -0.5093  0.4875 -0.0309
 4964SOL    HW126525   0.278   0.951  11.826 -0.4560 -0.3488  0.4413
 4964SOL    HW226526   0.347   0.965  11.693 -1.6010 -1.1921 -0.5121
 4965SOL     OW26527   2.999   1.386  16.355  0.1624 -0.3247 -0.0016
 4965SOL    HW126528   3.086   1.356  16.329  1.0151  1.3795  0.8963
 4965SOL    HW226529   3.022   1.478  16.342  2.4374 -1.2688 -2.5485
 4966SOL     OW26530   2.418   3.645   1.435  0.1146  0.1116  0.1510
 4966SOL    HW126531   2.372   3.565   1.461  1.4151 -0.5075  0.5492
 4966SOL    HW226532   2.479   3.599   1.377  1.0516  0.4462  0.8599
 4967SOL     OW26533   1.246   3.296   5.564 -0.1855 -0.4080  0.1131
 4967SOL    HW126534   1.154   3.280   5.587 -0.4617  2.2407  0.9329
 4967SOL    HW226535   1.269   3.365   5.626 -1.0204 -1.4180  1.5454
 4968SOL     OW26536   2.413   2.092   1.822 -0.2752  0.2341 -0.1398
 4968SOL    HW126537   2.468   2.074   1.746  0.1832  1.9636 -0.2178
 4968SOL    HW226538   2.447   2.173   1.860 -1.0298  0.0827  0.8466
 4969SOL     OW26539   2.158   4.301   5.117 -0.2065 -0.0949 -0.2321
 4969SOL    HW126540   2.093   4.235   5.093  0.6344 -0.6588 -0.9303
 4969SOL    HW226541   2.123   4.355   5.188  0.0211 -0.8378  0.4451
 4970SOL     OW26542   4.155   0.463  11.733 -0.1835 -0.0459 -0.4697
 4970SOL    HW126543   4.099   0.523  11.782 -2.8832 -1.2316 -2.0911
 4970SOL    HW226544   4.210   0.515  11.674  0.2369 -0.8113 -0.7547
 4971SOL     OW26545   2.143   2.585   8.662 -0.2385 -0.0073  0.1013
 4971SOL    HW126546   2.178   2.674   8.663  2.3921 -0.9675 -2.8786
 4971SOL    HW226547   2.225   2.535   8.651 -0.1486 -0.1288  1.4130
 4972SOL     OW26548   2.001   4.416   7.199  0.1069 -0.4578  0.1490
 4972SOL    HW126549   2.005   4.326   7.232 -1.2596 -0.4467  0.3294
 4972SOL    HW226550   2.087   4.419   7.158  0.7397  0.8215  1.5241
 4973SOL     OW26551   4.279   3.141   0.909 -0.2207 -0.2527 -0.0299
 4973SOL    HW126552   4.204   3.118   0.855  0.2422 -0.6660 -0.4887
 4973SOL    HW226553   4.267   3.105   0.997 -1.3340 -0.9165 -0.4569
 4974SOL     OW26554   0.667   4.637   5.345 -0.4332  0.2726 -0.1950
 4974SOL    HW126555   0.589   4.583   5.328  1.0842 -1.8393 -0.4355
 4974SOL    HW226556   0.672   4.675   5.257 -1.3878  0.0868 -0.3310
 4975SOL     OW26557   2.169   2.747   6.693  0.3059 -0.7554  0.2895
 4975SOL    HW126558   2.128   2.692   6.760  0.0819 -0.8120  0.1054
 4975SOL    HW226559   2.238   2.796   6.737 -0.8439 -1.3618  2.7695
 4976SOL     OW26560   2.304   0.104   4.834 -0.0249 -0.2102  0.0375
 4976SOL    HW126561   2.333   0.187   4.798  1.6232  0.3560  2.6942
 4976SOL    HW226562   2.294   0.054   4.752  0.4833 -1.3183  0.6461
 4977SOL     OW26563   2.392   3.309   9.173 -0.1217 -0.1274 -0.3613
 4977SOL    HW126564   2.455   3.257   9.123  1.0617  0.9191  0.0645
 4977SOL    HW226565   2.434   3.315   9.259  0.0035  0.8278 -0.4904
 4978SOL     OW26566   4.648   1.567   1.327 -0.2841 -0.3066 -0.0293
 4978SOL    HW126567   4.661   1.595   1.417  0.5221  1.0606 -0.5703
 4978SOL    HW226568   4.558   1.534   1.325 -0.7347  0.9451 -0.2927
 4979SOL     OW26569   0.478   1.018   2.306 -0.0953 -0.2179  0.2613
 4979SOL    HW126570   0.394   0.979   2.282  0.8275 -2.0883  0.0293
 4979SOL    HW226571   0.512   0.953   2.368  1.8405 -0.1026 -0.6789
 4980SOL     OW26572   4.678   3.301  16.183  0.2286  0.4772 -0.3234
 4980SOL    HW126573   4.647   3.258  16.103  2.8287 -0.0031 -1.0815
 4980SOL    HW226574   4.728   3.367  16.135 -0.5634  0.2792 -1.3983
 4981SOL     OW26575   0.466   4.203   6.629  0.7198  0.7635 -0.3522
 4981SOL    HW126576   0.443   4.116   6.596  0.9226  1.0870 -1.3549
 4981SOL    HW226577   0.524   4.182   6.703 -0.5247  0.0399  0.4129
 4982SOL     OW26578   1.092   1.303   1.089  0.2553  0.1843  1.0237
 4982SOL    HW126579   1.018   1.287   1.147  1.0457 -0.7236  1.7872
 4982SOL    HW226580   1.102   1.220   1.043  0.3051  0.4863  0.4836
 4983SOL     OW26581   4.044   3.906   2.666 -0.0846 -0.4276  0.0889
 4983SOL    HW126582   4.000   3.823   2.645 -0.2232 -0.9352  2.4194
 4983SOL    HW226583   3.976   3.964   2.700  0.9468 -0.2695  1.8612
 4984SOL     OW26584   1.007   1.719   5.979 -0.3000 -0.1448  0.6236
 4984SOL    HW126585   0.935   1.656   5.977  0.1939 -0.6674 -0.9127
 4984SOL    HW226586   0.993   1.742   6.071 -2.9200  0.7244 -0.0163
 4985SOL     OW26587   4.537   2.261  10.988 -0.4411  0.3023 -0.1005
 4985SOL    HW126588   4.545   2.355  10.971  0.5701 -0.2668 -2.7586
 4985SOL    HW226589   4.629   2.234  10.990 -0.6163 -0.2632  0.3424
 4986SOL     OW26590   3.028   1.005  16.560  0.0727  0.2704 -0.1430
 4986SOL    HW126591   2.971   1.082  16.564 -1.5604 -0.9856  0.8030
 4986SOL    HW226592   3.021   0.971  16.650  2.0047  0.7085  0.1719
 4987SOL     OW26593   2.991   2.933   5.475 -0.1989 -0.3308 -0.9018
 4987SOL    HW126594   3.013   3.004   5.415 -1.3909  1.0155  0.2653
 4987SOL    HW226595   3.078   2.900   5.496  0.5968 -0.4207 -4.2476
 4988SOL     OW26596   1.462   2.532   6.611  0.1207  0.0774  0.1729
 4988SOL    HW126597   1.510   2.530   6.694  0.7668  0.0555 -0.2036
 4988SOL    HW226598   1.401   2.459   6.622 -0.6037  0.7465  0.5328
 4989SOL     OW26599   2.902   0.648   9.352 -0.3218 -0.0384 -0.6824
 4989SOL    HW126600   2.932   0.689   9.433 -2.6684  0.3757 -0.0120
 4989SOL    HW226601   2.967   0.677   9.288  2.2171  0.7074  2.2534
 4990SOL     OW26602   3.530   4.306   3.025  0.6112 -0.2142  0.0199
 4990SOL    HW126603   3.471   4.285   3.097  0.1415  0.9905 -0.0020
 4990SOL    HW226604   3.490   4.250   2.959 -1.9252  0.2736  1.1365
 4991SOL     OW26605   2.296   3.895  10.781 -0.1034  0.0149 -0.0659
 4991SOL    HW126606   2.364   3.899  10.848 -1.0048  0.7536  0.8118
 4991SOL    HW226607   2.231   3.953  10.820 -0.7600 -0.1479 -0.9148
 4992SOL     OW26608   1.037   0.300  11.291  0.2357 -0.9134  0.3492
 4992SOL    HW126609   1.032   0.212  11.256  2.0507 -1.4838  1.5334
 4992SOL    HW226610   1.129   0.321  11.276  0.6438 -3.4616 -0.7037
 4993SOL     OW26611   0.726   1.575  17.445  0.2534  0.3987  0.1140
 4993SOL    HW126612   0.724   1.611  17.356  3.3113 -1.3811 -0.6827
 4993SOL    HW226613   0.754   1.485  17.431 -1.1150 -0.1332  0.8339
 4994SOL     OW26614   3.422   3.740   7.250  0.0276 -0.2396  0.0031
 4994SOL    HW126615   3.383   3.679   7.187  1.2000 -0.5582 -0.4198
 4994SOL    HW226616   3.352   3.798   7.277 -0.1554 -1.4376  2.1810
 4995SOL     OW26617   0.955   1.726   1.555  0.6861  0.4333 -0.0827
 4995SOL    HW126618   1.037   1.752   1.596  0.4394 -0.1084  0.7603
 4995SOL    HW226619   0.962   1.774   1.473  0.0867 -0.7765 -0.8494
 4996SOL     OW26620   2.526   1.068  12.752 -0.1918  0.1789  0.1726
 4996SOL    HW126621   2.461   1.060  12.821  0.3572  1.0312  0.7861
 4996SOL    HW226622   2.484   1.112  12.678  0.3938 -2.3019 -1.6517
 4997SOL     OW26623   0.698   1.060   3.507 -0.0443 -0.5715  0.6113
 4997SOL    HW126624   0.674   1.060   3.599  0.4717 -1.7770  0.7475
 4997SOL    HW226625   0.785   1.094   3.528 -0.5084 -0.2418  1.9763
 4998SOL     OW26626   3.983   2.032   4.732 -0.1623  0.2254  0.1269
 4998SOL    HW126627   3.889   2.046   4.737  0.0354  1.4167  0.4700
 4998SOL    HW226628   4.012   2.120   4.755 -0.7373  0.5734 -0.4855
 4999SOL     OW26629   0.086   3.713   0.535 -0.0512  0.1326  0.3537
 4999SOL    HW126630   0.177   3.684   0.545 -0.5160 -1.1670  0.8463
 4999SOL    HW226631   0.054   3.701   0.625  0.5202  2.5296  0.8875
 5000SOL     OW26632   3.715   2.636  17.594 -0.5123  0.4434  0.4728
 5000SOL    HW126633   3.774   2.701  17.557 -2.5665  2.2718  0.3549
 5000SOL    HW226634   3.772   2.581  17.647 -0.5320  0.0538  0.0840
 5001SOL     OW26635   1.352   1.750   8.773  0.1825 -0.4111  0.0773
 5001SOL    HW126636   1.434   1.789   8.741 -0.2702  0.2303 -0.3086
 5001SOL    HW226637   1.309   1.710   8.698 -1.0777 -0.0138  0.5844
 5002SOL     OW26638   0.594   0.306   9.072  0.3006  0.2414 -0.5647
 5002SOL    HW126639   0.510   0.326   9.113 -0.6057 -3.2062 -0.6978
 5002SOL    HW226640   0.615   0.213   9.080 -2.1589 -0.4995 -2.8145
 5003SOL     OW26641   1.214   1.553   8.428 -0.2106  0.5735 -0.4196
 5003SOL    HW126642   1.235   1.459   8.425 -0.9799  0.4182 -1.0397
 5003SOL    HW226643   1.139   1.557   8.369  0.9103  0.2817 -1.8762
 5004SOL     OW26644   4.707   3.507   7.025  0.4329 -0.1100 -0.2610
 5004SOL    HW126645   0.038   3.488   6.961  0.0397  0.6225 -0.8909
 5004SOL    HW226646   4.660   3.584   6.993 -0.0852  0.3718  1.6701
 5005SOL     OW26647   4.284   0.132   8.118 -0.5502 -0.1882  0.3064
 5005SOL    HW126648   4.378   0.123   8.100 -0.5656 -0.5581  0.4252
 5005SOL    HW226649   4.276   0.228   8.114 -1.9952 -0.3233 -0.0631
 5006SOL     OW26650   0.557   3.623  11.142  0.0177 -0.2327  0.1853
 5006SOL    HW126651   0.628   3.573  11.103 -0.7214  1.0640 -2.7622
 5006SOL    HW226652   0.498   3.551  11.167  1.8236 -1.8687 -0.2703
 5007SOL     OW26653   3.816   1.146   1.591  0.4277  0.4780  0.2746
 5007SOL    HW126654   3.732   1.176   1.558  0.5980 -0.0633 -0.6475
 5007SOL    HW226655   3.787   1.089   1.663 -1.4058  0.2474 -0.6631
 5008SOL     OW26656   3.332   0.183  13.187 -0.4868 -0.3204  0.0279
 5008SOL    HW126657   3.410   0.213  13.141  1.4282 -0.9092  2.9613
 5008SOL    HW226658   3.374   0.124  13.249  3.2619  2.9850  0.6409
 5009SOL     OW26659   0.188   1.783   3.275  0.5482 -0.4513 -0.5649
 5009SOL    HW126660   0.254   1.789   3.344  0.0217 -3.0968  0.1877
 5009SOL    HW226661   0.236   1.807   3.196 -1.0201 -2.3364 -2.1064
 5010SOL     OW26662   0.217   4.328   3.745  0.2187 -0.0932  0.2795
 5010SOL    HW126663   0.194   4.251   3.693  1.3978 -0.6363  0.5371
 5010SOL    HW226664   0.232   4.292   3.833 -0.7371  2.8231  1.6116
 5011SOL     OW26665   1.842   2.545  13.670  0.6410  0.2522 -0.0760
 5011SOL    HW126666   1.896   2.502  13.736 -0.0980  0.2613  0.5241
 5011SOL    HW226667   1.826   2.462  13.625  0.1405  0.1991  0.2074
 5012SOL     OW26668   4.078   4.650   1.751  0.1747 -0.2164  0.4628
 5012SOL    HW126669   4.045   4.677   1.837 -1.3937  3.1804 -1.1972
 5012SOL    HW226670   4.170   4.632   1.771  0.1600 -1.1824 -0.3416
 5013SOL     OW26671   0.452   1.600   7.859  0.0766 -0.0279 -0.1361
 5013SOL    HW126672   0.384   1.645   7.810 -1.8090 -0.5685  1.9965
 5013SOL    HW226673   0.506   1.551   7.797 -0.0398  0.5330 -0.6777
 5014SOL     OW26674   1.748   4.298   6.497  0.8645 -0.2576 -0.0484
 5014SOL    HW126675   1.755   4.279   6.403  0.6844 -0.0985 -0.0927
 5014SOL    HW226676   1.660   4.335   6.504  0.3660 -1.2916 -0.8288
 5015SOL     OW26677   0.828   2.302  17.399 -0.0831 -0.5236  0.2495
 5015SOL    HW126678   0.861   2.389  17.376  0.0818 -0.7936 -0.5531
 5015SOL    HW226679   0.775   2.285  17.321 -0.7069 -1.6579  0.9334
 5016SOL     OW26680   3.189   2.635  14.610  0.1879  0.4109 -0.1285
 5016SOL    HW126681   3.096   2.626  14.630  0.1250 -0.0127 -0.6196
 5016SOL    HW226682   3.186   2.649  14.516  1.9930  0.4975 -0.1849
 5017SOL     OW26683   0.055   1.048   9.780  0.4687 -0.4517 -0.3296
 5017SOL    HW126684   0.002   1.078   9.854  1.9369  0.1818  0.4601
 5017SOL    HW226685   0.055   0.952   9.790 -3.1695 -0.4898 -0.8238
 5018SOL     OW26686   0.620   2.676   9.080 -0.2651  0.0936 -0.7171
 5018SOL    HW126687   0.712   2.685   9.054  0.0423  1.6590  0.9080
 5018SOL    HW226688   0.586   2.629   9.004 -0.1798 -0.2433 -0.5448
 5019SOL     OW26689   1.416   2.226  13.734  0.9116  0.0040  0.0104
 5019SOL    HW126690   1.505   2.255  13.713  0.0777  2.1807 -0.4279
 5019SOL    HW226691   1.389   2.175  13.658 -2.0314  2.3163 -0.4800
 5020SOL     OW26692   2.371   2.458   6.137 -0.1717 -0.3838 -0.4577
 5020SOL    HW126693   2.280   2.476   6.159 -0.1610 -0.6203 -0.2093
 5020SOL    HW226694   2.411   2.455   6.224  0.2476 -0.1427 -0.6454
 5021SOL     OW26695   0.199   0.882   6.525 -0.7052  0.0988  0.0229
 5021SOL    HW126696   0.178   0.866   6.617  0.8198 -1.6994  0.0555
 5021SOL    HW226697   0.110   0.897   6.492 -0.8174 -0.6630 -0.0413
 5022SOL     OW26698   3.327   3.955   4.070 -0.1377 -0.1827 -0.2809
 5022SOL    HW126699   3.242   3.974   4.110 -0.2747  0.2396 -0.7675
 5022SOL    HW226700   3.327   3.859   4.079 -2.0111 -0.2353 -0.6824
 5023SOL     OW26701   4.158   1.367   2.770 -0.1478 -0.4114 -0.7944
 5023SOL    HW126702   4.098   1.341   2.840 -0.5255 -0.6093 -1.1890
 5023SOL    HW226703   4.113   1.445   2.735 -0.5404 -0.8643 -1.3040
 5024SOL     OW26704   1.418   0.159   3.121 -0.1082 -0.1441 -0.5068
 5024SOL    HW126705   1.409   0.147   3.215 -0.3812  0.4573 -0.4556
 5024SOL    HW226706   1.344   0.219   3.114  0.5931  0.9492  1.4499
 5025SOL     OW26707   3.862   1.254  11.510 -0.1472 -0.5495  0.3675
 5025SOL    HW126708   3.917   1.188  11.467 -0.2094 -0.4794  0.1797
 5025SOL    HW226709   3.914   1.332  11.492 -0.6870 -0.9377 -2.8050
 5026SOL     OW26710   0.060   1.742   7.792 -0.3159  0.2075 -0.1172
 5026SOL    HW126711   0.054   1.838   7.795  0.8937  0.2469  0.6142
 5026SOL    HW226712   0.147   1.737   7.753 -0.0953  1.8510  0.1386
 5027SOL     OW26713   0.302   2.131   2.333 -0.6695  0.7199  0.7514
 5027SOL    HW126714   0.357   2.180   2.271  1.3142 -0.4588  1.5638
 5027SOL    HW226715   0.274   2.207   2.384  1.1912  3.3963 -2.2067
 5028SOL     OW26716   4.532   2.180  15.984  0.3147  0.1927  0.5580
 5028SOL    HW126717   4.624   2.162  15.999  0.8885  2.9079  0.3423
 5028SOL    HW226718   4.541   2.248  15.917  0.9553 -0.5807 -0.1256
 5029SOL     OW26719   3.220   2.898  15.984 -0.4375 -0.3535  0.4948
 5029SOL    HW126720   3.269   2.972  15.947  0.7211 -1.3681 -0.0055
 5029SOL    HW226721   3.195   2.938  16.068  0.7977  2.4381 -0.4441
 5030SOL     OW26722   0.144   2.454   2.200  0.0949 -0.3221 -0.4840
 5030SOL    HW126723   0.174   2.405   2.276  0.4574 -0.1097 -0.4899
 5030SOL    HW226724   0.214   2.519   2.188 -1.2166  0.6928 -2.7201
 5031SOL     OW26725   0.600   2.640   9.818  0.3440  0.4041 -0.0211
 5031SOL    HW126726   0.648   2.562   9.844  0.8721  0.0549 -2.0332
 5031SOL    HW226727   0.665   2.695   9.774  0.8024  0.7102  1.0276
 5032SOL     OW26728   0.029   0.745   6.045 -0.3630 -0.3782  0.0437
 5032SOL    HW126729   0.094   0.778   5.983 -0.7210  0.0918 -0.0803
 5032SOL    HW226730   0.084   0.720   6.119 -0.4810 -1.2505 -0.1609
 5033SOL     OW26731   2.252   3.654   4.164  0.6022 -0.2697 -0.2274
 5033SOL    HW126732   2.281   3.718   4.099 -0.4198  0.4657  0.0609
 5033SOL    HW226733   2.167   3.635   4.125  1.3457 -1.5080 -1.2667
 5034SOL     OW26734   3.049   4.270   3.754 -0.3499 -0.2291 -0.2470
 5034SOL    HW126735   3.099   4.351   3.765 -1.2236 -0.0302  2.4568
 5034SOL    HW226736   3.095   4.211   3.814  0.7950  1.7892  0.8843
 5035SOL     OW26737   4.569   1.082   7.571  0.3349 -0.1656 -0.4133
 5035SOL    HW126738   4.663   1.075   7.560  0.0773 -1.8478 -1.6461
 5035SOL    HW226739   4.557   1.030   7.650 -0.2341 -1.1457 -1.1386
 5036SOL     OW26740   0.326   3.958   4.764  0.0579 -1.0027  0.0957
 5036SOL    HW126741   0.397   3.895   4.775  0.6123 -0.8405 -2.3849
 5036SOL    HW226742   0.254   3.899   4.738 -0.5436  0.3875 -1.4108
 5037SOL     OW26743   1.474   1.773  10.698  0.5842 -0.6219  0.3248
 5037SOL    HW126744   1.471   1.819  10.614 -1.6373 -3.0181 -0.9226
 5037SOL    HW226745   1.549   1.811  10.742  0.8860 -2.2195  1.1759
 5038SOL     OW26746   3.282   1.547   6.855  0.4886  0.0370 -0.3481
 5038SOL    HW126747   3.239   1.580   6.776  0.2264  0.2817 -0.1030
 5038SOL    HW226748   3.255   1.456   6.866 -0.1623  0.1113 -1.2956
 5039SOL     OW26749   1.730   0.300   7.182 -0.0688 -0.5320  0.0328
 5039SOL    HW126750   1.683   0.228   7.225 -0.0316 -0.0680  0.8373
 5039SOL    HW226751   1.783   0.246   7.123 -1.0514  0.3920 -1.6968
 5040SOL     OW26752   2.688   3.674   0.122 -0.2353  0.1583  0.1918
 5040SOL    HW126753   2.782   3.663   0.135 -0.4471  1.0351  2.6076
 5040SOL    HW226754   2.684   3.714   0.035 -2.2725 -0.6909 -0.0993
 5041SOL     OW26755   1.971   0.511  14.250 -0.0489 -0.4211  0.0130
 5041SOL    HW126756   1.949   0.604  14.244  3.4236  0.2883 -1.9873
 5041SOL    HW226757   1.942   0.470  14.169 -0.5789 -0.4295  0.2115
 5042SOL     OW26758   1.583   4.095   6.030  0.2723 -0.2037 -0.6950
 5042SOL    HW126759   1.581   4.023   5.967 -1.2120  1.2620 -2.3131
 5042SOL    HW226760   1.644   4.144   5.974  0.2839  1.4659  0.7873
 5043SOL     OW26761   3.386   3.408   8.766  0.2259  0.1100  1.4179
 5043SOL    HW126762   3.337   3.455   8.698 -0.4871 -4.6243 -1.2933
 5043SOL    HW226763   3.350   3.320   8.761  1.2069 -0.2294  0.5448
 5044SOL     OW26764   2.023   2.990   6.945 -0.2182  0.5308  0.1376
 5044SOL    HW126765   1.982   3.016   6.863  1.8464  0.3403 -0.9755
 5044SOL    HW226766   1.955   3.025   7.001  0.2925 -2.4398  2.6513
 5045SOL     OW26767   2.036   3.122   3.881  0.0992  0.4677 -0.1277
 5045SOL    HW126768   2.031   3.027   3.880  0.3293  0.4648 -1.1862
 5045SOL    HW226769   2.033   3.142   3.787  0.7542  0.0830 -0.2323
 5046SOL     OW26770   4.704   4.556   3.903 -0.1161  0.1273 -0.0706
 5046SOL    HW126771   4.660   4.582   3.984 -1.2060 -0.9741 -0.3189
 5046SOL    HW226772   0.035   4.621   3.884  0.4441 -0.6394 -0.6905
 5047SOL     OW26773   1.530   2.293   6.716  0.1948 -0.1338 -0.5330
 5047SOL    HW126774   1.588   2.225   6.750  0.8241  0.8675  0.4149
 5047SOL    HW226775   1.550   2.364   6.776  1.5034  0.0952 -1.2266
 5048SOL     OW26776   0.712   1.609   0.105  0.5487  0.2061  0.4628
 5048SOL    HW126777   0.727   1.681   0.166 -1.4080  2.7801 -2.0911
 5048SOL    HW226778   0.618   1.607   0.087  0.9015 -1.1784 -1.2987
 5049SOL     OW26779   1.459   1.518   8.885 -0.0105 -0.3157 -0.3876
 5049SOL    HW126780   1.392   1.585   8.871  0.4953 -0.1088 -1.7761
 5049SOL    HW226781   1.459   1.478   8.799 -3.7324 -3.6393  1.1811
 5050SOL     OW26782   4.698   4.270   2.246 -0.0565 -0.4305  0.3001
 5050SOL    HW126783   0.051   4.278   2.278  0.4276 -0.0985 -1.1258
 5050SOL    HW226784   4.649   4.241   2.323 -1.0287 -2.7712 -1.1712
 5051SOL     OW26785   4.608   1.987   3.721  0.2968 -0.4139 -0.7437
 5051SOL    HW126786   4.670   2.059   3.705  1.5458 -1.2667  0.3062
 5051SOL    HW226787   4.522   2.025   3.701 -0.4458 -0.5952  2.1401
 5052SOL     OW26788   2.761   1.010  10.097  0.4060 -0.1398 -0.1629
 5052SOL    HW126789   2.799   1.087  10.054  0.9440  0.8470  2.0989
 5052SOL    HW226790   2.667   1.029  10.095  0.0485 -1.8633  0.6119
 5053SOL     OW26791   1.015   0.934  11.634 -0.5026 -0.6067  0.3771
 5053SOL    HW126792   1.093   0.886  11.664  0.4277  1.2623  0.9568
 5053SOL    HW226793   1.030   0.960  11.543 -0.6203 -0.3852  0.4200
 5054SOL     OW26794   3.920   1.487  16.320 -0.5854 -0.0410 -0.3510
 5054SOL    HW126795   3.831   1.505  16.289 -1.1636 -0.2046  1.2404
 5054SOL    HW226796   3.949   1.572  16.355 -1.2231 -0.1323  0.4011
 5055SOL     OW26797   4.487   2.912  14.136  0.6158  0.5931  0.6653
 5055SOL    HW126798   4.477   2.861  14.217 -0.9961  1.4868  1.0285
 5055SOL    HW226799   4.580   2.898  14.118  0.3787 -1.6039  1.1094
 5056SOL     OW26800   2.058   0.798   9.477 -0.3979  0.2593 -1.0475
 5056SOL    HW126801   2.154   0.804   9.474 -0.2272 -1.8491 -0.0943
 5056SOL    HW226802   2.033   0.828   9.565  0.6716 -1.0971 -0.2789
 5057SOL     OW26803   1.452   1.777   1.812 -0.3298  0.2105  0.5668
 5057SOL    HW126804   1.359   1.761   1.795  0.5083 -2.1854 -1.8597
 5057SOL    HW226805   1.466   1.845   1.746 -0.8180  0.3616  0.6159
 5058SOL     OW26806   1.778   0.659   9.863  0.5858 -0.4807  0.3782
 5058SOL    HW126807   1.846   0.717   9.898 -0.7222  1.3838 -0.1824
 5058SOL    HW226808   1.763   0.719   9.789 -1.7330 -0.5704  0.7675
 5059SOL     OW26809   2.765   2.903   5.732  0.2471 -0.2259 -0.3939
 5059SOL    HW126810   2.851   2.877   5.699 -0.5682 -2.4054 -0.8147
 5059SOL    HW226811   2.727   2.962   5.668 -0.9099  1.5069  1.8989
 5060SOL     OW26812   2.944   3.425   6.977 -0.4414  0.5603  0.3700
 5060SOL    HW126813   3.007   3.358   7.003 -0.4320 -0.5312 -2.4048
 5060SOL    HW226814   2.887   3.370   6.924 -1.4718  0.8765  1.1566
 5061SOL     OW26815   3.391   1.590  15.861 -0.1361  0.1155 -0.3363
 5061SOL    HW126816   3.480   1.574  15.829  0.5848 -0.1368  1.8148
 5061SOL    HW226817   3.333   1.561  15.790 -2.1210  1.5523  0.6908
 5062SOL     OW26818   3.639   4.587   3.802 -0.1586  0.4055  0.1873
 5062SOL    HW126819   3.603   4.595   3.714 -0.2637 -0.7012  0.1320
 5062SOL    HW226820   3.708   4.521   3.799 -2.1803 -1.7369  0.8738
 5063SOL     OW26821   2.304   1.005  14.891 -0.5659  0.0426 -0.2310
 5063SOL    HW126822   2.351   1.033  14.813  0.9683  1.0776  1.0645
 5063SOL    HW226823   2.319   0.911  14.888 -1.2024 -0.0996  0.8196
 5064SOL     OW26824   3.050   1.436   0.508 -0.3272  0.6645  0.2555
 5064SOL    HW126825   2.960   1.467   0.519 -0.4869  1.6775 -4.0741
 5064SOL    HW226826   3.054   1.382   0.587 -0.5617  2.7569  1.6924
 5065SOL     OW26827   3.981   0.708   1.005 -0.3163  0.0758  0.4261
 5065SOL    HW126828   4.052   0.752   0.957 -0.4848  0.5266  0.5843
 5065SOL    HW226829   3.956   0.764   1.079  1.8388 -0.1169  1.3080
 5066SOL     OW26830   3.165   2.286   6.704  0.5322  0.0198 -0.1513
 5066SOL    HW126831   3.076   2.318   6.722  0.0423 -1.1740 -0.4690
 5066SOL    HW226832   3.162   2.202   6.748 -1.0075 -0.2581 -0.7656
 5067SOL     OW26833   0.273   0.914   4.693  0.4369  0.1958 -0.2455
 5067SOL    HW126834   0.223   0.833   4.703  0.4212  0.3087  0.5856
 5067SOL    HW226835   0.360   0.875   4.705  1.0047  1.1665 -1.2073
 5068SOL     OW26836   3.131   1.482  15.424 -0.1564 -0.3398 -0.3470
 5068SOL    HW126837   3.150   1.570  15.392 -1.7770 -0.3985 -1.4491
 5068SOL    HW226838   3.194   1.469  15.495 -1.8082 -2.4684  0.7424
 5069SOL     OW26839   0.631   4.390   1.737 -0.2023  0.2109 -0.3437
 5069SOL    HW126840   0.647   4.440   1.657 -0.9317  2.2527  0.7790
 5069SOL    HW226841   0.720   4.378   1.769  0.2435  0.8824 -1.3585
 5070SOL     OW26842   0.277   0.557  14.430 -0.3278 -0.2626  0.0936
 5070SOL    HW126843   0.284   0.542  14.524  1.8222 -2.6725 -0.4637
 5070SOL    HW226844   0.332   0.635  14.421 -0.6514 -0.1355 -0.7754
 5071SOL     OW26845   1.762   2.878   5.929 -0.6624 -0.0991  0.1706
 5071SOL    HW126846   1.718   2.802   5.967 -0.1028 -1.3559 -1.7001
 5071SOL    HW226847   1.691   2.942   5.927 -0.2011  0.4487  2.1513
 5072SOL     OW26848   3.961   0.773   2.918 -0.3773 -0.4633  0.0216
 5072SOL    HW126849   3.881   0.818   2.945 -0.2525 -0.1873 -0.0722
 5072SOL    HW226850   3.941   0.789   2.826 -0.6586 -0.0640  0.1516
 5073SOL     OW26851   0.902   4.114  14.873  0.6420 -0.2401  0.2692
 5073SOL    HW126852   0.980   4.163  14.848 -1.2799  3.2598  1.1269
 5073SOL    HW226853   0.925   4.024  14.852  1.7008 -0.4101  2.1753
 5074SOL     OW26854   2.205   0.347   4.490  0.3595  0.0347  0.2606
 5074SOL    HW126855   2.139   0.321   4.554  0.5424  1.7056  1.1347
 5074SOL    HW226856   2.180   0.305   4.408 -0.7068  2.3011 -0.5914
 5075SOL     OW26857   0.243   3.036   7.954 -0.2088 -0.2810  0.3193
 5075SOL    HW126858   0.285   2.996   7.878 -0.7023 -1.5284  0.6995
 5075SOL    HW226859   0.204   2.954   7.982  0.5078 -0.4149  0.9271
 5076SOL     OW26860   0.834   1.497   7.314  0.6566 -0.2055 -0.2337
 5076SOL    HW126861   0.904   1.467   7.372  0.9768 -1.8027 -1.4507
 5076SOL    HW226862   0.798   1.409   7.301  1.5485 -0.3978 -1.3006
 5077SOL     OW26863   4.030   0.946   4.439 -0.8069  0.0741 -0.8839
 5077SOL    HW126864   3.947   0.989   4.418 -0.3665  0.9569 -0.8271
 5077SOL    HW226865   3.996   0.869   4.486  0.0866  0.2839  0.1074
 5078SOL     OW26866   4.237   1.796   5.186  0.1247 -0.4730  0.2211
 5078SOL    HW126867   4.159   1.852   5.193 -0.4357 -1.2536  0.1995
 5078SOL    HW226868   4.283   1.831   5.263  0.6848  0.5904 -0.6086
 5079SOL     OW26869   2.442   2.183   9.945  0.0394  0.3763 -0.1077
 5079SOL    HW126870   2.452   2.092   9.917  0.6119  0.2830  0.4132
 5079SOL    HW226871   2.504   2.229   9.887 -0.9968 -0.0455 -1.5492
 5080SOL     OW26872   3.987   4.456   5.183 -0.2447  0.1246  0.3271
 5080SOL    HW126873   4.032   4.530   5.224 -0.6151  0.0392  0.8850
 5080SOL    HW226874   4.038   4.380   5.208 -1.3273 -0.3469  1.0818
 5081SOL     OW26875   2.883   2.839   4.187  0.2205  0.5231 -0.0039
 5081SOL    HW126876   2.960   2.820   4.135  0.1630 -1.1269  0.5039
 5081SOL    HW226877   2.913   2.886   4.265 -0.2190  2.4639 -1.0034
 5082SOL     OW26878   1.756   1.447   5.823  0.2653 -0.6125  0.2089
 5082SOL    HW126879   1.685   1.383   5.817  0.2266 -0.7159  1.6890
 5082SOL    HW226880   1.821   1.412   5.762 -1.4627 -1.2153 -1.2675
 5083SOL     OW26881   2.315   2.536  14.426 -0.3380  0.2279  0.4112
 5083SOL    HW126882   2.235   2.497  14.390  0.5832 -2.0344  0.8156
 5083SOL    HW226883   2.328   2.498  14.513 -0.8895  2.6719  1.5649
 5084SOL     OW26884   3.334   3.680   4.082  0.5880 -0.0568 -0.4203
 5084SOL    HW126885   3.325   3.586   4.066 -1.5946 -0.0656  0.7207
 5084SOL    HW226886   3.407   3.677   4.144 -1.0132 -0.8472  1.4247
 5085SOL     OW26887   2.338   1.927   2.005 -0.2078 -0.3240 -0.8228
 5085SOL    HW126888   2.365   1.978   1.929 -1.0420  1.2220 -0.1003
 5085SOL    HW226889   2.356   1.840   1.969 -0.0149 -0.3151 -0.7488
 5086SOL     OW26890   4.155   4.469   4.395  0.4157  0.5463  0.2598
 5086SOL    HW126891   4.121   4.540   4.340  0.0165  0.1653  0.0076
 5086SOL    HW226892   4.248   4.469   4.370  0.3895  1.9909  0.1889
 5087SOL     OW26893   3.236   4.199   8.906  0.0163 -0.4659 -0.2947
 5087SOL    HW126894   3.261   4.107   8.896  1.7038 -0.1858  1.4114
 5087SOL    HW226895   3.277   4.237   8.829 -2.2424  0.5593 -0.9994
 5088SOL     OW26896   1.909   3.550   2.846  0.1269 -0.5505 -0.1432
 5088SOL    HW126897   1.991   3.591   2.872  0.0405 -0.5983  0.1956
 5088SOL    HW226898   1.897   3.494   2.923  0.0679  0.2225  0.4107
 5089SOL     OW26899   2.097   1.870   2.658  0.1585 -0.5845 -0.0544
 5089SOL    HW126900   2.099   1.884   2.563  0.8344 -1.4643 -0.1700
 5089SOL    HW226901   2.172   1.810   2.661 -0.1760 -1.0339 -0.7738
 5090SOL     OW26902   3.732   3.513  12.459  0.2212 -0.3515 -0.5412
 5090SOL    HW126903   3.765   3.515  12.549 -0.7241  0.2224 -0.2168
 5090SOL    HW226904   3.672   3.439  12.465 -0.1017 -0.1254 -1.0708
 5091SOL     OW26905   3.186   4.274   4.456  0.2996  0.5408  0.6481
 5091SOL    HW126906   3.106   4.221   4.452  0.5848  0.3683 -2.9241
 5091SOL    HW226907   3.153   4.358   4.425 -0.1198  0.5784  1.2061
 5092SOL     OW26908   3.924   0.374   5.778 -0.0135 -0.0930 -0.0119
 5092SOL    HW126909   3.840   0.420   5.766 -0.8154 -1.6822 -0.4193
 5092SOL    HW226910   3.901   0.318   5.852  1.0966  0.3752  0.6802
 5093SOL     OW26911   3.823   1.705   3.031 -0.0394 -0.6192  0.7618
 5093SOL    HW126912   3.742   1.655   3.035 -0.4296 -0.2038 -1.9720
 5093SOL    HW226913   3.872   1.675   3.108  2.9779 -1.4462 -1.4455
 5094SOL     OW26914   3.662   0.321   2.698  0.5716  0.4743 -0.4464
 5094SOL    HW126915   3.622   0.365   2.773 -0.4016  0.4489 -0.9396
 5094SOL    HW226916   3.608   0.242   2.689  1.6405 -0.1066 -1.8256
 5095SOL     OW26917   2.385   2.809  15.753 -0.3310 -0.0315  0.1593
 5095SOL    HW126918   2.373   2.899  15.784 -0.3960 -0.2467  0.7531
 5095SOL    HW226919   2.407   2.824  15.661  1.0372  0.6480  0.5971
 5096SOL     OW26920   1.582   1.855   8.990 -0.1388 -0.2078 -0.1841
 5096SOL    HW126921   1.494   1.824   9.012 -0.5149  0.6090 -0.5291
 5096SOL    HW226922   1.567   1.947   8.965  1.6350  0.3190  0.7016
 5097SOL     OW26923   4.055   2.816  16.845 -0.4186 -0.3822 -0.5566
 5097SOL    HW126924   3.974   2.779  16.811 -1.3206 -0.0260  1.2309
 5097SOL    HW226925   4.115   2.756  16.800  0.6805  1.6405 -1.7891
 5098SOL     OW26926   2.027   1.065   7.060 -0.6823  0.0543 -0.6322
 5098SOL    HW126927   2.098   1.001   7.056  0.5173  1.4455 -1.1937
 5098SOL    HW226928   2.027   1.101   6.972 -0.8331  0.4350 -0.4771
 5099SOL     OW26929   2.396   3.173  15.344  0.0103  0.4196  0.7324
 5099SOL    HW126930   2.374   3.227  15.268  2.1978  0.9761  0.4993
 5099SOL    HW226931   2.327   3.107  15.339  0.2965  0.4473 -3.4764
 5100SOL     OW26932   3.694   4.395  12.323  0.1241  0.2053 -0.1411
 5100SOL    HW126933   3.625   4.405  12.258  0.3350 -0.0839 -0.4102
 5100SOL    HW226934   3.762   4.403  12.256 -0.4237  0.4473 -0.6744
 5101SOL     OW26935   2.476   3.363   6.229 -0.4418 -0.0886 -0.4541
 5101SOL    HW126936   2.477   3.410   6.313 -0.6719  1.1201 -1.1263
 5101SOL    HW226937   2.397   3.393   6.186 -0.0205 -0.8564 -1.7525
 5102SOL     OW26938   4.083   0.293   7.927  0.1391  0.5884 -0.5652
 5102SOL    HW126939   4.031   0.218   7.897  1.7687 -0.1058 -1.6693
 5102SOL    HW226940   4.116   0.266   8.013  1.2153  2.0965 -0.5011
 5103SOL     OW26941   1.258   0.327   4.619 -0.3306  0.2484 -0.8081
 5103SOL    HW126942   1.234   0.407   4.572 -1.7875 -0.1921 -0.8187
 5103SOL    HW226943   1.202   0.338   4.697 -0.2124  0.0307 -0.6907
 5104SOL     OW26944   0.801   1.867   7.053 -0.1338  0.4364 -0.2013
 5104SOL    HW126945   0.824   1.775   7.059 -1.9657  0.1161  1.8029
 5104SOL    HW226946   0.739   1.868   6.980  0.2954  0.2517 -0.5707
 5105SOL     OW26947   3.909   0.934   1.951 -0.0009 -0.1957 -0.6793
 5105SOL    HW126948   3.925   0.923   2.045 -2.2872  1.2605 -0.1372
 5105SOL    HW226949   3.995   0.911   1.916 -0.0417 -2.3041  0.6480
 5106SOL     OW26950   0.814   2.747   5.523 -0.3882  0.5593  0.4280
 5106SOL    HW126951   0.769   2.673   5.566  0.1910 -1.3223 -2.1892
 5106SOL    HW226952   0.887   2.706   5.477 -0.3794 -1.8243  2.5590
 5107SOL     OW26953   2.361   3.605  13.198 -0.5544  0.2925 -0.2495
 5107SOL    HW126954   2.326   3.688  13.231 -2.9720  0.1411 -2.4327
 5107SOL    HW226955   2.347   3.544  13.270 -2.7618  0.1593 -0.8018
 5108SOL     OW26956   1.060   0.464   7.845  0.1874  0.2028 -0.2690
 5108SOL    HW126957   1.089   0.491   7.932 -0.9643 -0.1041  0.2161
 5108SOL    HW226958   1.135   0.488   7.790  1.1895 -1.3949  0.3846
 5109SOL     OW26959   3.400   3.594  16.289 -0.2613 -0.3864  0.1265
 5109SOL    HW126960   3.388   3.518  16.346 -1.4907  0.0638  0.4477
 5109SOL    HW226961   3.331   3.564  16.230 -2.0971  3.3508  0.3714
 5110SOL     OW26962   2.917   1.453   6.716  0.0529 -0.4649  0.3650
 5110SOL    HW126963   2.952   1.535   6.680  1.6935 -1.3797 -0.1548
 5110SOL    HW226964   2.933   1.447   6.810  0.7452  0.1185  0.2880
 5111SOL     OW26965   4.719   1.456   8.987 -0.2769 -0.0842  0.0306
 5111SOL    HW126966   4.707   1.488   8.897  3.5701  1.7412  0.1552
 5111SOL    HW226967   0.058   1.508   9.013 -0.1187 -0.7735  0.9409
 5112SOL     OW26968   2.434   0.298   5.297 -0.4849 -0.4976  0.0378
 5112SOL    HW126969   2.372   0.341   5.356  0.2963  0.8092 -0.1080
 5112SOL    HW226970   2.464   0.373   5.246 -1.2081  1.1762  2.1086
 5113SOL     OW26971   3.787   2.801   3.895 -0.2681 -0.4587  0.2676
 5113SOL    HW126972   3.830   2.851   3.826  0.7225  0.4635  1.5603
 5113SOL    HW226973   3.864   2.750   3.922  0.6795  1.3784  1.0846
 5114SOL     OW26974   1.448   4.652  16.701 -0.3036  0.3378  0.4031
 5114SOL    HW126975   1.514   4.719  16.683  0.0900 -0.0772  0.2877
 5114SOL    HW226976   1.488   4.569  16.672 -0.3413 -0.8006  3.6011
 5115SOL     OW26977   1.011   3.481   4.213  0.3982 -0.0548 -0.0162
 5115SOL    HW126978   1.103   3.501   4.197  0.4047 -0.6715 -0.7299
 5115SOL    HW226979   0.985   3.449   4.126 -1.7069 -0.1421  0.6390
 5116SOL     OW26980   4.588   3.365   2.380 -0.5077  0.3711  0.3123
 5116SOL    HW126981   4.544   3.295   2.332 -1.3400  1.3639 -0.3593
 5116SOL    HW226982   4.589   3.324   2.466 -1.2467  0.4488  0.3577
 5117SOL     OW26983   0.161   0.010   3.853  1.0687 -0.8994  0.1063
 5117SOL    HW126984   0.238   0.060   3.882  2.0192 -2.6945  0.7022
 5117SOL    HW226985   0.114   0.086   3.820  2.7233  0.0800 -0.0146
 5118SOL     OW26986   1.549   4.646   3.967  0.3157  0.5884  0.4937
 5118SOL    HW126987   1.599   4.565   3.983 -1.5447 -0.3608  1.4281
 5118SOL    HW226988   1.602   4.713   4.010  1.3222  1.2078 -1.6944
 5119SOL     OW26989   3.225   1.861  11.735  0.1432 -0.5530 -0.1754
 5119SOL    HW126990   3.290   1.791  11.736 -0.3601 -1.0241 -1.2449
 5119SOL    HW226991   3.147   1.830  11.691  1.0753 -0.8677 -1.6003
 5120SOL     OW26992   0.701   2.378  14.336  0.1972  0.8228  0.1836
 5120SOL    HW126993   0.671   2.454  14.286 -2.6173  0.4737  1.3490
 5120SOL    HW226994   0.635   2.311  14.317  1.3217 -0.2941  0.2070
 5121SOL     OW26995   2.719   4.269  14.285 -0.4316  0.3850 -0.3468
 5121SOL    HW126996   2.767   4.190  14.258 -0.1064  0.5523 -0.2516
 5121SOL    HW226997   2.787   4.332  14.307 -0.3655 -0.0270  0.6238
 5122SOL     OW26998   2.639   1.339  16.659 -0.4488  0.2873 -0.5841
 5122SOL    HW126999   2.573   1.407  16.667  0.2204  0.7717  0.7761
 5122SOL    HW227000   2.600   1.267  16.708 -1.4292  0.5525 -0.9816
 5123SOL     OW27001   0.668   2.377   3.080 -0.0777 -0.1004 -0.1123
 5123SOL    HW127002   0.717   2.457   3.059 -0.7205  0.0918 -0.9122
 5123SOL    HW227003   0.734   2.310   3.066  0.3334  0.6762 -1.9032
 5124SOL     OW27004   2.424   0.124   9.333  0.3251  0.9264 -0.4689
 5124SOL    HW127005   2.446   0.032   9.349  1.2484  1.6794  2.5897
 5124SOL    HW227006   2.392   0.142   9.422  2.7158 -0.5983  0.6818
 5125SOL     OW27007   4.129   3.199   1.923 -0.1786 -0.2126  0.3119
 5125SOL    HW127008   4.134   3.219   2.016 -2.7385 -1.0407  0.6299
 5125SOL    HW227009   4.222   3.184   1.905 -0.0129  0.8136  0.3427
 5126SOL     OW27010   0.956   2.771   7.086 -0.0332 -0.2767  0.2613
 5126SOL    HW127011   1.039   2.759   7.133  0.8526  0.1259 -1.2067
 5126SOL    HW227012   0.988   2.820   7.011  0.4508 -0.4627  0.3442
 5127SOL     OW27013   1.809   1.160   5.959  0.2958 -0.1467  0.0785
 5127SOL    HW127014   1.824   1.066   5.968 -1.0170 -0.2478  1.1541
 5127SOL    HW227015   1.725   1.160   5.913  0.0615 -1.1607  0.5048
 5128SOL     OW27016   3.136   1.705   7.543  0.5601 -0.4865 -0.3875
 5128SOL    HW127017   3.158   1.795   7.569 -2.7546  0.3922 -0.5419
 5128SOL    HW227018   3.125   1.653   7.622 -1.3328 -0.7673 -0.8370
 5129SOL     OW27019   3.878   1.778   0.935  0.7794  0.7531  0.0892
 5129SOL    HW127020   3.896   1.864   0.972 -0.7583  0.9233  0.4741
 5129SOL    HW227021   3.843   1.731   1.012 -0.6785  1.1685 -0.3153
 5130SOL     OW27022   2.486   0.770  17.669 -0.1254 -0.1316  0.5421
 5130SOL    HW127023   2.431   0.724  17.606  1.3255  0.9722 -1.5300
 5130SOL    HW227024   2.478   0.714   0.001 -0.9334  2.0588  2.0205
 5131SOL     OW27025   0.711   4.280   6.396 -0.4601  0.1723  0.3007
 5131SOL    HW127026   0.758   4.362   6.414 -1.0884  1.1348 -2.3562
 5131SOL    HW227027   0.687   4.264   6.487 -1.6161 -0.6400 -0.1595
 5132SOL     OW27028   0.378   3.797   1.451  0.0972 -0.2107  0.1310
 5132SOL    HW127029   0.358   3.839   1.534  0.8455 -0.4501  0.4326
 5132SOL    HW227030   0.473   3.811   1.460  0.1611 -1.0645  0.7047
 5133SOL     OW27031   0.754   1.625  11.149  0.2251  0.0943  0.3125
 5133SOL    HW127032   0.846   1.627  11.177  0.2742 -0.8965  0.2173
 5133SOL    HW227033   0.760   1.644  11.055 -0.3573 -0.0216  0.2520
 5134SOL     OW27034   3.567   3.971  15.862 -0.3291  0.0945 -0.4587
 5134SOL    HW127035   3.647   3.945  15.815 -0.0062 -1.3874  0.9335
 5134SOL    HW227036   3.500   3.907  15.838  0.4762 -1.2225  0.7839
 5135SOL     OW27037   3.597   0.595   3.948  0.4139  0.0932 -0.1921
 5135SOL    HW127038   3.555   0.680   3.935 -1.6334 -0.6005  1.8994
 5135SOL    HW227039   3.523   0.548   3.985 -0.1265  0.0227 -1.3667
 5136SOL     OW27040   3.847   2.682   4.770  0.1209 -0.1102  0.0257
 5136SOL    HW127041   3.843   2.586   4.762 -2.2709  0.0047 -0.1098
 5136SOL    HW227042   3.897   2.696   4.690 -3.4703 -2.4970 -2.6256
 5137SOL     OW27043   0.862   2.798   8.368  0.2345  0.3498  0.2333
 5137SOL    HW127044   0.828   2.809   8.457  0.3625  1.2420  0.1689
 5137SOL    HW227045   0.892   2.707   8.367 -1.9523 -0.3288 -1.9321
 5138SOL     OW27046   3.430   1.421   7.797 -0.0837 -0.1224  0.0548
 5138SOL    HW127047   3.368   1.352   7.819 -2.1236  2.0883  1.3340
 5138SOL    HW227048   3.418   1.418   7.702  3.0816  1.0296 -0.3830
 5139SOL     OW27049   1.350   3.716  15.343  0.2692  0.2176  0.1217
 5139SOL    HW127050   1.314   3.717  15.255  3.1542  1.9223 -1.0379
 5139SOL    HW227051   1.401   3.797  15.338  0.9326 -0.3695 -2.6302
 5140SOL     OW27052   2.381   1.247   6.260 -0.0302  0.6432  0.7460
 5140SOL    HW127053   2.327   1.255   6.182 -0.3039 -1.1667  0.7424
 5140SOL    HW227054   2.449   1.308   6.231 -0.4565 -0.1261 -1.8633
 5141SOL     OW27055   3.361   1.011   5.311 -0.0866 -0.4616 -0.4246
 5141SOL    HW127056   3.433   1.036   5.369 -0.0845 -0.1468 -0.5632
 5141SOL    HW227057   3.368   1.082   5.247 -0.9521 -0.0076 -0.0019
 5142SOL     OW27058   2.312   3.815   3.469  0.2799  0.4291  0.4625
 5142SOL    HW127059   2.268   3.769   3.397 -0.2698  2.2760 -0.3838
 5142SOL    HW227060   2.337   3.891   3.416 -1.4807  0.3191 -0.5334
 5143SOL     OW27061   3.071   0.059   5.342 -0.2869 -0.1207  0.4004
 5143SOL    HW127062   2.996   0.027   5.292 -0.2790  0.7676 -0.1745
 5143SOL    HW227063   3.025   0.070   5.425  1.6862  0.2136  1.4473
 5144SOL     OW27064   1.554   3.063   5.908 -0.1704  0.2917  0.5372
 5144SOL    HW127065   1.512   3.080   5.992  0.2097  1.1952  0.5328
 5144SOL    HW227066   1.496   2.992   5.877  1.1905 -0.3872 -0.4789
 5145SOL     OW27067   3.589   2.077   5.716  0.0036 -0.3103  0.1457
 5145SOL    HW127068   3.530   2.151   5.722 -0.4927 -0.4917 -2.5820
 5145SOL    HW227069   3.672   2.125   5.712 -1.7687  2.7728  0.3729
 5146SOL     OW27070   2.604   1.711   6.656  0.6650 -0.2306  0.0246
 5146SOL    HW127071   2.570   1.622   6.654  1.6614 -0.6055 -0.3394
 5146SOL    HW227072   2.652   1.728   6.575 -0.6325 -0.0185 -0.6965
 5147SOL     OW27073   1.397   0.446   8.117  0.6840 -0.1098 -0.1296
 5147SOL    HW127074   1.469   0.388   8.140  1.0416  0.0665 -0.7961
 5147SOL    HW227075   1.390   0.490   8.202 -2.4340 -0.7972 -0.0202
 5148SOL     OW27076   3.422   0.395   6.791 -0.0405 -0.6806 -0.6048
 5148SOL    HW127077   3.345   0.403   6.734  1.0329 -0.5553 -2.0252
 5148SOL    HW227078   3.420   0.300   6.805 -2.3086 -0.7908 -1.5553
 5149SOL     OW27079   1.471   1.088   1.622 -0.6160  0.5394  0.4795
 5149SOL    HW127080   1.375   1.083   1.626 -0.6795  1.0850 -0.2495
 5149SOL    HW227081   1.479   1.099   1.527 -1.3793  0.3290  0.3830
 5150SOL     OW27082   3.922   1.960  14.685  0.2935  0.9016 -0.5440
 5150SOL    HW127083   4.017   1.947  14.687 -0.0280 -1.6065 -1.5709
 5150SOL    HW227084   3.889   1.877  14.652 -1.5545  0.0187  3.5439
 5151SOL     OW27085   2.820   2.090   2.040  0.4921 -0.0123 -0.2709
 5151SOL    HW127086   2.759   2.163   2.030  0.4777  0.2216  1.4806
 5151SOL    HW227087   2.815   2.065   2.132  0.1365 -0.6124 -0.4478
 5152SOL     OW27088   3.121   4.257   7.947 -0.4841 -0.1072 -0.5368
 5152SOL    HW127089   3.037   4.212   7.939  0.3292 -1.5025 -1.1928
 5152SOL    HW227090   3.162   4.189   8.001 -0.7863  1.1954  1.3596
 5153SOL     OW27091   1.676   3.446   6.563  0.2327  0.5141 -0.0250
 5153SOL    HW127092   1.745   3.387   6.594  0.1831  0.5836  0.2182
 5153SOL    HW227093   1.711   3.465   6.476  3.6973 -1.1799  0.9808
 5154SOL     OW27094   1.252   3.613  15.965  0.4082  0.1907  0.0551
 5154SOL    HW127095   1.253   3.601  16.060  3.0198 -0.1053 -0.0081
 5154SOL    HW227096   1.332   3.567  15.938 -0.4394 -0.1617 -1.8125
 5155SOL     OW27097   4.395   2.805  10.239 -0.4998  0.1412  0.0634
 5155SOL    HW127098   4.409   2.735  10.302 -0.6404 -0.8936 -1.0605
 5155SOL    HW227099   4.389   2.765  10.152  2.0351  0.3589 -0.2070
 5156SOL     OW27100   1.351   3.665   8.402 -0.4814  0.4737  0.2044
 5156SOL    HW127101   1.367   3.727   8.331 -0.4498 -0.6743 -0.7946
 5156SOL    HW227102   1.335   3.731   8.470  0.2353 -0.5325  1.3370
 5157SOL     OW27103   2.308   2.331   7.022 -0.4097 -0.0531  0.0197
 5157SOL    HW127104   2.352   2.252   6.991 -2.5274 -1.1918 -0.0646
 5157SOL    HW227105   2.361   2.404   6.988 -0.2826  0.0293  0.3936
 5158SOL     OW27106   0.064   0.991  13.390 -0.0457 -0.0613  0.3426
 5158SOL    HW127107   0.144   0.963  13.434 -0.7330  0.3134  1.8567
 5158SOL    HW227108   0.090   1.039  13.312 -1.2129 -1.7673 -1.0892
 5159SOL     OW27109   4.613   2.242   7.848 -0.3907 -0.1143 -0.0606
 5159SOL    HW127110   4.619   2.320   7.903  0.7703  0.2182 -0.6672
 5159SOL    HW227111   4.670   2.187   7.903 -0.2219  0.1047 -0.0176
 5160SOL     OW27112   2.513   3.285   0.735  0.0772  0.1584 -0.4081
 5160SOL    HW127113   2.452   3.343   0.688  2.5712  2.5726 -0.6584
 5160SOL    HW227114   2.454   3.221   0.775  0.5127 -0.9515 -1.5600
 5161SOL     OW27115   3.243   1.453   4.826 -0.9012  0.0672  0.0927
 5161SOL    HW127116   3.287   1.369   4.841  2.1732  1.2564 -2.4683
 5161SOL    HW227117   3.316   1.514   4.819 -1.2022  0.0839 -2.5821
 5162SOL     OW27118   4.107   1.144   4.118 -0.7461 -0.1586  0.1030
 5162SOL    HW127119   4.066   1.221   4.078 -1.3724 -0.5734 -0.0573
 5162SOL    HW227120   4.027   1.098   4.144 -0.1603 -0.4792  1.3261
 5163SOL     OW27121   1.825   2.521  17.342 -0.1568 -0.9040 -0.1569
 5163SOL    HW127122   1.862   2.468  17.271  2.2288  0.9793 -0.3151
 5163SOL    HW227123   1.848   2.612  17.325 -2.9160 -0.1644 -0.0811
 5164SOL     OW27124   1.529   1.357   8.157  0.2283 -0.4087 -0.2887
 5164SOL    HW127125   1.501   1.420   8.224  1.6230 -1.0338  0.8905
 5164SOL    HW227126   1.449   1.306   8.148 -0.5213  0.7558 -0.2673
 5165SOL     OW27127   1.149   1.889   7.653  0.5534  0.3428 -0.0200
 5165SOL    HW127128   1.075   1.940   7.685 -1.5666 -1.8836 -1.4234
 5165SOL    HW227129   1.160   1.925   7.565 -0.9802  0.6022 -0.1059
 5166SOL     OW27130   0.951   2.297   2.030 -0.0019 -0.1722 -0.6302
 5166SOL    HW127131   0.939   2.202   2.027 -1.2293  0.0578 -2.9696
 5166SOL    HW227132   0.918   2.331   1.947 -1.8935 -1.7093 -0.5286
 5167SOL     OW27133   1.005   3.553  16.920  0.5689 -0.1563 -0.0193
 5167SOL    HW127134   0.928   3.509  16.955  1.6538 -0.6810  1.7061
 5167SOL    HW227135   1.057   3.571  16.998 -0.0140 -0.2240  0.3825
 5168SOL     OW27136   0.111   1.277   6.032  0.2139 -0.3753  0.2024
 5168SOL    HW127137   0.044   1.209   6.022  0.9516 -0.9629 -0.7754
 5168SOL    HW227138   0.188   1.223   6.015 -0.0332 -0.3851 -0.9224
 5169SOL     OW27139   4.345   1.592  14.822 -0.1233  0.4307  0.3529
 5169SOL    HW127140   4.422   1.619  14.772 -0.8240 -0.6538 -1.2914
 5169SOL    HW227141   4.274   1.640  14.780 -0.7932 -1.0668 -0.2312
 5170SOL     OW27142   2.441   4.404  13.711 -0.1347  0.0402 -0.5248
 5170SOL    HW127143   2.386   4.400  13.790  2.0043  2.7378  1.1105
 5170SOL    HW227144   2.381   4.364  13.648  0.1325 -2.2504  0.6879
 5171SOL     OW27145   0.348   3.100   1.931 -0.6338  0.7728 -0.0534
 5171SOL    HW127146   0.339   3.135   2.020 -3.4992  1.2412 -0.5249
 5171SOL    HW227147   0.342   3.010   1.963 -1.4440 -0.2427 -3.0548
 5172SOL     OW27148   3.917   2.717  16.029 -0.5633 -0.0764 -0.0125
 5172SOL    HW127149   3.898   2.691  16.119  1.4344  2.1657  1.0568
 5172SOL    HW227150   3.931   2.811  16.040 -0.7924  0.0954 -1.2684
 5173SOL     OW27151   3.840   3.059   4.147 -0.4290 -0.5986 -0.4734
 5173SOL    HW127152   3.901   3.028   4.079 -0.0303 -0.8499  0.0018
 5173SOL    HW227153   3.765   3.087   4.094 -1.1114 -0.9878  0.2995
 5174SOL     OW27154   1.840   4.139   2.149 -0.2859 -0.0665  0.1595
 5174SOL    HW127155   1.783   4.140   2.072 -0.3491 -0.9546  0.1937
 5174SOL    HW227156   1.819   4.055   2.189 -0.0512 -0.0762  0.2615
 5175SOL     OW27157   4.057   2.140  13.897 -0.1872 -0.7469 -0.0478
 5175SOL    HW127158   4.073   2.108  13.986 -1.1820  0.3571  0.5184
 5175SOL    HW227159   4.021   2.059  13.860 -0.3855 -0.6655 -0.0319
 5176SOL     OW27160   1.614   2.531   6.839  0.9232  0.5710  0.3837
 5176SOL    HW127161   1.679   2.484   6.891 -0.7006 -2.7133 -0.5643
 5176SOL    HW227162   1.673   2.606   6.839  2.3101 -0.5345 -0.2800
 5177SOL     OW27163   1.190   0.613   2.994  0.2289  0.0215  0.1171
 5177SOL    HW127164   1.157   0.636   3.081 -1.5932 -0.1378 -0.5303
 5177SOL    HW227165   1.178   0.696   2.946 -2.5517 -0.0032  0.7523
 5178SOL     OW27166   4.263   0.758   8.282 -0.0690  0.3782  0.0010
 5178SOL    HW127167   4.247   0.710   8.200  0.8650  0.2506 -0.1128
 5178SOL    HW227168   4.331   0.811   8.242  0.1503  0.3575  0.3465
 5179SOL     OW27169   4.016   1.645   8.747  0.1631 -0.1502  0.0125
 5179SOL    HW127170   4.106   1.622   8.728 -0.2329 -0.9896 -0.8300
 5179SOL    HW227171   3.971   1.562   8.734  1.1184 -0.6575 -0.0035
 5180SOL     OW27172   2.855   0.726  16.475 -0.2444  0.5178  0.0784
 5180SOL    HW127173   2.838   0.808  16.429 -4.8276 -0.3735  0.2141
 5180SOL    HW227174   2.942   0.700  16.447  0.3517  0.0428  2.3830
 5181SOL     OW27175   4.609   2.975   0.404  0.1626  0.5877 -0.3242
 5181SOL    HW127176   4.624   3.041   0.471 -1.2176 -0.5961  1.1697
 5181SOL    HW227177   4.615   3.026   0.323 -1.4223 -0.1054 -0.8893
 5182SOL     OW27178   3.910   1.126   0.682 -0.6423  0.4064  0.1500
 5182SOL    HW127179   3.938   1.144   0.772  0.7514  3.4145 -0.8688
 5182SOL    HW227180   3.991   1.119   0.631 -1.6914 -1.2148 -1.2724
 5183SOL     OW27181   2.996   2.082   7.766 -0.1725  0.6330  0.2434
 5183SOL    HW127182   2.917   2.069   7.712  0.4951 -0.9620 -0.3639
 5183SOL    HW227183   2.960   2.123   7.844  0.4862 -2.2822  2.1012
 5184SOL     OW27184   0.710   0.523   8.962  0.1411  0.0399  0.1073
 5184SOL    HW127185   0.672   0.460   9.022 -0.5115 -1.4610 -1.8767
 5184SOL    HW227186   0.805   0.526   8.977 -0.2926 -0.3654  2.8467
 5185SOL     OW27187   1.309   3.062  15.165  0.1289 -0.3670 -0.5181
 5185SOL    HW127188   1.285   3.107  15.084  0.1231  0.4340 -0.0724
 5185SOL    HW227189   1.387   3.107  15.197 -1.4958  2.5612 -0.6361
 5186SOL     OW27190   4.602   0.334   7.056  0.8551 -0.5116 -0.1007
 5186SOL    HW127191   4.532   0.328   6.991  0.1525  0.0184  0.6043
 5186SOL    HW227192   4.630   0.424   7.043 -0.2017 -0.1313  0.2492
 5187SOL     OW27193   2.379   4.721   7.469  0.2299  0.1650  0.4892
 5187SOL    HW127194   2.471   4.735   7.444 -0.4792  1.6996 -1.2010
 5187SOL    HW227195   2.353   0.076   7.478  0.4325  0.1261  1.5762
 5188SOL     OW27196   4.376   2.482   9.674 -0.0218 -0.7790  0.7153
 5188SOL    HW127197   4.406   2.566   9.707 -0.0335 -0.7051  0.5365
 5188SOL    HW227198   4.286   2.479   9.708 -0.6847  0.6319 -0.8871
 5189SOL     OW27199   3.441   4.142   2.812  0.0759  0.1455  0.1711
 5189SOL    HW127200   3.348   4.162   2.826  0.1786 -0.0098  1.0699
 5189SOL    HW227201   3.447   4.080   2.885 -0.1212  0.8825  0.8067
 5190SOL     OW27202   1.641   0.023   7.285 -0.2081  0.2001  0.4465
 5190SOL    HW127203   1.560   0.024   7.234  0.7900 -2.1553 -1.2016
 5190SOL    HW227204   1.639   4.666   7.300 -1.7708  0.2743  0.6695
 5191SOL     OW27205   3.558   4.689   3.118  0.1171 -0.0607  0.5442
 5191SOL    HW127206   3.623   4.645   3.173  0.5503 -0.0681  0.0248
 5191SOL    HW227207   3.575   4.636   3.040 -0.2639  1.7891 -0.7850
 5192SOL     OW27208   2.268   3.013  11.843 -0.3596 -0.4758  0.4585
 5192SOL    HW127209   2.295   2.929  11.807 -0.9082 -1.0088  1.2847
 5192SOL    HW227210   2.244   2.985  11.932 -4.9436  0.2020 -0.5706
 5193SOL     OW27211   4.348   2.870   6.052 -0.2371  0.2523 -0.3557
 5193SOL    HW127212   4.315   2.803   6.113  1.5386 -0.0510  0.2630
 5193SOL    HW227213   4.440   2.847   6.048 -0.0697  0.2582  3.5404
 5194SOL     OW27214   2.680   3.247   1.205  0.3031  0.2368 -0.1872
 5194SOL    HW127215   2.691   3.163   1.251  0.5488  0.4511  0.1426
 5194SOL    HW227216   2.767   3.271   1.174 -0.8000  1.9969 -1.9040
 5195SOL     OW27217   2.626   3.086   3.964 -0.0883  1.0606 -0.0364
 5195SOL    HW127218   2.711   3.080   3.920  1.0033  0.3654  2.1355
 5195SOL    HW227219   2.634   3.176   3.995  0.4541  1.5513 -1.5738
 5196SOL     OW27220   0.533   0.092   9.681 -0.2419  0.1059 -0.7546
 5196SOL    HW127221   0.624   0.120   9.670 -0.0407 -1.0932 -2.1777
 5196SOL    HW227222   0.551   0.042   9.760 -1.2241  0.1766 -0.4988
 5197SOL     OW27223   2.576   1.857  13.057 -0.2354 -0.1678 -0.1747
 5197SOL    HW127224   2.667   1.857  13.087 -0.1798  2.0782 -0.3174
 5197SOL    HW227225   2.565   1.773  13.014  1.4815 -0.4734 -0.0155
 5198SOL     OW27226   0.414   4.581   2.277  0.5826 -0.3932 -0.6052
 5198SOL    HW127227   0.327   4.572   2.238  0.3874 -3.7316  0.6334
 5198SOL    HW227228   0.443   4.492   2.257 -1.7899 -0.9206 -1.6903
 5199SOL     OW27229   4.188   1.421   1.722 -0.2286 -0.5190  0.7302
 5199SOL    HW127230   4.213   1.335   1.756 -1.9139 -1.2456  0.1108
 5199SOL    HW227231   4.274   1.464   1.723 -0.4538 -0.0615  0.1097
 5200SOL     OW27232   2.696   2.123  11.582  0.2136  0.2347 -0.6118
 5200SOL    HW127233   2.764   2.190  11.592  0.1860  0.3918 -1.5656
 5200SOL    HW227234   2.655   2.149  11.501  0.9994  1.5716 -0.5802
 5201SOL     OW27235   0.296   3.229   4.571 -0.7866 -0.0497 -0.4245
 5201SOL    HW127236   0.208   3.223   4.534 -0.6079 -2.5850 -0.4474
 5201SOL    HW227237   0.349   3.204   4.495  0.2612  0.6331  0.0923
 5202SOL     OW27238   2.783   1.494   9.021 -0.2624  0.0473  0.4433
 5202SOL    HW127239   2.703   1.545   9.030  0.3509  1.0023  0.5005
 5202SOL    HW227240   2.834   1.513   9.100  1.4187 -1.5426 -0.2568
 5203SOL     OW27241   1.597   4.508   5.688 -0.4844  0.1178  0.0899
 5203SOL    HW127242   1.569   4.417   5.696  0.3203 -0.1618 -0.2601
 5203SOL    HW227243   1.620   4.527   5.779  0.9425  1.4092 -0.5233
 5204SOL     OW27244   1.158   0.998   1.950 -0.1153 -0.6035  0.3180
 5204SOL    HW127245   1.086   0.949   1.989 -2.0573  2.8536  1.0493
 5204SOL    HW227246   1.233   0.939   1.940  0.1079 -0.3760  0.6369
 5205SOL     OW27247   3.134   3.519   3.608  0.1478  0.1680 -0.2878
 5205SOL    HW127248   3.046   3.520   3.572 -0.1139 -1.7159  0.3320
 5205SOL    HW227249   3.140   3.606   3.648 -1.3559 -0.2864  0.9363
 5206SOL     OW27250   2.977   2.092  11.909 -0.1182 -0.1341  0.5328
 5206SOL    HW127251   2.894   2.123  11.946 -1.0972 -1.2727 -0.6723
 5206SOL    HW227252   3.033   2.147  11.962  2.8666 -1.8883 -0.8004
 5207SOL     OW27253   4.577   0.885   9.205 -0.2096 -0.0702  0.2012
 5207SOL    HW127254   4.601   0.943   9.277  0.1610 -0.8950  0.7425
 5207SOL    HW227255   4.553   0.803   9.249 -3.2662  0.0214 -1.3079
 5208SOL     OW27256   0.734   3.249   6.606 -0.1776 -0.2502  0.2310
 5208SOL    HW127257   0.686   3.227   6.686  0.2460 -0.6662  0.3684
 5208SOL    HW227258   0.680   3.207   6.538  1.6273  0.3751 -1.5655
 5209SOL     OW27259   4.319   0.718   5.238  0.5448  0.2884  0.2015
 5209SOL    HW127260   4.382   0.719   5.310 -0.3117  2.2179  0.9305
 5209SOL    HW227261   4.272   0.638   5.263 -0.8058  0.0152 -3.1790
 5210SOL     OW27262   4.596   3.912   6.779 -0.1551  0.1624  0.2422
 5210SOL    HW127263   4.587   3.994   6.827  1.6079  0.6931 -0.3309
 5210SOL    HW227264   4.681   3.921   6.735 -2.3032  1.9228 -3.4810
 5211SOL     OW27265   3.997   2.651   2.906  0.5563  0.5149  0.5807
 5211SOL    HW127266   4.009   2.566   2.864 -2.5074  1.5147 -2.2680
 5211SOL    HW227267   3.933   2.685   2.843  0.9016 -2.1860 -1.2424
 5212SOL     OW27268   1.730   1.701   7.892 -0.1508 -0.0266 -0.0185
 5212SOL    HW127269   1.780   1.627   7.858  1.7184  1.9346 -1.5539
 5212SOL    HW227270   1.736   1.680   7.986  1.2218 -2.4039 -0.6349
 5213SOL     OW27271   0.178   3.467   3.417  0.8572  0.3662  0.0324
 5213SOL    HW127272   0.244   3.419   3.366 -0.3409  0.6403 -1.7789
 5213SOL    HW227273   0.105   3.455   3.355  1.2598 -1.2061 -0.1576
 5214SOL     OW27274   3.069   2.039   3.059  0.0125  0.0586 -0.5665
 5214SOL    HW127275   3.159   2.067   3.076 -0.3619  1.1617 -0.3794
 5214SOL    HW227276   3.018   2.078   3.130 -1.9930  0.8332 -2.4468
 5215SOL     OW27277   4.453   2.702   1.191 -0.1865 -0.0248 -0.0658
 5215SOL    HW127278   4.402   2.654   1.125  1.1295 -0.3412 -0.8405
 5215SOL    HW227279   4.533   2.652   1.201 -0.6136 -0.3334  1.9244
 5216SOL     OW27280   0.601   3.964   8.816 -0.2009  0.3606  0.4049
 5216SOL    HW127281   0.626   4.054   8.796  1.8072 -0.8397 -2.3734
 5216SOL    HW227282   0.506   3.972   8.802 -0.3769 -0.2009  1.2562
 5217SOL     OW27283   3.456   0.662   1.079  0.6673 -0.6245 -0.3606
 5217SOL    HW127284   3.530   0.716   1.103 -0.1658  0.2621  0.2320
 5217SOL    HW227285   3.487   0.580   1.118  0.5684  0.0877  1.1968
 5218SOL     OW27286   0.759   1.731  14.871  0.4874  0.5143  0.0496
 5218SOL    HW127287   0.761   1.635  14.870  0.5705  0.5442 -2.7893
 5218SOL    HW227288   0.695   1.756  14.937  0.0528 -1.1825  0.2811
 5219SOL     OW27289   1.338   2.821   8.430  0.1430  0.0451  0.4898
 5219SOL    HW127290   1.304   2.732   8.439 -0.5414  0.5383  2.7198
 5219SOL    HW227291   1.419   2.781   8.398  0.9492  1.9873  0.0793
 5220SOL     OW27292   2.015   1.113   3.222  0.3750  0.2111 -0.0939
 5220SOL    HW127293   2.067   1.193   3.235 -0.0426  0.8971 -2.5315
 5220SOL    HW227294   2.065   1.065   3.156 -0.7715 -1.1505  0.0308
 5221SOL     OW27295   1.528   4.145  14.795  0.5620  0.7524  0.4456
 5221SOL    HW127296   1.468   4.219  14.787 -0.1934  0.0668 -0.2135
 5221SOL    HW227297   1.601   4.173  14.740 -0.5506 -3.3378 -3.1496
 5222SOL     OW27298   1.489   0.711   3.452 -0.2245  0.0355  0.3837
 5222SOL    HW127299   1.396   0.692   3.442  0.2593 -1.8050 -0.4996
 5222SOL    HW227300   1.489   0.769   3.529 -0.0010  3.1498 -1.9517
 5223SOL     OW27301   4.586   1.425   3.210  0.1391  0.3614  0.4709
 5223SOL    HW127302   4.506   1.475   3.228 -0.3311  0.5990 -2.1718
 5223SOL    HW227303   4.647   1.458   3.276 -0.9544  0.7887  1.2632
 5224SOL     OW27304   3.825   2.196   5.708  0.0024 -0.1320 -0.1479
 5224SOL    HW127305   3.823   2.209   5.803 -1.0002 -0.5510 -0.1027
 5224SOL    HW227306   3.916   2.221   5.692  0.0249 -0.2855 -0.2635
 5225SOL     OW27307   0.904   1.217  11.909 -1.4147 -0.5587  0.2035
 5225SOL    HW127308   0.936   1.212  11.999 -2.2752  0.6254  0.5867
 5225SOL    HW227309   0.826   1.271  11.924 -1.2092 -0.4640  0.9817
 5226SOL     OW27310   1.848   3.912   7.594 -0.3833 -0.3190  0.7991
 5226SOL    HW127311   1.916   3.977   7.610 -0.6782 -0.3101  2.0118
 5226SOL    HW227312   1.868   3.901   7.501 -1.4238  2.2928  0.2595
 5227SOL     OW27313   2.093   1.174   4.822  0.6998 -0.2921 -0.3145
 5227SOL    HW127314   2.092   1.206   4.912  1.3546  1.1493 -0.8129
 5227SOL    HW227315   2.173   1.122   4.818  2.2283  2.0016 -0.0294
 5228SOL     OW27316   3.613   3.878   2.134 -0.5223 -0.4504 -0.2721
 5228SOL    HW127317   3.590   3.917   2.219  3.4679 -0.1449  0.6609
 5228SOL    HW227318   3.701   3.915   2.129 -0.4105 -0.5848  0.7037
 5229SOL     OW27319   0.550   0.878  15.302  0.1306  0.2452 -0.5580
 5229SOL    HW127320   0.482   0.893  15.368  0.6124  0.5139 -0.1246
 5229SOL    HW227321   0.605   0.812  15.344  1.2141  1.8577  0.5781
 5230SOL     OW27322   3.810   3.440   2.191  0.0363  0.3366  0.0569
 5230SOL    HW127323   3.746   3.395   2.136  1.1574 -0.0699 -0.9211
 5230SOL    HW227324   3.829   3.517   2.137 -0.1078 -0.3061 -0.9149
 5231SOL     OW27325   1.062   4.594   2.053  0.2067  0.0399 -0.7839
 5231SOL    HW127326   1.124   4.666   2.041  1.2641 -0.9877 -1.5386
 5231SOL    HW227327   1.123   4.521   2.059  1.1999  0.8520 -0.9112
 5232SOL     OW27328   2.335   2.536  12.252  0.0961  0.3396 -0.2372
 5232SOL    HW127329   2.408   2.554  12.194  1.3780  1.3600  1.6996
 5232SOL    HW227330   2.378   2.462  12.296 -0.8698  0.3632  0.7704
 5233SOL     OW27331   3.411   4.145   4.530 -0.1503  0.1287 -0.3014
 5233SOL    HW127332   3.463   4.224   4.546  2.5942 -1.6172 -0.5325
 5233SOL    HW227333   3.323   4.182   4.525  0.5509  2.1527  1.9981
 5234SOL     OW27334   2.460   0.851   5.904  0.2548  0.3307  0.1040
 5234SOL    HW127335   2.507   0.770   5.924  1.2834  0.8625 -0.1515
 5234SOL    HW227336   2.377   0.819   5.869  1.0545 -0.8279 -0.7313
 5235SOL     OW27337   2.175   0.092  17.152 -0.2351  0.1431  0.3731
 5235SOL    HW127338   2.081   0.074  17.153 -0.2211  0.0238 -0.6989
 5235SOL    HW227339   2.186   0.172  17.203  2.2893  0.1979 -0.2796
 5236SOL     OW27340   0.600   1.331   8.884 -0.2447  0.0281 -0.1162
 5236SOL    HW127341   0.562   1.247   8.860  1.0560 -0.5919 -0.0122
 5236SOL    HW227342   0.588   1.378   8.801  2.1414  2.6157  1.0023
 5237SOL     OW27343   3.970   0.184   9.726 -0.1222  0.1473  0.2668
 5237SOL    HW127344   3.980   0.226   9.641 -2.3105  2.1322  0.9873
 5237SOL    HW227345   3.970   0.092   9.697  1.4352  0.3817 -0.4733
 5238SOL     OW27346   4.304   4.334   7.820  0.8069 -0.3472 -0.3599
 5238SOL    HW127347   4.231   4.343   7.758  0.5631  2.5514  0.3442
 5238SOL    HW227348   4.355   4.399   7.772  1.3078 -0.0940  0.5163
 5239SOL     OW27349   4.076   3.939   4.388  0.6459  0.6721  0.3051
 5239SOL    HW127350   4.070   4.016   4.444 -0.3300  1.8224 -1.3865
 5239SOL    HW227351   4.100   3.976   4.302 -0.2205  0.4013 -0.0545
 5240SOL     OW27352   0.169   2.708  12.703  0.0984 -0.0703 -0.3965
 5240SOL    HW127353   0.202   2.636  12.756  1.7247  1.6224  0.8902
 5240SOL    HW227354   0.209   2.783  12.746  1.2125 -1.8498  1.6403
 5241SOL     OW27355   3.202   2.636   7.537  0.0566 -0.6310 -0.2480
 5241SOL    HW127356   3.127   2.595   7.495 -1.3820 -0.2135  1.8858
 5241SOL    HW227357   3.251   2.557   7.556  0.5057 -0.0204  1.1766
 5242SOL     OW27358   3.768   1.147   7.127 -0.3732 -0.4484 -0.4326
 5242SOL    HW127359   3.736   1.096   7.053  1.4821 -3.2064  0.6507
 5242SOL    HW227360   3.821   1.080   7.171  1.1085  0.7581 -0.3730
 5243SOL     OW27361   3.395   0.090   6.761  0.6732 -0.2690 -0.2530
 5243SOL    HW127362   3.335   0.016   6.765 -0.0575  0.2659 -1.4078
 5243SOL    HW227363   3.414   0.095   6.855 -0.9451  1.7230 -0.0195
 5244SOL     OW27364   3.021   0.021   4.939 -0.5717 -0.0569 -0.2639
 5244SOL    HW127365   3.114   0.011   4.920 -0.6724 -1.2105 -0.1808
 5244SOL    HW227366   2.976   4.732   4.858  0.5219  0.0464 -0.8936
 5245SOL     OW27367   1.692   2.718  12.261  0.1076 -0.0776 -0.3467
 5245SOL    HW127368   1.640   2.639  12.269  0.8223 -0.7310 -2.2279
 5245SOL    HW227369   1.670   2.758  12.345 -2.1448 -2.1880  0.0576
 5246SOL     OW27370   1.177   0.307   2.656 -0.0847 -0.1660  0.1637
 5246SOL    HW127371   1.134   0.381   2.697  0.9331  0.8411 -0.5864
 5246SOL    HW227372   1.121   0.238   2.693  1.3071 -0.8052  1.0895
 5247SOL     OW27373   3.029   3.582   9.654  0.1106 -0.3316 -0.0783
 5247SOL    HW127374   3.108   3.534   9.631 -0.4094 -0.9684 -0.5366
 5247SOL    HW227375   2.966   3.536   9.598  0.2236 -0.1942 -0.3183
 5248SOL     OW27376   0.768   4.160   5.155  0.0861  0.5558  0.5950
 5248SOL    HW127377   0.752   4.224   5.224 -2.1403 -0.8174  1.3929
 5248SOL    HW227378   0.837   4.108   5.196 -0.7466 -1.5007 -0.6139
 5249SOL     OW27379   4.118   4.024   4.102  0.3140 -0.3085 -0.1199
 5249SOL    HW127380   4.057   4.051   4.034 -0.8695 -0.3297  0.9422
 5249SOL    HW227381   4.166   3.953   4.058  3.1004  0.4849  1.6013
 5250SOL     OW27382   3.443   4.596   8.900 -0.1762  0.1679  0.5326
 5250SOL    HW127383   3.473   4.526   8.842 -0.9374  1.6821 -1.7115
 5250SOL    HW227384   3.482   4.572   8.984  0.6995  0.3359  0.1678
 5251SOL     OW27385   4.530   2.547   8.366 -0.0999  0.1188  1.0611
 5251SOL    HW127386   4.608   2.561   8.419  0.8532  1.7253 -0.7726
 5251SOL    HW227387   4.497   2.636   8.355  1.5686  0.2659 -2.5548
 5252SOL     OW27388   2.155   3.966   5.756 -0.3592  0.1774 -0.1564
 5252SOL    HW127389   2.211   3.988   5.681  0.6217  0.0003  0.5291
 5252SOL    HW227390   2.068   3.984   5.720 -0.1388  0.1603 -0.7002
 5253SOL     OW27391   1.423   1.980  13.877 -0.2494  0.0680 -0.2393
 5253SOL    HW127392   1.330   1.998  13.863 -0.0509  2.4075  1.4222
 5253SOL    HW227393   1.467   2.059  13.843  2.1496 -1.9772 -1.8476
 5254SOL     OW27394   1.464   0.616  16.180  0.3635 -0.5186 -0.0086
 5254SOL    HW127395   1.479   0.710  16.187 -0.8305 -0.3641  0.5293
 5254SOL    HW227396   1.425   0.617  16.093 -0.7191  0.7490  0.4896
 5255SOL     OW27397   0.449   0.111   7.207  0.1057 -0.1712 -0.5246
 5255SOL    HW127398   0.466   0.063   7.288 -2.2475 -0.0205  0.0774
 5255SOL    HW227399   0.401   0.047   7.155 -0.8847 -0.8997  1.2715
 5256SOL     OW27400   0.978   0.943  10.346  0.2738 -0.2069  0.4852
 5256SOL    HW127401   0.935   0.859  10.361 -0.1966  0.2760  1.7977
 5256SOL    HW227402   0.901   0.997  10.364  1.2518  0.8076  1.5844
 5257SOL     OW27403   3.972   2.911   3.258  0.4023  0.2971  0.5253
 5257SOL    HW127404   3.923   2.865   3.326  1.5931 -0.9151  0.5551
 5257SOL    HW227405   4.018   2.838   3.215  0.8921 -0.6075  2.6195
 5258SOL     OW27406   1.440   4.499   0.167  0.1269  0.1515  0.2081
 5258SOL    HW127407   1.345   4.486   0.160 -0.2523  1.2523  3.1785
 5258SOL    HW227408   1.450   4.489   0.262  0.1660  1.1181  0.3022
 5259SOL     OW27409   3.564   2.489   1.601  0.5240 -0.5296 -0.3018
 5259SOL    HW127410   3.570   2.583   1.585 -0.3991 -0.2280  1.1076
 5259SOL    HW227411   3.503   2.453   1.537 -1.0731 -0.6578  1.3121
 5260SOL     OW27412   3.260   0.827   3.934  0.5817  0.2517 -0.5649
 5260SOL    HW127413   3.354   0.841   3.938  0.2704  1.3631  2.9093
 5260SOL    HW227414   3.248   0.831   3.839  2.6546 -0.7547 -0.8503
 5261SOL     OW27415   1.968   4.297  10.716  0.2909 -0.0272  0.3399
 5261SOL    HW127416   1.945   4.213  10.675 -0.2544  0.4857 -0.4165
 5261SOL    HW227417   1.942   4.364  10.653  0.0163  2.1661  2.7883
 5262SOL     OW27418   0.897   2.713  14.222 -0.0727 -0.0241 -0.2902
 5262SOL    HW127419   0.860   2.649  14.161  1.1762 -1.0341  0.0196
 5262SOL    HW227420   0.933   2.657  14.291  1.1825 -1.0555 -1.8118
 5263SOL     OW27421   0.422   1.534   0.342 -0.2006 -0.3209 -0.2004
 5263SOL    HW127422   0.329   1.542   0.365 -0.0535 -0.5005  0.4744
 5263SOL    HW227423   0.451   1.624   0.356  0.9162 -0.9361  1.3821
 5264SOL     OW27424   3.564   1.456   2.647  0.3900 -0.1051 -0.2480
 5264SOL    HW127425   3.524   1.542   2.652  0.1151 -0.2404 -0.1341
 5264SOL    HW227426   3.579   1.430   2.556 -2.1250  0.7244 -0.8719
 5265SOL     OW27427   4.299   2.701  13.142 -0.0328 -0.2724  0.5186
 5265SOL    HW127428   4.394   2.709  13.151 -0.2045 -0.5879  2.4151
 5265SOL    HW227429   4.261   2.782  13.177 -1.7665 -0.8410 -0.0435
 5266SOL     OW27430   4.148   2.262   6.434 -0.4425 -0.3523  0.1124
 5266SOL    HW127431   4.148   2.179   6.387 -0.5817 -0.1547 -0.2396
 5266SOL    HW227432   4.185   2.233   6.518 -1.3533 -1.4480  0.1426
 5267SOL     OW27433   1.528   3.130   6.423  0.0130  0.0842  0.4075
 5267SOL    HW127434   1.578   3.048   6.423 -1.3904 -0.7664 -3.0840
 5267SOL    HW227435   1.505   3.138   6.331  0.8240  0.0843  0.2037
 5268SOL     OW27436   1.959   2.086   2.280  0.7027  0.2108  0.4055
 5268SOL    HW127437   1.959   1.992   2.262  0.3473  0.8625 -2.9635
 5268SOL    HW227438   1.891   2.119   2.221 -2.3008 -2.5361  2.2660
 5269SOL     OW27439   0.498   3.046   7.276  0.1562  0.4378  0.4325
 5269SOL    HW127440   0.544   2.971   7.237 -0.1470  0.2140  0.5087
 5269SOL    HW227441   0.547   3.125   7.253 -0.2028  0.1269 -1.3554
 5270SOL     OW27442   3.340   3.556   8.114 -0.8191 -0.2785 -0.0320
 5270SOL    HW127443   3.307   3.526   8.029  1.4961 -2.1917 -0.2770
 5270SOL    HW227444   3.432   3.539   8.095 -0.6036 -0.0677  0.8329
 5271SOL     OW27445   4.491   0.868   8.164  0.1447  0.0202 -0.4493
 5271SOL    HW127446   4.582   0.841   8.181  0.5005 -0.9189 -3.7319
 5271SOL    HW227447   4.505   0.958   8.134 -1.2183  0.2326 -0.4395
 5272SOL     OW27448   3.727   0.519   4.613  0.2217  0.5944  0.3319
 5272SOL    HW127449   3.698   0.558   4.695 -1.9054  2.6079 -1.3711
 5272SOL    HW227450   3.772   0.445   4.653  1.6065 -0.7104 -3.6047
 5273SOL     OW27451   4.714   2.447   4.146 -0.1051  0.1698  0.1435
 5273SOL    HW127452   0.052   2.387   4.147  0.0979  0.4371  0.9095
 5273SOL    HW227453   4.679   2.438   4.058 -0.1781 -0.6456  0.2498
 5274SOL     OW27454   2.417   4.559  10.737 -0.5681 -0.4048 -0.8036
 5274SOL    HW127455   2.510   4.576  10.753 -0.6591  0.5703 -1.3131
 5274SOL    HW227456   2.416   4.545  10.642 -0.1748 -2.4741 -0.5059
 5275SOL     OW27457   1.851   2.003   7.218  0.1621  0.2095  0.2942
 5275SOL    HW127458   1.810   1.951   7.286  0.5490 -0.2506  0.1775
 5275SOL    HW227459   1.779   2.016   7.156  2.4795  0.6884 -2.3155
 5276SOL     OW27460   0.128   3.174   4.366  0.4177  0.4057  0.3327
 5276SOL    HW127461   0.077   3.115   4.310  1.0633 -1.5447  1.8120
 5276SOL    HW227462   0.138   3.245   4.302  0.5140 -1.6168 -1.8857
 5277SOL     OW27463   3.384   3.231   6.543  0.6563 -1.0555  0.9132
 5277SOL    HW127464   3.449   3.210   6.610 -0.0329 -1.2056  1.5262
 5277SOL    HW227465   3.411   3.188   6.462  0.5929 -0.1647  0.4152
 5278SOL     OW27466   0.495   3.664  10.051 -0.5097 -0.6253  0.0041
 5278SOL    HW127467   0.448   3.610   9.987 -0.6983 -1.0019  0.4615
 5278SOL    HW227468   0.436   3.673  10.126  1.3082  0.8134  1.2721
 5279SOL     OW27469   1.943   2.894  13.194  0.4264 -0.2800 -0.0045
 5279SOL    HW127470   1.887   2.843  13.253 -0.6282 -1.2390 -1.8566
 5279SOL    HW227471   2.036   2.885  13.216  0.9125  0.8449 -1.5864
 5280SOL     OW27472   4.289   2.596   1.586 -0.7273  0.3581 -0.1915
 5280SOL    HW127473   4.278   2.566   1.676 -0.9267 -1.6038 -0.8796
 5280SOL    HW227474   4.351   2.534   1.549  0.0405  1.0362 -0.0447
 5281SOL     OW27475   1.581   3.094   5.102 -0.2888  0.0035 -0.3167
 5281SOL    HW127476   1.561   3.121   5.013  2.0513 -1.3150 -1.2434
 5281SOL    HW227477   1.536   3.155   5.160 -1.6019 -0.2857 -1.0506
 5282SOL     OW27478   0.542   2.072   6.654  0.0545  0.3396  0.3639
 5282SOL    HW127479   0.606   2.002   6.664  0.6002  0.9410  1.0701
 5282SOL    HW227480   0.600   2.144   6.630 -0.8856  0.8155 -0.5096
 5283SOL     OW27481   3.540   0.900   3.995 -0.1030  0.1746 -0.3720
 5283SOL    HW127482   3.532   0.994   3.982 -1.4868  0.0430 -0.4677
 5283SOL    HW227483   3.591   0.890   4.075  1.9110  1.7077 -1.4590
 5284SOL     OW27484   4.293   3.494  11.018  0.1000  0.3737 -0.2096
 5284SOL    HW127485   4.314   3.586  11.033  0.3447  0.4938 -1.2519
 5284SOL    HW227486   4.348   3.469  10.943 -0.7514 -2.5915  0.1277
 5285SOL     OW27487   1.693   0.436   3.820  0.2911 -0.1516 -0.3569
 5285SOL    HW127488   1.751   0.395   3.884 -0.1826 -2.2297 -1.2469
 5285SOL    HW227489   1.759   0.490   3.775  3.1655 -1.4788  2.2992
 5286SOL     OW27490   2.394   2.580  14.168  0.7382  0.2244 -0.3836
 5286SOL    HW127491   2.382   2.584  14.263 -0.7661  0.2221 -0.5735
 5286SOL    HW227492   2.486   2.605  14.158  0.4042  0.7808 -2.0509
 5287SOL     OW27493   3.337   0.584   9.740 -0.3203  0.6693  0.2135
 5287SOL    HW127494   3.419   0.553   9.778  0.6933  4.0120  0.7534
 5287SOL    HW227495   3.366   0.615   9.654  2.8352 -2.3561  0.2165
 5288SOL     OW27496   0.180   3.615   1.486 -0.1327  0.2413 -0.1974
 5288SOL    HW127497   0.177   3.630   1.581 -0.2367  1.5501 -0.4136
 5288SOL    HW227498   0.228   3.689   1.449  0.3974 -0.2454 -0.4743
 5289SOL     OW27499   2.217   3.103   0.814  0.4411 -0.2403 -0.3210
 5289SOL    HW127500   2.206   3.060   0.899  0.3394  0.6639  0.1241
 5289SOL    HW227501   2.176   3.039   0.756  1.4781 -0.1895 -1.1063
 5290SOL     OW27502   2.367   4.563   0.528 -0.0459  0.3612  0.0637
 5290SOL    HW127503   2.355   4.561   0.433  0.0320  0.9302  0.0433
 5290SOL    HW227504   2.277   4.570   0.559 -0.1210  1.2936 -0.3856
 5291SOL     OW27505   0.650   0.083   9.198  0.0692  0.5522  0.2979
 5291SOL    HW127506   0.585   0.072   9.267  0.8567  0.6152  1.0453
 5291SOL    HW227507   0.653   4.734   9.156  2.3578 -0.0057  1.6086
 5292SOL     OW27508   3.723   1.572   1.888  0.3585  0.0511 -0.2658
 5292SOL    HW127509   3.806   1.524   1.895  1.8804  3.0199  2.0425
 5292SOL    HW227510   3.739   1.647   1.945 -0.7104  1.8963 -2.3657
 5293SOL     OW27511   2.278   2.118  12.786  0.7915  0.0354  0.3210
 5293SOL    HW127512   2.344   2.058  12.819 -0.8259 -2.3899 -0.8748
 5293SOL    HW227513   2.332   2.174  12.730  0.2715 -0.1595 -0.3816
 5294SOL     OW27514   2.288   0.658   4.142  0.4942 -0.2348  0.1322
 5294SOL    HW127515   2.307   0.570   4.172 -1.4220 -0.3382  1.0463
 5294SOL    HW227516   2.315   0.663   4.050 -2.1828  1.4665 -0.5787
 5295SOL     OW27517   1.359   3.992   3.351  0.2180  0.1119 -0.1379
 5295SOL    HW127518   1.440   4.039   3.329  1.4458 -1.0160  1.9865
 5295SOL    HW227519   1.350   3.945   3.267 -1.5410  2.3388 -1.1811
 5296SOL     OW27520   4.462   0.605  16.983  0.1851  0.1125  0.1825
 5296SOL    HW127521   4.439   0.674  16.921  1.4714  0.7905  0.4538
 5296SOL    HW227522   4.463   0.535  16.917 -2.1049  0.3951 -0.1341
 5297SOL     OW27523   1.083   0.996  10.920  0.4679  0.0487 -0.3049
 5297SOL    HW127524   1.067   0.902  10.912 -0.0860  0.2889 -1.9848
 5297SOL    HW227525   1.084   1.015  10.826 -0.4642  1.4642 -0.0190
 5298SOL     OW27526   3.671   3.444   5.174 -0.2683 -0.2421  0.2392
 5298SOL    HW127527   3.681   3.452   5.079  0.5939  0.4406  0.3915
 5298SOL    HW227528   3.611   3.518   5.184  0.7886  0.6982 -0.3815
 5299SOL     OW27529   2.469   3.620  10.459 -0.0075  0.0352 -0.0224
 5299SOL    HW127530   2.543   3.664  10.501  0.5041  0.3119 -1.2427
 5299SOL    HW227531   2.511   3.602  10.375  1.4024  2.4153  0.1608
 5300SOL     OW27532   0.977   0.927   6.336 -0.0228 -0.4206 -0.1708
 5300SOL    HW127533   0.975   0.975   6.253 -1.0156  1.3988  0.9305
 5300SOL    HW227534   1.032   0.982   6.391 -0.1883  1.6690 -2.0806
 5301SOL     OW27535   1.628   0.218   5.563  0.1132  0.3752 -0.5401
 5301SOL    HW127536   1.610   0.176   5.479 -0.2633 -0.2283 -0.1626
 5301SOL    HW227537   1.564   0.158   5.601  1.5481 -0.8211 -0.0386
 5302SOL     OW27538   2.333   4.424   4.230 -0.2394  0.4526  0.3980
 5302SOL    HW127539   2.337   4.365   4.305  0.7378  0.5075  0.3838
 5302SOL    HW227540   2.240   4.405   4.213 -0.4797 -0.6294  2.9975
 5303SOL     OW27541   0.149   4.063   0.174  0.0754 -0.1298 -0.4249
 5303SOL    HW127542   0.106   3.987   0.212  2.4229 -0.6629  1.0924
 5303SOL    HW227543   0.156   4.035   0.082  1.1962  0.0286 -0.3827
 5304SOL     OW27544   0.683   4.585   7.553 -0.7480 -0.5988  0.0941
 5304SOL    HW127545   0.745   4.512   7.551 -0.2476 -0.1557 -0.7238
 5304SOL    HW227546   0.743   4.659   7.540  1.0469 -1.9983  0.4659
 5305SOL     OW27547   2.189   4.338   0.879 -0.3089  0.1915  0.4387
 5305SOL    HW127548   2.237   4.341   0.796 -1.0946 -1.2547 -0.0604
 5305SOL    HW227549   2.256   4.329   0.946 -0.4652  0.7623  0.6669
 5306SOL     OW27550   0.064   3.346   3.647  0.2602  0.0131  0.3903
 5306SOL    HW127551   0.094   3.416   3.589 -0.4274  0.8585  1.0553
 5306SOL    HW227552   0.006   3.403   3.699 -0.9774 -1.4729  0.6469
 5307SOL     OW27553   1.708   3.806   4.999  0.0014  0.4498  0.2031
 5307SOL    HW127554   1.765   3.768   5.066 -0.4158  0.4670  0.5715
 5307SOL    HW227555   1.712   3.726   4.947 -2.1134 -0.4336  1.3650
 5308SOL     OW27556   0.816   3.924  15.151  0.4728  0.3430  0.3158
 5308SOL    HW127557   0.739   3.915  15.207 -0.3506 -0.4605 -0.9381
 5308SOL    HW227558   0.778   3.920  15.063 -1.6715  1.2486  1.2161
 5309SOL     OW27559   3.346   4.490   7.846  0.2401  0.0419  0.1225
 5309SOL    HW127560   3.354   4.458   7.936  1.3465  1.4235  0.5048
 5309SOL    HW227561   3.389   4.575   7.851  2.1777 -0.7731 -2.8449
 5310SOL     OW27562   0.924   0.795   8.668 -0.5980  0.5502  0.0812
 5310SOL    HW127563   0.831   0.774   8.660 -0.3578 -0.0340 -1.1551
 5310SOL    HW227564   0.930   0.831   8.756  1.1192  0.8980 -0.1770
 5311SOL     OW27565   1.002   0.575   4.184 -0.0427 -0.7236  0.2550
 5311SOL    HW127566   1.089   0.542   4.205  0.2664 -2.0331 -3.1428
 5311SOL    HW227567   1.025   0.668   4.190  2.3478 -1.2906 -0.2763
 5312SOL     OW27568   4.124   2.074   1.883  0.5693  0.2985  0.2109
 5312SOL    HW127569   4.219   2.088   1.890  0.7259  0.2998 -1.8416
 5312SOL    HW227570   4.103   2.128   1.808 -1.0647  0.6752  0.9526
 5313SOL     OW27571   4.106   0.172   2.341 -0.1390 -0.2614  0.5214
 5313SOL    HW127572   4.180   0.194   2.285  0.0239 -1.8595  0.0891
 5313SOL    HW227573   4.142   0.167   2.430  0.3069  1.4635  0.4393
 5314SOL     OW27574   2.946   1.039   1.925 -0.2853  0.2218 -0.5260
 5314SOL    HW127575   2.867   1.053   1.978  1.0885 -0.5340  1.7167
 5314SOL    HW227576   2.945   1.113   1.864 -3.2238 -0.6375 -1.5349
 5315SOL     OW27577   2.700   1.310   0.833  0.3663 -0.4495 -0.4144
 5315SOL    HW127578   2.715   1.221   0.801  1.0055 -0.1440 -0.9606
 5315SOL    HW227579   2.701   1.356   0.749 -2.5093 -0.8247 -0.6736
 5316SOL     OW27580   0.188   0.633  17.323 -0.3927  0.5290  0.0604
 5316SOL    HW127581   0.233   0.688  17.387  0.6463 -0.3175  0.0541
 5316SOL    HW227582   0.197   0.551  17.370  2.0922 -0.7421 -2.5956
 5317SOL     OW27583   0.205   0.693   3.837 -0.0209 -0.4980 -0.3205
 5317SOL    HW127584   0.231   0.676   3.927  0.1505  2.0579  0.1267
 5317SOL    HW227585   0.277   0.655   3.786  0.5522  1.4859 -0.9976
 5318SOL     OW27586   4.704   1.632   9.373  0.5612 -0.1284 -0.7698
 5318SOL    HW127587   4.633   1.592   9.424 -0.0476 -0.3774 -1.8296
 5318SOL    HW227588   4.686   1.597   9.286 -1.3334  2.6279 -1.5130
 5319SOL     OW27589   2.068   3.397   3.843 -0.3510  0.7455 -0.7140
 5319SOL    HW127590   2.160   3.420   3.830 -0.0200  0.3847  0.9789
 5319SOL    HW227591   2.086   3.318   3.894 -2.2603 -0.3434 -1.7158
 5320SOL     OW27592   0.752   2.462  17.113 -0.4994 -0.1177  0.1039
 5320SOL    HW127593   0.718   2.451  17.024 -0.9145  1.6628  0.0510
 5320SOL    HW227594   0.706   2.543  17.134  1.9051  1.3090 -0.1479
 5321SOL     OW27595   4.241   0.595  10.607  0.0306  0.2010  0.2278
 5321SOL    HW127596   4.296   0.647  10.666 -0.1966 -1.9107  2.2967
 5321SOL    HW227597   4.218   0.664  10.545 -1.7276 -0.9393 -0.3722
 5322SOL     OW27598   4.267   4.687  12.048 -0.6031  0.4355 -0.2238
 5322SOL    HW127599   4.207   0.021  12.024 -1.4360  0.1038  0.8782
 5322SOL    HW227600   4.351   4.724  12.074  1.0668 -1.3195 -3.1340
 5323SOL     OW27601   1.597   0.851  17.242 -0.3805  0.0424  0.1341
 5323SOL    HW127602   1.512   0.829  17.280 -0.4547 -3.1273 -1.9308
 5323SOL    HW227603   1.637   0.764  17.248  1.1738  0.6700 -1.2206
 5324SOL     OW27604   3.596   0.171  15.440  0.3837 -0.7697  0.1170
 5324SOL    HW127605   3.597   0.251  15.387 -1.0102 -0.6660  0.2407
 5324SOL    HW227606   3.521   0.119  15.411 -0.7885  0.1938  1.3623
 5325SOL     OW27607   4.554   3.406   4.567  0.0005  0.3814  0.3313
 5325SOL    HW127608   4.478   3.360   4.604 -0.6715  2.8335  1.9993
 5325SOL    HW227609   4.634   3.375   4.610 -1.3796 -2.9384  0.4914
 5326SOL     OW27610   1.488   1.379  13.539 -0.0213 -0.5003  0.1643
 5326SOL    HW127611   1.572   1.377  13.494  0.1494 -0.6180  0.4891
 5326SOL    HW227612   1.452   1.450  13.487  0.2612 -0.8882 -0.5686
 5327SOL     OW27613   3.100   4.034   1.713 -0.1229  0.5829  0.3959
 5327SOL    HW127614   3.012   4.009   1.740  0.1949 -1.5925 -0.6182
 5327SOL    HW227615   3.160   3.974   1.757  0.9125  1.5948  0.3740
 5328SOL     OW27616   1.491   3.650   5.198 -0.4657 -0.4397 -0.1484
 5328SOL    HW127617   1.576   3.669   5.238 -1.3958 -1.6040  2.3609
 5328SOL    HW227618   1.425   3.664   5.265  0.3959 -1.3430  0.8986
 5329SOL     OW27619   0.699   3.815   6.469 -0.6659  0.9567 -0.2662
 5329SOL    HW127620   0.751   3.823   6.389 -0.0143 -0.0046  0.0667
 5329SOL    HW227621   0.697   3.720   6.483 -0.3785  0.8704 -0.8085
 5330SOL     OW27622   4.445   1.506   6.031 -0.0582  0.4258 -0.4328
 5330SOL    HW127623   4.508   1.569   6.066  1.3347 -0.8033 -0.7234
 5330SOL    HW227624   4.420   1.547   5.948 -2.3126 -0.6496 -0.2924
 5331SOL     OW27625   0.688   0.601   9.526 -0.5980 -0.2381 -0.1489
 5331SOL    HW127626   0.694   0.577   9.434  0.1251  1.7359 -0.6200
 5331SOL    HW227627   0.732   0.686   9.525 -0.1435 -0.4698  0.0094
 5332SOL     OW27628   1.465   0.623   4.447  0.1494 -0.3102  0.2750
 5332SOL    HW127629   1.501   0.540   4.414  2.0547  1.2981 -1.7521
 5332SOL    HW227630   1.525   0.678   4.396 -1.1675  1.1373  0.2939
 5333SOL     OW27631   3.441   3.464   1.867 -0.4032 -0.0845  0.3070
 5333SOL    HW127632   3.503   3.536   1.862 -1.5527  0.9785  1.4996
 5333SOL    HW227633   3.375   3.507   1.921  1.1376  0.2351  1.9505
 5334SOL     OW27634   1.559   4.065   5.423  0.1323  0.3881 -0.7585
 5334SOL    HW127635   1.620   4.128   5.385 -0.1794  0.0032 -1.8919
 5334SOL    HW227636   1.578   3.986   5.372  0.5071  0.8830 -1.3772
 5335SOL     OW27637   4.397   3.856   8.327  0.0549 -0.3058 -0.5567
 5335SOL    HW127638   4.390   3.912   8.404  0.7918 -0.4923 -0.3466
 5335SOL    HW227639   4.325   3.895   8.278 -0.8305 -0.4386  0.6321
 5336SOL     OW27640   1.558   0.784   7.995  0.1306  0.0299 -0.1701
 5336SOL    HW127641   1.586   0.821   8.079 -1.3853 -1.2461  0.8964
 5336SOL    HW227642   1.523   0.861   7.951 -0.4621  0.4227  0.9880
 5337SOL     OW27643   0.728   2.285   1.803 -0.5650 -0.3303  0.1710
 5337SOL    HW127644   0.681   2.324   1.729  2.1635  0.2806 -1.2512
 5337SOL    HW227645   0.791   2.224   1.767  0.2473  0.7848 -0.2966
 5338SOL     OW27646   4.613   4.421   3.413 -0.4054  0.3462 -0.1435
 5338SOL    HW127647   4.615   4.325   3.420 -1.2977  0.1819 -1.9409
 5338SOL    HW227648   4.646   4.448   3.498  0.0341  0.0799 -0.2256
 5339SOL     OW27649   0.573   2.672   7.933  0.0485 -0.2073 -0.0764
 5339SOL    HW127650   0.591   2.678   7.839 -0.6832  3.2872  0.0382
 5339SOL    HW227651   0.583   2.762   7.963 -1.4326  0.5826 -1.9807
 5340SOL     OW27652   1.321   2.871   3.003  0.5283  0.5902  0.3057
 5340SOL    HW127653   1.296   2.780   3.014 -1.7040  1.0564 -0.9589
 5340SOL    HW227654   1.374   2.886   3.082  0.6686  0.7220  0.1861
 5341SOL     OW27655   1.049   3.763   3.257  0.2591 -0.2510  0.0842
 5341SOL    HW127656   1.011   3.715   3.331 -2.2659  0.3881 -0.7885
 5341SOL    HW227657   0.984   3.832   3.247  1.0006  0.4624  0.2362
 5342SOL     OW27658   3.406   0.769   7.401 -0.3987  0.2692 -0.0300
 5342SOL    HW127659   3.447   0.798   7.483  1.6923 -0.7827 -0.6799
 5342SOL    HW227660   3.477   0.750   7.339 -1.5985 -1.1222 -0.9808
 5343SOL     OW27661   1.136   3.088   2.482  0.1597  0.4452  0.5887
 5343SOL    HW127662   1.210   3.030   2.503 -1.1052 -1.3270  0.1671
 5343SOL    HW227663   1.088   3.040   2.414  0.2027 -1.3989  1.8302
 5344SOL     OW27664   1.028   2.397   7.118  0.6997 -0.1841 -0.1143
 5344SOL    HW127665   1.112   2.358   7.096 -0.1406 -1.4522 -1.1033
 5344SOL    HW227666   1.003   2.341   7.192  4.7394 -1.4996  0.2606
 5345SOL     OW27667   2.911   4.162   8.457 -0.7982 -0.0273 -0.0562
 5345SOL    HW127668   2.818   4.182   8.456 -1.0429 -1.0890  2.1503
 5345SOL    HW227669   2.936   4.192   8.369  0.7218 -0.9670  0.0430
 5346SOL     OW27670   1.518   2.844  15.252 -0.0212 -0.5977 -0.4753
 5346SOL    HW127671   1.583   2.782  15.220  0.4248 -0.1171 -0.4895
 5346SOL    HW227672   1.440   2.789  15.261 -0.3915  0.3042  1.8993
 5347SOL     OW27673   1.935   1.182  13.373 -0.6802 -0.3914  0.0739
 5347SOL    HW127674   1.893   1.174  13.458  1.4823 -0.3117  1.1612
 5347SOL    HW227675   1.961   1.090  13.375 -2.6770 -0.9437  0.2355
 5348SOL     OW27676   1.061   2.516  17.582 -0.1018 -0.3788 -0.1667
 5348SOL    HW127677   1.109   2.533  17.501 -1.9706  0.0059 -1.1758
 5348SOL    HW227678   1.121   2.449  17.616 -2.0439 -0.9113  2.2450
 5349SOL     OW27679   2.284   4.002   3.195  0.1788  0.1916 -0.0318
 5349SOL    HW127680   2.365   4.030   3.238 -0.8165 -1.0501  2.6282
 5349SOL    HW227681   2.315   3.943   3.126  0.9927  0.8993 -0.2828
 5350SOL     OW27682   0.060   0.443   3.195 -0.1523 -0.8282  0.5495
 5350SOL    HW127683   4.710   0.417   3.227  0.5623 -0.9050  2.4045
 5350SOL    HW227684   0.087   0.369   3.142 -2.4990 -1.2615 -0.0130
 5351SOL     OW27685   4.042   2.841   8.396  0.0304  0.0463  0.7619
 5351SOL    HW127686   4.099   2.811   8.466 -0.1802 -1.3919  0.3247
 5351SOL    HW227687   3.994   2.914   8.435 -0.8990 -0.4357  0.5250
 5352SOL     OW27688   1.539   2.983   2.300  0.0678 -0.0924 -0.0183
 5352SOL    HW127689   1.556   3.078   2.300  1.2927 -0.3117  0.2996
 5352SOL    HW227690   1.598   2.939   2.240 -0.9299  0.7116 -1.6005
 5353SOL     OW27691   2.765   3.264   5.794 -0.3806 -0.3296 -0.0101
 5353SOL    HW127692   2.801   3.209   5.724  0.5109  0.5147 -0.2108
 5353SOL    HW227693   2.794   3.207   5.866 -0.2866 -0.3423 -0.0573
 5354SOL     OW27694   4.527   1.297  16.547 -0.1391  0.1039  0.3308
 5354SOL    HW127695   4.490   1.385  16.540  0.8818  0.5085  0.0177
 5354SOL    HW227696   4.605   1.311  16.494 -0.1753  0.3894  0.3553
 5355SOL     OW27697   0.101   2.537   3.023 -0.9752  0.2975  0.1584
 5355SOL    HW127698   0.124   2.560   3.113  1.3866  1.5028 -0.7515
 5355SOL    HW227699   0.046   2.610   2.994  1.8525  1.3739 -2.5735
 5356SOL     OW27700   2.822   2.264   6.475 -0.1724  0.2108 -0.2529
 5356SOL    HW127701   2.902   2.210   6.479 -0.6927 -0.3495  2.6333
 5356SOL    HW227702   2.832   2.320   6.552  0.0462  0.5437 -0.5222
 5357SOL     OW27703   4.283   1.696   7.352  0.5407 -0.0647 -0.6994
 5357SOL    HW127704   4.250   1.661   7.270 -3.7285  1.9361  0.1628
 5357SOL    HW227705   4.278   1.621   7.412  1.2804 -2.2443 -3.4023
 5358SOL     OW27706   2.977   3.670   5.103  0.2280  0.6167  0.3970
 5358SOL    HW127707   3.003   3.761   5.119  0.0150  1.0773 -1.9036
 5358SOL    HW227708   2.989   3.668   5.008  1.0502 -0.4901  0.5288
 5359SOL     OW27709   3.382   0.412   4.919 -0.6889  0.4432 -0.0127
 5359SOL    HW127710   3.297   0.432   4.959 -0.0378  0.5875  1.3155
 5359SOL    HW227711   3.356   0.335   4.869 -0.4787  0.6099 -0.3790
 5360SOL     OW27712   0.796   3.202   2.977 -0.4069  0.1624  0.5047
 5360SOL    HW127713   0.867   3.230   2.919  0.2275 -1.6387  0.4037
 5360SOL    HW227714   0.817   3.114   3.011  0.8586  1.1350  2.2428
 5361SOL     OW27715   2.261   0.834   4.520  0.1127  0.3161 -0.0079
 5361SOL    HW127716   2.240   0.745   4.549 -1.2481  1.2685  1.9348
 5361SOL    HW227717   2.180   0.884   4.509 -2.2542 -3.5156 -0.1077
 5362SOL     OW27718   3.542   4.552   4.325 -0.6661  0.2115  0.3375
 5362SOL    HW127719   3.516   4.528   4.414 -2.9983 -0.6713 -0.5771
 5362SOL    HW227720   3.598   4.630   4.322  1.1956 -1.0984  1.9119
 5363SOL     OW27721   0.064   0.308   3.487 -0.2359 -0.1084  0.1179
 5363SOL    HW127722   0.107   0.372   3.430 -1.4981 -1.1637 -2.0309
 5363SOL    HW227723   4.730   0.364   3.520  0.5331 -0.4527  2.3611
 5364SOL     OW27724   2.088   2.238   3.165  0.5298 -0.2344  0.3416
 5364SOL    HW127725   2.140   2.221   3.243 -1.9814 -2.8135  1.4835
 5364SOL    HW227726   2.004   2.267   3.200 -0.8871 -1.8736 -1.6903
 5365SOL     OW27727   4.519   2.711   7.988 -0.1735 -0.1622 -0.9588
 5365SOL    HW127728   4.479   2.765   8.056  0.5918 -3.5887  2.2146
 5365SOL    HW227729   4.436   2.708   7.939  0.6262  1.8221 -2.4430
 5366SOL     OW27730   3.486   0.114   3.552  0.0820  0.3380 -0.1303
 5366SOL    HW127731   3.568   0.158   3.573 -0.3198  0.6240  0.8795
 5366SOL    HW227732   3.441   0.135   3.634 -1.4215  2.1599 -1.4232
 5367SOL     OW27733   3.579   1.951   2.308  0.1756 -0.0290  0.2650
 5367SOL    HW127734   3.533   2.025   2.268 -0.9223 -1.0198 -0.3096
 5367SOL    HW227735   3.638   2.000   2.366  0.6485  0.1362 -0.3650
 5368SOL     OW27736   0.149   1.665  17.346 -0.3216  0.3294  0.1283
 5368SOL    HW127737   0.180   1.662  17.437  0.3834  0.0238 -0.1247
 5368SOL    HW227738   0.226   1.687  17.294  0.3379  0.3370  1.1002
 5369SOL     OW27739   3.844   3.971   1.772  0.1165  0.1803  0.2210
 5369SOL    HW127740   3.796   4.053   1.758  1.1835  0.3734 -2.4136
 5369SOL    HW227741   3.864   3.969   1.865  0.2657 -1.8387  0.1422
 5370SOL     OW27742   1.178   2.903   2.691 -0.0071  0.2908 -0.0959
 5370SOL    HW127743   1.237   2.976   2.712 -0.2037  0.4558 -0.1148
 5370SOL    HW227744   1.245   2.847   2.651 -1.3427 -0.0195 -1.9046
 5371SOL     OW27745   3.362   1.672   4.246 -0.1310 -0.1670 -0.6328
 5371SOL    HW127746   3.410   1.736   4.194  1.5039  0.6249  1.9306
 5371SOL    HW227747   3.330   1.720   4.322  5.0112  0.7260  0.9024
 5372SOL     OW27748   2.384   3.399   0.081  0.4238  0.6359  0.1167
 5372SOL    HW127749   2.370   3.310   0.047 -2.2712  1.3451 -0.6850
 5372SOL    HW227750   2.338   3.440   0.007 -2.6051  1.2561  2.3255
 5373SOL     OW27751   2.579   0.453   7.825  0.4465 -0.1966 -0.1336
 5373SOL    HW127752   2.587   0.419   7.736 -1.6810 -1.9067  0.3105
 5373SOL    HW227753   2.657   0.416   7.867  1.2519  0.7680 -0.7844
 5374SOL     OW27754   1.411   1.126  12.481  0.2453  0.0837 -0.6073
 5374SOL    HW127755   1.486   1.073  12.457  1.0921  1.5270 -1.1835
 5374SOL    HW227756   1.453   1.212  12.478  0.0282  0.1743 -1.1358
 5375SOL     OW27757   2.506   3.919   1.562 -0.1670  0.2693 -0.3444
 5375SOL    HW127758   2.591   3.877   1.577  0.0465  1.0300  0.6062
 5375SOL    HW227759   2.515   3.935   1.468 -2.5290  2.9974 -0.0708
 5376SOL     OW27760   1.263   1.179  11.243  0.1444 -0.4546 -0.4367
 5376SOL    HW127761   1.338   1.202  11.297  0.5015  0.7499 -1.4520
 5376SOL    HW227762   1.302   1.130  11.171  1.6987 -0.7003  0.5745
 5377SOL     OW27763   4.673   0.843   6.455  0.3100 -0.0790 -0.0581
 5377SOL    HW127764   4.678   0.920   6.397 -1.1562  1.1875  1.5008
 5377SOL    HW227765   4.654   0.766   6.402 -0.3055 -0.1760  0.3163
 5378SOL     OW27766   1.378   0.366  10.989 -0.2310 -0.4384  0.0963
 5378SOL    HW127767   1.345   0.453  11.013  1.5143 -0.1696  1.5563
 5378SOL    HW227768   1.453   0.386  10.932 -1.7668  1.3984 -1.2900
 5379SOL     OW27769   3.823   0.421   6.912  0.4312 -0.6802 -0.1380
 5379SOL    HW127770   3.869   0.470   6.844 -1.6632  1.6905  0.1300
 5379SOL    HW227771   3.741   0.398   6.869 -0.3268  1.1897  0.2631
 5380SOL     OW27772   1.924   1.462  16.825 -0.5443 -0.3223 -0.5932
 5380SOL    HW127773   1.900   1.531  16.887  0.8834 -0.5971  0.2825
 5380SOL    HW227774   1.918   1.379  16.873 -0.2831  0.9877  1.7378
 5381SOL     OW27775   1.699   2.641   1.770  0.2169 -0.2784  0.7619
 5381SOL    HW127776   1.704   2.668   1.679 -0.2639  0.6681  1.0059
 5381SOL    HW227777   1.792   2.632   1.792 -0.4663 -5.3382  1.6054
 5382SOL     OW27778   2.451   2.829  16.412 -0.2565 -0.2405 -0.0049
 5382SOL    HW127779   2.396   2.878  16.473  0.5298  1.7961 -0.9508
 5382SOL    HW227780   2.515   2.805  16.479 -0.6943 -1.1896  0.0760
 5383SOL     OW27781   4.159   2.536   6.955 -0.3885  0.4222  0.4784
 5383SOL    HW127782   4.206   2.464   6.913 -1.8679 -1.4220  1.9431
 5383SOL    HW227783   4.223   2.550   7.025  0.0412 -0.1579  0.2063
 5384SOL     OW27784   1.658   3.702   7.604 -0.7666  0.0352 -0.5807
 5384SOL    HW127785   1.676   3.688   7.511 -1.9976 -1.0190 -0.6551
 5384SOL    HW227786   1.717   3.776   7.619 -2.1310  1.4365 -2.1001
 5385SOL     OW27787   4.500   1.866  15.266  0.6067  0.0269 -0.1032
 5385SOL    HW127788   4.487   1.790  15.209 -1.0324  0.2299  0.0088
 5385SOL    HW227789   4.458   1.836  15.346 -0.0224  2.5372  0.5200
 5386SOL     OW27790   2.224   4.401   6.075  0.2310  0.2506  0.3574
 5386SOL    HW127791   2.311   4.431   6.103  0.2891 -0.8616  1.3634
 5386SOL    HW227792   2.247   4.340   6.005 -2.9310  0.2911 -0.7217
 5387SOL     OW27793   0.272   4.343  15.712  0.2419 -0.1267 -0.0755
 5387SOL    HW127794   0.230   4.405  15.653  0.9812 -1.0083 -1.5171
 5387SOL    HW227795   0.355   4.340  15.665  0.3307 -1.2995  0.1632
 5388SOL     OW27796   3.460   1.857   7.743  0.5296 -0.2267  0.8599
 5388SOL    HW127797   3.547   1.884   7.774  0.8994 -1.0896  0.5892
 5388SOL    HW227798   3.469   1.774   7.790  1.8529 -1.5452 -1.6738
 5389SOL     OW27799   4.135   2.974   9.925 -0.1387  0.2340  0.2267
 5389SOL    HW127800   4.215   3.014   9.892  1.2914 -1.1817  1.9778
 5389SOL    HW227801   4.128   3.015  10.011  2.5310  2.4997 -0.6257
 5390SOL     OW27802   2.499   0.323   8.642  0.6236 -0.5165  0.0152
 5390SOL    HW127803   2.579   0.286   8.681 -0.4999  0.1252  2.9431
 5390SOL    HW227804   2.517   0.414   8.665  0.7962 -0.4053 -0.5757
 5391SOL     OW27805   3.176   0.678   4.158 -0.3632  0.1242 -0.0584
 5391SOL    HW127806   3.159   0.747   4.223  0.7238 -0.2400  0.5999
 5391SOL    HW227807   3.218   0.732   4.091 -0.5179 -2.2635 -2.0712
 5392SOL     OW27808   2.127   1.445  16.157 -0.3649 -0.5725 -0.4900
 5392SOL    HW127809   2.164   1.376  16.103 -0.7114  0.9424 -2.6348
 5392SOL    HW227810   2.135   1.402  16.243  0.5089  0.7337  0.0931
 5393SOL     OW27811   2.254   3.014   7.163  0.8676  0.1577  0.3549
 5393SOL    HW127812   2.162   3.005   7.140  0.9517 -1.1152  0.5408
 5393SOL    HW227813   2.242   2.973   7.248  1.9636  1.9385  1.3760
 5394SOL     OW27814   2.561   1.470   3.465 -0.5016 -0.2077 -0.5014
 5394SOL    HW127815   2.531   1.476   3.556 -0.0965  1.8965 -0.5047
 5394SOL    HW227816   2.478   1.497   3.426 -1.8859 -1.7571  1.4009
 5395SOL     OW27817   2.307   2.143  12.360  0.4370  0.5638  0.4886
 5395SOL    HW127818   2.261   2.076  12.411 -0.0999 -0.1138 -0.8843
 5395SOL    HW227819   2.264   2.128  12.276 -0.2307 -1.7867  1.2247
 5396SOL     OW27820   1.835   4.384   0.385  0.3892 -0.0501 -0.5926
 5396SOL    HW127821   1.849   4.329   0.308 -0.3177  1.0997 -1.5406
 5396SOL    HW227822   1.868   4.470   0.360 -1.5036 -0.0330 -3.1181
 5397SOL     OW27823   4.182   3.073  17.270  0.0101 -0.2882 -0.0367
 5397SOL    HW127824   4.145   2.987  17.250  0.5010  0.0795 -2.6028
 5397SOL    HW227825   4.276   3.061  17.254  0.0013 -1.3468  0.7187
 5398SOL     OW27826   3.479   3.146   4.603  0.0702 -0.0888 -0.0264
 5398SOL    HW127827   3.534   3.070   4.623  0.0093 -0.6005 -1.8521
 5398SOL    HW227828   3.551   3.192   4.559  0.2739  1.7160  2.1800
 5399SOL     OW27829   2.652   1.083   2.587 -0.1233 -0.1431  0.9203
 5399SOL    HW127830   2.680   0.999   2.551 -1.0229  0.3670 -0.9789
 5399SOL    HW227831   2.665   1.130   2.504 -2.1252 -1.1170  0.0626
 5400SOL     OW27832   1.217   4.319   8.040 -0.0176 -0.0635  0.1731
 5400SOL    HW127833   1.230   4.297   8.133 -0.8715 -0.8460  0.0996
 5400SOL    HW227834   1.264   4.403   8.046 -1.7463  0.9867 -0.8236
 5401SOL     OW27835   0.346   2.509  12.828  0.1773 -0.3317 -0.4221
 5401SOL    HW127836   0.378   2.462  12.906  1.1312 -1.5653 -1.5518
 5401SOL    HW227837   0.414   2.495  12.763  1.4185  1.3413  0.5526
 5402SOL     OW27838   4.543   3.461  14.074 -0.0518 -0.2492  0.0281
 5402SOL    HW127839   4.627   3.505  14.064  1.0467 -1.5683  3.3973
 5402SOL    HW227840   4.487   3.518  14.020  1.3791  2.9553  1.9047
 5403SOL     OW27841   2.504   1.713   1.475 -0.4337 -0.1283 -0.1586
 5403SOL    HW127842   2.554   1.772   1.418  0.7143 -0.1181  0.8595
 5403SOL    HW227843   2.577   1.663   1.510  0.3643  1.0411 -0.1230
 5404SOL     OW27844   4.345   1.226   6.321 -0.4146  0.3226  0.3905
 5404SOL    HW127845   4.432   1.198   6.348  0.8833  2.5968 -1.4297
 5404SOL    HW227846   4.306   1.138   6.321  1.4334 -0.4945 -1.0928
 5405SOL     OW27847   1.133   3.389   2.946  0.1100 -0.3100 -0.0572
 5405SOL    HW127848   1.121   3.455   2.878  2.9803  0.6993  0.4041
 5405SOL    HW227849   1.072   3.323   2.912  2.6509 -1.6081 -2.0918
 5406SOL     OW27850   1.526   3.590   7.923 -0.1428 -0.6751 -0.4543
 5406SOL    HW127851   1.619   3.589   7.947  0.2243  2.8308 -1.7887
 5406SOL    HW227852   1.470   3.588   8.001 -0.4194  0.4823 -0.6257
 5407SOL     OW27853   3.392   2.319   9.217  0.3671  0.1603  0.0625
 5407SOL    HW127854   3.318   2.288   9.270  1.0688  0.6170  1.2898
 5407SOL    HW227855   3.439   2.237   9.202 -0.4713 -0.3435  0.1832
 5408SOL     OW27856   0.311   4.155   2.761  0.4478 -0.5886 -0.3264
 5408SOL    HW127857   0.382   4.133   2.821  0.0147 -0.3495  0.2822
 5408SOL    HW227858   0.254   4.078   2.766  3.3042 -2.7424 -1.2006
 5409SOL     OW27859   1.098   1.670   6.499 -0.2360 -0.5898  0.2181
 5409SOL    HW127860   1.140   1.644   6.581 -0.2539  1.3447  0.8371
 5409SOL    HW227861   1.166   1.632   6.444 -0.7935  0.2687 -1.0689
 5410SOL     OW27862   0.535   3.637   9.457 -0.2418 -0.0571  0.8127
 5410SOL    HW127863   0.528   3.730   9.434  3.4404  0.0901  0.3023
 5410SOL    HW227864   0.623   3.643   9.494 -0.7840 -2.2618  2.4420
 5411SOL     OW27865   0.851   0.653  14.507 -0.4508  0.1727 -0.6873
 5411SOL    HW127866   0.794   0.696  14.571 -1.4566 -1.6671 -0.3484
 5411SOL    HW227867   0.849   0.565  14.545 -3.3708  0.9354  0.9387
 5412SOL     OW27868   4.024   2.012  12.179  0.6427  0.4190 -0.3132
 5412SOL    HW127869   4.010   1.945  12.245  1.4800 -1.5411 -2.1169
 5412SOL    HW227870   3.933   2.035  12.158  0.6676 -0.8274 -1.8119
 5413SOL     OW27871   4.146   0.193   6.440 -0.5835  0.1360  0.0720
 5413SOL    HW127872   4.137   0.255   6.513  2.8069 -1.5954  1.9763
 5413SOL    HW227873   4.181   0.253   6.374 -3.0543 -0.4869 -1.7837
 5414SOL     OW27874   4.299   3.040  17.585  0.4370 -0.3644  0.1969
 5414SOL    HW127875   4.366   3.058  17.519  0.6223 -1.1129  0.1889
 5414SOL    HW227876   4.331   3.085  17.663 -2.5500  1.5591  0.3321
 5415SOL     OW27877   3.669   3.731   3.631  0.1259 -0.3059  0.0688
 5415SOL    HW127878   3.588   3.738   3.681 -0.1364 -2.6768 -0.0400
 5415SOL    HW227879   3.654   3.755   3.540  2.7657  1.6632  0.1497
 5416SOL     OW27880   4.034   3.560   0.386 -0.7638  0.0490 -0.5426
 5416SOL    HW127881   4.106   3.619   0.363  0.0692 -0.2621  1.2396
 5416SOL    HW227882   4.034   3.504   0.309  1.6071 -0.2993 -0.2860
 5417SOL     OW27883   2.459   2.364   3.290 -0.2447 -0.0718 -0.5330
 5417SOL    HW127884   2.492   2.317   3.214 -0.7874  1.0284 -1.4688
 5417SOL    HW227885   2.393   2.302   3.322  0.4621 -0.6933 -0.3056
 5418SOL     OW27886   2.304   2.160  11.163  0.2576 -0.4262 -0.0315
 5418SOL    HW127887   2.288   2.241  11.114  0.4557 -0.4406 -0.1161
 5418SOL    HW227888   2.227   2.162  11.220  1.3789 -0.2064  1.4803
 5419SOL     OW27889   0.177   4.183  15.372  0.3576 -0.3582  0.0603
 5419SOL    HW127890   0.185   4.279  15.371  0.1203 -0.3368  0.3783
 5419SOL    HW227891   0.104   4.170  15.431 -1.9518  0.5065 -2.5980
 5420SOL     OW27892   4.645   1.213   0.466  0.1064 -0.1265 -0.4362
 5420SOL    HW127893   4.722   1.215   0.523  2.1991  0.6392 -3.2803
 5420SOL    HW227894   4.681   1.244   0.383  1.0624 -2.9116 -1.0913
 5421SOL     OW27895   4.379   0.811   4.725 -0.2820 -0.1966 -0.8760
 5421SOL    HW127896   4.467   0.838   4.700  0.0563 -1.0657 -0.6205
 5421SOL    HW227897   4.391   0.772   4.812 -0.3292  0.1345 -0.7199
 5422SOL     OW27898   2.175   2.038  16.493  0.3413  0.2687 -0.0834
 5422SOL    HW127899   2.233   2.065  16.423 -0.5621  2.6008  0.0551
 5422SOL    HW227900   2.193   2.103  16.561 -2.1329  2.0661 -1.1278
 5423SOL     OW27901   4.668   3.104   6.611  0.2869 -0.4803 -0.0899
 5423SOL    HW127902   4.626   3.051   6.679  1.8711  0.0200  1.2975
 5423SOL    HW227903   4.612   3.072   6.541  0.1881  0.7618 -0.5762
 5424SOL     OW27904   1.690   3.573   6.785 -0.1159  0.0673  0.1567
 5424SOL    HW127905   1.676   3.514   6.710 -1.5733 -0.1426  0.5871
 5424SOL    HW227906   1.677   3.657   6.742  0.2931  0.0338 -0.0294
 5425SOL     OW27907   0.867   2.484   3.690 -0.2136 -0.4943  0.0839
 5425SOL    HW127908   0.804   2.498   3.760  2.6897 -2.3773  3.0425
 5425SOL    HW227909   0.949   2.486   3.738  0.1759  0.3915 -0.6275
 5426SOL     OW27910   2.528   0.616   8.190 -0.3174 -0.5258 -0.1810
 5426SOL    HW127911   2.453   0.624   8.249  1.0164  1.3325  1.2463
 5426SOL    HW227912   2.492   0.626   8.101  3.4091  0.0447 -1.6180
 5427SOL     OW27913   0.109   2.235   9.356  0.0793  0.2512 -0.2395
 5427SOL    HW127914   0.127   2.142   9.375  0.9014  0.8854  2.0517
 5427SOL    HW227915   0.127   2.286   9.435 -1.7639 -1.1686  1.0941
 5428SOL     OW27916   2.069   2.051   7.927 -0.4145  0.0608  0.3732
 5428SOL    HW127917   2.053   2.055   7.833 -1.1937 -0.0980  0.4957
 5428SOL    HW227918   1.982   2.028   7.960  0.1810 -0.4294  1.6074
 5429SOL     OW27919   4.260   3.370   4.174 -0.1124 -0.3908 -0.2929
 5429SOL    HW127920   4.292   3.296   4.227  2.6793  2.2076  1.6739
 5429SOL    HW227921   4.232   3.425   4.247 -1.1957  1.2309 -1.9435
 5430SOL     OW27922   1.797   0.897  10.647 -0.4560 -0.3627 -0.3194
 5430SOL    HW127923   1.772   0.932  10.562 -0.3691 -1.0303 -0.6164
 5430SOL    HW227924   1.879   0.861  10.612 -1.5212 -1.4683 -1.6804
 5431SOL     OW27925   3.731   4.697   7.458  0.5102  0.1111 -0.8666
 5431SOL    HW127926   3.795   4.647   7.509 -1.1772 -1.4490 -0.2698
 5431SOL    HW227927   3.783   0.020   7.404  0.3379  0.7950 -0.2832
 5432SOL     OW27928   3.650   3.289  14.783 -0.2018  0.3371 -0.1297
 5432SOL    HW127929   3.700   3.359  14.825  1.8225 -0.7267 -0.7474
 5432SOL    HW227930   3.577   3.337  14.743  0.4162 -1.0788 -3.0208
 5433SOL     OW27931   2.831   0.736   8.563  0.2568 -0.0954  0.0251
 5433SOL    HW127932   2.748   0.776   8.537  1.4929  0.6055 -2.7586
 5433SOL    HW227933   2.826   0.650   8.521 -1.6354 -0.7560  1.6227
 5434SOL     OW27934   0.333   0.243   8.411 -0.8008  0.4823 -0.3605
 5434SOL    HW127935   0.263   0.178   8.416  0.4208 -0.7639  0.6153
 5434SOL    HW227936   0.296   0.311   8.467 -2.4777  0.4027 -1.3970
 5435SOL     OW27937   2.129   1.758   9.419  0.2096 -0.6938 -0.3470
 5435SOL    HW127938   2.046   1.743   9.463  1.0682 -1.3873  1.0242
 5435SOL    HW227939   2.113   1.720   9.333 -2.2752  0.3024 -0.3004
 5436SOL     OW27940   0.857   3.595  13.717  0.5813  0.5683  0.2572
 5436SOL    HW127941   0.944   3.578  13.755  0.1895  0.1671  0.9844
 5436SOL    HW227942   0.880   3.606  13.625  0.5024  0.4222  0.2195
 5437SOL     OW27943   4.596   3.981   5.689 -0.4269  0.3376  0.6007
 5437SOL    HW127944   4.539   4.045   5.731  0.3912 -0.2097  2.5784
 5437SOL    HW227945   4.657   3.956   5.758  0.6468 -0.1663 -0.5296
 5438SOL     OW27946   1.677   4.656   3.460  0.8031  0.6495  0.2339
 5438SOL    HW127947   1.609   4.685   3.400  0.7831  0.1236  0.0090
 5438SOL    HW227948   1.708   0.009   3.476  0.3262  0.5355  1.8413
 5439SOL     OW27949   1.820   2.329  14.578  0.0258 -0.1987 -0.2800
 5439SOL    HW127950   1.876   2.296  14.508  1.1528  1.3639 -0.1345
 5439SOL    HW227951   1.759   2.256  14.577 -0.5360  0.2454  1.1303
 5440SOL     OW27952   2.126   2.200  15.153  0.3398 -0.0707 -0.3800
 5440SOL    HW127953   2.213   2.205  15.113 -0.2011 -1.0950 -1.6862
 5440SOL    HW227954   2.138   2.212  15.247 -1.4451 -0.5471 -0.0925
 5441SOL     OW27955   4.677   4.603   7.824  0.1978  0.1387  0.4564
 5441SOL    HW127956   4.670   4.603   7.729  1.1833 -3.4571  0.3620
 5441SOL    HW227957   4.708   4.513   7.835  0.1712 -0.0097 -0.6696
 5442SOL     OW27958   2.312   2.428  16.905 -0.1730 -0.4033 -0.0389
 5442SOL    HW127959   2.327   2.516  16.941 -0.9933 -0.2637 -0.0488
 5442SOL    HW227960   2.401   2.406  16.876 -0.0304 -1.7311  1.4236
 5443SOL     OW27961   3.353   1.932   9.161 -0.7428  0.4870  0.3017
 5443SOL    HW127962   3.381   1.920   9.070 -2.7781  0.1987 -0.3078
 5443SOL    HW227963   3.436   1.951   9.204  0.2376  1.4482 -1.9669
 5444SOL     OW27964   4.006   2.011  14.193 -0.3516  0.1031 -0.2287
 5444SOL    HW127965   4.023   1.919  14.173  0.6770  0.8234 -2.6397
 5444SOL    HW227966   4.077   2.040  14.250 -1.4517  0.0023  1.1895
 5445SOL     OW27967   2.056   3.425   6.868 -0.7276 -0.1439  0.8766
 5445SOL    HW127968   2.144   3.449   6.841 -0.4865  0.6054  2.3649
 5445SOL    HW227969   2.054   3.333   6.895  3.4702 -1.0566 -2.0140
 5446SOL     OW27970   0.390   2.611   9.382 -0.6161 -0.1017  0.4417
 5446SOL    HW127971   0.303   2.608   9.422 -0.6900 -0.1625  0.2757
 5446SOL    HW227972   0.407   2.526   9.342  0.6325  0.4180 -0.1253
 5447SOL     OW27973   2.569   2.141   9.150 -0.2261 -0.0185 -0.0746
 5447SOL    HW127974   2.516   2.081   9.201 -0.6699  0.5444  0.1232
 5447SOL    HW227975   2.630   2.083   9.104 -0.9936 -0.1372 -0.9489
 5448SOL     OW27976   0.468   2.259   7.390  0.4284 -0.3454 -0.1790
 5448SOL    HW127977   0.502   2.327   7.331  1.4410 -1.3357 -0.7235
 5448SOL    HW227978   0.389   2.300   7.426 -0.0717 -0.6112 -0.9680
 5449SOL     OW27979   2.047   3.081   8.270  0.3822 -0.2541  0.2535
 5449SOL    HW127980   2.128   3.120   8.239 -0.6218  0.8761 -0.9218
 5449SOL    HW227981   1.982   3.151   8.267  0.8289  0.1833  0.8000
 5450SOL     OW27982   3.661   0.144   1.287  0.0383  0.2482  0.0729
 5450SOL    HW127983   3.614   0.181   1.212  0.4582  3.4769  1.3955
 5450SOL    HW227984   3.603   0.068   1.297 -1.5726  1.3503 -0.9463
 5451SOL     OW27985   3.553   2.681  11.794 -0.1479  0.1083  0.1717
 5451SOL    HW127986   3.466   2.709  11.824 -0.5504  0.6860 -1.5344
 5451SOL    HW227987   3.602   2.692  11.875 -1.4994  0.3033  0.9717
 5452SOL     OW27988   4.505   1.216   2.289  0.0673 -0.0937 -0.0313
 5452SOL    HW127989   4.543   1.129   2.302  2.2654  0.8802  0.0698
 5452SOL    HW227990   4.506   1.256   2.376  0.3974  1.0095 -0.5326
 5453SOL     OW27991   1.323   0.599  15.896 -0.2324 -0.3616 -0.2362
 5453SOL    HW127992   1.306   0.692  15.879 -2.3624 -0.8161 -0.6425
 5453SOL    HW227993   1.247   0.553  15.860 -1.8303  2.0746 -0.0132
 5454SOL     OW27994   2.597   3.770   9.838 -0.0165  0.1966 -0.0854
 5454SOL    HW127995   2.592   3.853   9.789  0.0416 -0.4027 -1.0959
 5454SOL    HW227996   2.530   3.778   9.907  0.2351  0.1936  0.1580
 5455SOL     OW27997   2.904   0.211   7.497 -0.2033  0.7454  0.0811
 5455SOL    HW127998   2.902   0.229   7.590 -0.2623  1.6705 -0.1037
 5455SOL    HW227999   2.829   0.151   7.491  1.2018 -1.0769  0.8106
 5456SOL     OW28000   0.613   2.275  17.541 -0.1268 -0.4934 -0.0756
 5456SOL    HW128001   0.696   2.253  17.500 -0.3969 -0.4214 -0.6671
 5456SOL    HW228002   0.629   2.368  17.559  0.5895 -0.4670 -0.8606
 5457SOL     OW28003   2.157   4.129   6.253 -0.2780 -0.0887  0.3122
 5457SOL    HW128004   2.167   4.189   6.326  0.5631  0.7885 -0.5306
 5457SOL    HW228005   2.101   4.178   6.192  0.6909 -0.9586 -1.2672
 5458SOL     OW28006   3.808   1.579   4.232  0.7553  0.3805  0.1564
 5458SOL    HW128007   3.811   1.669   4.266 -0.1865  0.5824 -0.2756
 5458SOL    HW228008   3.827   1.598   4.141  0.8471  1.2686  0.3531
 5459SOL     OW28009   4.220   1.717  10.378  0.1820 -0.6770  0.3853
 5459SOL    HW128010   4.310   1.723  10.412 -0.3482 -0.2381  1.7164
 5459SOL    HW228011   4.215   1.797  10.326  2.1094 -1.8848 -1.6448
 5460SOL     OW28012   2.850   0.349   1.291 -0.6530 -0.1739  0.6645
 5460SOL    HW128013   2.915   0.304   1.236 -1.1437  1.0023 -0.8670
 5460SOL    HW228014   2.783   0.281   1.294  0.5589 -1.4672 -1.1014
 5461SOL     OW28015   0.041   1.519  10.063  0.1328 -0.5351  0.2275
 5461SOL    HW128016   0.126   1.562  10.061  0.6322 -1.5378 -0.0274
 5461SOL    HW228017   0.071   1.455   9.998  0.1814  0.6826 -0.9507
 5462SOL     OW28018   1.789   0.746   7.231  0.0346  0.1077 -0.8173
 5462SOL    HW128019   1.829   0.672   7.276  0.2612 -1.6271 -3.9021
 5462SOL    HW228020   1.843   0.742   7.152 -1.1111 -1.1916 -1.5357
 5463SOL     OW28021   2.841   2.002  16.600 -0.1148 -0.3346 -0.5057
 5463SOL    HW128022   2.790   1.941  16.653 -1.3856  0.3546 -0.9362
 5463SOL    HW228023   2.921   1.993  16.651 -0.0321 -0.9543 -0.7411
 5464SOL     OW28024   2.823   0.955   3.963 -0.2593 -0.2530 -0.5013
 5464SOL    HW128025   2.904   1.003   3.948  0.2811 -0.9729  0.1056
 5464SOL    HW228026   2.825   0.907   4.046  1.1873  2.1984  0.8854
 5465SOL     OW28027   0.765   0.563   3.300 -0.2719 -0.0135 -0.0152
 5465SOL    HW128028   0.765   0.629   3.370  1.4281  0.2190 -0.2152
 5465SOL    HW228029   0.749   0.614   3.221  0.3696 -0.3290 -0.3486
 5466SOL     OW28030   2.174   1.993   5.279  0.1663  0.2280 -0.2030
 5466SOL    HW128031   2.225   2.063   5.319 -2.6958  1.0643  1.9291
 5466SOL    HW228032   2.237   1.953   5.218 -0.7492 -1.2989 -0.1401
 5467SOL     OW28033   1.639   4.402   3.563  0.0554  0.1646 -0.1856
 5467SOL    HW128034   1.640   4.490   3.525 -0.1224 -0.3742 -1.4387
 5467SOL    HW228035   1.546   4.392   3.586 -0.0466 -1.0141 -1.0958
 5468SOL     OW28036   0.951   0.071  14.860 -0.3883 -0.0241 -0.0592
 5468SOL    HW128037   0.878   0.104  14.808 -2.1250 -2.0418  1.0658
 5468SOL    HW228038   0.963   0.146  14.918 -1.1500  0.1258 -0.1005
 5469SOL     OW28039   1.293   0.260   5.209 -0.1728  0.0792  0.0689
 5469SOL    HW128040   1.222   0.219   5.160 -0.7428 -0.1261  1.0591
 5469SOL    HW228041   1.290   0.346   5.168  0.8584  0.1250  0.0871
 5470SOL     OW28042   1.683   3.114  15.842 -0.2834  0.2832  0.7230
 5470SOL    HW128043   1.636   3.184  15.887 -1.9333 -0.8360  0.7174
 5470SOL    HW228044   1.637   3.041  15.881 -0.6839 -0.2549 -0.7640
 5471SOL     OW28045   4.661   1.142   2.020 -0.0426  0.4943  0.0748
 5471SOL    HW128046   4.717   1.220   2.014 -0.5493  0.7946 -0.8170
 5471SOL    HW228047   4.622   1.150   2.107 -1.7626 -0.6839 -0.5960
 5472SOL     OW28048   4.083   3.566   7.872 -0.0776  0.2701  0.3977
 5472SOL    HW128049   4.048   3.501   7.810 -1.6830  0.5372  1.0076
 5472SOL    HW228050   4.015   3.572   7.939  3.5268 -1.3768  4.1951
 5473SOL     OW28051   4.096   0.732   7.464 -0.2401 -0.4030  0.1189
 5473SOL    HW128052   4.133   0.775   7.387 -0.3231 -0.8363 -0.1626
 5473SOL    HW228053   4.058   0.650   7.431 -1.8881  0.1451  0.6595
 5474SOL     OW28054   1.667   2.332   5.065  0.0970  0.4192  0.7369
 5474SOL    HW128055   1.699   2.257   5.115 -2.9529  0.0209  2.0945
 5474SOL    HW228056   1.599   2.361   5.126  0.2871  1.3206  0.5096
 5475SOL     OW28057   2.809   4.484  12.781 -0.3961 -0.1432  0.3290
 5475SOL    HW128058   2.724   4.511  12.745 -0.5266  3.7761  3.5969
 5475SOL    HW228059   2.858   4.516  12.706 -1.0108  2.4233  1.0272
 5476SOL     OW28060   1.563   1.324   3.365  0.0717 -0.0041  0.1861
 5476SOL    HW128061   1.509   1.389   3.321 -1.4966 -2.1834 -1.1061
 5476SOL    HW228062   1.544   1.336   3.458  1.0478 -2.1596  0.6648
 5477SOL     OW28063   4.571   3.047   9.926 -0.2749 -0.2785 -0.0922
 5477SOL    HW128064   4.500   3.107   9.902  0.7267  1.7039  1.8407
 5477SOL    HW228065   4.625   3.100   9.985 -2.0641 -0.3699  1.6437
 5478SOL     OW28066   0.753   2.283   8.209  0.0800 -0.3125 -0.6485
 5478SOL    HW128067   0.662   2.254   8.206 -0.0289 -0.1273  0.8377
 5478SOL    HW228068   0.748   2.362   8.156  0.9560  0.0443 -0.1930
 5479SOL     OW28069   4.463   1.559  13.853 -0.1199  0.2514 -0.2556
 5479SOL    HW128070   4.555   1.577  13.873 -0.2165 -0.1752  0.5650
 5479SOL    HW228071   4.414   1.630  13.894 -1.5742 -0.8719 -0.0366
 5480SOL     OW28072   3.949   1.889   5.164 -0.1083  0.3073 -0.5718
 5480SOL    HW128073   3.985   1.974   5.138  0.2557  0.2223 -0.3423
 5480SOL    HW228074   3.855   1.908   5.162 -0.4469 -1.1620  1.0938
 5481SOL     OW28075   1.662   3.778   1.924  0.8730  0.4276 -1.4261
 5481SOL    HW128076   1.713   3.810   1.850  0.3136 -0.3337 -2.1487
 5481SOL    HW228077   1.731   3.755   1.986 -0.4072  0.9815  0.2040
 5482SOL     OW28078   2.104   0.178  13.119 -0.6430 -0.1941 -0.6141
 5482SOL    HW128079   2.151   0.097  13.097 -1.2743 -0.3125 -1.5094
 5482SOL    HW228080   2.179   0.237  13.129  0.8474 -1.4734 -4.3954
 5483SOL     OW28081   4.695   2.336   3.881 -0.5169  0.4115  0.3299
 5483SOL    HW128082   0.030   2.393   3.854  1.1167 -1.2783  1.0166
 5483SOL    HW228083   4.704   2.271   3.811 -1.7072 -0.0058  0.5546
 5484SOL     OW28084   2.222   4.428   2.628 -0.1184 -0.5361 -0.1154
 5484SOL    HW128085   2.222   4.357   2.564  0.1664 -0.2773 -0.4033
 5484SOL    HW228086   2.188   4.494   2.569  2.0808 -0.5540 -1.4196
 5485SOL     OW28087   2.289   1.591   2.518  0.3304  0.1081  0.2725
 5485SOL    HW128088   2.269   1.557   2.605  0.4902  1.6978  0.9349
 5485SOL    HW228089   2.332   1.673   2.542  0.1368  0.2297  0.2025
 5486SOL     OW28090   0.612   1.589   4.471  0.3467 -0.1296 -0.0974
 5486SOL    HW128091   0.614   1.513   4.531  1.1660  1.3200  1.7109
 5486SOL    HW228092   0.592   1.549   4.386 -0.7474 -0.6839  0.4097
 5487SOL     OW28093   2.641   0.593   0.110  0.0326 -0.2614 -0.1942
 5487SOL    HW128094   2.613   0.520   0.055  1.6725 -1.6697  0.8519
 5487SOL    HW228095   2.559   0.608   0.158 -1.1031 -2.8843 -1.3336
 5488SOL     OW28096   2.178   2.843   0.333 -0.3188 -0.1701 -0.4730
 5488SOL    HW128097   2.245   2.900   0.296 -2.1302  3.0208  1.1538
 5488SOL    HW228098   2.221   2.759   0.317  0.1871  0.3828 -1.9865
 5489SOL     OW28099   2.706   2.292   7.492  0.0815 -0.1364  0.4876
 5489SOL    HW128100   2.632   2.275   7.551  0.9286 -1.3140  1.2232
 5489SOL    HW228101   2.658   2.319   7.414  2.8540  0.4126 -1.0486
 5490SOL     OW28102   3.666   2.663   2.384 -0.8874  0.3913  0.0904
 5490SOL    HW128103   3.614   2.625   2.313 -0.7051 -1.7318  1.1109
 5490SOL    HW228104   3.723   2.591   2.410 -0.5310  1.0433  1.0973
 5491SOL     OW28105   2.677   0.432  13.134  0.5108  0.0889  0.0037
 5491SOL    HW128106   2.770   0.442  13.151  0.5014 -1.4555  0.8992
 5491SOL    HW228107   2.672   0.337  13.122  0.0150  0.0622  0.4397
 5492SOL     OW28108   0.732   3.582   6.204  0.4733  0.0054 -0.2647
 5492SOL    HW128109   0.816   3.540   6.220  0.7994  0.6849 -0.1549
 5492SOL    HW228110   0.760   3.673   6.192  1.5273 -0.1162  1.3619
 5493SOL     OW28111   4.385   1.972   4.118  0.1560  0.2403 -0.8464
 5493SOL    HW128112   4.480   1.971   4.110  0.1796  1.5030 -0.7124
 5493SOL    HW228113   4.356   1.881   4.117  0.2765  0.1972 -0.3381
 5494SOL     OW28114   0.693   0.662  15.861  0.3751 -0.0192 -0.0450
 5494SOL    HW128115   0.635   0.712  15.917 -0.4585 -0.4217 -0.5502
 5494SOL    HW228116   0.759   0.727  15.836  0.3046  0.3363  0.6850
 5495SOL     OW28117   3.052   4.164   6.084  0.3042 -0.0307  0.2973
 5495SOL    HW128118   3.035   4.255   6.108  0.0061 -0.3604  1.3074
 5495SOL    HW228119   3.133   4.138   6.127  3.0731  2.5986 -3.2838
 5496SOL     OW28120   2.690   2.268   8.449 -0.1293 -0.2081  0.0487
 5496SOL    HW128121   2.649   2.290   8.532 -0.8427  0.1751 -0.4045
 5496SOL    HW228122   2.698   2.173   8.456  0.8079  0.0152  1.9096
 5497SOL     OW28123   2.525   3.262   5.618 -0.9005  0.4426  0.0795
 5497SOL    HW128124   2.502   3.171   5.602  1.3060 -0.1498  0.2020
 5497SOL    HW228125   2.604   3.253   5.672 -2.4334  0.2481  2.3207
 5498SOL     OW28126   0.884   2.717   3.500  0.2974 -0.1002 -0.1942
 5498SOL    HW128127   0.902   2.649   3.565 -1.7947  0.0393  0.5219
 5498SOL    HW228128   0.846   2.781   3.561  2.7209  1.5953 -0.4658
 5499SOL     OW28129   2.491   1.923   3.087 -0.5029 -0.6735  0.1969
 5499SOL    HW128130   2.430   1.875   3.143 -0.5863 -1.6798 -0.7500
 5499SOL    HW228131   2.427   1.978   3.042  1.7794 -1.1707 -3.6232
 5500SOL     OW28132   0.469   1.337  10.879 -0.0958  0.4821  0.2000
 5500SOL    HW128133   0.483   1.364  10.970 -2.4971  2.2376  0.0401
 5500SOL    HW228134   0.515   1.410  10.838  0.0838  1.0956  1.4800
 5501SOL     OW28135   2.260   2.240   5.941  0.0192  0.1328  0.0981
 5501SOL    HW128136   2.236   2.304   5.874 -0.6186  1.5736  1.7023
 5501SOL    HW228137   2.306   2.300   6.000  1.4867  0.5518 -1.4865
 5502SOL     OW28138   3.659   0.620   4.849  0.2751 -0.4365 -0.2410
 5502SOL    HW128139   3.683   0.585   4.935  1.0971 -1.8958 -1.0677
 5502SOL    HW228140   3.566   0.631   4.866  0.4824 -0.3389  0.8669
 5503SOL     OW28141   0.653   3.869   1.822 -0.2004 -0.1059  0.2746
 5503SOL    HW128142   0.577   3.834   1.868 -1.1791  2.2203  0.4494
 5503SOL    HW228143   0.729   3.820   1.852  0.5946 -0.1660 -1.8668
 5504SOL     OW28144   4.445   4.501   6.474  0.3400 -0.3132 -0.1921
 5504SOL    HW128145   4.429   4.594   6.461  0.2450 -0.4940 -1.4722
 5504SOL    HW228146   4.363   4.472   6.515  2.3857 -2.4293  2.4070
 5505SOL     OW28147   2.937   0.355   4.553  0.1488  0.1655 -0.7249
 5505SOL    HW128148   2.960   0.359   4.460  2.0474 -0.4344 -0.2750
 5505SOL    HW228149   3.018   0.332   4.597 -0.5062  1.5994  1.2383
 5506SOL     OW28150   0.053   2.012   6.017  0.1611  0.3431  0.0066
 5506SOL    HW128151   4.697   2.029   6.032 -0.1577 -2.3141  1.0261
 5506SOL    HW228152   0.068   1.924   6.052 -0.5640  0.0835 -0.3393
 5507SOL     OW28153   2.079   0.523   8.798  0.5184  0.2685 -0.5525
 5507SOL    HW128154   2.008   0.471   8.758  1.3136 -0.7939 -0.5772
 5507SOL    HW228155   2.143   0.459   8.828  0.1975  0.8308  1.3318
 5508SOL     OW28156   1.983   3.462   6.515 -0.3647  0.4799  0.2258
 5508SOL    HW128157   1.980   3.524   6.588 -0.0897  0.5310  0.1937
 5508SOL    HW228158   1.926   3.493   6.445  0.0601  0.4415 -0.1344
 5509SOL     OW28159   2.972   1.385  12.546 -0.4280  0.1647 -0.0585
 5509SOL    HW128160   2.981   1.349  12.634 -0.2301  1.7905  0.5858
 5509SOL    HW228161   2.974   1.478  12.567  1.1237 -0.5557  2.8248
 5510SOL     OW28162   0.699   2.833   1.734 -0.1560  0.0638 -1.0544
 5510SOL    HW128163   0.672   2.873   1.652  0.1600  2.7677  0.1843
 5510SOL    HW228164   0.619   2.792   1.768  0.1398 -0.5730 -1.1322
 5511SOL     OW28165   1.212   2.320   6.616  0.0283  0.1316  0.2926
 5511SOL    HW128166   1.205   2.296   6.524  0.3787  0.9915  0.0413
 5511SOL    HW228167   1.286   2.261   6.632  1.1466  1.9084  1.6592
 5512SOL     OW28168   2.035   2.711   6.982  0.5447 -0.1066 -0.3168
 5512SOL    HW128169   1.983   2.790   6.964  0.3687  0.0818  1.0056
 5512SOL    HW228170   2.003   2.652   6.914  2.3919  0.6586 -1.8417
 5513SOL     OW28171   4.500   3.215   3.630  0.4931  0.6177 -0.3733
 5513SOL    HW128172   4.424   3.213   3.571 -0.0121 -1.2211  0.3597
 5513SOL    HW228173   4.485   3.300   3.672 -2.0120  1.2547 -2.5636
 5514SOL     OW28174   1.269   1.341  16.355  0.9590  0.4402 -0.4934
 5514SOL    HW128175   1.300   1.277  16.291 -1.5320  0.8259 -2.0404
 5514SOL    HW228176   1.261   1.421  16.303 -3.2141 -0.0232 -0.5358
 5515SOL     OW28177   0.772   4.293  12.456  0.0249  0.0397 -0.1883
 5515SOL    HW128178   0.868   4.300  12.455 -0.0471  1.0245 -0.1600
 5515SOL    HW228179   0.758   4.199  12.464 -2.6428  0.6287  1.8971
 5516SOL     OW28180   1.914   3.883   8.219 -0.8077 -0.4936 -0.1912
 5516SOL    HW128181   1.963   3.833   8.153 -1.0194 -0.4023 -0.4176
 5516SOL    HW228182   1.824   3.855   8.206 -0.2757 -2.1788 -0.2778
 5517SOL     OW28183   0.661   1.090   2.584 -0.0381  0.0026 -0.0454
 5517SOL    HW128184   0.702   1.064   2.666  3.4337 -0.2897 -1.8391
 5517SOL    HW228185   0.619   1.010   2.555 -0.3128  0.1081  0.0688
 5518SOL     OW28186   4.415   3.958   3.520  0.7465  0.0058 -0.1050
 5518SOL    HW128187   4.437   3.868   3.542  1.3015 -0.2285 -1.6052
 5518SOL    HW228188   4.339   3.980   3.574  1.6810  1.8898  0.4569
 5519SOL     OW28189   2.340   3.880  14.548  0.4039 -0.2382  0.3992
 5519SOL    HW128190   2.389   3.938  14.489  0.0076 -0.6746 -0.3642
 5519SOL    HW228191   2.392   3.801  14.542  0.4378 -0.0843 -1.5975
 5520SOL     OW28192   1.978   1.252   9.611  0.1283 -0.4713 -0.1481
 5520SOL    HW128193   1.932   1.183   9.565  1.9168 -1.2205 -0.8180
 5520SOL    HW228194   2.034   1.201   9.670  0.5503 -1.3917 -1.3390
 5521SOL     OW28195   0.074   2.431  15.432  0.5718 -0.4112 -0.1741
 5521SOL    HW128196   0.157   2.411  15.389  0.1578  0.3111 -1.2952
 5521SOL    HW228197   0.039   2.343  15.417 -1.1513  0.4341 -1.1708
 5522SOL     OW28198   2.273   0.520   2.758 -0.1601 -0.0809  0.3244
 5522SOL    HW128199   2.331   0.445   2.750  1.9480  1.5676  0.3367
 5522SOL    HW228200   2.209   0.491   2.693 -2.6109 -0.0783  2.7263
 5523SOL     OW28201   0.436   0.022   5.109 -0.0828  0.5574  0.0258
 5523SOL    HW128202   0.391   4.730   5.189  1.8774 -1.4024  0.4065
 5523SOL    HW228203   0.415   4.692   5.044  0.8814  1.0373 -0.7708
 5524SOL     OW28204   2.794   1.164  11.840 -1.0560 -0.4082 -0.0437
 5524SOL    HW128205   2.875   1.126  11.875  0.6160  0.8643 -2.5657
 5524SOL    HW228206   2.832   1.240  11.797  0.3839 -0.2921  1.4203
 5525SOL     OW28207   0.796   4.659  14.219  0.3218  0.3344 -0.2332
 5525SOL    HW128208   0.703   4.651  14.240  0.0964 -2.5528 -2.2453
 5525SOL    HW228209   0.778   4.726  14.152 -0.1759 -0.1587 -0.5899
 5526SOL     OW28210   4.166   1.729  15.611  0.3292  0.5596  0.1628
 5526SOL    HW128211   4.232   1.741  15.543 -0.7700 -0.0530 -1.0105
 5526SOL    HW228212   4.129   1.643  15.592  1.3063  0.1435  0.1491
 5527SOL     OW28213   0.344   0.972   1.913 -0.0599  0.3493 -0.2373
 5527SOL    HW128214   0.311   0.954   2.001 -0.2057  0.1895 -0.3257
 5527SOL    HW228215   0.291   1.042   1.875  0.2378  1.2407  1.0038
 5528SOL     OW28216   1.488   3.565   7.178  0.1883  0.2212  0.5986
 5528SOL    HW128217   1.570   3.614   7.179  1.5003 -1.9288 -1.5113
 5528SOL    HW228218   1.493   3.509   7.255 -2.2908  0.9724  1.3446
 5529SOL     OW28219   4.062   3.328   3.982 -0.2439 -0.4479  0.5369
 5529SOL    HW128220   3.993   3.388   4.008 -0.0325 -0.0490  0.1939
 5529SOL    HW228221   4.129   3.357   4.044  0.3697 -1.4477  0.3393
 5530SOL     OW28222   0.334   0.417   6.794  0.3980  0.5682  0.1972
 5530SOL    HW128223   0.403   0.434   6.729  0.9290  2.3314  1.1963
 5530SOL    HW228224   0.370   0.391   6.879  0.0657  0.9905  0.4675
 5531SOL     OW28225   4.397   2.878   8.142 -0.3301 -0.5958  0.2838
 5531SOL    HW128226   4.404   2.965   8.103  0.9060 -0.6608  0.3766
 5531SOL    HW228227   4.307   2.849   8.128 -1.5186  1.8513  2.9358
 5532SOL     OW28228   2.844   3.245   7.657 -0.0267  0.1903  0.2991
 5532SOL    HW128229   2.773   3.303   7.686  0.8802  1.7662 -0.6060
 5532SOL    HW228230   2.856   3.199   7.740 -0.8414  0.3965  0.5371
 5533SOL     OW28231   4.050   4.553   7.846  0.5850  0.6151  0.4580
 5533SOL    HW128232   4.135   4.596   7.858  0.7719  0.0821  1.0424
 5533SOL    HW228233   4.057   4.469   7.891 -2.3071  0.7265  1.1231
 5534SOL     OW28234   2.092   4.677  15.371  0.0119  0.1431  0.1872
 5534SOL    HW128235   2.078   0.021  15.321  1.0224 -0.7000 -1.4516
 5534SOL    HW228236   1.999   4.657  15.385 -0.1638  0.6097 -0.3016
 5535SOL     OW28237   0.569   0.509   4.118 -0.1786  0.3215 -0.7619
 5535SOL    HW128238   0.586   0.516   4.212  0.9842  1.6364 -1.0702
 5535SOL    HW228239   0.544   0.417   4.108 -1.2793  0.1896  3.2832
 5536SOL     OW28240   3.939   0.733  10.629 -0.3107 -0.0124 -0.2024
 5536SOL    HW128241   4.020   0.749  10.580  1.5469 -2.7270  1.9851
 5536SOL    HW228242   3.910   0.647  10.598  1.5822 -0.4792 -0.6677
 5537SOL     OW28243   2.598   3.043   1.419  0.5026  0.2182  0.1822
 5537SOL    HW128244   2.522   3.094   1.392  0.2993 -0.1290  0.0900
 5537SOL    HW228245   2.631   2.987   1.349  1.8826  2.6331 -1.1046
 5538SOL     OW28246   0.242   3.118   7.378 -0.3758 -0.5755  0.2963
 5538SOL    HW128247   0.313   3.079   7.326  0.2022  0.5864  0.1992
 5538SOL    HW228248   0.241   3.201   7.330 -0.6927  1.3224  3.5584
 5539SOL     OW28249   0.420   2.429   9.181 -0.1481  0.2862 -0.2480
 5539SOL    HW128250   0.510   2.461   9.173 -0.4880  0.9576 -1.3624
 5539SOL    HW228251   0.393   2.431   9.090  2.5154 -2.4160 -1.0860
 5540SOL     OW28252   4.536   1.449   6.937  0.0959 -0.0034 -0.8234
 5540SOL    HW128253   4.614   1.444   6.992  0.1048  0.0890 -0.8285
 5540SOL    HW228254   4.479   1.393   6.990 -0.4512  1.4879  0.1558
 5541SOL     OW28255   2.185   0.890   7.874 -0.5971 -0.7984 -0.4359
 5541SOL    HW128256   2.096   0.925   7.866 -0.9459 -1.0434  2.4257
 5541SOL    HW228257   2.211   0.913   7.785 -1.7945  1.6818 -0.1529
 5542SOL     OW28258   4.682   4.490   2.742  0.3185  0.1735  0.2141
 5542SOL    HW128259   4.705   4.487   2.649 -1.8289  0.6876 -0.3263
 5542SOL    HW228260   0.030   4.465   2.779  0.9594 -1.1181 -2.1321
 5543SOL     OW28261   2.401   2.773   6.326 -0.4484  0.1734  0.4342
 5543SOL    HW128262   2.391   2.798   6.418 -2.1157 -0.4368  0.4224
 5543SOL    HW228263   2.345   2.697   6.307  0.0612  0.0776 -0.6501
 5544SOL     OW28264   3.831   3.196   9.886  0.0760 -0.3702  0.4769
 5544SOL    HW128265   3.876   3.266   9.933  1.3665 -1.4912  0.8956
 5544SOL    HW228266   3.878   3.191   9.803 -2.2729 -0.9816 -0.8196
 5545SOL     OW28267   3.578   4.123  16.669  0.2687  0.1486  0.2681
 5545SOL    HW128268   3.635   4.121  16.746 -0.0813  3.1658  0.6034
 5545SOL    HW228269   3.495   4.084  16.696  1.0221 -1.1629  0.6681
 5546SOL     OW28270   3.412   2.355   6.986 -0.2425 -0.2276 -0.0041
 5546SOL    HW128271   3.375   2.435   7.022  0.3519  0.0189  0.0507
 5546SOL    HW228272   3.340   2.292   6.991 -0.7138  0.3978  0.9459
 5547SOL     OW28273   1.405   3.904   5.839 -0.1186  0.0661  0.2649
 5547SOL    HW128274   1.373   3.847   5.768  0.0313  0.9533 -0.5087
 5547SOL    HW228275   1.498   3.883   5.835 -0.6548 -2.4572  0.8310
 5548SOL     OW28276   4.683   0.546   5.430 -0.5115 -0.3297 -0.4475
 5548SOL    HW128277   4.623   0.472   5.437  0.7371 -1.3229 -0.1692
 5548SOL    HW228278   0.009   0.522   5.362 -0.0173 -1.8992  0.5472
 5549SOL     OW28279   3.077   2.670  11.973  0.5115  0.2573 -0.7402
 5549SOL    HW128280   3.142   2.602  11.958 -0.8630 -0.9119 -1.4067
 5549SOL    HW228281   3.078   2.717  11.889 -1.2632 -2.0864 -2.0662
 5550SOL     OW28282   3.653   3.019   6.092  0.5988 -0.0740  0.2103
 5550SOL    HW128283   3.736   3.040   6.050  0.8666 -1.9200 -0.1742
 5550SOL    HW228284   3.649   2.926   6.072  2.4266 -0.0335 -0.3348
 5551SOL     OW28285   1.459   2.993   8.135 -0.1815  0.6284  0.1582
 5551SOL    HW128286   1.392   3.000   8.204 -1.3039 -1.1568 -0.7430
 5551SOL    HW228287   1.537   3.021   8.182  0.8547 -2.8697  0.5115
 5552SOL     OW28288   4.182   0.715   7.926 -0.1501  0.4242 -0.3357
 5552SOL    HW128289   4.124   0.666   7.867  0.1710  0.9100 -1.0577
 5552SOL    HW228290   4.247   0.645   7.940 -0.5429  0.3109  0.9100
 5553SOL     OW28291   0.153   4.458   4.753 -0.4785 -0.3680  0.2011
 5553SOL    HW128292   0.142   4.475   4.659  0.3354 -0.7191  0.0436
 5553SOL    HW228293   0.215   4.386   4.747 -1.0731 -0.9531  1.0994
 5554SOL     OW28294   1.452   2.164   4.407  0.2257  0.3762  0.0270
 5554SOL    HW128295   1.399   2.085   4.414  0.6175  0.0549 -0.6462
 5554SOL    HW228296   1.495   2.184   4.490  0.0864  1.5008 -0.1644
 5555SOL     OW28297   0.998   4.172   1.720 -0.0727  0.3644  0.0733
 5555SOL    HW128298   0.999   4.113   1.795  0.3319 -0.1732 -0.3473
 5555SOL    HW228299   0.957   4.127   1.646 -0.8607 -0.1763  0.8449
 5556SOL     OW28300   2.976   4.145  10.631  0.0104  0.3730 -0.3164
 5556SOL    HW128301   2.930   4.214  10.680 -1.3868 -0.9493  0.2307
 5556SOL    HW228302   2.977   4.087  10.708  0.9965 -0.8867 -1.2913
 5557SOL     OW28303   2.213   0.385   6.441  0.0643 -0.5902 -0.2429
 5557SOL    HW128304   2.171   0.386   6.355 -0.4211  0.0977  0.0002
 5557SOL    HW228305   2.301   0.373   6.405 -0.0863  2.5802 -1.7479
 5558SOL     OW28306   2.467   1.985  16.888 -0.2971 -0.8044 -0.0380
 5558SOL    HW128307   2.424   2.057  16.933 -1.4278 -1.0311 -0.7580
 5558SOL    HW228308   2.411   1.909  16.901 -1.4838  0.4444  2.0706
 5559SOL     OW28309   2.770   0.431   9.463  0.0395 -0.2857  0.0753
 5559SOL    HW128310   2.823   0.492   9.412 -0.0146 -1.0525 -0.9015
 5559SOL    HW228311   2.812   0.350   9.435  0.6043 -0.1743  0.6097
 5560SOL     OW28312   1.766   3.521   6.304  0.1146 -0.2340 -0.0989
 5560SOL    HW128313   1.823   3.591   6.272 -2.3028  3.0467  2.6587
 5560SOL    HW228314   1.681   3.565   6.308  0.6887  0.7120  1.7763
 5561SOL     OW28315   0.146   1.203   8.223  0.2856 -0.2777 -0.0572
 5561SOL    HW128316   0.132   1.268   8.292 -2.0299  1.4090 -2.1197
 5561SOL    HW228317   0.124   1.251   8.143 -2.1041 -0.6557  0.3907
 5562SOL     OW28318   2.199   4.332  10.853 -0.3853  0.2187  0.1019
 5562SOL    HW128319   2.118   4.337  10.802 -1.4026 -0.4498  1.6362
 5562SOL    HW228320   2.267   4.362  10.794 -1.4353  1.9239 -0.2632
 5563SOL     OW28321   0.698   0.231   8.589 -0.0834 -0.2055 -0.1177
 5563SOL    HW128322   0.789   0.258   8.578  0.1754  0.1633  2.9053
 5563SOL    HW228323   0.665   0.294   8.653  2.4917  1.0594 -0.0214
 5564SOL     OW28324   3.232   3.804   8.178  0.1820  0.7174 -0.0928
 5564SOL    HW128325   3.265   3.719   8.151 -1.5010  0.5242 -1.6035
 5564SOL    HW228326   3.300   3.834   8.238 -0.3214  1.5137  0.0824
 5565SOL     OW28327   0.125   2.127   0.697  0.1824  0.7544  0.0652
 5565SOL    HW128328   0.081   2.042   0.705  0.2318  0.7378  0.1705
 5565SOL    HW228329   0.061   2.178   0.647  0.6799  2.0588  0.7456
 5566SOL     OW28330   2.998   2.962   4.819 -0.3004  0.7273  0.2386
 5566SOL    HW128331   2.903   2.966   4.818 -0.3270  0.1066 -0.0090
 5566SOL    HW228332   3.015   2.954   4.913 -1.6532  1.1651  0.5191
 5567SOL     OW28333   1.069   1.163   5.764 -0.1378 -0.2948  0.5160
 5567SOL    HW128334   1.129   1.114   5.708 -0.4061 -0.2318  0.1789
 5567SOL    HW228335   0.988   1.155   5.714  0.3082  0.7365 -0.3609
 5568SOL     OW28336   2.283   1.040   3.865 -0.0758 -0.0638  0.3112
 5568SOL    HW128337   2.369   1.081   3.872 -0.6735  1.2719 -0.1607
 5568SOL    HW228338   2.308   0.953   3.896  0.4522 -0.0310 -0.0168
 5569SOL     OW28339   3.272   2.572   2.255 -0.3348 -0.2943  0.7754
 5569SOL    HW128340   3.340   2.639   2.264  2.0473 -2.6402  0.4288
 5569SOL    HW228341   3.197   2.624   2.226  0.4571 -0.3566 -1.3850
 5570SOL     OW28342   1.348   0.207  14.420 -0.4806 -0.1483  0.3234
 5570SOL    HW128343   1.311   0.173  14.502 -0.0631 -0.8759  0.2092
 5570SOL    HW228344   1.274   0.182  14.363  0.5304  1.2967 -1.6024
 5571SOL     OW28345   4.556   2.746   2.575  1.2224  0.0838  0.2357
 5571SOL    HW128346   4.566   2.657   2.541 -2.7068 -0.1836 -0.2255
 5571SOL    HW228347   4.645   2.773   2.594  1.6755 -1.3021  0.0822
 5572SOL     OW28348   4.341   2.865   1.376 -0.2362  0.0605  0.0462
 5572SOL    HW128349   4.260   2.820   1.402  0.5037 -1.3147 -0.0360
 5572SOL    HW228350   4.370   2.795   1.318  0.9727 -0.8268  1.6994
 5573SOL     OW28351   0.143   2.816   9.138 -0.0599 -0.2983 -0.0624
 5573SOL    HW128352   0.221   2.870   9.149  0.5075 -0.7095 -1.9157
 5573SOL    HW228353   0.097   2.823   9.221 -0.1836 -0.2107 -0.1385
 5574SOL     OW28354   0.457   1.843   5.641  0.5797 -0.2774 -0.0378
 5574SOL    HW128355   0.362   1.833   5.644  0.6037 -0.3379  0.4618
 5574SOL    HW228356   0.468   1.937   5.623 -2.7078  0.4812  2.0220
 5575SOL     OW28357   0.778   0.490   1.030 -0.0662 -0.3058  0.4362
 5575SOL    HW128358   0.744   0.453   1.111 -0.1875 -0.4572  0.3133
 5575SOL    HW228359   0.754   0.423   0.967  0.9878 -0.2416 -0.0284
 5576SOL     OW28360   2.294   1.069   1.108 -0.1146  0.5428 -0.2259
 5576SOL    HW128361   2.245   1.075   1.026 -1.3371  1.4218  0.5883
 5576SOL    HW228362   2.251   1.126   1.171 -0.5198 -0.0398  0.0212
 5577SOL     OW28363   3.961   3.402   9.262  0.6541  0.3127  0.1300
 5577SOL    HW128364   3.944   3.493   9.236 -0.7113  0.3306  1.0735
 5577SOL    HW228365   4.034   3.407   9.324 -0.1176 -1.9742  1.2408
 5578SOL     OW28366   1.605   4.062   8.121 -0.4093 -0.2315 -0.3828
 5578SOL    HW128367   1.634   4.065   8.030 -0.2999  1.9370 -0.2730
 5578SOL    HW228368   1.510   4.061   8.110 -0.8135  0.1764  3.1096
 5579SOL     OW28369   3.438   1.643   8.671  0.4429  0.0410 -0.1878
 5579SOL    HW128370   3.463   1.560   8.631 -1.3317 -0.8899  0.6545
 5579SOL    HW228371   3.471   1.704   8.606 -0.8375 -0.3977 -1.2232
 5580SOL     OW28372   3.326   2.041   3.183  0.2416 -0.2837 -0.7223
 5580SOL    HW128373   3.311   2.132   3.209 -0.4756 -0.3920 -0.7476
 5580SOL    HW228374   3.359   1.996   3.260  1.3480 -0.9094 -1.5570
 5581SOL     OW28375   1.201   0.081   8.454  0.0683  0.2432  0.5707
 5581SOL    HW128376   1.268   0.039   8.400  0.1760  1.1950 -0.0220
 5581SOL    HW228377   1.183   0.012   8.518  1.4007  1.3038  2.0819
 5582SOL     OW28378   1.383   0.066   1.275  0.2372 -0.2688  0.0653
 5582SOL    HW128379   1.363   0.111   1.193 -1.2006 -1.6297 -0.3355
 5582SOL    HW228380   1.306   0.085   1.328  0.3546  2.9069 -0.9210
 5583SOL     OW28381   1.528   4.401   8.740 -0.2084 -0.2583  0.2858
 5583SOL    HW128382   1.579   4.373   8.816 -1.4642 -0.6475  0.9914
 5583SOL    HW228383   1.591   4.420   8.670  2.0040 -0.6181  2.1846
 5584SOL     OW28384   0.146   4.402   4.450 -0.2997 -0.5711 -0.5231
 5584SOL    HW128385   0.111   4.364   4.370  0.2490 -2.1548 -0.0001
 5584SOL    HW228386   0.179   4.328   4.500 -1.2283 -0.1470  0.7189
 5585SOL     OW28387   4.667   3.639   6.417 -0.3331  0.0471  0.1676
 5585SOL    HW128388   4.726   3.708   6.389  0.8747 -1.1314 -0.2222
 5585SOL    HW228389   4.716   3.599   6.489 -0.6779 -0.9782 -0.1605
 5586SOL     OW28390   4.695   2.465   0.097 -0.0842  0.4593 -0.0639
 5586SOL    HW128391   0.050   2.463   0.126  0.1123 -0.2845 -0.7282
 5586SOL    HW228392   4.694   2.450   0.003  0.0948 -1.4781  0.2545
 5587SOL     OW28393   4.062   2.858   7.685  0.4260 -0.0964  0.1049
 5587SOL    HW128394   4.107   2.870   7.602  0.4611 -1.5682 -0.0837
 5587SOL    HW228395   4.020   2.772   7.680 -2.1548  1.2202 -0.8120
 5588SOL     OW28396   0.859   0.795   1.461  0.3973 -0.5656  0.1017
 5588SOL    HW128397   0.938   0.764   1.506  0.9224 -1.8948 -1.7341
 5588SOL    HW228398   0.879   0.887   1.449  1.9354 -1.0225 -0.9092
 5589SOL     OW28399   3.408   1.256  15.619  0.2726  0.0128 -0.6755
 5589SOL    HW128400   3.371   1.168  15.629  2.4111 -0.9188 -0.9170
 5589SOL    HW228401   3.500   1.236  15.632 -0.1722 -1.3676  0.3770
 5590SOL     OW28402   4.078   0.352   6.655  0.6418  0.6402 -0.2092
 5590SOL    HW128403   4.023   0.430   6.665  1.3614  1.0385  0.7068
 5590SOL    HW228404   4.165   0.383   6.681 -0.1001  1.3725  1.4177
 5591SOL     OW28405   2.114   4.089   4.289 -0.5824 -0.0003  0.4436
 5591SOL    HW128406   2.120   4.157   4.222 -0.0959  0.6200  1.1242
 5591SOL    HW228407   2.160   4.125   4.365 -0.8316 -2.3300  1.6975
 5592SOL     OW28408   1.174   3.801   5.669  0.7238  0.1772 -0.4822
 5592SOL    HW128409   1.112   3.730   5.688  3.4009 -1.9977  0.0516
 5592SOL    HW228410   1.136   3.869   5.725  0.1930  0.6872 -1.4592
 5593SOL     OW28411   0.593   2.683  16.624  0.0902 -0.1234 -0.2151
 5593SOL    HW128412   0.591   2.590  16.648  1.3516 -0.6905 -2.2691
 5593SOL    HW228413   0.562   2.725  16.703  0.4468  0.2270 -0.2580
 5594SOL     OW28414   3.357   0.897  10.373  0.3597 -0.2483 -0.8967
 5594SOL    HW128415   3.353   0.910  10.468  2.5232 -1.5579 -0.6201
 5594SOL    HW228416   3.399   0.977  10.342 -0.6208  1.1917  1.4692
 5595SOL     OW28417   0.682   1.667   9.787  0.1164 -0.2654  0.0936
 5595SOL    HW128418   0.690   1.674   9.692 -1.4886 -2.2846 -0.1862
 5595SOL    HW228419   0.610   1.604   9.781 -0.7542  0.8116 -0.6842
 5596SOL     OW28420   1.779   3.497   7.035 -0.0618 -0.1413  0.0480
 5596SOL    HW128421   1.811   3.414   7.001  0.2973 -1.3286  3.2837
 5596SOL    HW228422   1.763   3.542   6.952 -0.0071 -1.7273 -0.8190
 5597SOL     OW28423   2.767   1.358   5.369 -0.0342  0.1049 -0.8768
 5597SOL    HW128424   2.686   1.408   5.360 -0.1722  0.1191  0.4127
 5597SOL    HW228425   2.748   1.312   5.451  2.2067 -1.7800 -1.4120
 5598SOL     OW28426   3.744   0.920   4.383 -0.2197  0.1811 -0.4769
 5598SOL    HW128427   3.731   0.829   4.356 -2.0224  0.7316 -1.4798
 5598SOL    HW228428   3.663   0.926   4.434 -2.0875 -0.7416 -3.2967
 5599SOL     OW28429   4.331   3.946   7.387 -0.0153 -0.2584 -0.5591
 5599SOL    HW128430   4.269   3.884   7.426 -0.9455 -0.5374 -2.5040
 5599SOL    HW228431   4.285   3.991   7.317  0.3549 -0.2497 -0.7932
 5600SOL     OW28432   0.490   3.657   0.862 -0.2462  0.1055 -0.2346
 5600SOL    HW128433   0.450   3.570   0.855  0.1323 -0.0998  0.1256
 5600SOL    HW228434   0.478   3.672   0.956 -1.1680  1.2842 -0.5409
 5601SOL     OW28435   4.284   2.463   7.539  0.1127  0.3740 -0.6972
 5601SOL    HW128436   4.337   2.423   7.470 -0.7625  1.4276 -1.9635
 5601SOL    HW228437   4.294   2.398   7.609  0.4080 -0.4024 -1.4585
 5602SOL     OW28438   3.609   1.262   2.861 -0.1853  0.8573 -0.4203
 5602SOL    HW128439   3.577   1.315   2.787 -2.4187  0.6033  0.3643
 5602SOL    HW228440   3.681   1.211   2.824 -1.0273 -0.0026 -0.9067
 5603SOL     OW28441   3.546   1.558   3.972 -1.2783  0.0457 -0.2775
 5603SOL    HW128442   3.513   1.646   3.983 -0.9692  0.2997 -1.3582
 5603SOL    HW228443   3.466   1.506   3.967 -2.6066  2.2038 -1.3995
 5604SOL     OW28444   0.540   2.205   2.803  0.4813  0.3652 -0.3493
 5604SOL    HW128445   0.552   2.164   2.888 -0.6081 -2.1028 -1.3897
 5604SOL    HW228446   0.626   2.206   2.761  0.8095 -1.1012  0.3005
 5605SOL     OW28447   0.888   0.463   1.907  0.1246  0.2409  0.2827
 5605SOL    HW128448   0.828   0.394   1.880  1.2698  0.4544 -2.8422
 5605SOL    HW228449   0.881   0.456   2.002 -0.5354 -0.3098  0.1904
 5606SOL     OW28450   2.502   4.035   6.118 -0.2909 -0.4772 -0.3307
 5606SOL    HW128451   2.574   4.058   6.060 -1.1396 -0.0085 -1.2019
 5606SOL    HW228452   2.449   3.981   6.059  1.3672 -2.5345  0.0694
 5607SOL     OW28453   2.721   2.049   3.878 -0.1609 -0.0988 -0.1678
 5607SOL    HW128454   2.792   2.029   3.817  0.0467  0.5421 -0.1372
 5607SOL    HW228455   2.669   2.107   3.823  1.5905  2.2125  0.6338
 5608SOL     OW28456   3.178   1.249  13.774 -0.4783  0.1720 -0.3701
 5608SOL    HW128457   3.208   1.162  13.750 -2.6943 -0.8658  0.6720
 5608SOL    HW228458   3.235   1.299  13.715  0.9135 -0.7342  0.2112
 5609SOL     OW28459   0.627   2.811  10.699 -0.1321  0.4356  0.7292
 5609SOL    HW128460   0.675   2.835  10.620  0.1543  1.4562  1.2242
 5609SOL    HW228461   0.614   2.716  10.691  1.1330  0.2860  0.3769
 5610SOL     OW28462   3.680   2.206   2.715 -0.3030 -0.2211  0.0969
 5610SOL    HW128463   3.638   2.120   2.714  0.7187 -0.7162  0.8224
 5610SOL    HW228464   3.616   2.264   2.672 -0.2709  0.9530  1.6288
 5611SOL     OW28465   2.611   3.985  15.134  0.1795 -0.5822  0.8407
 5611SOL    HW128466   2.609   4.046  15.208  0.4540 -0.0488  0.4076
 5611SOL    HW228467   2.657   3.915  15.181  0.0902 -0.5983  0.9037
 5612SOL     OW28468   3.673   1.079   3.719  0.6582  0.5770  0.3516
 5612SOL    HW128469   3.635   1.130   3.791  0.4384  0.1760  0.5205
 5612SOL    HW228470   3.740   1.033   3.770  3.0063  2.8853 -0.6389
 5613SOL     OW28471   0.746   2.529   8.496  0.5976  0.1451  0.0451
 5613SOL    HW128472   0.763   2.495   8.584  1.4171 -1.5327 -0.7592
 5613SOL    HW228473   0.668   2.482   8.468  0.6517  1.5392 -2.4322
 5614SOL     OW28474   4.000   3.085   8.255  0.0110 -0.0965  0.6358
 5614SOL    HW128475   3.950   3.004   8.243  0.8910 -1.0520  3.5122
 5614SOL    HW228476   3.962   3.110   8.339 -0.0542 -2.1004  1.1974
 5615SOL     OW28477   0.300   0.584   1.297 -0.1847  0.5343  0.1056
 5615SOL    HW128478   0.239   0.598   1.224  1.9289  1.0463 -1.5596
 5615SOL    HW228479   0.296   0.674   1.331 -0.0592 -0.0904  1.7833
 5616SOL     OW28480   0.401   1.055  14.664  0.1563  0.6132  0.2834
 5616SOL    HW128481   0.456   1.125  14.628 -0.4185  0.0206 -1.7478
 5616SOL    HW228482   0.327   1.047  14.604 -0.4476  0.4333  1.0611
 5617SOL     OW28483   2.578   0.713   7.761  0.1062 -0.1115  0.3004
 5617SOL    HW128484   2.484   0.709   7.742  0.1453 -0.5491  0.2109
 5617SOL    HW228485   2.592   0.620   7.780  0.8271  0.3419  1.9794
 5618SOL     OW28486   0.299   0.792   3.128  0.3861 -0.0202  0.2007
 5618SOL    HW128487   0.314   0.698   3.120 -0.8604 -0.0804 -1.3912
 5618SOL    HW228488   0.257   0.799   3.213 -1.1395 -0.9867 -0.4700
 5619SOL     OW28489   2.851   4.251   3.181 -0.4041 -0.2005 -0.0841
 5619SOL    HW128490   2.776   4.195   3.163  0.2822 -1.3364  0.5707
 5619SOL    HW228491   2.808   4.300   3.251  0.0231 -0.4774  0.3665
 5620SOL     OW28492   3.408   2.039  16.152  0.0988  0.1416 -0.0367
 5620SOL    HW128493   3.421   1.951  16.119  1.8498  1.3429 -2.5448
 5620SOL    HW228494   3.322   2.046  16.110  1.2196  1.4333 -2.1122
 5621SOL     OW28495   0.751   0.562  15.062 -0.4175 -0.8552 -0.1238
 5621SOL    HW128496   0.764   0.515  14.980  1.5847  2.2515 -1.5808
 5621SOL    HW228497   0.815   0.633  15.058 -0.7993 -0.4396  1.2118
 5622SOL     OW28498   0.582   0.186   2.232 -0.0538  0.4923 -0.1327
 5622SOL    HW128499   0.551   0.096   2.224 -1.7150  1.4034 -3.6256
 5622SOL    HW228500   0.674   0.161   2.239 -0.1587  0.3779  0.8458
 5623SOL     OW28501   2.122   0.455   8.121  0.1166  0.3432 -0.8519
 5623SOL    HW128502   2.192   0.515   8.095 -0.3384  1.0646 -0.4229
 5623SOL    HW228503   2.125   0.453   8.216  0.1169 -0.1782 -0.8656
 5624SOL     OW28504   0.595   1.908   5.878  0.4198  0.1573 -0.2073
 5624SOL    HW128505   0.553   1.984   5.920  0.6063 -0.5090  1.1936
 5624SOL    HW228506   0.533   1.889   5.808 -0.1011 -2.1473  0.8832
 5625SOL     OW28507   0.363   1.438  17.429 -0.2261 -0.0257 -0.3953
 5625SOL    HW128508   0.279   1.404  17.460  0.1773 -0.4671  0.2269
 5625SOL    HW228509   0.414   1.452  17.509 -0.4356 -1.5688  0.0184
 5626SOL     OW28510   3.429   0.949  11.045  0.2586  0.0744 -0.4320
 5626SOL    HW128511   3.469   1.018  10.992 -0.3438  1.7943  1.3070
 5626SOL    HW228512   3.355   0.917  10.994  1.0351 -1.7930 -0.4006
 5627SOL     OW28513   2.104   4.097  15.913 -0.7292 -0.0785  0.4325
 5627SOL    HW128514   2.072   4.065  15.829 -0.9208 -1.5315  1.0648
 5627SOL    HW228515   2.136   4.182  15.883  0.0903  0.0159  1.5425
 5628SOL     OW28516   4.288   3.152   5.223 -0.5241  0.1160 -0.1304
 5628SOL    HW128517   4.323   3.160   5.312 -0.3257 -1.2489 -0.0838
 5628SOL    HW228518   4.306   3.060   5.204 -0.2695 -0.0245  0.8022
 5629SOL     OW28519   2.065   2.061   4.250 -0.5308 -0.0808 -0.0759
 5629SOL    HW128520   2.023   2.121   4.312 -0.5775 -2.4900  2.2258
 5629SOL    HW228521   2.153   2.055   4.287 -0.3994  2.7427  0.1240
 5630SOL     OW28522   0.149   3.272   6.007  0.0378  0.1549 -0.2291
 5630SOL    HW128523   0.157   3.368   6.001  0.7563  0.0689 -0.6748
 5630SOL    HW228524   0.075   3.275   6.067 -0.1744  1.3871 -0.5354
 5631SOL     OW28525   0.625   0.709   2.087 -0.5146 -0.0195 -0.1112
 5631SOL    HW128526   0.651   0.791   2.043 -3.0443  1.2235  0.7267
 5631SOL    HW228527   0.556   0.680   2.028 -0.9889  2.0656 -0.6086
 5632SOL     OW28528   1.756   2.745  10.786 -0.1303  1.2107 -0.0635
 5632SOL    HW128529   1.782   2.798  10.862 -0.4595  0.3726  0.6338
 5632SOL    HW228530   1.799   2.660  10.798  2.4953  2.3967 -1.0538
 5633SOL     OW28531   3.765   2.304   7.484 -1.1146  0.4582 -0.5483
 5633SOL    HW128532   3.696   2.237   7.488 -1.3016  0.6730 -0.2449
 5633SOL    HW228533   3.732   2.348   7.562  0.0931 -1.3946  0.9839
 5634SOL     OW28534   2.084   2.013   1.974  0.2925 -0.5382 -0.0658
 5634SOL    HW128535   2.163   1.961   1.959  0.1053 -0.6637 -0.6468
 5634SOL    HW228536   2.008   1.955   1.985 -0.1518  0.1175  0.3166
 5635SOL     OW28537   2.278   4.708  13.104  0.4994 -0.1027 -0.5314
 5635SOL    HW128538   2.362   0.002  13.139  0.4690 -1.6945  0.8897
 5635SOL    HW228539   2.315   4.663  13.028 -2.1467  0.2969 -2.0509
 5636SOL     OW28540   4.680   1.947   5.030  0.3404  0.5616 -0.2488
 5636SOL    HW128541   4.653   2.034   5.001  0.2372 -0.3163 -2.7629
 5636SOL    HW228542   4.693   1.898   4.949  1.9977  0.0074  0.3457
 5637SOL     OW28543   3.259   3.514  17.459  0.7527 -0.0791 -0.3537
 5637SOL    HW128544   3.286   3.436  17.507  2.5847 -1.2978 -3.2980
 5637SOL    HW228545   3.331   3.573  17.480 -0.8865  1.4937  0.8499
 5638SOL     OW28546   0.500   4.344   2.225  0.1443  0.2747 -0.0736
 5638SOL    HW128547   0.495   4.269   2.167 -1.3868  0.5052 -0.2295
 5638SOL    HW228548   0.590   4.378   2.223 -0.3765  1.7095  0.8487
 5639SOL     OW28549   1.110   1.691  12.937 -0.1473 -0.3644  0.1498
 5639SOL    HW128550   1.092   1.728  12.851 -0.6318 -0.4563  0.2141
 5639SOL    HW228551   1.042   1.731  12.991  0.2667  2.5125 -1.4616
 5640SOL     OW28552   2.614   2.874   7.647 -0.2443  0.3092 -0.1054
 5640SOL    HW128553   2.584   2.845   7.561 -1.1159  0.7771  0.0380
 5640SOL    HW228554   2.687   2.812   7.650  0.0241  0.6668  0.6656
 5641SOL     OW28555   2.733   1.238   6.163 -0.1374  0.0450 -0.1388
 5641SOL    HW128556   2.663   1.302   6.173 -0.6552 -0.5335  0.0059
 5641SOL    HW228557   2.672   1.170   6.135 -1.7912  1.4171  0.1358
 5642SOL     OW28558   1.466   1.094   2.418 -0.3404  0.1642  0.2036
 5642SOL    HW128559   1.402   1.036   2.460 -2.0697  0.7659 -1.5911
 5642SOL    HW228560   1.529   1.040   2.370  0.4924  0.6425  0.7681
 5643SOL     OW28561   0.080   2.690   2.690 -0.0303 -0.3533 -0.2841
 5643SOL    HW128562   0.032   2.624   2.741  0.6303 -1.7716 -1.5227
 5643SOL    HW228563   0.168   2.665   2.716 -0.2544 -0.1261  0.6966
 5644SOL     OW28564   3.795   0.590   0.797 -0.2445  0.1279 -0.2383
 5644SOL    HW128565   3.806   0.635   0.881 -2.4855  0.6976 -0.2406
 5644SOL    HW228566   3.804   0.666   0.739 -1.4267 -0.4192 -1.1263
 5645SOL     OW28567   0.414   1.088   0.686  0.1027  0.0338  0.0421
 5645SOL    HW128568   0.485   1.152   0.679 -0.7674  1.2087  1.9125
 5645SOL    HW228569   0.463   1.015   0.724 -0.7189 -1.8059 -2.4416
 5646SOL     OW28570   3.448   2.568   5.055  0.5771 -0.5657 -0.2394
 5646SOL    HW128571   3.404   2.498   5.008 -2.4389  1.2398 -0.0640
 5646SOL    HW228572   3.377   2.611   5.101 -1.7077 -2.8723 -1.6182
 5647SOL     OW28573   1.309   2.030   6.657 -0.7139  0.0165  0.0641
 5647SOL    HW128574   1.223   2.046   6.696 -0.3100 -0.2533  1.0533
 5647SOL    HW228575   1.284   1.992   6.572  1.0175 -1.8343  0.3977
 5648SOL     OW28576   2.804   3.464   2.570 -0.1470 -0.2050 -0.0099
 5648SOL    HW128577   2.887   3.424   2.597 -0.4005 -0.7293  0.0043
 5648SOL    HW228578   2.729   3.422   2.613 -0.6093  0.1433 -0.4762
 5649SOL     OW28579   1.870   1.410  16.548 -0.0701  0.3947 -0.8118
 5649SOL    HW128580   1.890   1.423  16.641  0.8956 -0.1510 -0.9430
 5649SOL    HW228581   1.928   1.334  16.537  2.5034  2.2591 -0.0756
 5650SOL     OW28582   0.925   3.973   7.260 -0.4315 -0.4580  0.1869
 5650SOL    HW128583   1.014   3.993   7.287  0.1362 -1.4897 -0.8715
 5650SOL    HW228584   0.873   4.010   7.331  0.0059  2.6409 -1.0916
 5651SOL     OW28585   1.715   3.748   2.816  0.0973  1.0168 -0.1531
 5651SOL    HW128586   1.771   3.671   2.827 -1.4285 -0.5098 -2.8850
 5651SOL    HW228587   1.677   3.763   2.902 -0.4362 -0.0005 -0.2168
 5652SOL     OW28588   2.561   1.139   4.560 -0.8072  0.0586  0.2874
 5652SOL    HW128589   2.468   1.129   4.543 -0.6384 -2.3212  0.6922
 5652SOL    HW228590   2.562   1.215   4.617 -0.4129  0.3119 -0.0560
 5653SOL     OW28591   0.183   1.988   7.798  0.4892 -0.3398  1.0618
 5653SOL    HW128592   0.211   2.062   7.745  0.0280  0.4487  1.9101
 5653SOL    HW228593   0.248   1.925   7.765  0.6962  2.1426 -3.2725
 5654SOL     OW28594   1.626   2.755  13.323  0.3108  0.3121 -0.4215
 5654SOL    HW128595   1.612   2.723  13.412  2.6588 -1.4066 -0.6595
 5654SOL    HW228596   1.690   2.689  13.296 -0.0640  0.5102 -1.7588
 5655SOL     OW28597   2.311   3.023   1.945 -0.4461  0.3575  0.3308
 5655SOL    HW128598   2.217   3.016   1.962 -0.4450 -0.3285  0.0705
 5655SOL    HW228599   2.338   2.931   1.948 -1.3557  0.1014  1.0957
 5656SOL     OW28600   1.692   4.029   3.176  0.0097 -0.1651  0.0215
 5656SOL    HW128601   1.647   4.102   3.219 -1.3783 -0.9297 -0.1106
 5656SOL    HW228602   1.702   4.060   3.086 -1.0423  2.2722  0.7430
 5657SOL     OW28603   2.186   0.212   3.162 -0.8813  0.3099 -0.3676
 5657SOL    HW128604   2.277   0.234   3.182 -0.9459  1.1014 -0.9775
 5657SOL    HW228605   2.206   0.149   3.092  3.7230  0.3892  0.9006
 5658SOL     OW28606   1.074   2.859   5.912  0.0032 -0.0515 -0.0077
 5658SOL    HW128607   1.110   2.866   5.823  0.9265  1.2298  0.4746
 5658SOL    HW228608   0.982   2.882   5.904  0.7150  3.1321  1.3336
 5659SOL     OW28609   4.653   1.771   7.064 -0.5833  0.0509  0.0445
 5659SOL    HW128610   4.590   1.844   7.063 -2.0399 -1.2135 -1.5380
 5659SOL    HW228611   4.594   1.697   7.074 -1.9854  1.5198  2.7296
 5660SOL     OW28612   4.408   2.014   6.459 -0.1295 -0.0883  0.4234
 5660SOL    HW128613   4.503   2.001   6.455 -0.4351 -2.3212  0.2875
 5660SOL    HW228614   4.392   1.928   6.499 -1.0531  0.0780  0.4113
 5661SOL     OW28615   0.869   0.058   7.554  0.3167  0.3058 -0.1426
 5661SOL    HW128616   0.863   0.116   7.629 -0.5142  0.3652 -0.2497
 5661SOL    HW228617   0.961   0.035   7.549  0.5475  1.2250 -0.0585
 5662SOL     OW28618   1.527   3.374   7.419 -0.1072 -0.6312 -0.1535
 5662SOL    HW128619   1.610   3.347   7.458 -0.3351 -0.3883  0.5116
 5662SOL    HW228620   1.488   3.414   7.497  0.6071 -2.8007  1.3393
 5663SOL     OW28621   2.892   1.512   9.287  0.1644 -0.0096  0.1428
 5663SOL    HW128622   2.846   1.593   9.310 -0.0111  0.1646 -0.8249
 5663SOL    HW228623   2.959   1.519   9.355  1.0389 -0.0153 -0.7105
 5664SOL     OW28624   0.969   0.825   8.373 -0.3915  0.0860  0.5649
 5664SOL    HW128625   0.987   0.799   8.463  0.4737 -0.7915  0.1350
 5664SOL    HW228626   0.968   0.920   8.385  1.1389  0.0164  1.2269
 5665SOL     OW28627   0.338   2.022   3.827  0.6612  0.2961 -0.5114
 5665SOL    HW128628   0.426   2.059   3.830  0.5688  0.5032 -0.3130
 5665SOL    HW228629   0.346   1.951   3.890 -1.3156  1.9154  1.5920
 5666SOL     OW28630   3.106   4.033   4.216  0.5488  0.3132  0.0496
 5666SOL    HW128631   3.013   4.013   4.202  0.4650  1.8936 -1.5661
 5666SOL    HW228632   3.088   4.072   4.301  1.8212  1.5932 -0.2803
 5667SOL     OW28633   2.067   4.430  17.254  0.1548  0.5327  0.0732
 5667SOL    HW128634   2.135   4.430  17.322  0.9227 -0.3190 -0.6941
 5667SOL    HW228635   2.106   4.369  17.191 -0.2905 -0.5634  0.8716
 5668SOL     OW28636   2.199   3.212   3.086  0.2718 -0.3055 -0.3025
 5668SOL    HW128637   2.259   3.225   3.159 -1.6229 -1.9470  1.5431
 5668SOL    HW228638   2.242   3.140   3.040 -2.6979 -1.0986 -1.9083
 5669SOL     OW28639   4.457   2.148   8.118  0.0743  0.1060  0.1932
 5669SOL    HW128640   4.403   2.221   8.147 -0.9654 -0.9902  1.0138
 5669SOL    HW228641   4.543   2.183   8.145  0.7092 -0.3051 -1.3011
 5670SOL     OW28642   4.152   0.763  15.190  0.0290  0.0063 -0.0609
 5670SOL    HW128643   4.229   0.780  15.245  0.0066  2.2379 -0.6895
 5670SOL    HW228644   4.083   0.759  15.256 -0.4253  0.1951 -0.5223
 5671SOL     OW28645   0.531   3.483   1.870  0.9614  0.0126  0.0093
 5671SOL    HW128646   0.480   3.432   1.808 -0.1670  0.8566  0.2326
 5671SOL    HW228647   0.537   3.420   1.942  2.3342  0.1728  0.0372
 5672SOL     OW28648   3.640   1.764   9.224  0.3539 -0.0224  0.4406
 5672SOL    HW128649   3.587   1.730   9.151 -0.3270  0.2390  0.8142
 5672SOL    HW228650   3.606   1.732   9.308 -0.1495  0.9533  0.6036
 5673SOL     OW28651   2.903   4.232   4.180 -0.1984 -0.5251 -0.0957
 5673SOL    HW128652   2.841   4.294   4.142  1.0348  0.9629  0.2958
 5673SOL    HW228653   2.973   4.293   4.202 -0.8533  1.0593 -2.3704
 5674SOL     OW28654   4.105   1.619  10.131 -1.1650 -0.0177 -0.0523
 5674SOL    HW128655   4.130   1.615  10.224 -2.5928 -1.9438  0.2566
 5674SOL    HW228656   4.021   1.572  10.135 -1.4433  0.4523 -0.3428
 5675SOL     OW28657   0.351   0.064   7.817  1.0408  0.0887  0.2433
 5675SOL    HW128658   0.317   0.086   7.904 -0.5330  1.8150 -0.8240
 5675SOL    HW228659   0.438   0.101   7.828  1.3713 -0.2393 -1.3861
 5676SOL     OW28660   2.552   3.081   6.024 -0.2632  0.5573 -0.1085
 5676SOL    HW128661   2.527   3.001   5.977 -1.1647 -0.2691  1.7830
 5676SOL    HW228662   2.490   3.134   5.975  1.7347  0.6477 -2.5400
 5677SOL     OW28663   3.236   0.342  16.208 -0.4255  0.4591  0.1213
 5677SOL    HW128664   3.140   0.346  16.210 -0.4777 -0.9468  0.5113
 5677SOL    HW228665   3.256   0.418  16.262  0.2200  1.3789 -1.4025
 5678SOL     OW28666   1.683   4.308   9.761 -0.2063  0.0779 -0.1133
 5678SOL    HW128667   1.638   4.266   9.834  0.8615  0.0290  0.5173
 5678SOL    HW228668   1.769   4.271   9.781 -0.4402  0.1775  1.0564
 5679SOL     OW28669   0.560   0.511   4.382  0.1372 -0.0167 -0.3770
 5679SOL    HW128670   0.635   0.502   4.440  1.4389  1.1827 -1.8852
 5679SOL    HW228671   0.538   0.604   4.392 -0.3468 -0.3268  1.4313
 5680SOL     OW28672   1.935   1.363  15.075  0.0299  1.1182 -0.7478
 5680SOL    HW128673   1.864   1.344  15.014 -1.3276  1.7236  0.6436
 5680SOL    HW228674   1.889   1.347  15.158  0.8592 -0.2257 -0.5448
 5681SOL     OW28675   2.486   3.994   3.382 -0.5091 -0.0171  0.2926
 5681SOL    HW128676   2.551   3.972   3.449  1.6835  0.6421 -1.5997
 5681SOL    HW228677   2.475   4.087   3.399  1.5641 -0.3333  3.2532
 5682SOL     OW28678   1.030   3.284  12.686 -0.4320 -0.1338  0.2404
 5682SOL    HW128679   0.993   3.204  12.722  1.5887  0.0310  2.6849
 5682SOL    HW228680   0.983   3.296  12.604  1.0293  1.3193 -0.3906
 5683SOL     OW28681   1.194   3.577  10.081 -0.5935  0.4358 -0.1561
 5683SOL    HW128682   1.106   3.614  10.091 -0.0520  2.3418 -2.4447
 5683SOL    HW228683   1.184   3.512  10.011  0.1453 -1.4627  1.5310
 5684SOL     OW28684   4.410   0.561   6.440  0.1267  0.0581  0.0184
 5684SOL    HW128685   4.477   0.558   6.372  0.6779  3.1569  0.4370
 5684SOL    HW228686   4.447   0.624   6.502 -0.5009 -0.8655  1.3186
 5685SOL     OW28687   3.229   1.037   7.463  0.6574  0.2727  0.0384
 5685SOL    HW128688   3.192   0.966   7.410  0.1372  0.6635 -0.1242
 5685SOL    HW228689   3.146   1.083   7.472 -0.3620 -1.6577  0.4515
 5686SOL     OW28690   4.185   1.497   4.192  0.0041 -0.0091 -0.1551
 5686SOL    HW128691   4.123   1.525   4.258  1.3199  1.2130  0.5658
 5686SOL    HW228692   4.122   1.455   4.133  0.5243 -0.8871 -0.0999
 5687SOL     OW28693   1.363   4.154   8.650  0.3262 -0.1718  0.0600
 5687SOL    HW128694   1.268   4.155   8.661  0.3441  1.1655  0.0199
 5687SOL    HW228695   1.390   4.242   8.675 -0.6565  0.1986 -0.1532
 5688SOL     OW28696   1.428   4.519   7.299  0.0565 -0.3072 -0.2565
 5688SOL    HW128697   1.393   4.512   7.387 -0.2216  0.2758 -0.3175
 5688SOL    HW228698   1.373   4.588   7.260  0.9344  2.1736  2.9116
 5689SOL     OW28699   4.379   4.373   5.319  0.0932  0.1264 -0.1033
 5689SOL    HW128700   4.419   4.410   5.398 -1.2232 -0.3172  0.7624
 5689SOL    HW228701   4.446   4.383   5.252  0.2934  0.6771  0.1797
 5690SOL     OW28702   1.983   3.886   8.481 -0.1838 -0.4310  0.4162
 5690SOL    HW128703   1.949   3.887   8.391 -0.8414  1.0433  0.6818
 5690SOL    HW228704   1.950   3.975   8.491 -0.3146 -0.3777 -0.4537
 5691SOL     OW28705   1.873   3.806   0.785 -0.2470  0.1203 -0.4412
 5691SOL    HW128706   1.838   3.895   0.775  0.4152  0.5142  0.7844
 5691SOL    HW228707   1.968   3.820   0.776 -0.2845  1.0164  0.5854
 5692SOL     OW28708   3.679   2.401   5.603  0.3408 -0.0126  0.2832
 5692SOL    HW128709   3.649   2.348   5.677 -0.2939  0.1476  0.1446
 5692SOL    HW228710   3.723   2.341   5.543 -0.2275 -1.6989  1.5792
 5693SOL     OW28711   4.696   2.736  12.527  0.0381  0.1601  0.4651
 5693SOL    HW128712   4.706   2.657  12.474  1.0838  1.5157 -1.3673
 5693SOL    HW228713   0.028   2.726  12.593  1.1938  1.3609 -0.5558
 5694SOL     OW28714   1.959   3.644   6.723  0.2482  0.3393 -0.0511
 5694SOL    HW128715   1.978   3.586   6.797  0.7615 -2.5647 -2.4019
 5694SOL    HW228716   1.866   3.660   6.736  0.2998  0.8657 -0.3406
 5695SOL     OW28717   1.302   0.235  11.214  0.1932  0.0126  0.6846
 5695SOL    HW128718   1.327   0.143  11.211  1.5054  0.4359 -1.4407
 5695SOL    HW228719   1.349   0.254  11.133 -0.2143  1.0462  0.6958
 5696SOL     OW28720   3.384   0.532   2.688  0.1501  0.0084 -0.0894
 5696SOL    HW128721   3.316   0.598   2.703 -1.2074 -1.6320  0.8831
 5696SOL    HW228722   3.454   0.589   2.656  0.0401 -0.6507 -1.5156
 5697SOL     OW28723   4.188   3.677   9.825  0.3986 -0.0548  0.6518
 5697SOL    HW128724   4.100   3.650   9.850 -1.7000  3.0485 -3.4091
 5697SOL    HW228725   4.156   3.721   9.746 -0.9768  0.8458  1.7047
 5698SOL     OW28726   4.673   3.768   2.518  0.0582 -0.4415  0.5077
 5698SOL    HW128727   4.579   3.783   2.526  0.2089  0.0112  1.4554
 5698SOL    HW228728   4.689   3.851   2.473  0.9270 -0.3309  1.0321
 5699SOL     OW28729   2.997   4.633   4.021 -0.0133  0.3803  0.7037
 5699SOL    HW128730   2.963   4.648   3.932  0.2861 -1.1623  0.3213
 5699SOL    HW228731   2.965   4.543   4.032  1.3777 -0.2766 -0.4335
 5700SOL     OW28732   1.722   3.201  15.560  0.1774  0.0215 -0.7786
 5700SOL    HW128733   1.674   3.169  15.636 -2.0529  0.1007 -2.1543
 5700SOL    HW228734   1.775   3.261  15.612 -1.7033 -0.9250  2.2326
 5701SOL     OW28735   0.158   0.794   7.060  0.1672 -0.1743 -0.3084
 5701SOL    HW128736   0.158   0.885   7.029 -0.5460 -0.0863 -0.0344
 5701SOL    HW228737   0.195   0.758   6.979  0.2394 -2.0813  0.5693
 5702SOL     OW28738   2.840   4.147   2.473  0.9561  0.4017 -0.1806
 5702SOL    HW128739   2.836   4.236   2.509  0.4820 -0.1396  1.1171
 5702SOL    HW228740   2.879   4.158   2.386 -0.6264 -2.9467 -1.2931
 5703SOL     OW28741   1.923   4.111   4.975 -0.0640 -0.0596  0.1747
 5703SOL    HW128742   1.882   4.193   4.946 -0.9705  0.0791  1.9011
 5703SOL    HW228743   1.939   4.057   4.898  0.1132 -0.1468  0.2709
 5704SOL     OW28744   3.506   0.320   1.132 -0.1987 -0.2048 -0.3341
 5704SOL    HW128745   3.426   0.268   1.121 -0.0640 -0.5649  0.4013
 5704SOL    HW228746   3.566   0.288   1.065  0.9555  3.0229 -0.8510
 5705SOL     OW28747   4.161   1.935   6.855  0.5863 -0.2702 -0.3379
 5705SOL    HW128748   4.133   1.847   6.828 -1.5991  0.4042 -0.2529
 5705SOL    HW228749   4.253   1.920   6.877  0.1968 -0.8215  0.8914
 5706SOL     OW28750   4.673   3.712  12.030  0.3464  0.1149  0.3621
 5706SOL    HW128751   4.720   3.644  11.981 -0.1922  0.7170 -1.0139
 5706SOL    HW228752   4.671   3.668  12.115 -1.7665  1.4951  1.0163
 5707SOL     OW28753   4.081   1.400   5.368 -0.2987  0.6416  0.0196
 5707SOL    HW128754   4.063   1.419   5.275 -0.7988 -1.4181 -0.2903
 5707SOL    HW228755   4.168   1.360   5.371 -0.3665  0.5043  0.1360
 5708SOL     OW28756   0.877   3.432   5.474 -0.2092  0.3967 -0.1180
 5708SOL    HW128757   0.850   3.410   5.563  2.6805  0.3755  0.7532
 5708SOL    HW228758   0.876   3.345   5.436  2.8522  0.1283  0.4219
 5709SOL     OW28759   0.871   0.804  17.197  0.0597  0.7584  0.4696
 5709SOL    HW128760   0.961   0.832  17.179 -0.3530  2.1572  0.5983
 5709SOL    HW228761   0.824   0.882  17.225  1.3165  1.6072  0.2171
 5710SOL     OW28762   4.150   0.220   8.435 -0.1762 -0.5461 -0.2142
 5710SOL    HW128763   4.086   0.280   8.395 -2.5670 -2.8514  0.1444
 5710SOL    HW228764   4.089   0.149   8.454 -3.7415  1.9763 -2.1004
 5711SOL     OW28765   4.175   1.210   8.965 -0.0323 -0.0304  0.8643
 5711SOL    HW128766   4.244   1.267   9.000 -0.4103  0.5420  0.6716
 5711SOL    HW228767   4.220   1.129   8.942  0.3430 -0.2217  2.2580
 5712SOL     OW28768   3.416   1.119   8.676 -0.3751 -0.4011  0.8626
 5712SOL    HW128769   3.405   1.032   8.715 -0.0227  0.7103  3.4020
 5712SOL    HW228770   3.338   1.168   8.703  0.0696  0.9969 -0.3990
 5713SOL     OW28771   2.275   0.624   7.787  0.3568  0.0326 -0.4330
 5713SOL    HW128772   2.281   0.543   7.838  0.4682  0.7462  0.7061
 5713SOL    HW228773   2.263   0.691   7.854 -3.4229  1.1103 -2.1825
 5714SOL     OW28774   0.364   4.441   7.893  0.4306 -0.4239 -0.2131
 5714SOL    HW128775   0.391   4.444   7.985 -0.6828 -1.0524  0.1341
 5714SOL    HW228776   0.443   4.479   7.854 -0.9052 -0.0639 -2.5806
 5715SOL     OW28777   0.998   3.553   2.249 -0.1896  0.5763  0.3189
 5715SOL    HW128778   1.023   3.477   2.301  3.2814  0.4161 -1.5375
 5715SOL    HW228779   1.056   3.543   2.173  0.3089  1.8132  0.5272
 5716SOL     OW28780   1.272   4.149   1.801 -0.1997  0.1508  0.2934
 5716SOL    HW128781   1.295   4.232   1.760 -2.9235  1.0209  0.4805
 5716SOL    HW228782   1.177   4.153   1.790 -0.1529  0.1223 -0.0946
 5717SOL     OW28783   3.801   4.141   8.686  0.2826 -0.1715  0.1653
 5717SOL    HW128784   3.755   4.117   8.767  1.4503 -4.3665 -0.4394
 5717SOL    HW228785   3.806   4.054   8.648 -0.8697 -1.1385  2.2323
 5718SOL     OW28786   0.292   3.736   7.840  0.0645  0.1759  0.2893
 5718SOL    HW128787   0.298   3.641   7.849 -0.1491  0.0561 -0.8665
 5718SOL    HW228788   0.308   3.766   7.929  0.4355 -0.1790  0.3425
 5719SOL     OW28789   0.811   4.209   2.578 -0.1476  0.1333 -0.4975
 5719SOL    HW128790   0.723   4.214   2.541  0.4124 -1.1221 -2.0029
 5719SOL    HW228791   0.833   4.294   2.617  1.7860  0.2817 -1.9213
 5720SOL     OW28792   2.595   2.331   6.684  0.3236 -0.0140  0.1548
 5720SOL    HW128793   2.507   2.307   6.712 -2.3616  3.7035 -5.0169
 5720SOL    HW228794   2.586   2.332   6.588  1.6431  2.5677  0.0687
 5721SOL     OW28795   1.863   0.216   6.011  0.4804 -0.3343  0.3128
 5721SOL    HW128796   1.806   0.145   5.981 -0.7572  0.1794  1.4067
 5721SOL    HW228797   1.948   0.174   6.007 -0.6040 -2.3832 -1.3732
 5722SOL     OW28798   2.009   1.576   4.346  0.1970  0.1663  0.2499
 5722SOL    HW128799   2.034   1.625   4.268  0.0183 -0.3910 -0.1576
 5722SOL    HW228800   2.082   1.604   4.401  0.4103  1.4475 -0.7118
 5723SOL     OW28801   3.431   4.256   9.215 -0.0866  0.3020  0.1687
 5723SOL    HW128802   3.418   4.286   9.125 -2.5662 -0.5070  0.2472
 5723SOL    HW228803   3.474   4.173   9.195  0.3803  0.8885 -1.2190
 5724SOL     OW28804   2.446   2.050  13.198 -0.1200 -0.8243 -0.0226
 5724SOL    HW128805   2.450   1.973  13.141 -2.5693  1.0038 -2.6766
 5724SOL    HW228806   2.537   2.070  13.177 -0.0979 -0.4702  0.4301
 5725SOL     OW28807   2.502   3.729   2.514 -0.0237 -0.3985  0.0505
 5725SOL    HW128808   2.408   3.731   2.497  0.2104  0.4248 -1.1312
 5725SOL    HW228809   2.530   3.819   2.498 -3.1989  0.0064 -3.1887
 5726SOL     OW28810   3.402   0.252   6.312 -0.5670 -0.0202 -0.6600
 5726SOL    HW128811   3.410   0.157   6.302  1.1678  0.0479  0.1463
 5726SOL    HW228812   3.377   0.272   6.221 -2.4659  1.5125  0.1954
 5727SOL     OW28813   4.259   3.895   3.907  0.0845 -0.3082 -0.3434
 5727SOL    HW128814   4.220   3.926   3.825 -1.3781 -0.6393  0.2451
 5727SOL    HW228815   4.248   3.802   3.887 -0.6724 -0.0785 -0.9590
 5728SOL     OW28816   2.687   1.222   3.421  0.5675  0.0346 -0.6679
 5728SOL    HW128817   2.769   1.259   3.391  0.7047  0.8980  0.8015
 5728SOL    HW228818   2.647   1.305   3.445  1.1723 -0.1968  1.1318
 5729SOL     OW28819   3.996   3.003   5.509  0.6855  0.1872 -0.3540
 5729SOL    HW128820   4.081   3.048   5.506  1.0173 -0.3004  1.6543
 5729SOL    HW228821   3.946   3.030   5.432 -0.4679 -0.0517  0.3065
 5730SOL     OW28822   2.656   3.931   9.293 -0.0903  0.6218  0.0160
 5730SOL    HW128823   2.608   3.958   9.371 -2.3257  0.0470 -1.1408
 5730SOL    HW228824   2.674   3.840   9.317 -0.7062 -0.3541 -3.2141
 5731SOL     OW28825   3.563   1.341  17.307 -0.1334  0.0341 -0.2164
 5731SOL    HW128826   3.495   1.407  17.296  0.0774  0.4657  1.0808
 5731SOL    HW228827   3.540   1.273  17.244 -0.0520 -0.5895  0.4285
 5732SOL     OW28828   4.326   3.394   5.106  0.6072  0.4677 -0.2497
 5732SOL    HW128829   4.367   3.425   5.187  1.9292 -0.5702 -0.5110
 5732SOL    HW228830   4.306   3.303   5.131 -2.2993  1.7614  2.0082
 5733SOL     OW28831   3.804   4.346   1.861 -0.2369 -0.9135  0.0321
 5733SOL    HW128832   3.801   4.434   1.899  0.0824  0.2134 -2.5013
 5733SOL    HW228833   3.774   4.294   1.935  0.1535  0.7087  1.3394
 5734SOL     OW28834   2.489   2.006  14.857 -0.2614  0.4221 -1.0950
 5734SOL    HW128835   2.416   1.949  14.831 -0.7101  0.7407 -0.5157
 5734SOL    HW228836   2.554   1.936  14.854 -0.8263 -0.1560  0.3880
 5735SOL     OW28837   1.367   3.746   4.958  0.0581  0.0860 -0.4668
 5735SOL    HW128838   1.326   3.660   4.963  1.3398 -0.4855  0.3657
 5735SOL    HW228839   1.438   3.732   5.020  1.1076  0.6649 -1.5261
 5736SOL     OW28840   0.374   4.486   4.110 -0.0505 -0.1167  0.1933
 5736SOL    HW128841   0.303   4.548   4.127  1.5311  0.7809  3.6762
 5736SOL    HW228842   0.339   4.406   4.150  1.2831 -0.4335  0.7455
 5737SOL     OW28843   4.569   2.161  11.480  0.6478 -0.0632  0.2020
 5737SOL    HW128844   4.613   2.239  11.511  1.3693 -0.8938  1.2555
 5737SOL    HW228845   4.559   2.120  11.566  2.5579  1.3082  1.0729
 5738SOL     OW28846   0.475   1.676   9.162 -0.8678 -0.0420  0.3571
 5738SOL    HW128847   0.516   1.729   9.094  0.4417  2.5049  3.1233
 5738SOL    HW228848   0.402   1.732   9.186  0.8067  2.5186 -0.4742
 5739SOL     OW28849   2.494   2.781   2.716  0.2196 -0.2005 -0.0547
 5739SOL    HW128850   2.434   2.717   2.754 -1.0214  1.4931  0.8630
 5739SOL    HW228851   2.436   2.858   2.722  3.1009  2.0938 -1.7922
 5740SOL     OW28852   1.150   1.096   1.684  0.3684  0.3656 -0.3369
 5740SOL    HW128853   1.158   1.094   1.779  3.4293 -0.4245 -0.5844
 5740SOL    HW228854   1.057   1.078   1.671  0.2518 -0.3155  1.4834
 5741SOL     OW28855   4.664   4.673   0.578  0.2498 -0.3529  0.5460
 5741SOL    HW128856   4.619   4.653   0.661 -1.6504 -0.0767 -0.4091
 5741SOL    HW228857   4.689   0.026   0.602 -0.3129  0.3021 -1.3276
 5742SOL     OW28858   4.728   3.959   2.325 -0.2833  0.6221  0.1187
 5742SOL    HW128859   4.690   3.976   2.239  0.7490  1.6034 -0.1464
 5742SOL    HW228860   0.084   3.967   2.303 -0.6062  1.2132 -1.0056
 5743SOL     OW28861   3.167   1.654  12.127  0.4698 -0.0496  0.5577
 5743SOL    HW128862   3.161   1.731  12.071 -2.2081  0.4690  1.5836
 5743SOL    HW228863   3.100   1.598  12.086  0.7748 -0.9519  1.2867
 5744SOL     OW28864   2.058   0.550   0.471  0.1403 -0.3864  0.0152
 5744SOL    HW128865   2.046   0.560   0.565  1.9468  0.4842  0.1629
 5744SOL    HW228866   2.011   0.467   0.461 -0.0483 -0.2850  0.0645
 5745SOL     OW28867   1.677   4.308   8.968 -0.0388  0.2326 -0.3345
 5745SOL    HW128868   1.757   4.262   8.994 -1.0144 -0.5815  1.2413
 5745SOL    HW228869   1.614   4.265   9.027 -0.8870 -0.3333 -1.6523
 5746SOL     OW28870   3.012   1.752   7.796 -0.6765 -0.1974  0.1921
 5746SOL    HW128871   3.090   1.802   7.821 -0.7504 -0.4256  0.8800
 5746SOL    HW228872   2.953   1.825   7.813 -0.9151 -0.2225 -0.5542
 5747SOL     OW28873   0.926   1.593  11.432  0.0395 -0.2314  0.2320
 5747SOL    HW128874   0.971   1.641  11.363 -1.9266 -0.8771 -1.5052
 5747SOL    HW228875   0.975   1.512  11.436 -1.3041 -1.1317 -1.3844
 5748SOL     OW28876   2.188   4.137   6.761  0.1019 -0.2762 -0.0544
 5748SOL    HW128877   2.093   4.139   6.777  0.1455  0.4959  0.1324
 5748SOL    HW228878   2.194   4.042   6.761  1.0479 -0.2104  2.8903
 5749SOL     OW28879   0.185   0.657  16.337  0.2841 -0.2691 -0.4879
 5749SOL    HW128880   0.137   0.592  16.286 -0.9296  0.9496 -0.9023
 5749SOL    HW228881   0.198   0.605  16.417  0.8819  0.9947  0.2360
 5750SOL     OW28882   2.399   4.550  16.608  0.2643 -0.3307  0.5964
 5750SOL    HW128883   2.490   4.540  16.578 -0.2808 -0.1459 -1.1600
 5750SOL    HW228884   2.353   4.574  16.527  1.0213  2.3821  0.9493
 5751SOL     OW28885   3.129   2.384   2.781 -0.3327 -0.1743 -0.0898
 5751SOL    HW128886   3.143   2.463   2.729  0.1905 -0.3105 -0.1591
 5751SOL    HW228887   3.140   2.319   2.711 -2.1816 -1.1153  0.4943
 5752SOL     OW28888   3.222   0.000   2.806 -0.3108 -0.7741 -0.0516
 5752SOL    HW128889   3.217   0.095   2.820 -0.5828 -0.6261 -1.1601
 5752SOL    HW228890   3.201   4.710   2.895  2.6107 -0.9166  0.5973
 5753SOL     OW28891   3.522   2.630   9.081  0.5352 -0.4125  0.4852
 5753SOL    HW128892   3.604   2.600   9.040  0.2318 -2.0605  1.0703
 5753SOL    HW228893   3.466   2.588   9.016  2.1512 -2.4273  0.3709
 5754SOL     OW28894   2.068   3.617   4.747 -0.2578  0.2111 -0.5878
 5754SOL    HW128895   1.979   3.645   4.769 -0.3441 -1.1069  0.6993
 5754SOL    HW228896   2.096   3.568   4.824 -1.8750  0.8034  0.3831
 5755SOL     OW28897   0.977   0.481   7.040 -0.3172 -0.3579  0.4684
 5755SOL    HW128898   0.882   0.474   7.042 -0.3610  0.3697  1.0670
 5755SOL    HW228899   0.987   0.467   6.946 -1.2478  0.1491  0.2882
 5756SOL     OW28900   0.342   4.611   2.556  0.5288  0.4770 -0.4278
 5756SOL    HW128901   0.399   4.545   2.595  0.5565  0.7517 -0.0157
 5756SOL    HW228902   0.394   4.627   2.478  0.0509 -1.9426 -1.2723
 5757SOL     OW28903   0.432   1.530   7.352 -0.2196 -0.0718  0.1637
 5757SOL    HW128904   0.444   1.580   7.272  1.4744 -1.5278 -0.4716
 5757SOL    HW228905   0.426   1.603   7.414 -0.5932  0.2202 -0.2151
 5758SOL     OW28906   1.767   0.639   0.611 -0.0553 -0.0928 -0.3392
 5758SOL    HW128907   1.789   0.695   0.537  1.7001 -1.8421 -1.1496
 5758SOL    HW228908   1.850   0.636   0.660 -1.4964 -1.9191  1.9979
 5759SOL     OW28909   2.760   3.967  14.284  0.3109  0.3117  0.2921
 5759SOL    HW128910   2.695   3.919  14.233 -0.2579  0.4644  0.8773
 5759SOL    HW228911   2.845   3.937  14.253  0.3925  0.0940  0.7369
 5760SOL     OW28912   1.511   1.965  11.522  0.2615  0.1233 -0.6584
 5760SOL    HW128913   1.602   1.951  11.547  0.6542  2.2877 -0.8545
 5760SOL    HW228914   1.504   2.052  11.563  1.4648 -0.1442  0.0971
 5761SOL     OW28915   4.244   3.193  10.123  0.0615  0.1626 -0.1209
 5761SOL    HW128916   4.260   3.149  10.207 -0.3170  1.1551  0.4664
 5761SOL    HW228917   4.237   3.285  10.148 -1.6753 -0.2673  0.9690
 5762SOL     OW28918   0.333   0.003   0.778 -0.0726  0.1741  0.0476
 5762SOL    HW128919   0.337   4.702   0.690  0.6732 -3.7461  1.7779
 5762SOL    HW228920   0.381   0.081   0.749 -0.6482 -0.2398 -2.0059
 5763SOL     OW28921   3.774   4.202   2.105  0.5971  0.1733  0.0340
 5763SOL    HW128922   3.797   4.271   2.168 -0.0198  0.0892  0.3523
 5763SOL    HW228923   3.680   4.195   2.123  0.4651  2.4508  0.1253
 5764SOL     OW28924   0.577   2.493   0.261  0.1678 -0.1447  0.3424
 5764SOL    HW128925   0.654   2.523   0.309  0.1145 -1.7551  1.4564
 5764SOL    HW228926   0.584   2.398   0.271 -2.4798 -0.0820  3.0335
 5765SOL     OW28927   0.990   4.238   8.307  0.4292 -0.2998 -0.1817
 5765SOL    HW128928   0.916   4.261   8.252  0.3141  0.2513  0.2057
 5765SOL    HW228929   0.948   4.174   8.364  0.4936 -1.6628 -1.6394
 5766SOL     OW28930   0.388   3.966  13.791 -0.4202  0.4266 -0.4013
 5766SOL    HW128931   0.323   4.034  13.807  1.5143  2.1997 -0.0047
 5766SOL    HW228932   0.390   3.970  13.695 -0.6573 -1.3879 -0.4868
 5767SOL     OW28933   2.992   3.440   0.237  0.4130 -0.1924  0.3413
 5767SOL    HW128934   3.013   3.485   0.156  1.0678 -2.0664 -0.5282
 5767SOL    HW228935   3.070   3.387   0.253  0.3552  0.4525  2.8114
 5768SOL     OW28936   2.942   3.405   3.396  0.2791  0.2956 -0.4546
 5768SOL    HW128937   2.893   3.487   3.385  0.5799  0.1395 -2.8343
 5768SOL    HW228938   2.866   3.350   3.418  0.4138 -0.2781 -1.4545
 5769SOL     OW28939   4.714   2.372   3.442 -0.1156 -0.3040  0.2555
 5769SOL    HW128940   4.702   2.386   3.348  0.4443  0.7664  0.3381
 5769SOL    HW228941   4.703   2.277   3.441 -0.8131 -0.2160 -0.2420
 5770SOL     OW28942   1.526   0.446  13.866  0.0467 -0.3464 -0.2030
 5770SOL    HW128943   1.599   0.402  13.908  0.2493 -0.1684 -0.3713
 5770SOL    HW228944   1.509   0.521  13.922  1.3084 -1.8269  2.1799
 5771SOL     OW28945   2.631   0.123  10.621 -0.4761  0.1839 -0.1547
 5771SOL    HW128946   2.645   0.052  10.559 -0.5508  1.6873 -1.8792
 5771SOL    HW228947   2.536   0.127  10.633 -0.6827 -1.0568 -1.4006
 5772SOL     OW28948   2.137   0.107  16.616  0.5554 -0.2146  0.2816
 5772SOL    HW128949   2.220   0.138  16.580  0.8381  0.8562  1.8682
 5772SOL    HW228950   2.104   0.195  16.632  2.4690  0.5611 -0.0376
 5773SOL     OW28951   1.764   2.826   7.002 -0.2146 -0.2089  0.5860
 5773SOL    HW128952   1.708   2.879   7.057 -0.9648 -0.0489 -0.3412
 5773SOL    HW228953   1.774   2.746   7.053  1.5309 -0.4298 -0.0863
 5774SOL     OW28954   2.856   4.138   3.585  0.8167  0.1870 -0.3783
 5774SOL    HW128955   2.918   4.156   3.656 -0.1677  0.3761  0.4234
 5774SOL    HW228956   2.823   4.226   3.570 -2.8878 -1.3454 -1.1131
 5775SOL     OW28957   2.130   2.631   9.155 -0.0833 -0.0120 -1.0767
 5775SOL    HW128958   2.065   2.599   9.217  0.1904 -1.7891 -1.7001
 5775SOL    HW228959   2.131   2.550   9.103 -0.6049  0.1487 -1.3446
 5776SOL     OW28960   4.545   1.774   8.998 -0.1854 -0.2876 -0.8228
 5776SOL    HW128961   4.463   1.822   8.990  0.1375  0.0948 -1.7588
 5776SOL    HW228962   4.531   1.711   9.070 -3.0692 -0.5504 -1.6507
 5777SOL     OW28963   3.993   2.122  11.738  0.2281 -0.5460 -0.2621
 5777SOL    HW128964   3.948   2.039  11.727  1.5531 -1.2361 -0.5330
 5777SOL    HW228965   3.926   2.173  11.783  1.2561  1.1903 -0.6780
 5778SOL     OW28966   3.492   4.736   6.249  0.2818 -0.0844 -0.2244
 5778SOL    HW128967   3.485   4.674   6.322  0.7349 -0.2145 -0.2884
 5778SOL    HW228968   3.501   4.682   6.171 -1.1467  0.9371 -1.0951
 5779SOL     OW28969   4.717   0.512  16.687  0.3342  0.5375  0.1841
 5779SOL    HW128970   4.623   0.517  16.698  0.1705 -0.3747 -0.7572
 5779SOL    HW228971   0.002   0.449  16.756 -0.7553 -0.7036 -0.6163
 5780SOL     OW28972   4.642   0.212   8.439 -0.8522 -0.5620  0.1443
 5780SOL    HW128973   4.673   0.239   8.525  1.2404 -0.0827 -0.7626
 5780SOL    HW228974   4.713   0.153   8.414 -1.4995 -1.4307  0.3668
 5781SOL     OW28975   4.149   3.229   2.793  0.4627  0.6841 -0.3188
 5781SOL    HW128976   4.219   3.256   2.851  1.4302 -2.4351 -0.0568
 5781SOL    HW228977   4.124   3.149   2.838 -0.6056  1.6923  0.8886
 5782SOL     OW28978   3.378   0.141   8.899  0.2592 -0.5607 -0.5163
 5782SOL    HW128979   3.448   0.168   8.959 -0.5146 -0.2462  0.2610
 5782SOL    HW228980   3.423   0.082   8.838  1.1590  1.2797 -1.6312
 5783SOL     OW28981   0.418   0.847  12.144  0.2386 -0.0403  0.8702
 5783SOL    HW128982   0.464   0.860  12.062  0.8099  0.5024  1.2761
 5783SOL    HW228983   0.474   0.884  12.212  0.7220  0.7862  0.0202
 5784SOL     OW28984   4.646   0.591   4.612  0.2529  0.6526 -0.0687
 5784SOL    HW128985   4.632   0.601   4.517 -2.8370  1.5599  0.4966
 5784SOL    HW228986   4.636   0.680   4.646  1.8537  0.2492  1.4580
 5785SOL     OW28987   0.421   1.840  15.466 -1.1795  0.4238 -0.0914
 5785SOL    HW128988   0.369   1.801  15.537 -0.8903  0.4894  0.1597
 5785SOL    HW228989   0.419   1.764  15.408  2.3848  0.2360  0.0429
 5786SOL     OW28990   1.812   1.361   5.563 -0.0667 -0.0465  0.0010
 5786SOL    HW128991   1.733   1.408   5.536  0.0347 -1.3761 -2.6234
 5786SOL    HW228992   1.788   1.279   5.519 -0.5345 -0.1068  0.3647
 5787SOL     OW28993   3.071   2.414   4.059  0.3697 -0.6726  0.0023
 5787SOL    HW128994   3.048   2.442   3.971 -1.6417 -1.4590  0.2546
 5787SOL    HW228995   2.983   2.387   4.087  0.0617 -0.0176 -0.3250
 5788SOL     OW28996   2.342   1.293   4.605 -0.1464  0.8221 -0.3296
 5788SOL    HW128997   2.330   1.258   4.693 -0.2461  2.5121  0.3179
 5788SOL    HW228998   2.328   1.384   4.632 -1.3065  0.5742 -0.1341
 5789SOL     OW28999   3.533   3.837   0.491 -0.4073 -0.2778 -0.2326
 5789SOL    HW129000   3.467   3.802   0.552  0.4605 -0.2276  0.7308
 5789SOL    HW229001   3.514   3.772   0.422 -2.3997  0.3358 -0.2517
 5790SOL     OW29002   1.467   4.693   6.975 -0.0140 -0.5004 -0.6990
 5790SOL    HW129003   1.507   4.665   6.893 -1.1448 -1.2965 -0.9810
 5790SOL    HW229004   1.542   4.730   7.022 -0.9584  1.8925 -1.0476
 5791SOL     OW29005   4.469   4.592   1.503  0.8062  0.4806 -0.2012
 5791SOL    HW129006   4.425   4.507   1.498  1.0649  0.2729  0.9352
 5791SOL    HW229007   4.548   4.564   1.455  2.0806  0.2411  2.0085
 5792SOL     OW29008   1.819   0.146   4.453 -0.0036 -0.4247  0.0695
 5792SOL    HW129009   1.771   0.087   4.395 -0.4509 -1.1447  1.1655
 5792SOL    HW229010   1.905   0.103   4.457 -0.1585 -0.7928 -0.5268
 5793SOL     OW29011   0.878   3.836   6.253  0.9632  0.3638 -0.0450
 5793SOL    HW129012   0.950   3.817   6.313  1.4971  1.5276 -0.3223
 5793SOL    HW229013   0.920   3.875   6.177  1.8250  1.0756  0.8116
 5794SOL     OW29014   0.339   1.190   0.350 -0.4392  0.1620 -0.1849
 5794SOL    HW129015   0.414   1.222   0.400  0.6821 -1.2356 -0.9912
 5794SOL    HW229016   0.369   1.213   0.262 -2.8491 -0.8158 -1.2529
 5795SOL     OW29017   2.664   0.758   2.148  0.3518  0.2919 -0.4490
 5795SOL    HW129018   2.728   0.714   2.091  0.2796  1.3701 -1.3530
 5795SOL    HW229019   2.644   0.688   2.210  0.9261 -0.0947 -0.6868
 5796SOL     OW29020   3.345   2.749   6.622 -0.1534  0.1105  0.2820
 5796SOL    HW129021   3.285   2.681   6.653  0.4578 -0.2492  0.6788
 5796SOL    HW229022   3.295   2.825   6.594  1.9455  0.9049 -1.3768
 5797SOL     OW29023   1.455   3.341   1.941 -0.1637  0.7703  0.0956
 5797SOL    HW129024   1.387   3.343   2.009 -0.4515 -0.7160 -0.1549
 5797SOL    HW229025   1.535   3.344   1.994  0.4956  0.8243 -0.9103
 5798SOL     OW29026   3.427   2.278   8.794  0.4064 -0.2548 -0.0817
 5798SOL    HW129027   3.471   2.204   8.837  2.3318 -0.3012 -2.1294
 5798SOL    HW229028   3.427   2.244   8.705 -2.8710  0.9695 -0.5609
 5799SOL     OW29029   2.812   1.218   6.933  0.0661 -0.0097  0.2069
 5799SOL    HW129030   2.742   1.257   6.881 -0.3728  0.9394  1.4968
 5799SOL    HW229031   2.761   1.155   6.984  1.6374  0.5511  2.4729
 5800SOL     OW29032   1.125   1.318   4.218 -0.1299 -0.3537  0.3314
 5800SOL    HW129033   1.196   1.254   4.209  0.9662  0.8725  0.3672
 5800SOL    HW229034   1.116   1.331   4.124 -0.7536  0.2698  0.4788
 5801SOL     OW29035   3.748   0.244   0.396  0.4737  0.1872  0.0746
 5801SOL    HW129036   3.707   0.281   0.475 -1.6365 -1.6682 -0.1389
 5801SOL    HW229037   3.745   0.321   0.340  0.0449 -1.1127 -1.6643
 5802SOL     OW29038   2.804   1.660  10.263 -0.2651 -0.1628 -0.0301
 5802SOL    HW129039   2.824   1.639  10.172 -0.8750  0.8577 -0.3989
 5802SOL    HW229040   2.710   1.674  10.254  0.0500  2.9642  1.5081
 5803SOL     OW29041   0.968   1.567   2.977  0.2554 -0.2452 -0.0583
 5803SOL    HW129042   0.899   1.511   2.942  1.0732 -2.4097  1.7816
 5803SOL    HW229043   1.017   1.503   3.030  2.1717  0.4486 -0.9738
 5804SOL     OW29044   0.975   2.055   7.149  0.0306 -0.0891  0.9204
 5804SOL    HW129045   0.900   2.100   7.186 -1.0988 -1.4581  0.3076
 5804SOL    HW229046   0.929   1.984   7.103 -0.1381  0.7010 -0.1276
 5805SOL     OW29047   0.395   0.772  14.598  0.0492  0.7841  0.1644
 5805SOL    HW129048   0.380   0.681  14.621  0.4290  0.8965  0.8465
 5805SOL    HW229049   0.302   0.797  14.595 -0.1942 -0.3113 -2.2917
 5806SOL     OW29050   0.371   2.912   6.754  0.0390 -0.0097  0.3563
 5806SOL    HW129051   0.294   2.866   6.723  0.9721 -0.6618 -0.9639
 5806SOL    HW229052   0.404   2.867   6.832 -0.4722 -1.7012 -0.4265
 5807SOL     OW29053   3.992   3.348   8.865  0.1773 -0.4006 -0.0264
 5807SOL    HW129054   3.936   3.426   8.868 -0.8429 -1.0541 -2.8883
 5807SOL    HW229055   4.075   3.391   8.845  0.4041 -0.9730 -0.3099
 5808SOL     OW29056   0.057   1.897   0.472  0.0591  0.5714  0.1564
 5808SOL    HW129057   4.709   1.939   0.460 -1.6147 -2.4142  1.3303
 5808SOL    HW229058   0.023   1.808   0.479 -1.9326  1.2313 -1.4262
 5809SOL     OW29059   2.843   1.786   6.200  0.1673  0.5275  0.5573
 5809SOL    HW129060   2.784   1.751   6.267  2.2892 -2.2654  0.9639
 5809SOL    HW229061   2.792   1.774   6.120  0.0928 -2.1401  1.0159
 5810SOL     OW29062   0.313   1.019   7.726  0.1416  0.1908  0.3013
 5810SOL    HW129063   0.342   0.932   7.754  0.6002  1.4287  3.6347
 5810SOL    HW229064   0.246   1.041   7.791  0.1912  0.9091  0.1078
 5811SOL     OW29065   2.954   0.469   6.544 -0.2244 -0.0748  0.0626
 5811SOL    HW129066   2.886   0.536   6.554 -0.0243  0.1737 -0.2113
 5811SOL    HW229067   2.974   0.467   6.637  1.8217  1.1947 -0.3398
 5812SOL     OW29068   1.445   0.475   2.607 -0.0534  0.2535  0.2244
 5812SOL    HW129069   1.452   0.459   2.701 -0.2553  0.2706  0.2433
 5812SOL    HW229070   1.357   0.446   2.581  0.1222  1.3464 -1.6450
 5813SOL     OW29071   3.842   2.921   9.821  0.3121  0.0422 -0.2566
 5813SOL    HW129072   3.926   2.928   9.867 -0.0748 -0.2396  0.5030
 5813SOL    HW229073   3.801   2.999   9.859 -0.0315  0.3532 -1.2665
 5814SOL     OW29074   2.092   2.820   8.945 -0.0432 -0.6549 -0.4346
 5814SOL    HW129075   2.023   2.762   8.911 -0.0766 -0.3163 -0.9443
 5814SOL    HW229076   2.120   2.768   9.020 -1.1654  0.5954  0.8574
 5815SOL     OW29077   1.696   0.243   0.497  0.4938 -0.1991 -0.3588
 5815SOL    HW129078   1.689   0.151   0.470 -0.2035 -0.8791  2.1668
 5815SOL    HW229079   1.620   0.278   0.451  0.9861  2.4541  0.8235
 5816SOL     OW29080   2.303   2.551   6.533 -0.2458 -0.1194  0.5014
 5816SOL    HW129081   2.288   2.637   6.573  0.6194 -0.1004  0.7892
 5816SOL    HW229082   2.257   2.484   6.584  1.1771 -2.8813 -1.8429
 5817SOL     OW29083   4.471   3.428  10.828 -0.3308 -0.3287 -0.1434
 5817SOL    HW129084   4.559   3.392  10.818 -0.0172  0.3943  0.0836
 5817SOL    HW229085   4.451   3.450  10.737 -3.9018 -1.2807  0.3934
 5818SOL     OW29086   2.142   2.934  10.035 -0.4071  0.0303 -0.1588
 5818SOL    HW129087   2.067   2.883  10.005 -0.0472  0.3110 -1.5575
 5818SOL    HW229088   2.092   2.980  10.103 -0.7628  1.6844 -1.5356
 5819SOL     OW29089   0.952   2.823  10.282 -0.4651  0.1637 -0.2915
 5819SOL    HW129090   1.005   2.871  10.219  0.8169 -1.9294 -0.8200
 5819SOL    HW229091   1.021   2.793  10.343 -0.9846 -2.3248 -0.9207
 5820SOL     OW29092   0.767   2.576   0.480 -0.4246  0.0767  0.9820
 5820SOL    HW129093   0.787   2.582   0.574  1.8064 -0.9619  0.5695
 5820SOL    HW229094   0.760   2.669   0.459  0.3905 -0.0741  0.0855
 5821SOL     OW29095   3.231   1.815   5.839  0.2508 -0.4320 -0.1257
 5821SOL    HW129096   3.233   1.908   5.861  1.5886 -0.1795 -1.2794
 5821SOL    HW229097   3.141   1.789   5.860 -0.6540  1.7542 -1.2896
 5822SOL     OW29098   2.701   1.585   8.353  0.5023 -0.1748 -0.7708
 5822SOL    HW129099   2.701   1.675   8.320  1.4134 -0.0890 -0.5242
 5822SOL    HW229100   2.614   1.553   8.330  0.7931  0.2181 -2.4068
 5823SOL     OW29101   0.628   3.851   5.107  0.6395  0.0111  0.9386
 5823SOL    HW129102   0.653   3.772   5.155  3.1438  0.6271  0.6585
 5823SOL    HW229103   0.573   3.899   5.169 -1.9493 -0.2551 -1.1647
 5824SOL     OW29104   3.447   3.355   4.802 -0.5669  0.1835 -0.5024
 5824SOL    HW129105   3.535   3.387   4.824  0.1761 -2.6033  0.5939
 5824SOL    HW229106   3.463   3.305   4.722 -0.7973 -1.0416  0.2090
 5825SOL     OW29107   4.460   2.391   1.513  0.0100 -0.0006  0.1403
 5825SOL    HW129108   4.502   2.410   1.597 -0.6916 -1.4219  0.8228
 5825SOL    HW229109   4.536   2.352   1.470  1.7460  0.0471  3.1768
 5826SOL     OW29110   3.043   3.896   0.987 -0.6021  0.3959 -0.1202
 5826SOL    HW129111   3.003   3.982   0.992  0.2933  0.7147  1.7551
 5826SOL    HW229112   3.071   3.897   1.079 -3.9368 -0.4813  0.9056
 5827SOL     OW29113   0.147   1.583   5.727 -0.1365  0.7040  0.0949
 5827SOL    HW129114   0.116   1.492   5.730  2.7102 -0.3370 -1.9111
 5827SOL    HW229115   0.194   1.582   5.644  1.5477 -0.1480  1.0428
 5828SOL     OW29116   1.262   1.431   6.994 -0.1841  0.1404  0.0568
 5828SOL    HW129117   1.306   1.377   7.060 -2.3677 -0.6543  0.8333
 5828SOL    HW229118   1.174   1.438   7.029  0.4574 -0.4714  1.7947
 5829SOL     OW29119   1.423   3.508  16.735  0.2651 -0.0620  0.0044
 5829SOL    HW129120   1.391   3.551  16.814  1.5812  0.1200  0.4434
 5829SOL    HW229121   1.511   3.543  16.723 -0.3688  1.7126  0.6510
 5830SOL     OW29122   2.959   0.823   8.318  0.2989  0.0743 -0.4813
 5830SOL    HW129123   2.908   0.878   8.260  3.0201  2.9243 -0.1569
 5830SOL    HW229124   2.896   0.787   8.380  0.1146 -0.0541 -0.7443
 5831SOL     OW29125   3.715   0.631   8.680  0.2863  0.7218  0.3875
 5831SOL    HW129126   3.783   0.564   8.673  0.7075  1.0736  1.1731
 5831SOL    HW229127   3.730   0.674   8.764  2.0469  1.0000 -0.0622
 5832SOL     OW29128   1.537   4.725   3.707  0.1962  0.0745 -0.0284
 5832SOL    HW129129   1.527   4.634   3.681  1.2908  0.4652 -1.8934
 5832SOL    HW229130   1.535   4.713   3.802  1.4737  1.7003  0.2165
 5833SOL     OW29131   2.695   2.972   4.794  0.5281 -0.3376 -0.1134
 5833SOL    HW129132   2.606   2.992   4.823  1.3301 -0.2592  2.2361
 5833SOL    HW229133   2.688   2.879   4.772 -0.8680 -0.6747  1.7790
 5834SOL     OW29134   3.953   2.073   3.676 -0.1138 -0.0913 -0.4417
 5834SOL    HW129135   4.017   2.005   3.699  0.8444  1.2007  0.7143
 5834SOL    HW229136   3.919   2.035   3.595 -0.8956  0.0524 -0.1733
 5835SOL     OW29137   2.320   1.897  16.128 -0.3280 -0.1487  0.1508
 5835SOL    HW129138   2.277   1.981  16.112  0.3764  0.1117 -0.3905
 5835SOL    HW229139   2.337   1.886  16.221  1.4635 -2.3523 -0.4396
 5836SOL     OW29140   3.063   3.460   9.098  1.3009  0.2200  0.2888
 5836SOL    HW129141   3.027   3.452   9.010  0.8042  2.0512  0.3211
 5836SOL    HW229142   3.156   3.437   9.098  1.1489 -0.3897  2.7092
 5837SOL     OW29143   0.285   1.350   8.638  0.0413 -0.1064 -0.1842
 5837SOL    HW129144   0.269   1.432   8.685 -0.6853 -0.9074  0.9704
 5837SOL    HW229145   0.378   1.334   8.658  0.2204 -1.5588 -2.2846
 5838SOL     OW29146   4.055   2.182   4.435  0.3895  0.6644 -0.3184
 5838SOL    HW129147   3.995   2.137   4.376  0.7094  0.7863 -0.7414
 5838SOL    HW229148   4.131   2.190   4.377 -1.3578 -1.5193 -2.8902
 5839SOL     OW29149   2.298   0.119   3.844  0.6021 -0.7049 -0.3855
 5839SOL    HW129150   2.340   0.162   3.770  0.5060  0.1667  0.0665
 5839SOL    HW229151   2.221   0.174   3.849  1.7382  0.6184  2.7660
 5840SOL     OW29152   4.046   1.386  13.032  0.2712 -0.4409 -0.0294
 5840SOL    HW129153   4.111   1.385  12.962  0.3034 -0.4631  0.0010
 5840SOL    HW229154   4.016   1.476  13.026  0.5155 -0.1732  2.7804
 5841SOL     OW29155   2.545   0.512   5.111 -0.5352 -0.3739 -0.1023
 5841SOL    HW129156   2.475   0.576   5.095  0.5711  0.5222 -1.3690
 5841SOL    HW229157   2.520   0.449   5.043  0.9368  0.1172 -1.0853
 5842SOL     OW29158   2.021   1.218  15.386  0.0957  0.0582 -0.2011
 5842SOL    HW129159   1.971   1.208  15.466 -0.8339 -0.6333 -0.8663
 5842SOL    HW229160   1.953   1.190  15.324 -1.0134  0.9309  0.6170
 5843SOL     OW29161   1.892   1.894  16.252  0.2591  0.0834 -0.4124
 5843SOL    HW129162   1.860   1.983  16.267 -0.1190  0.1558 -1.6821
 5843SOL    HW229163   1.957   1.880  16.321  1.8265 -0.4020 -1.9913
 5844SOL     OW29164   4.300   1.589   2.530 -0.6261  0.5574  0.2953
 5844SOL    HW129165   4.252   1.662   2.569  0.3117  1.9935 -1.2506
 5844SOL    HW229166   4.391   1.618   2.537 -0.5717  0.4101  0.2026
 5845SOL     OW29167   1.587   0.425  12.644  0.2390  0.1374 -0.3566
 5845SOL    HW129168   1.664   0.394  12.596  1.3110  1.4929  0.4638
 5845SOL    HW229169   1.524   0.373  12.594  0.2435  0.3535 -0.5884
 5846SOL     OW29170   2.107   2.211  14.249 -0.4283  0.1455 -0.1664
 5846SOL    HW129171   2.097   2.234  14.156  1.9836 -0.0363 -0.4905
 5846SOL    HW229172   2.019   2.215  14.287  0.1210  1.2110  0.9903
 5847SOL     OW29173   1.865   0.420  12.508  0.2456 -1.1885 -0.6556
 5847SOL    HW129174   1.921   0.344  12.494  1.2145 -0.4805 -0.5716
 5847SOL    HW229175   1.908   0.475  12.573 -3.1326  1.8757 -0.9933
 5848SOL     OW29176   1.564   1.694   6.692  0.1215  0.1332 -0.3877
 5848SOL    HW129177   1.521   1.628   6.746 -0.8541  1.0382 -0.0681
 5848SOL    HW229178   1.640   1.637   6.677  1.4364  1.8174 -0.1855
 5849SOL     OW29179   0.142   3.660  10.164  0.1511 -0.0137  0.4094
 5849SOL    HW129180   0.222   3.698  10.199 -0.1021  0.8999 -0.0162
 5849SOL    HW229181   0.091   3.633  10.241  0.1212 -0.5064  0.2209
 5850SOL     OW29182   3.427   1.596  11.882 -0.2324  0.1877 -0.7701
 5850SOL    HW129183   3.349   1.590  11.826  0.7178 -0.4036 -2.0373
 5850SOL    HW229184   3.482   1.519  11.868 -0.9643 -0.6179  0.8457
 5851SOL     OW29185   2.440   2.163   5.131 -0.7049  0.2458  0.0782
 5851SOL    HW129186   2.370   2.206   5.082  0.8816  1.2355 -1.3119
 5851SOL    HW229187   2.494   2.241   5.124 -2.5095  1.5225  0.4106
 5852SOL     OW29188   1.837   0.979   7.326 -0.1310 -0.4990  0.0098
 5852SOL    HW129189   1.810   0.894   7.291 -2.5894  1.5261 -3.0287
 5852SOL    HW229190   1.907   1.007   7.267  0.8934 -2.7895  0.1397
 5853SOL     OW29191   0.825   4.600   3.062 -0.1708  0.1377 -0.7326
 5853SOL    HW129192   0.792   4.567   2.979 -0.2030 -1.4678 -0.0700
 5853SOL    HW229193   0.839   4.694   3.046  0.2878 -0.0812 -1.6050
 5854SOL     OW29194   1.811   0.405   4.384  0.3338 -0.6103  0.4338
 5854SOL    HW129195   1.811   0.318   4.424 -1.9292 -0.4628  0.7391
 5854SOL    HW229196   1.715   0.412   4.380  0.3556 -0.7289 -0.3711
 5855SOL     OW29197   3.095   0.709   9.142 -0.3408  0.2078 -0.0098
 5855SOL    HW129198   3.133   0.625   9.167  1.8919  0.8262 -1.3696
 5855SOL    HW229199   3.034   0.686   9.072  0.9327 -3.3157  0.0267
 5856SOL     OW29200   0.043   4.585  15.612  0.1638 -0.0967 -0.2656
 5856SOL    HW129201   0.017   4.558  15.701  1.2331  1.5219  0.5287
 5856SOL    HW229202   0.096   4.661  15.634 -2.2202  1.6042 -0.4684
 5857SOL     OW29203   1.137   4.579   8.203  0.7098 -0.3782 -0.0096
 5857SOL    HW129204   1.208   4.598   8.142  0.8203 -1.0427 -0.0890
 5857SOL    HW229205   1.186   4.512   8.250  0.3866 -1.8572 -1.7834
 5858SOL     OW29206   4.333   2.994   8.624  0.1754 -0.1232  0.1224
 5858SOL    HW129207   4.293   3.059   8.565 -1.9483 -2.3657 -0.9362
 5858SOL    HW229208   4.267   2.927   8.640 -1.9773  1.8513 -0.3869
 5859SOL     OW29209   0.840   2.593  15.884 -0.1202 -0.4251 -0.3992
 5859SOL    HW129210   0.907   2.661  15.892 -0.2961 -0.2049 -0.7617
 5859SOL    HW229211   0.883   2.511  15.905  0.7128 -0.8386 -3.6592
 5860SOL     OW29212   4.235   2.113   6.668 -0.0799 -0.4493 -1.0452
 5860SOL    HW129213   4.233   2.046   6.737  1.4667  0.0603 -0.4982
 5860SOL    HW229214   4.311   2.085   6.616 -1.7863 -1.1234 -3.1679
 5861SOL     OW29215   0.342   1.036   2.675  0.2446 -0.2974 -0.1948
 5861SOL    HW129216   0.275   1.090   2.632 -0.4476  0.4472  1.8134
 5861SOL    HW229217   0.306   1.020   2.763 -1.4419  1.5235 -0.5596
 5862SOL     OW29218   3.497   4.425   2.602 -0.1804 -0.0097 -0.0223
 5862SOL    HW129219   3.555   4.463   2.536  0.4676  0.8437  1.0426
 5862SOL    HW229220   3.534   4.337   2.603  1.4194  0.6548 -0.8966
 5863SOL     OW29221   0.889   0.760   5.869  0.4454  0.4261  0.0205
 5863SOL    HW129222   0.953   0.823   5.902  1.0386  0.4589 -1.1967
 5863SOL    HW229223   0.924   0.690   5.814 -0.0398 -1.0557  1.5813
 5864SOL     OW29224   3.778   3.599  13.130 -0.1379 -0.2712 -0.7449
 5864SOL    HW129225   3.843   3.535  13.099  1.9794  0.6206  1.8368
 5864SOL    HW229226   3.774   3.665  13.062  1.5027  0.2563 -0.3488
 5865SOL     OW29227   1.114   0.686   4.952 -0.7557 -0.5585 -0.2253
 5865SOL    HW129228   1.031   0.660   4.992 -1.0648 -0.0789 -0.5547
 5865SOL    HW229229   1.077   0.764   4.910  1.3533  1.0028  0.7447
 5866SOL     OW29230   2.325   2.604   3.221  0.1478  0.2417 -0.1495
 5866SOL    HW129231   2.363   2.540   3.281 -0.9279 -0.5849 -0.3364
 5866SOL    HW229232   2.270   2.547   3.167  0.6810  0.6346 -1.1002
 5867SOL     OW29233   3.405   1.580  12.624 -0.1053 -0.7807 -0.2554
 5867SOL    HW129234   3.352   1.650  12.661 -1.2963 -0.0371 -3.3611
 5867SOL    HW229235   3.343   1.532  12.569  0.4693 -1.8911  0.0666
 5868SOL     OW29236   3.199   1.646   8.056 -0.1576  0.5593  0.1786
 5868SOL    HW129237   3.189   1.738   8.031  1.5529  0.8364  0.4874
 5868SOL    HW229238   3.292   1.640   8.033 -0.2774 -1.3828  0.1754
 5869SOL     OW29239   4.267   2.141   9.529 -0.1116  0.3215 -0.4307
 5869SOL    HW129240   4.356   2.145   9.564 -1.1179 -1.4645  2.3709
 5869SOL    HW229241   4.222   2.201   9.588 -0.0701 -0.8933  0.8608
 5870SOL     OW29242   0.476   3.460   8.255 -0.4501  0.0080 -0.1176
 5870SOL    HW129243   0.540   3.525   8.227 -1.7209  1.3999  0.2235
 5870SOL    HW229244   0.511   3.379   8.219 -2.0219  0.9493 -3.7534
 5871SOL     OW29245   0.290   0.766  11.412 -0.6859 -0.7337 -0.0405
 5871SOL    HW129246   0.302   0.714  11.491  1.7499 -1.2339 -0.7260
 5871SOL    HW229247   0.227   0.834  11.437  0.7917 -0.5519  3.1030
 5872SOL     OW29248   0.205   4.209   9.200 -0.1052 -0.0029  0.1054
 5872SOL    HW129249   0.186   4.115   9.199  1.1893 -0.2214 -2.6384
 5872SOL    HW229250   0.264   4.210   9.125  0.5004  0.9814  0.5968
 5873SOL     OW29251   1.022   2.817   1.227  0.2498 -0.5048  0.0970
 5873SOL    HW129252   0.940   2.828   1.179  1.5979  2.1064 -1.6454
 5873SOL    HW229253   1.021   2.907   1.259 -0.0394  0.2860 -2.0945
 5874SOL     OW29254   4.135   4.159  11.983 -0.5242  0.0423  0.3849
 5874SOL    HW129255   4.183   4.124  11.908 -0.8621 -1.2165  0.7698
 5874SOL    HW229256   4.180   4.243  11.993 -1.0945  0.2320  1.3875
 5875SOL     OW29257   3.134   3.337   5.510 -0.1333 -0.1032  0.1301
 5875SOL    HW129258   3.213   3.375   5.471  0.5458 -0.8203  0.8203
 5875SOL    HW229259   3.151   3.253   5.468 -0.8367 -0.2120  0.0649
 5876SOL     OW29260   3.124   1.063   2.127 -0.4602  0.3476 -0.2437
 5876SOL    HW129261   3.105   1.148   2.167  3.8467  1.1066  0.1632
 5876SOL    HW229262   3.060   1.059   2.056  0.9776 -0.9646 -1.4470
 5877SOL     OW29263   2.068   0.131   8.581  0.6722  0.5283  0.0534
 5877SOL    HW129264   2.118   0.132   8.662 -1.6887  3.1915  1.4918
 5877SOL    HW229265   2.136   0.103   8.521  1.1855 -0.9226  1.3281
 5878SOL     OW29266   0.745   3.689   3.071  0.0712 -0.5198 -0.6095
 5878SOL    HW129267   0.683   3.625   3.038 -0.2249 -0.1494 -0.7715
 5878SOL    HW229268   0.703   3.730   3.147  1.7060  0.2531 -0.1204
 5879SOL     OW29269   1.715   2.407  13.963 -0.1691 -0.1454 -0.0694
 5879SOL    HW129270   1.805   2.436  13.949 -1.0365  1.9223 -1.3863
 5879SOL    HW229271   1.707   2.350  13.886 -0.6323  1.0864 -0.9364
 5880SOL     OW29272   3.601   1.237   3.174 -0.4257  0.5564  0.4922
 5880SOL    HW129273   3.556   1.213   3.093  2.3188  0.8675 -1.1062
 5880SOL    HW229274   3.684   1.190   3.170 -1.0425 -0.5473  0.3915
 5881SOL     OW29275   0.183   0.910   3.607  0.1961  0.5294 -0.5176
 5881SOL    HW129276   0.158   0.900   3.699 -3.6623  0.0050 -1.6355
 5881SOL    HW229277   0.253   0.846   3.594 -0.1597  0.2113 -0.8671
 5882SOL     OW29278   4.320   3.426   9.758 -0.0874 -0.0477 -0.5265
 5882SOL    HW129279   4.274   3.505   9.787  0.4578 -0.8436  2.5528
 5882SOL    HW229280   4.411   3.453   9.772 -0.5397  1.9113 -1.2979
 5883SOL     OW29281   1.501   0.210  10.718  0.4424  0.0350 -0.1190
 5883SOL    HW129282   1.439   0.199  10.790  1.4850 -0.6162  0.6878
 5883SOL    HW229283   1.552   0.284  10.750  1.5012 -0.3179 -0.9872
 5884SOL     OW29284   2.062   0.767  16.439  0.2864 -0.0040 -0.2169
 5884SOL    HW129285   2.141   0.722  16.407 -0.4118 -2.2064  1.1168
 5884SOL    HW229286   2.087   0.767  16.532  1.2615  0.4063 -0.4816
 5885SOL     OW29287   3.359   0.928   3.430  0.3552  0.3563  0.0048
 5885SOL    HW129288   3.417   0.874   3.376  2.2351  1.5970  0.8201
 5885SOL    HW229289   3.326   0.866   3.495 -2.1554  0.8067 -0.8223
 5886SOL     OW29290   0.750   1.279   3.989  0.6338 -0.2403 -0.6510
 5886SOL    HW129291   0.773   1.192   3.958  1.1909 -0.2196 -0.3033
 5886SOL    HW229292   0.788   1.264   4.075  3.2960  2.8880 -1.2950
 5887SOL     OW29293   4.683   0.093  10.437  0.3159  0.1227 -0.2318
 5887SOL    HW129294   4.727   0.111  10.520 -2.3822  2.2255  0.7477
 5887SOL    HW229295   0.008   0.120  10.368 -2.3576  1.1775 -2.1922
 5888SOL     OW29296   3.526   2.112  13.004  0.2173 -0.3486  0.0495
 5888SOL    HW129297   3.537   2.028  12.959 -1.0405 -0.2702 -0.4030
 5888SOL    HW229298   3.618   2.121  13.029 -0.0164 -1.9176  1.5088
 5889SOL     OW29299   3.450   2.851  10.196 -0.6858  0.0512  0.1558
 5889SOL    HW129300   3.374   2.795  10.184 -0.7089 -0.3354  2.1207
 5889SOL    HW229301   3.518   2.801  10.152 -1.1181 -1.5303  1.3187
 5890SOL     OW29302   2.543   2.434   2.451 -0.4382  0.0381  0.3964
 5890SOL    HW129303   2.463   2.431   2.504 -0.3544  1.2384  0.5891
 5890SOL    HW229304   2.520   2.442   2.358  1.2121 -1.8645 -0.1809
 5891SOL     OW29305   0.344   2.472   8.585  0.2474 -0.1506 -0.0703
 5891SOL    HW129306   0.287   2.423   8.526 -0.4877  0.8333 -0.1791
 5891SOL    HW229307   0.432   2.445   8.561 -0.7071 -2.3089 -1.0819
 5892SOL     OW29308   0.123   0.921   8.655  0.1606  0.0258 -0.3560
 5892SOL    HW129309   0.040   0.948   8.615  0.2312  1.5773  0.5585
 5892SOL    HW229310   0.102   0.838   8.697 -0.9714  1.1901  1.3666
 5893SOL     OW29311   2.391   0.935  17.106 -0.5318  0.1749  0.0903
 5893SOL    HW129312   2.361   1.025  17.120  1.5074  0.9138 -0.1756
 5893SOL    HW229313   2.388   0.899  17.194  0.1152  0.0250  0.0535
 5894SOL     OW29314   4.521   3.399   4.880  0.4755  0.2956  0.1309
 5894SOL    HW129315   4.540   3.305   4.877  1.9002  0.5835  0.0892
 5894SOL    HW229316   4.459   3.408   4.952 -0.1214  3.2073 -0.7183
 5895SOL     OW29317   4.221   0.410   6.296 -0.5234  0.3918  0.9944
 5895SOL    HW129318   4.270   0.470   6.351 -0.0330  1.0698 -0.1938
 5895SOL    HW229319   4.137   0.456   6.303  0.6802  2.4411  1.8995
 5896SOL     OW29320   1.588   0.654   5.795 -0.2543 -0.5132 -0.1743
 5896SOL    HW129321   1.635   0.590   5.742 -2.0361 -1.6243 -0.4004
 5896SOL    HW229322   1.638   0.638   5.875 -1.8602 -1.2225  0.6805
 5897SOL     OW29323   2.597   3.677   4.311 -0.5535  0.4873 -0.5653
 5897SOL    HW129324   2.608   3.703   4.402 -0.2489  2.0870 -1.0728
 5897SOL    HW229325   2.551   3.753   4.276 -0.1159  1.3573  0.7468
 5898SOL     OW29326   2.064   4.653  10.666  0.2549  0.7626  0.1594
 5898SOL    HW129327   1.972   4.628  10.671 -0.4605  3.3683  0.1320
 5898SOL    HW229328   2.083   4.672  10.758 -1.6164 -2.7202  1.2365
 5899SOL     OW29329   3.457   4.534   6.449 -0.5832 -0.2168 -0.2947
 5899SOL    HW129330   3.402   4.456   6.450  0.8415 -1.2031 -0.4347
 5899SOL    HW229331   3.401   4.605   6.480  0.3499 -0.9716  3.0865
 5900SOL     OW29332   4.485   2.805   8.400  0.1893  0.1706  0.1117
 5900SOL    HW129333   4.426   2.860   8.452 -0.2004 -0.3722  0.2439
 5900SOL    HW229334   4.468   2.841   8.312 -0.6770 -2.1171 -0.6505
 5901SOL     OW29335   1.102   4.183   8.722  0.0482  0.4994  0.0702
 5901SOL    HW129336   1.056   4.250   8.670  1.3774  0.1179 -1.6074
 5901SOL    HW229337   1.046   4.109   8.701  0.6147  0.1531 -0.2207
 5902SOL     OW29338   2.960   0.964   5.135 -0.0209 -0.4967  0.0226
 5902SOL    HW129339   2.900   1.037   5.155  0.6147 -0.3987  1.5552
 5902SOL    HW229340   2.892   0.897   5.139 -0.7623  0.1023 -3.0298
 5903SOL     OW29341   1.084   3.699  15.022 -0.1917  0.1283  0.1569
 5903SOL    HW129342   1.027   3.723  15.095 -0.8721 -2.6434  0.5270
 5903SOL    HW229343   1.155   3.761  15.038  1.1592 -1.3161 -0.2957
 5904SOL     OW29344   3.574   3.002   8.830  0.2540  0.1961 -0.0371
 5904SOL    HW129345   3.523   3.004   8.911 -1.8836  3.3989 -1.4425
 5904SOL    HW229346   3.579   3.095   8.807  0.2991  0.3125  0.4334
 5905SOL     OW29347   0.331   2.304   1.748  0.9708  0.3190 -0.0895
 5905SOL    HW129348   0.292   2.367   1.809 -1.5930 -1.3555  0.0370
 5905SOL    HW229349   0.405   2.353   1.713 -0.2158  2.7255  0.7006
 5906SOL     OW29350   2.041   0.683  12.014 -0.4199 -0.3493 -0.3838
 5906SOL    HW129351   2.010   0.648  12.098  0.4463 -0.1387  0.0271
 5906SOL    HW229352   2.031   0.777  12.022 -2.1636 -0.5947  0.3901
 5907SOL     OW29353   2.106   0.876   4.175 -0.7718 -0.2447  0.4270
 5907SOL    HW129354   2.091   0.872   4.269 -1.2898 -0.5333  0.3303
 5907SOL    HW229355   2.178   0.814   4.163 -0.2649 -0.3462  4.0461
 5908SOL     OW29356   0.108   3.755   9.898 -0.0916 -0.2173  0.0035
 5908SOL    HW129357   0.154   3.832   9.931 -1.2789  0.9074 -0.9773
 5908SOL    HW229358   0.088   3.700   9.974  2.7103 -1.8884 -0.4928
 5909SOL     OW29359   0.083   3.174  11.735  0.1362  0.4252 -0.5195
 5909SOL    HW129360   0.023   3.231  11.686 -3.4049 -1.4310  1.6702
 5909SOL    HW229361   0.033   3.093  11.732 -0.3792  0.7003  0.4860
 5910SOL     OW29362   4.201   2.005   6.287 -0.1734 -0.1075  0.3475
 5910SOL    HW129363   4.247   1.959   6.217  2.7154  0.7070  1.7386
 5910SOL    HW229364   4.271   2.025   6.349  0.6974  1.6201 -1.2111
 5911SOL     OW29365   4.670   1.362   6.211 -0.7542  0.0669 -0.0434
 5911SOL    HW129366   4.728   1.381   6.137  1.8349  0.3605  2.0578
 5911SOL    HW229367   4.605   1.433   6.210 -0.7782  0.0377 -1.1338
 5912SOL     OW29368   4.025   3.442  11.079 -0.4778  0.2515  0.2043
 5912SOL    HW129369   4.115   3.455  11.109 -0.4219 -0.8939  0.4999
 5912SOL    HW229370   3.992   3.399  11.158 -0.1003 -3.0455 -1.4356
 5913SOL     OW29371   0.321   2.728   6.001  0.2241  0.2225  1.0188
 5913SOL    HW129372   0.396   2.782   5.978  1.5335 -0.1668  4.3850
 5913SOL    HW229373   0.252   2.793   6.015  0.3884  0.0042  2.9417
 5914SOL     OW29374   3.609   3.782  12.725 -0.2724 -0.3284 -0.2950
 5914SOL    HW129375   3.684   3.781  12.665  0.8297 -0.7377  1.0972
 5914SOL    HW229376   3.578   3.871  12.706 -1.1880 -1.3087 -3.3408
 5915SOL     OW29377   2.273   4.472  12.809 -0.2132  0.0184  1.2897
 5915SOL    HW129378   2.293   4.565  12.823 -1.6824  0.5577 -0.2220
 5915SOL    HW229379   2.341   4.437  12.751 -0.0035  1.0194  0.9354
 5916SOL     OW29380   1.048   3.061   0.772 -0.2704 -0.1647 -0.2507
 5916SOL    HW129381   1.008   3.008   0.840 -0.2566 -0.8636 -0.7950
 5916SOL    HW229382   1.056   3.143   0.822 -1.1828  0.3537 -0.9540
 5917SOL     OW29383   0.645   4.439   5.670 -0.6133 -0.1034  0.3918
 5917SOL    HW129384   0.633   4.346   5.650 -0.8029  0.1974 -0.8619
 5917SOL    HW229385   0.641   4.471   5.580  2.9298 -0.4122  0.1089
 5918SOL     OW29386   2.143   3.960  17.332 -0.4248 -0.3129 -0.0622
 5918SOL    HW129387   2.110   3.870  17.320 -2.2532  0.6379 -2.1199
 5918SOL    HW229388   2.063   4.001  17.300  0.6283  0.3018 -1.9279
 5919SOL     OW29389   3.136   1.177   0.175  0.4306  0.4765 -0.1129
 5919SOL    HW129390   3.207   1.152   0.234 -1.2277 -1.1735  1.1901
 5919SOL    HW229391   3.118   1.087   0.146  0.9401  0.6624 -0.9922
 5920SOL     OW29392   1.220   4.690   3.795  0.2246  0.5394 -0.4185
 5920SOL    HW129393   1.145   4.663   3.743  0.1624  1.5468 -0.8343
 5920SOL    HW229394   1.287   4.622   3.780  0.1313  0.0603  1.3046
 5921SOL     OW29395   3.896   2.473  13.150  0.0860 -0.0924  0.7253
 5921SOL    HW129396   3.929   2.490  13.061  0.6030  0.3205  0.9927
 5921SOL    HW229397   3.979   2.445  13.188  0.2994  3.3367  2.8536
 5922SOL     OW29398   2.303   4.489   2.884  0.6057  0.5372 -0.0591
 5922SOL    HW129399   2.345   4.572   2.861 -1.3394  1.3506 -0.6793
 5922SOL    HW229400   2.301   4.444   2.799  0.2050 -1.3457  0.9648
 5923SOL     OW29401   2.052   0.277   7.649 -0.1276  0.3938 -0.1368
 5923SOL    HW129402   1.990   0.326   7.595  1.1464 -0.0970 -2.0160
 5923SOL    HW229403   2.042   0.333   7.726 -2.2115 -1.6223  1.1017
 5924SOL     OW29404   3.467   3.594   2.213 -0.2412  0.0094  0.1762
 5924SOL    HW129405   3.509   3.638   2.287  1.8305 -2.6864  0.6342
 5924SOL    HW229406   3.472   3.655   2.140 -3.0944 -1.0238 -0.8606
 5925SOL     OW29407   3.239   0.396   3.727  0.3078 -0.0746 -0.0272
 5925SOL    HW129408   3.314   0.455   3.730 -0.8467  1.4234 -0.7071
 5925SOL    HW229409   3.281   0.312   3.744 -1.9345 -1.2689 -0.4326
 5926SOL     OW29410   4.152   4.331   7.336 -0.6743  0.1876 -0.2863
 5926SOL    HW129411   4.212   4.269   7.294 -0.6642  0.3310 -0.4853
 5926SOL    HW229412   4.155   4.402   7.271 -0.6300 -1.6740 -2.3239
 5927SOL     OW29413   0.322   0.167  15.376  0.0049 -0.5233 -0.0592
 5927SOL    HW129414   0.390   0.204  15.433  0.7687 -1.3972 -0.3978
 5927SOL    HW229415   0.376   0.128  15.307 -2.9704 -1.5105 -1.7833
 5928SOL     OW29416   0.457   1.984   0.129  0.3525  0.1832  0.0644
 5928SOL    HW129417   0.503   2.058   0.088  1.4251 -0.9169 -0.6983
 5928SOL    HW229418   0.373   2.027   0.143  0.6498  0.9141 -0.4059
 5929SOL     OW29419   2.531   1.656   9.001  0.1586  0.0960 -0.6476
 5929SOL    HW129420   2.568   1.738   8.970 -0.2384  1.4561  2.4982
 5929SOL    HW229421   2.472   1.678   9.073 -0.6376 -0.1726 -1.2170
 5930SOL     OW29422   3.133   0.029   7.179  0.5114  0.0290  0.1677
 5930SOL    HW129423   3.099   0.006   7.265 -0.4970  0.9099  0.0204
 5930SOL    HW229424   3.173   4.684   7.150  1.7132  1.1258 -1.2718
 5931SOL     OW29425   4.541   2.442   6.607 -0.2710  0.1087  0.3047
 5931SOL    HW129426   4.565   2.350   6.598 -1.8636 -0.5363  2.7740
 5931SOL    HW229427   4.610   2.455   6.672 -0.0417  0.8787 -0.0850
 5932SOL     OW29428   1.350   0.325   3.352  0.0437 -0.5526  0.1825
 5932SOL    HW129429   1.264   0.352   3.385 -1.0559 -1.3420 -2.0738
 5932SOL    HW229430   1.360   0.399   3.292  0.7244  1.4052  2.6774
 5933SOL     OW29431   4.248   2.286  12.756 -0.6818  0.6490 -0.2728
 5933SOL    HW129432   4.230   2.293  12.663 -0.0203 -1.0247 -0.5267
 5933SOL    HW229433   4.188   2.351  12.793 -0.1362 -0.5401  2.7231
 5934SOL     OW29434   0.258   2.327   3.052 -0.4255  0.6735  0.3509
 5934SOL    HW129435   0.204   2.403   3.076 -0.4091  0.6020  0.6132
 5934SOL    HW229436   0.285   2.355   2.964  0.0190 -2.1016 -0.3695
 5935SOL     OW29437   0.142   2.921   1.415 -0.4098  0.4512  0.2822
 5935SOL    HW129438   0.092   2.845   1.446 -2.5429  1.7282 -0.0250
 5935SOL    HW229439   0.067   2.956   1.367 -0.3210  1.2218  0.7115
 5936SOL     OW29440   4.266   0.964   7.540  0.1045 -0.0722  0.0805
 5936SOL    HW129441   4.175   0.995   7.534 -0.1183 -0.4253  1.7072
 5936SOL    HW229442   4.271   0.941   7.633  0.0123  1.3964  0.4588
 5937SOL     OW29443   4.146   2.716   3.166  0.6189  0.0420  0.0576
 5937SOL    HW129444   4.122   2.670   3.086 -0.9248 -0.4025  0.7709
 5937SOL    HW229445   4.235   2.688   3.188  0.2058 -0.2645  1.3490
 5938SOL     OW29446   1.039   3.344   2.419  0.2184  0.8140 -0.0676
 5938SOL    HW129447   1.084   3.267   2.454 -0.5225  0.4557  0.0963
 5938SOL    HW229448   0.950   3.311   2.436  1.2351 -1.9937 -0.2262
 5939SOL     OW29449   2.885   4.612   3.093  0.2045  0.0950  0.2127
 5939SOL    HW129450   2.852   4.546   3.154 -0.0864  0.2164  0.1847
 5939SOL    HW229451   2.955   4.644   3.151 -1.9263  1.3835  2.0647
 5940SOL     OW29452   2.840   3.765   5.420  0.4513  0.3253  0.2263
 5940SOL    HW129453   2.864   3.681   5.379  1.3937  0.6904  0.0233
 5940SOL    HW229454   2.850   3.745   5.513 -0.1407  1.4552  0.5217
 5941SOL     OW29455   2.411   1.193   0.010  0.0685  0.3212 -0.1083
 5941SOL    HW129456   2.471   1.264   0.034  1.4805 -1.0545  0.4016
 5941SOL    HW229457   2.445   1.112   0.047  1.8097 -0.1372 -2.6601
 5942SOL     OW29458   1.621   3.304   5.812 -0.1673  0.5017  0.3403
 5942SOL    HW129459   1.702   3.347   5.838  0.8402 -1.2975  0.1522
 5942SOL    HW229460   1.625   3.220   5.856  1.5698  0.4664  0.1268
 5943SOL     OW29461   3.146   2.512   6.015 -0.1318  0.0737  0.2735
 5943SOL    HW129462   3.116   2.532   6.104  2.2827 -0.5968  1.2374
 5943SOL    HW229463   3.159   2.599   5.979 -0.8172 -0.5363 -1.4354
 5944SOL     OW29464   4.297   1.329   8.005 -0.1046 -0.4187 -0.6662
 5944SOL    HW129465   4.235   1.258   8.021 -1.0474 -0.0304 -2.5756
 5944SOL    HW229466   4.328   1.314   7.916 -1.8454 -0.8303 -1.2086
 5945SOL     OW29467   0.451   0.606   6.340 -0.6704  0.0408  0.3138
 5945SOL    HW129468   0.460   0.701   6.334  1.0676 -0.0870  1.2649
 5945SOL    HW229469   0.499   0.594   6.421 -0.9780 -1.2211  0.3071
 5946SOL     OW29470   0.584   3.515   4.747  0.0474 -0.0103 -0.4113
 5946SOL    HW129471   0.659   3.520   4.688  1.3125  0.4733  1.2286
 5946SOL    HW229472   0.624   3.540   4.831  0.2668  0.1357 -0.5592
 5947SOL     OW29473   1.359   1.163   7.338 -0.5976 -0.1541 -0.1827
 5947SOL    HW129474   1.285   1.118   7.379 -0.4733 -0.2844 -0.0995
 5947SOL    HW229475   1.422   1.104   7.379 -0.5709  0.1062  0.1496
 5948SOL     OW29476   2.079   1.762   2.988 -0.1250  0.3397 -0.4502
 5948SOL    HW129477   2.019   1.687   2.982  3.9235 -2.8947 -0.6639
 5948SOL    HW229478   2.019   1.835   2.998  0.3592  0.7037 -0.1879
 5949SOL     OW29479   4.331   3.479   6.522 -0.3740  0.1238 -0.6566
 5949SOL    HW129480   4.257   3.458   6.578 -0.1903 -0.5300 -0.6599
 5949SOL    HW229481   4.385   3.526   6.585  0.8127 -0.7970 -0.9845
 5950SOL     OW29482   2.122   1.572   3.543  0.2155 -0.0269  0.5153
 5950SOL    HW129483   2.112   1.477   3.553  0.8927 -0.0762  0.7033
 5950SOL    HW229484   2.037   1.614   3.529 -1.2311 -2.3358  2.2295
 5951SOL     OW29485   3.050   1.766   9.119  0.1272 -0.4184  0.3042
 5951SOL    HW129486   3.130   1.819   9.123  0.4155 -0.7503 -0.9549
 5951SOL    HW229487   3.085   1.682   9.147 -0.8984  0.1240  3.2261
 5952SOL     OW29488   3.404   2.655   2.947  0.6935 -0.8624  0.8398
 5952SOL    HW129489   3.427   2.729   3.004  0.6607 -1.4120  1.5681
 5952SOL    HW229490   3.436   2.693   2.865 -1.0892 -0.0846  0.5018
 5953SOL     OW29491   0.631   3.211   6.139 -0.8120 -0.1433 -0.2154
 5953SOL    HW129492   0.619   3.289   6.085  0.0482 -1.1088 -1.7894
 5953SOL    HW229493   0.540   3.189   6.162 -0.2989 -0.2269  1.7642
 5954SOL     OW29494   2.650   0.847   6.369  0.3495  0.2882  0.4600
 5954SOL    HW129495   2.587   0.918   6.378 -0.0204  0.1618 -1.1133
 5954SOL    HW229496   2.726   0.900   6.345  1.6444 -1.4369  0.7751
 5955SOL     OW29497   3.337   3.599   6.548  0.3300  0.6440  0.1577
 5955SOL    HW129498   3.266   3.663   6.550 -0.8069 -0.5882 -0.2894
 5955SOL    HW229499   3.289   3.522   6.517 -0.2691  1.6228 -1.3625
 5956SOL     OW29500   2.712   1.849  11.154  0.0032  0.3106  0.4546
 5956SOL    HW129501   2.681   1.790  11.223  0.2858  1.8025  1.8418
 5956SOL    HW229502   2.650   1.922  11.158  1.6912  1.6838  1.3286
 5957SOL     OW29503   2.124   3.482   2.372 -0.0366  0.6280 -0.5893
 5957SOL    HW129504   2.034   3.453   2.385  0.7132 -0.7419  1.6108
 5957SOL    HW229505   2.142   3.450   2.284 -2.8219  1.0137 -1.3030
 5958SOL     OW29506   3.240   0.569  16.391  0.0150 -0.3798 -0.1375
 5958SOL    HW129507   3.264   0.658  16.366  0.5430 -0.5975 -0.4074
 5958SOL    HW229508   3.272   0.551  16.479  2.6416 -0.6876 -1.1574
 5959SOL     OW29509   0.275   2.028   1.971  0.3651  0.2682 -0.1224
 5959SOL    HW129510   0.304   2.118   1.959  0.0074  0.2737 -0.9887
 5959SOL    HW229511   0.346   1.979   1.930  0.3939  0.8453 -0.7685
 5960SOL     OW29512   2.744   4.631   0.375 -0.3661  0.7653 -0.2518
 5960SOL    HW129513   2.780   4.663   0.458 -0.1214 -1.6840  0.6086
 5960SOL    HW229514   2.721   4.541   0.401 -1.7549  1.2362  0.1338
 5961SOL     OW29515   3.152   1.274   6.199 -0.6252 -0.3921 -0.3187
 5961SOL    HW129516   3.179   1.266   6.290  0.6272  1.6566 -0.5031
 5961SOL    HW229517   3.080   1.336   6.212  0.3639  0.6356  0.1995
 5962SOL     OW29518   0.850   2.004   1.086  0.0796  0.7852 -0.3393
 5962SOL    HW129519   0.884   2.093   1.094  0.3740  0.7838 -1.5405
 5962SOL    HW229520   0.878   1.982   0.997 -0.2105 -0.2455 -0.1737
 5963SOL     OW29521   0.492   1.542   6.089  0.7123 -0.2160 -0.3852
 5963SOL    HW129522   0.509   1.579   6.175 -1.1994 -0.0708 -0.0697
 5963SOL    HW229523   0.400   1.518   6.100  0.5123  0.0525 -1.3974
 5964SOL     OW29524   4.388   3.095   1.874 -0.2961 -0.1437  0.2250
 5964SOL    HW129525   4.420   3.015   1.914 -1.3362 -0.5501  0.2569
 5964SOL    HW229526   4.381   3.064   1.784  0.7317 -1.4961  0.6270
 5965SOL     OW29527   0.768   0.529   8.104 -0.4920  0.0637  0.4272
 5965SOL    HW129528   0.727   0.465   8.046  1.6569 -2.4861  1.7807
 5965SOL    HW229529   0.828   0.571   8.042 -1.1467 -0.0323 -0.2760
 5966SOL     OW29530   0.063   2.958  12.036 -0.0246 -0.1527 -0.2045
 5966SOL    HW129531   0.047   2.967  11.942 -2.1248 -0.7456  0.0945
 5966SOL    HW229532   0.155   2.983  12.042 -0.5361  1.0360  2.9429
 5967SOL     OW29533   0.303   1.829  11.256  0.2294  0.3517  0.1056
 5967SOL    HW129534   0.286   1.747  11.302 -0.6755 -0.4195 -1.6312
 5967SOL    HW229535   0.338   1.801  11.171 -0.2712 -0.3080  0.1159
 5968SOL     OW29536   1.404   0.699   5.014 -0.5645  1.2496  0.2787
 5968SOL    HW129537   1.319   0.693   4.969  0.7931  1.0961 -2.2396
 5968SOL    HW229538   1.465   0.647   4.963 -1.0280 -0.5627  1.5574
 5969SOL     OW29539   1.160   4.412  13.891 -0.4144 -0.0169  0.6273
 5969SOL    HW129540   1.086   4.466  13.864 -1.8998 -1.8873  0.9717
 5969SOL    HW229541   1.125   4.323  13.883  0.2785 -0.3735  1.6450
 5970SOL     OW29542   0.655   4.236   4.661 -0.0005  0.0957 -0.1347
 5970SOL    HW129543   0.672   4.316   4.710 -0.9379 -0.6734  1.4328
 5970SOL    HW229544   0.640   4.178   4.735 -0.0762  0.8279  0.4220
 5971SOL     OW29545   2.088   3.363   3.478  0.4780 -0.0284  0.7391
 5971SOL    HW129546   2.025   3.409   3.423 -0.1380  1.0655  2.3913
 5971SOL    HW229547   2.134   3.438   3.515 -0.0781 -0.2424  1.8744
 5972SOL     OW29548   3.222   4.390   2.489 -0.6307 -0.7617  0.4766
 5972SOL    HW129549   3.311   4.385   2.526  0.6317 -1.3440 -2.6483
 5972SOL    HW229550   3.197   4.305   2.453 -0.8576 -0.3055 -0.4369
 5973SOL     OW29551   3.267   0.128   7.955  0.4447  0.8218 -0.7865
 5973SOL    HW129552   3.300   0.168   8.035  0.8226 -0.7974 -0.1300
 5973SOL    HW229553   3.310   0.043   7.966  0.7139  1.1559  0.7838
 5974SOL     OW29554   0.452   0.895  12.533  0.0296 -0.1664 -0.2106
 5974SOL    HW129555   0.490   0.845  12.605  1.8079 -1.2827 -1.9202
 5974SOL    HW229556   0.540   0.927  12.513 -0.0729  0.3130  0.1195
 5975SOL     OW29557   1.893   0.082   7.378 -0.2502  0.6211 -0.0053
 5975SOL    HW129558   1.876   0.164   7.424  1.5049  0.6925  0.4996
 5975SOL    HW229559   1.808   0.051   7.346  0.2571 -0.6439 -0.1111
 5976SOL     OW29560   3.342   1.077  16.018 -0.3254  0.6141  0.3777
 5976SOL    HW129561   3.359   1.051  15.928 -1.9865  1.4531 -0.1665
 5976SOL    HW229562   3.356   1.171  16.006 -2.0314  0.7572 -0.4002
 5977SOL     OW29563   3.561   2.690  11.523 -0.0605 -0.2518  0.2195
 5977SOL    HW129564   3.563   2.672  11.617  3.7036 -1.6553 -0.0963
 5977SOL    HW229565   3.634   2.635  11.494  1.1499  2.1587 -1.2485
 5978SOL     OW29566   1.004   1.731   0.493 -0.4736  0.1814 -0.0815
 5978SOL    HW129567   1.059   1.784   0.435  0.9005 -0.9319  0.1875
 5978SOL    HW229568   1.053   1.649   0.489  0.8045  1.0246 -1.5288
 5979SOL     OW29569   0.401   4.493   5.983  0.4784  0.2983  0.2563
 5979SOL    HW129570   0.416   4.543   5.903 -2.8994  0.3767 -0.3326
 5979SOL    HW229571   0.449   4.412   5.965  0.0895 -0.3586  2.1537
 5980SOL     OW29572   4.584   3.485   9.754  0.4854 -0.4633  0.1030
 5980SOL    HW129573   4.612   3.413   9.698  1.6992  1.8553 -2.2875
 5980SOL    HW229574   4.616   3.453   9.838  1.1656 -0.2988 -0.0943
 5981SOL     OW29575   3.894   1.846   8.945  0.1733  0.4255  0.4631
 5981SOL    HW129576   3.894   1.756   8.979  3.8319  0.5255  0.7467
 5981SOL    HW229577   3.843   1.839   8.865  1.0823 -1.2405  0.0225
 5982SOL     OW29578   2.115   4.573   5.648 -0.1140 -0.1067 -0.1452
 5982SOL    HW129579   2.057   4.606   5.579 -1.1609  0.8743  1.1992
 5982SOL    HW229580   2.181   4.532   5.593  1.2192  0.4904  1.0009
 5983SOL     OW29581   4.140   4.180   3.238 -0.2058  0.0183 -0.4218
 5983SOL    HW129582   4.226   4.219   3.223 -0.3951  0.4568 -0.3914
 5983SOL    HW229583   4.077   4.227   3.182 -0.5245  1.4377  1.1294
 5984SOL     OW29584   1.632   0.825   8.501 -0.2417  0.5181 -0.2511
 5984SOL    HW129585   1.632   0.808   8.595  2.4777  0.5622 -0.2415
 5984SOL    HW229586   1.679   0.909   8.501  1.0496 -0.1976 -0.1200
 5985SOL     OW29587   2.971   3.200   4.474  0.0308  0.2247  0.0431
 5985SOL    HW129588   2.876   3.197   4.485  0.0832  2.4645  1.1636
 5985SOL    HW229589   2.978   3.226   4.382  0.0026 -3.1454 -0.8982
 5986SOL     OW29590   4.632   3.833   3.711  0.0278  0.0562  0.5920
 5986SOL    HW129591   4.723   3.810   3.693 -0.2399  0.8418 -1.7997
 5986SOL    HW229592   4.574   3.762   3.683 -0.2650  1.8430 -3.3266
 5987SOL     OW29593   0.257   4.340   5.580  0.4753  0.7081  0.7030
 5987SOL    HW129594   0.177   4.319   5.530  0.0605  2.2735  0.6923
 5987SOL    HW229595   0.221   4.421   5.616 -1.0138 -0.0934  1.0137
 5988SOL     OW29596   3.719   1.674   5.895 -0.2866 -0.2850 -0.0867
 5988SOL    HW129597   3.660   1.608   5.859 -3.3143  1.7247  1.2210
 5988SOL    HW229598   3.752   1.722   5.818  2.5507  0.3857  1.5552
 5989SOL     OW29599   3.056   3.998   2.624 -0.1600  0.3013 -0.0102
 5989SOL    HW129600   3.008   4.037   2.550 -2.9550  0.9098  2.0973
 5989SOL    HW229601   3.074   4.078   2.673 -0.2674  0.1965  0.2029
 5990SOL     OW29602   2.486   4.336  13.111  0.1269  0.5303  0.0814
 5990SOL    HW129603   2.544   4.412  13.110 -0.4037  0.9481  0.9537
 5990SOL    HW229604   2.515   4.285  13.187 -0.4080  0.6944  0.3903
 5991SOL     OW29605   2.418   0.052   3.517  0.0634 -0.1912 -0.6319
 5991SOL    HW129606   2.326   0.058   3.492 -0.7170  0.2373  2.4263
 5991SOL    HW229607   2.458   0.115   3.457  1.0534 -0.6829 -0.4939
 5992SOL     OW29608   1.537   2.411   5.286 -0.1825  0.5902 -0.4065
 5992SOL    HW129609   1.512   2.398   5.378  0.0151 -0.8483 -0.5599
 5992SOL    HW229610   1.558   2.504   5.289  1.2322  0.2308  1.0069
 5993SOL     OW29611   3.997   0.732   5.098  0.3851 -0.1366  0.0389
 5993SOL    HW129612   3.911   0.756   5.063  0.5207 -1.1804 -1.0124
 5993SOL    HW229613   4.052   0.806   5.074  0.0756  0.2378  0.4802
 5994SOL     OW29614   2.871   0.016  12.527  0.2464  0.2962 -0.5191
 5994SOL    HW129615   2.881   4.677  12.469 -0.5401 -0.0712 -0.1728
 5994SOL    HW229616   2.797   4.731  12.583 -0.8955  0.9689 -1.7612
 5995SOL     OW29617   3.246   3.891  10.313  0.8104  0.6800 -0.0959
 5995SOL    HW129618   3.170   3.947  10.329  0.5608  0.2360  0.2392
 5995SOL    HW229619   3.205   3.808  10.290  2.0127 -0.1557  0.7694
 5996SOL     OW29620   3.021   3.595   6.335  0.2058  0.5232 -0.1300
 5996SOL    HW129621   2.944   3.551   6.300  0.0214  0.2651  0.5872
 5996SOL    HW229622   3.061   3.519   6.378  0.8023  0.7755 -0.2312
 5997SOL     OW29623   3.587   2.013  11.066 -0.1118 -0.2907 -0.5794
 5997SOL    HW129624   3.616   1.959  10.992 -2.5253  3.0510 -3.9601
 5997SOL    HW229625   3.650   1.985  11.132  0.9607  1.0529 -1.0452
 5998SOL     OW29626   1.235   2.766   7.165 -0.3530 -0.1564 -0.0907
 5998SOL    HW129627   1.309   2.730   7.213  0.1277 -1.7095 -2.0330
 5998SOL    HW229628   1.261   2.858   7.157 -0.8955 -0.1597 -1.9424
 5999SOL     OW29629   2.614   3.332   4.921 -0.1890 -0.1493  0.5389
 5999SOL    HW129630   2.681   3.394   4.951  2.0978 -2.3644 -0.0138
 5999SOL    HW229631   2.634   3.340   4.828  1.5408  2.9278  1.1552
 6000SOL     OW29632   0.482   4.060   3.015 -0.2705 -0.7979 -0.4467
 6000SOL    HW129633   0.423   3.984   3.009 -0.4305 -0.4581 -2.9396
 6000SOL    HW229634   0.500   4.048   3.108 -2.0361  1.5216  0.1767
 6001SOL     OW29635   4.272   0.439   7.217  0.1622 -0.1772  0.0257
 6001SOL    HW129636   4.273   0.356   7.169  0.4862  0.2340 -0.6668
 6001SOL    HW229637   4.299   0.495   7.145  2.3095 -3.4494 -1.6974
 6002SOL     OW29638   1.993   3.713   5.589  0.3034  0.1945 -0.6713
 6002SOL    HW129639   2.071   3.756   5.554  1.4266  0.2905  1.9504
 6002SOL    HW229640   1.961   3.656   5.519  0.7423 -1.1640  0.2560
 6003SOL     OW29641   2.915   3.726   5.667 -0.5373  0.3153  0.1540
 6003SOL    HW129642   2.942   3.674   5.742 -1.9956 -1.1530 -0.3436
 6003SOL    HW229643   2.995   3.777   5.650 -0.4764  0.2991  0.4023
 6004SOL     OW29644   1.082   4.512   5.445  0.2044 -0.5668  0.0108
 6004SOL    HW129645   1.143   4.439   5.451  0.4722 -0.5063 -1.8609
 6004SOL    HW229646   1.017   4.487   5.380 -0.0363 -0.8597  0.3686
 6005SOL     OW29647   4.254   1.097   4.614 -0.3480 -0.1676  0.3825
 6005SOL    HW129648   4.264   1.007   4.645 -2.6986 -0.3553  0.6326
 6005SOL    HW229649   4.215   1.093   4.526  0.6596 -0.1158 -0.0627
 6006SOL     OW29650   4.277   2.882   3.716 -0.2547 -0.2597 -0.3862
 6006SOL    HW129651   4.320   2.916   3.638  0.0357  2.2972  0.8547
 6006SOL    HW229652   4.344   2.909   3.779 -0.5417 -0.7458  0.1246
 6007SOL     OW29653   1.180   2.208   6.372 -0.1925  0.1323  0.0777
 6007SOL    HW129654   1.218   2.244   6.293  0.8595 -0.1485  0.4601
 6007SOL    HW229655   1.136   2.127   6.343 -0.5940  0.9113 -1.4376
 6008SOL     OW29656   1.482   1.895   4.270 -0.4607  0.2912 -0.5653
 6008SOL    HW129657   1.411   1.954   4.296 -1.6146 -0.6216 -1.6651
 6008SOL    HW229658   1.491   1.902   4.175 -1.6728  4.2549 -0.3954
 6009SOL     OW29659   0.576   1.320   0.403 -0.3617 -0.3274 -0.2628
 6009SOL    HW129660   0.653   1.335   0.349  0.5989 -0.3723  1.0890
 6009SOL    HW229661   0.518   1.384   0.362 -3.1726 -3.0330 -0.5466
 6010SOL     OW29662   3.810   3.699   5.889 -0.0009  0.3073  0.4879
 6010SOL    HW129663   3.780   3.609   5.880  0.3354  0.1573  0.8937
 6010SOL    HW229664   3.897   3.683   5.854 -1.3601  0.4788 -2.9649
 6011SOL     OW29665   3.285   1.347   7.309 -0.3296  0.2595 -0.6832
 6011SOL    HW129666   3.335   1.347   7.390 -1.2892 -0.8477 -0.0941
 6011SOL    HW229667   3.263   1.440   7.308  0.4687  0.4535  0.3237
 6012SOL     OW29668   0.557   1.186   6.223  0.1555 -0.4408  0.1979
 6012SOL    HW129669   0.621   1.127   6.183  1.1594  0.8618 -0.1290
 6012SOL    HW229670   0.478   1.178   6.170  1.5706  0.9833 -2.1337
 6013SOL     OW29671   3.903   4.544   7.568 -1.2501  0.3325  0.4976
 6013SOL    HW129672   3.861   4.490   7.634 -0.5458 -1.6965 -0.7378
 6013SOL    HW229673   3.986   4.554   7.615 -0.4106  3.3799 -1.6099
 6014SOL     OW29674   1.676   1.416   2.252 -0.2765 -0.1611  0.1215
 6014SOL    HW129675   1.663   1.393   2.160  0.0913 -1.9668  0.5316
 6014SOL    HW229676   1.765   1.387   2.274 -0.1970  0.4867  0.6778
 6015SOL     OW29677   1.352   0.535   9.999  0.4476  0.1529  0.5779
 6015SOL    HW129678   1.337   0.442   9.981 -0.0660 -0.0934  2.3219
 6015SOL    HW229679   1.440   0.538   9.961  0.2309  0.2135  0.0695
 6016SOL     OW29680   1.246   4.700   4.971  0.7262 -0.2589  0.2292
 6016SOL    HW129681   1.284   4.652   5.044 -0.1307  0.6630  1.2747
 6016SOL    HW229682   1.218   4.628   4.915  2.3164 -0.6436 -0.0632
 6017SOL     OW29683   0.447   4.417  16.339  0.1568  0.2060 -0.7060
 6017SOL    HW129684   0.495   4.440  16.419  0.8687  0.7217 -1.2859
 6017SOL    HW229685   0.451   4.322  16.355 -0.6984  0.2243 -0.4117
 6018SOL     OW29686   3.170   1.538   4.568 -0.1153 -0.0066  0.2796
 6018SOL    HW129687   3.178   1.500   4.655 -2.6716 -1.6344 -0.2206
 6018SOL    HW229688   3.115   1.470   4.528 -0.5662  0.3358  0.3168
 6019SOL     OW29689   4.096   4.301   7.628 -0.1234 -0.0230 -0.4492
 6019SOL    HW129690   4.143   4.221   7.650 -1.5526 -0.8093 -0.2106
 6019SOL    HW229691   4.131   4.324   7.542 -3.3018  1.1195 -1.4432
 6020SOL     OW29692   1.066   4.498   2.387  0.4257 -0.6986 -0.1419
 6020SOL    HW129693   1.078   4.424   2.327  0.6675 -1.7741  1.2373
 6020SOL    HW229694   1.044   4.452   2.468  0.8058 -1.4295 -0.4499
 6021SOL     OW29695   3.903   3.644  16.509 -0.1491 -0.1380 -1.1222
 6021SOL    HW129696   3.874   3.722  16.461 -1.3136 -0.6530 -1.2417
 6021SOL    HW229697   3.825   3.589  16.510 -0.1779 -0.0930 -0.3468
 6022SOL     OW29698   2.318   3.525   6.783 -0.6423  0.4295 -0.3398
 6022SOL    HW129699   2.397   3.509   6.835 -1.1203  1.6381  0.7678
 6022SOL    HW229700   2.329   3.603   6.730  4.8276 -0.0400  0.1452
 6023SOL     OW29701   2.504   3.470   1.225  0.1920 -0.2981 -0.0462
 6023SOL    HW129702   2.535   3.389   1.184  0.0664  1.0749 -2.8239
 6023SOL    HW229703   2.441   3.493   1.157 -0.9843  0.2255  1.2061
 6024SOL     OW29704   1.753   3.236   7.527  0.4558  0.0386  0.8292
 6024SOL    HW129705   1.775   3.229   7.620 -0.7699 -2.1823  0.9546
 6024SOL    HW229706   1.719   3.149   7.505  0.7693 -0.0059  0.5227
 6025SOL     OW29707   0.267   4.465   5.050 -0.0960 -0.0986  0.2895
 6025SOL    HW129708   0.210   4.444   5.124 -0.2165  2.4785  0.9082
 6025SOL    HW229709   0.221   4.425   4.977  1.2950 -1.2091  0.0085
 6026SOL     OW29710   1.269   3.761   7.103  0.3432 -0.4510 -0.5598
 6026SOL    HW129711   1.334   3.693   7.123  1.4880  0.6396 -0.5674
 6026SOL    HW229712   1.315   3.823   7.046 -0.3899  0.6987  0.1004
 6027SOL     OW29713   1.161   0.425   3.541 -0.5450 -0.6863 -0.0763
 6027SOL    HW129714   1.102   0.350   3.530  2.4058 -2.7876 -1.5198
 6027SOL    HW229715   1.231   0.386   3.592 -0.9369 -2.7404 -1.1267
 6028SOL     OW29716   1.715   0.040   6.877  0.3061  0.1447 -0.7102
 6028SOL    HW129717   1.795   0.031   6.928  0.6388 -2.7987 -1.7327
 6028SOL    HW229718   1.695   0.133   6.878 -0.4891 -0.0301  1.5356
 6029SOL     OW29719   3.537   2.378   4.742 -0.0729 -0.1526  0.2329
 6029SOL    HW129720   3.494   2.421   4.669 -0.5403 -0.5675  0.2648
 6029SOL    HW229721   3.470   2.378   4.811  0.4975 -1.5285  0.7795
 6030SOL     OW29722   2.801   3.980   0.687  0.4793  0.1165  0.0095
 6030SOL    HW129723   2.780   3.887   0.684 -1.5413  0.5333  1.1267
 6030SOL    HW229724   2.747   4.011   0.760 -0.7490 -3.2467  0.5185
 6031SOL     OW29725   4.155   3.481  12.005  0.4372  0.0981 -0.3116
 6031SOL    HW129726   4.085   3.477  11.940 -1.5126  2.0434  1.6522
 6031SOL    HW229727   4.200   3.396  12.000  0.7648  0.1619  1.5710
 6032SOL     OW29728   1.981   1.087   7.925  0.9845  0.6576 -0.3591
 6032SOL    HW129729   1.896   1.058   7.891  1.0483  0.2178 -0.1435
 6032SOL    HW229730   1.949   1.146   7.994 -0.3854 -2.1578  1.4395
 6033SOL     OW29731   4.447   0.015  10.435  0.4024 -0.4487 -0.2229
 6033SOL    HW129732   4.398   0.075  10.379  2.5417  0.3752 -1.2063
 6033SOL    HW229733   4.534   0.055  10.442  0.5379 -0.8895  0.6817
 6034SOL     OW29734   1.299   3.670  17.506 -0.2068 -0.0795  0.1894
 6034SOL    HW129735   1.278   3.716  17.424 -0.5515  0.6390  0.6760
 6034SOL    HW229736   1.392   3.692  17.506 -0.1451 -0.3052 -0.8727
 6035SOL     OW29737   1.732   4.370   5.050  0.3590 -0.4752  0.0724
 6035SOL    HW129738   1.737   4.455   5.094 -0.4079  0.5046 -1.7369
 6035SOL    HW229739   1.708   4.391   4.960  0.2708  0.8763  0.4056
 6036SOL     OW29740   3.210   3.280   1.151 -0.5344  0.6233 -0.2822
 6036SOL    HW129741   3.249   3.302   1.067  0.9059 -0.2196  0.1624
 6036SOL    HW229742   3.281   3.236   1.197  0.1616  3.0339  0.9039
 6037SOL     OW29743   4.544   3.073   9.248 -0.0409  0.1042  0.1781
 6037SOL    HW129744   4.533   3.156   9.203 -1.8393  0.1924  0.7840
 6037SOL    HW229745   4.505   3.020   9.178  2.3332 -0.1026 -0.9886
 6038SOL     OW29746   1.521   4.347   4.770 -0.4871  0.1688 -0.2401
 6038SOL    HW129747   1.472   4.338   4.851  0.8146 -0.2220  0.4979
 6038SOL    HW229748   1.476   4.425   4.736  1.2393  0.8406 -0.9698
 6039SOL     OW29749   3.659   1.754  16.175  0.4263 -0.0397 -0.3636
 6039SOL    HW129750   3.579   1.799  16.145 -0.5619  0.4544  3.0332
 6039SOL    HW229751   3.708   1.747  16.093  0.1760 -2.8316 -0.2582
 6040SOL     OW29752   0.732   1.602   8.457 -0.1363 -0.6463  0.0874
 6040SOL    HW129753   0.788   1.671   8.420  1.0644 -1.9058 -0.4454
 6040SOL    HW229754   0.728   1.639   8.546  0.9545 -2.4583  0.8779
 6041SOL     OW29755   2.001   4.048  17.026  0.1640  0.2331 -0.0265
 6041SOL    HW129756   1.939   4.114  17.057 -1.0343 -0.9510  0.1284
 6041SOL    HW229757   1.956   3.966  17.047  0.3173  0.0542 -0.3916
 6042SOL     OW29758   4.325   3.492   8.013  0.0729 -0.4307 -0.1604
 6042SOL    HW129759   4.374   3.432   7.956  0.4267 -0.2547 -0.0401
 6042SOL    HW229760   4.249   3.501   7.955  1.3174  2.5531 -1.3052
 6043SOL     OW29761   1.693   1.245  13.212 -0.1987  0.0160  0.2810
 6043SOL    HW129762   1.664   1.294  13.289  0.7409 -0.5793  1.0122
 6043SOL    HW229763   1.786   1.240  13.234 -0.6181 -2.5664  1.5528
 6044SOL     OW29764   0.260   1.284   2.595 -0.5278 -0.0545  0.0817
 6044SOL    HW129765   0.234   1.356   2.654  1.0466  1.0389 -0.5624
 6044SOL    HW229766   0.353   1.305   2.599 -0.8433  1.3313  0.3322
 6045SOL     OW29767   1.591   0.052   4.336  0.4042  0.4475 -0.0914
 6045SOL    HW129768   1.647   0.019   4.265  0.5973 -0.8175  0.6428
 6045SOL    HW229769   1.588   4.711   4.392  1.4915 -0.4265 -1.2183
 6046SOL     OW29770   3.998   2.780   5.677 -0.3810  0.0324  0.3108
 6046SOL    HW129771   4.071   2.728   5.645 -0.8632 -0.3479 -0.1764
 6046SOL    HW229772   3.991   2.835   5.599 -1.5276  0.2280  0.5479
 6047SOL     OW29773   4.505   4.719   3.566 -0.4107 -0.0065  0.5192
 6047SOL    HW129774   4.565   0.012   3.498  0.6370 -1.1445  0.9428
 6047SOL    HW229775   4.554   4.663   3.627  1.1872 -0.2036 -0.9415
 6048SOL     OW29776   0.722   1.690   9.511  0.0593  0.1232  0.3366
 6048SOL    HW129777   0.775   1.730   9.442 -1.0775  1.1610  0.0711
 6048SOL    HW229778   0.684   1.615   9.465 -0.9704  0.7395  0.1822
 6049SOL     OW29779   1.777   3.900   3.818  0.5238 -0.2617  1.1654
 6049SOL    HW129780   1.723   3.823   3.803 -1.1620  0.7053  2.1726
 6049SOL    HW229781   1.850   3.882   3.760 -1.1940  1.4539 -1.5510
 6050SOL     OW29782   3.663   4.254   4.361  0.2057 -0.2475  0.2446
 6050SOL    HW129783   3.588   4.293   4.407 -0.8947 -0.2118 -1.5995
 6050SOL    HW229784   3.734   4.302   4.404 -0.2018  1.2390 -0.7407
 6051SOL     OW29785   4.274   3.195  12.711  0.3450  0.0323 -0.7957
 6051SOL    HW129786   4.190   3.156  12.733  1.0859 -0.8528  0.4415
 6051SOL    HW229787   4.298   3.123  12.652 -0.5305 -1.4203  0.6245
 6052SOL     OW29788   2.147   3.203  13.784 -0.0148  0.5573 -0.0497
 6052SOL    HW129789   2.061   3.180  13.750 -0.5697  0.8244  1.1783
 6052SOL    HW229790   2.201   3.172  13.710  1.5009  0.6886  1.0046
 6053SOL     OW29791   1.324   2.617  15.300 -0.3468 -0.0371 -0.6168
 6053SOL    HW129792   1.269   2.665  15.238 -1.6779 -1.5137 -0.5611
 6053SOL    HW229793   1.296   2.660  15.380 -0.4780 -1.2735 -0.0023
 6054SOL     OW29794   3.904   2.796   6.685  0.0483 -0.2257 -0.2148
 6054SOL    HW129795   3.816   2.776   6.716 -0.0857 -0.2111 -0.5877
 6054SOL    HW229796   3.967   2.776   6.754 -0.0138  2.3115  0.5809
 6055SOL     OW29797   2.700   1.141   7.337 -0.5505  0.0840 -0.1763
 6055SOL    HW129798   2.763   1.127   7.407 -2.8634 -0.5096  1.7976
 6055SOL    HW229799   2.712   1.231   7.307 -2.0995  0.2932 -0.1960
 6056SOL     OW29800   3.291   1.347  17.477 -0.1135 -0.2472 -0.1045
 6056SOL    HW129801   3.237   1.270  17.460  0.7560 -0.8820  0.0170
 6056SOL    HW229802   3.237   1.422  17.452  2.1810  1.6748  0.7594
 6057SOL     OW29803   1.818   4.207  17.120 -0.3916  0.5986  0.4711
 6057SOL    HW129804   1.824   4.268  17.194  1.4775  0.1208  0.7138
 6057SOL    HW229805   1.770   4.256  17.053 -0.1148  0.9584  0.5334
 6058SOL     OW29806   3.663   1.744  16.465  0.5021 -0.1381 -0.6375
 6058SOL    HW129807   3.621   1.830  16.460  1.0262 -0.0100 -2.6526
 6058SOL    HW229808   3.712   1.737  16.384  0.4755 -2.6765 -0.4561
 6059SOL     OW29809   1.965   0.918   9.180  0.5576  0.3353 -0.2582
 6059SOL    HW129810   1.941   0.890   9.092  0.6465  0.3260 -0.2792
 6059SOL    HW229811   2.027   0.850   9.205 -0.8626 -0.8776 -0.0112
 6060SOL     OW29812   3.702   0.908  10.720 -0.1552 -0.0487  0.1775
 6060SOL    HW129813   3.751   0.849  10.778 -1.0481 -0.4865  0.4827
 6060SOL    HW229814   3.772   0.931  10.659  1.0474  0.0356  1.5704
 6061SOL     OW29815   4.191   4.132   6.376 -0.1037 -0.0173  0.0685
 6061SOL    HW129816   4.098   4.154   6.370 -0.3999 -0.7031  2.0714
 6061SOL    HW229817   4.183   4.038   6.388 -1.6041  0.4239  2.6811
 6062SOL     OW29818   0.444   4.491  14.795 -0.0967  0.1987 -0.1102
 6062SOL    HW129819   0.423   4.397  14.796 -0.7518  0.3585  0.6032
 6062SOL    HW229820   0.393   4.525  14.722 -0.3895  2.2331  1.0515
 6063SOL     OW29821   4.428   3.850   6.091 -0.3127  0.0203  0.3252
 6063SOL    HW129822   4.396   3.795   6.163 -0.9159  0.4582  0.3943
 6063SOL    HW229823   4.490   3.899   6.145 -0.9111  1.0571  0.0811
 6064SOL     OW29824   0.701   3.997   4.035  0.3894 -0.0638 -0.1558
 6064SOL    HW129825   0.701   4.091   4.017  1.1064 -0.2931 -1.3609
 6064SOL    HW229826   0.686   3.983   4.129 -2.4963  0.2865 -0.5653
 6065SOL     OW29827   0.714   2.064   6.218 -0.4530 -0.6055  0.3145
 6065SOL    HW129828   0.624   2.050   6.189 -0.3090  0.8381 -0.8261
 6065SOL    HW229829   0.727   2.014   6.298  1.3115  0.5508  0.7594
 6066SOL     OW29830   4.711   1.623   1.624  0.5503 -0.0366  0.5947
 6066SOL    HW129831   4.700   1.617   1.719 -0.7216  1.8897  0.5663
 6066SOL    HW229832   0.055   1.676   1.622  0.9210 -0.5548  2.3301
 6067SOL     OW29833   0.489   0.040   9.412 -0.2548  0.3396 -0.5511
 6067SOL    HW129834   0.465   4.685   9.427  0.3518  0.3467  0.4768
 6067SOL    HW229835   0.521   0.068   9.497 -0.1077  2.1920 -1.2150
 6068SOL     OW29836   4.447   0.285   2.648 -0.0675 -0.2236  0.2980
 6068SOL    HW129837   4.498   0.348   2.699  2.3588 -1.3098 -0.7953
 6068SOL    HW229838   4.513   0.236   2.600  0.7672  1.6525 -0.4613
 6069SOL     OW29839   4.008   1.566  14.260 -0.7051 -0.3379 -0.0102
 6069SOL    HW129840   4.073   1.531  14.198  0.0530 -0.0066  0.5987
 6069SOL    HW229841   3.946   1.493  14.263  0.9016 -1.7549 -1.0321
 6070SOL     OW29842   3.974   2.682   2.544  0.1410 -0.1921  0.0489
 6070SOL    HW129843   4.045   2.618   2.554 -0.3918 -1.0346 -1.5758
 6070SOL    HW229844   3.908   2.635   2.595 -0.4180  0.9406  0.3656
 6071SOL     OW29845   0.566   3.284   2.072  0.2461  0.0331 -0.6090
 6071SOL    HW129846   0.574   3.200   2.029 -0.6646  1.0254 -2.7222
 6071SOL    HW229847   0.643   3.292   2.127 -0.2519 -0.6002  0.1756
 6072SOL     OW29848   0.372   1.439  11.144  0.4591  0.2179 -0.3989
 6072SOL    HW129849   0.354   1.352  11.179  0.7399 -0.4608 -1.9441
 6072SOL    HW229850   0.331   1.483  11.219  0.7731 -1.3137  0.6734
 6073SOL     OW29851   0.093   3.592   2.016 -0.2993  0.7108 -0.0518
 6073SOL    HW129852   0.177   3.595   2.063 -0.4115 -0.2280  0.2153
 6073SOL    HW229853   0.030   3.586   2.088 -0.9133 -0.3371 -0.6901
 6074SOL     OW29854   2.744   3.582   7.749  0.2682 -0.6941  0.3984
 6074SOL    HW129855   2.823   3.631   7.771  1.1787 -1.5031 -1.0497
 6074SOL    HW229856   2.745   3.600   7.655 -2.6127 -2.4017  0.0338
 6075SOL     OW29857   2.958   2.228   4.931  0.5217  0.6615  0.3871
 6075SOL    HW129858   2.961   2.322   4.913 -0.4321  0.4024 -1.1327
 6075SOL    HW229859   2.946   2.184   4.847 -1.5876  1.1241  0.4660
 6076SOL     OW29860   1.705   1.668   0.936  0.1244  0.3350 -0.0052
 6076SOL    HW129861   1.677   1.698   1.022 -0.0086  1.6443 -0.5036
 6076SOL    HW229862   1.798   1.659   0.956  0.0239  0.2310  0.4137
 6077SOL     OW29863   2.056   4.654  12.117 -0.7259  0.2245 -0.0611
 6077SOL    HW129864   2.145   4.680  12.094 -0.3590 -2.1729 -1.4220
 6077SOL    HW229865   2.051   4.561  12.096  0.4820 -0.0668  0.8633
 6078SOL     OW29866   1.565   1.059  17.456 -0.1101  0.0828 -0.6796
 6078SOL    HW129867   1.563   1.009  17.374 -1.7663 -0.4924 -0.2937
 6078SOL    HW229868   1.528   1.000  17.522  0.6333  2.1317  1.5565
 6079SOL     OW29869   0.181   0.627   4.973  0.5169 -0.1554  0.1683
 6079SOL    HW129870   0.131   0.640   4.892 -0.4200  0.3352  0.8259
 6079SOL    HW229871   0.119   0.622   5.045  0.1311 -1.7343 -0.2810
 6080SOL     OW29872   1.847   2.425   2.180  0.2259  0.4233 -0.6166
 6080SOL    HW129873   1.793   2.347   2.188 -1.0689  1.2824 -1.0437
 6080SOL    HW229874   1.876   2.405   2.091 -1.1343 -0.2699 -0.9069
 6081SOL     OW29875   3.638   3.700   7.443  0.0828  0.5446 -0.2795
 6081SOL    HW129876   3.722   3.670   7.409  1.0214  1.9777  0.7918
 6081SOL    HW229877   3.596   3.741   7.366  1.0587 -0.3801 -1.2940
 6082SOL     OW29878   3.211   3.226   1.518 -0.9046 -0.0852  0.0389
 6082SOL    HW129879   3.212   3.145   1.466  0.4806 -0.6645  0.9934
 6082SOL    HW229880   3.267   3.282   1.463  0.9899 -2.4213 -0.3901
 6083SOL     OW29881   4.521   1.345   7.431  0.4737 -0.7116 -0.2125
 6083SOL    HW129882   4.503   1.286   7.358  1.7083 -0.5466 -0.6528
 6083SOL    HW229883   4.555   1.274   7.485 -1.2960 -1.8880 -0.6372
 6084SOL     OW29884   2.592   4.614  12.649 -0.2622  0.3418  0.1518
 6084SOL    HW129885   2.551   4.529  12.660  2.4184 -1.0208 -0.3164
 6084SOL    HW229886   2.558   4.646  12.566 -0.4760  0.9255  0.4588
 6085SOL     OW29887   3.167   1.094  14.877  0.6149 -0.0741 -0.2593
 6085SOL    HW129888   3.085   1.128  14.913  0.2284 -2.3116  1.0013
 6085SOL    HW229889   3.143   1.007  14.846  0.4561 -0.0630 -0.1670
 6086SOL     OW29890   4.378   0.108  13.938  0.8565  0.4635 -0.4651
 6086SOL    HW129891   4.332   0.089  14.020  0.4441 -0.8026 -0.9958
 6086SOL    HW229892   4.307   0.139  13.881  0.8174  1.5836  0.1961
 6087SOL     OW29893   2.669   0.773  10.536 -0.2092  0.0980 -0.5595
 6087SOL    HW129894   2.696   0.688  10.569  0.2931  0.4861  0.0124
 6087SOL    HW229895   2.722   0.759  10.457  0.6812  0.9753 -0.1271
 6088SOL     OW29896   1.878   4.458  16.799 -0.3852 -0.4697  0.4940
 6088SOL    HW129897   1.972   4.478  16.798 -1.2866  3.6460 -1.1853
 6088SOL    HW229898   1.883   4.364  16.783 -0.9770 -0.5395  0.7097
 6089SOL     OW29899   2.389   0.638  17.462  0.6616  0.3419  0.1197
 6089SOL    HW129900   2.476   0.663  17.431  0.5376  1.1719  0.4456
 6089SOL    HW229901   2.343   0.693  17.399  0.1472 -0.7690 -0.4673
 6090SOL     OW29902   2.728   2.651   4.299 -0.0025  0.1593 -0.1064
 6090SOL    HW129903   2.810   2.640   4.347  0.0997 -1.8405 -0.7610
 6090SOL    HW229904   2.753   2.729   4.250  2.2183 -0.7788 -0.4537
 6091SOL     OW29905   1.224   1.085   3.429 -0.4407  0.1914 -0.5002
 6091SOL    HW129906   1.259   1.025   3.364  0.1053 -0.8927  0.8032
 6091SOL    HW229907   1.253   1.174   3.407 -0.0789  0.5998  1.6530
 6092SOL     OW29908   0.134   2.430   9.560  0.2170 -0.4569  0.0550
 6092SOL    HW129909   0.139   2.364   9.628  1.2498  1.1097  1.5075
 6092SOL    HW229910   0.207   2.480   9.598 -2.4954  1.8019  2.2601
 6093SOL     OW29911   0.720   1.706   6.037 -0.5378  0.2507  0.2002
 6093SOL    HW129912   0.646   1.646   6.043 -0.4711  0.3570  2.2430
 6093SOL    HW229913   0.680   1.779   5.989  1.7286  1.2692 -0.1635
 6094SOL     OW29914   0.100   3.942   2.782  0.2309  0.0291  0.3303
 6094SOL    HW129915   0.094   3.868   2.722 -0.3872 -0.1700  0.6392
 6094SOL    HW229916   0.031   3.910   2.840  0.0354  0.4416  0.3293
 6095SOL     OW29917   0.478   1.292   2.363  0.3662 -0.5998  0.0889
 6095SOL    HW129918   0.496   1.201   2.384  0.2862 -0.6743 -0.1618
 6095SOL    HW229919   0.562   1.307   2.320  0.7103 -0.3364  0.8565
 6096SOL     OW29920   3.813   2.653   7.234  0.5901 -0.0652 -0.0220
 6096SOL    HW129921   3.718   2.642   7.226  0.6353 -1.3134  1.1263
 6096SOL    HW229922   3.819   2.665   7.328  0.7720  0.9778 -0.1658
 6097SOL     OW29923   0.321   4.290   6.231 -0.6843 -0.0123  0.5960
 6097SOL    HW129924   0.235   4.327   6.250 -1.1653 -0.5177 -0.6198
 6097SOL    HW229925   0.383   4.351   6.271 -0.2753  0.4923 -0.8227
 6098SOL     OW29926   0.746   0.727   7.253 -0.3389  0.1310 -0.3135
 6098SOL    HW129927   0.815   0.678   7.298 -1.3507 -1.2236 -0.2527
 6098SOL    HW229928   0.670   0.688   7.297  0.4361 -1.0473 -0.0233
 6099SOL     OW29929   4.014   0.615   1.648  0.5470  0.1111  0.3939
 6099SOL    HW129930   4.008   0.614   1.553 -1.1113  0.9483  0.4884
 6099SOL    HW229931   3.963   0.540   1.677 -0.5018 -0.1154 -2.0534
 6100SOL     OW29932   3.443   1.926   3.394 -0.2462 -0.3672  0.3743
 6100SOL    HW129933   3.434   1.834   3.419  1.9370 -0.6965 -0.0415
 6100SOL    HW229934   3.537   1.933   3.379 -0.4572  0.9129 -0.3908
 6101SOL     OW29935   1.799   1.379  15.308  0.1856  0.0288  0.1617
 6101SOL    HW129936   1.796   1.470  15.280  1.1503 -0.5103 -1.6677
 6101SOL    HW229937   1.819   1.394  15.400 -0.0474 -1.8613  0.5217
 6102SOL     OW29938   2.504   2.061   2.187 -0.4030 -0.7036 -0.4229
 6102SOL    HW129939   2.501   2.147   2.227 -0.6556 -0.2915 -1.3332
 6102SOL    HW229940   2.432   2.065   2.125 -0.5194 -1.5827 -0.3519
 6103SOL     OW29941   2.370   2.395  13.935 -0.2396 -0.7699 -0.3497
 6103SOL    HW129942   2.366   2.456  14.009 -0.1682  1.2040 -1.9822
 6103SOL    HW229943   2.464   2.380  13.927 -0.0052  0.3727  0.2924
 6104SOL     OW29944   2.568   3.167   8.984 -0.3713  0.0526  0.2588
 6104SOL    HW129945   2.533   3.086   8.947  0.0810 -1.2502  2.6904
 6104SOL    HW229946   2.661   3.148   8.985 -1.2663 -4.2326  0.1779
 6105SOL     OW29947   1.623   0.115  13.429 -0.0033  0.7302 -0.0005
 6105SOL    HW129948   1.608   0.163  13.511  1.8176  2.4130 -0.6718
 6105SOL    HW229949   1.610   0.028  13.467  0.5631  1.3687  1.6731
 6106SOL     OW29950   0.446   3.131   5.289 -0.8072  0.1359 -0.2430
 6106SOL    HW129951   0.381   3.094   5.230  1.6120 -2.8553 -1.0643
 6106SOL    HW229952   0.474   3.047   5.327 -3.5435 -1.0242 -0.8070
 6107SOL     OW29953   2.627   0.961  17.533 -0.1656  0.2459  0.2531
 6107SOL    HW129954   2.642   0.907  17.455  0.6298 -0.3263  0.7979
 6107SOL    HW229955   2.547   0.930  17.575 -1.3518  1.3410 -1.2282
 6108SOL     OW29956   4.485   2.418   3.595 -0.2320  0.7614 -0.5182
 6108SOL    HW129957   4.554   2.392   3.534 -1.1486 -0.7896 -0.9003
 6108SOL    HW229958   4.525   2.453   3.674 -1.6773  1.2814 -0.0256
 6109SOL     OW29959   0.438   2.108   4.644  0.3218  0.0397  0.6134
 6109SOL    HW129960   0.344   2.089   4.643 -0.0423  1.9607 -1.5369
 6109SOL    HW229961   0.450   2.138   4.554 -3.2417 -0.9110 -0.1765
 6110SOL     OW29962   1.903   0.068   5.306  0.5284  0.0166 -0.2422
 6110SOL    HW129963   1.867   0.156   5.296  1.0462  0.1670 -0.8018
 6110SOL    HW229964   1.996   0.071   5.332  0.6236  1.7113 -0.8050
 6111SOL     OW29965   1.922   2.139   4.635  0.1703  0.1243  0.2100
 6111SOL    HW129966   1.842   2.087   4.628 -0.1299  0.6834 -0.4649
 6111SOL    HW229967   1.908   2.207   4.700  1.1592  1.3535 -0.8728
 6112SOL     OW29968   2.614   0.978  15.225 -0.1027 -0.5226 -0.1681
 6112SOL    HW129969   2.572   0.920  15.162  2.5779  1.2678 -3.5644
 6112SOL    HW229970   2.548   1.047  15.237  1.3441  0.3814  2.6511
 6113SOL     OW29971   0.246   1.091   5.772  0.5344  0.3929  0.7640
 6113SOL    HW129972   0.160   1.051   5.785 -1.1290  2.3059 -4.5363
 6113SOL    HW229973   0.217   1.180   5.754 -1.9865 -0.4010  0.9997
 6114SOL     OW29974   3.678   1.235   6.488  0.1187  0.2538 -0.4801
 6114SOL    HW129975   3.684   1.327   6.461 -1.5482  0.8812  1.3196
 6114SOL    HW229976   3.589   1.219   6.519  0.7215  0.1730  1.1814
 6115SOL     OW29977   1.988   2.090   3.964 -0.2376 -0.2045  0.2339
 6115SOL    HW129978   2.050   2.070   4.034 -0.2553  0.1454  0.3489
 6115SOL    HW229979   1.906   2.073   4.011 -0.4027 -1.5726 -0.5340
 6116SOL     OW29980   4.522   1.313   1.548  0.0955 -0.0715  0.0581
 6116SOL    HW129981   4.528   1.342   1.639 -0.5475  0.4247 -0.0609
 6116SOL    HW229982   4.479   1.389   1.510 -2.1042 -1.1308  0.4332
 6117SOL     OW29983   3.886   0.939   7.285 -0.6297  0.0464  0.2398
 6117SOL    HW129984   3.807   0.884   7.285 -0.1963 -0.5774  0.1154
 6117SOL    HW229985   3.887   0.967   7.376 -1.4219 -1.3142  0.6729
 6118SOL     OW29986   3.201   2.280  11.956 -0.2601  0.1952 -0.3927
 6118SOL    HW129987   3.266   2.338  11.918 -0.3544 -0.3533 -1.4040
 6118SOL    HW229988   3.121   2.320  11.921 -1.3490 -1.3505  0.2857
 6119SOL     OW29989   1.623   1.236   6.680 -0.2825  0.2746 -0.1330
 6119SOL    HW129990   1.642   1.225   6.773  0.1183  3.1691  0.1170
 6119SOL    HW229991   1.701   1.187   6.654  0.4721  1.5927 -0.3601
 6120SOL     OW29992   1.813   2.797   3.140  0.1100 -0.1125 -0.2328
 6120SOL    HW129993   1.902   2.810   3.172 -0.3360  2.1301  0.1293
 6120SOL    HW229994   1.807   2.872   3.081  0.0229 -0.3819 -0.5707
 6121SOL     OW29995   4.178   3.661   1.924 -0.3013  0.4444 -0.6392
 6121SOL    HW129996   4.195   3.755   1.923 -0.9613  0.5754  0.4025
 6121SOL    HW229997   4.107   3.660   1.859  1.1820  0.5185 -2.2522
 6122SOL     OW29998   4.038   0.775  13.249 -0.6077 -0.4408  0.2960
 6122SOL    HW129999   3.952   0.793  13.210 -0.3388  0.5519  0.1585
 6122SOL    HW230000   4.035   0.840  13.320 -2.8857 -0.4408  0.2189
 6123SOL     OW30001   0.428   4.481   8.150 -0.0578 -0.5073 -0.3957
 6123SOL    HW130002   0.510   4.479   8.199 -0.5790 -1.3585  0.4238
 6123SOL    HW230003   0.379   4.410   8.190 -0.8562  1.7615  2.6105
 6124SOL     OW30004   3.831   1.591   5.207 -0.1555  0.5254  0.2450
 6124SOL    HW130005   3.862   1.679   5.190 -0.7413  0.6927  0.0399
 6124SOL    HW230006   3.804   1.583   5.299 -2.0469  1.6420 -0.2119
 6125SOL     OW30007   0.223   0.368   9.567 -0.0331 -0.2767  1.0920
 6125SOL    HW130008   0.247   0.312   9.641  0.6371 -2.1918 -0.5646
 6125SOL    HW230009   0.221   0.297   9.504  1.4522  0.2866  0.4076
 6126SOL     OW30010   1.488   3.992  15.340 -0.4292 -0.3700 -0.7709
 6126SOL    HW130011   1.448   4.065  15.387 -1.7429 -1.5859 -0.0075
 6126SOL    HW230012   1.504   4.039  15.258  1.5054  0.9270  0.3813
 6127SOL     OW30013   0.499   1.730  11.037  0.1942 -0.1363 -0.1489
 6127SOL    HW130014   0.519   1.658  10.977 -1.9314 -0.7327 -0.1344
 6127SOL    HW230015   0.583   1.730  11.083 -0.0865  1.7648  0.3242
 6128SOL     OW30016   4.092   2.679   9.571 -0.4492  0.2015 -0.2346
 6128SOL    HW130017   4.156   2.689   9.500  0.6602  1.7016  0.9710
 6128SOL    HW230018   4.066   2.769   9.588 -1.8306 -0.2024 -0.1793
 6129SOL     OW30019   1.712   0.615  17.179 -0.5277 -0.1157  0.1842
 6129SOL    HW130020   1.772   0.552  17.219 -2.2527 -1.6158  0.4075
 6129SOL    HW230021   1.710   0.590  17.087 -1.8420 -2.6567  0.8819
 6130SOL     OW30022   4.590   2.989   1.347  0.3082  0.7726 -0.1016
 6130SOL    HW130023   4.634   2.968   1.265 -0.7762 -2.4697  0.1386
 6130SOL    HW230024   4.504   2.947   1.336 -0.7726  2.9908 -0.2466
 6131SOL     OW30025   1.125   2.915   0.014  0.1151 -0.0272  0.0825
 6131SOL    HW130026   1.103   2.854   0.084  0.1010 -0.0070  0.0957
 6131SOL    HW230027   1.041   2.959   0.012  0.2052  0.2281  1.8235
 6132SOL     OW30028   1.952   0.602   4.106 -0.0769  0.0729 -0.3724
 6132SOL    HW130029   2.040   0.639   4.111  0.5645 -1.2614 -1.7155
 6132SOL    HW230030   1.903   0.670   4.153 -1.0903 -0.4179 -0.7286
 6133SOL     OW30031   1.358   2.307   8.265  0.1089  0.2923  0.1503
 6133SOL    HW130032   1.354   2.393   8.307 -1.9071 -0.0765  0.7140
 6133SOL    HW230033   1.267   2.281   8.276 -0.2530  1.7414  0.4788
 6134SOL     OW30034   4.488   3.432   5.364  0.8472 -0.3198 -0.7430
 6134SOL    HW130035   4.553   3.499   5.343 -0.7501  0.7694 -2.2902
 6134SOL    HW230036   4.504   3.417   5.457 -1.8958 -0.6651 -0.3129
 6135SOL     OW30037   1.464   3.917   2.067  0.2154  1.4284 -0.1685
 6135SOL    HW130038   1.527   3.892   1.999 -0.0649  1.1238 -0.3179
 6135SOL    HW230039   1.461   3.838   2.121  2.4574  0.8838 -0.8502
 6136SOL     OW30040   1.424   3.395   2.958 -0.6229 -0.1295  0.1784
 6136SOL    HW130041   1.341   3.432   2.989  1.2255  2.2916  2.2328
 6136SOL    HW230042   1.426   3.436   2.872  0.1966 -0.1793  0.1685
 6137SOL     OW30043   3.749   4.139   3.062  0.0115  0.0941 -0.7720
 6137SOL    HW130044   3.686   4.210   3.053  0.7342  0.8497  0.1454
 6137SOL    HW230045   3.745   4.116   3.155 -1.6543  0.1078 -0.8324
 6138SOL     OW30046   2.773   3.666  12.840 -0.1267 -0.2478  0.0774
 6138SOL    HW130047   2.828   3.659  12.918  0.5507 -0.7773 -0.4514
 6138SOL    HW230048   2.735   3.754  12.853  3.4842  0.9192  2.5563
 6139SOL     OW30049   0.180   2.418  13.749 -0.2524 -0.2065  0.1173
 6139SOL    HW130050   0.145   2.424  13.660 -1.2587 -2.9316  0.3428
 6139SOL    HW230051   0.098   2.408  13.798 -0.6169 -1.6969 -0.8102
 6140SOL     OW30052   4.330   1.898   8.107 -0.3208  0.4840 -0.0540
 6140SOL    HW130053   4.397   1.966   8.119  3.1131 -3.2855  1.8833
 6140SOL    HW230054   4.390   1.825   8.090  0.4561  1.3659 -1.1401
 6141SOL     OW30055   1.333   3.335  16.201 -0.2054  0.0404  0.3984
 6141SOL    HW130056   1.267   3.320  16.269 -0.6176 -0.8284 -0.1873
 6141SOL    HW230057   1.340   3.429  16.214  0.6732 -0.8388  6.1152
 6142SOL     OW30058   0.409   1.724   5.051 -0.5815  0.3339 -0.3021
 6142SOL    HW130059   0.330   1.671   5.063 -1.4491  1.9409  1.1396
 6142SOL    HW230060   0.479   1.659   5.050 -2.0436 -1.2474  0.6016
 6143SOL     OW30061   0.175   1.170   7.211  0.7031  0.0330  0.1850
 6143SOL    HW130062   0.140   1.237   7.270  3.0769  0.7311  0.8026
 6143SOL    HW230063   0.237   1.136   7.277 -2.3717 -3.6837  1.1798
 6144SOL     OW30064   1.837   2.261   7.676  0.2463  0.1678 -0.5493
 6144SOL    HW130065   1.781   2.244   7.751  1.6237 -1.0515  0.2033
 6144SOL    HW230066   1.896   2.328   7.712 -1.5482  1.9445 -0.8995
 6145SOL     OW30067   2.701   1.256   8.902 -0.3496 -0.0845 -0.1302
 6145SOL    HW130068   2.741   1.338   8.932  1.1139 -1.2106  0.9924
 6145SOL    HW230069   2.768   1.219   8.844  1.1759  1.0453  0.9261
 6146SOL     OW30070   2.332   3.212   4.563 -0.1461  0.4849 -0.0600
 6146SOL    HW130071   2.244   3.227   4.528  0.0659  0.1308 -0.7519
 6146SOL    HW230072   2.376   3.181   4.484  2.9120  3.1074  0.6188
 6147SOL     OW30073   4.650   2.116   3.371 -1.0202  0.1647  0.0692
 6147SOL    HW130074   4.564   2.115   3.331 -0.8208  2.9009 -0.4226
 6147SOL    HW230075   4.698   2.037   3.344 -1.1842 -0.1299  0.6402
 6148SOL     OW30076   4.473   0.403   7.430 -0.3036  0.5048 -0.2740
 6148SOL    HW130077   4.429   0.411   7.346  1.2163  1.4621 -0.9715
 6148SOL    HW230078   4.399   0.367   7.479 -0.4205  0.1206 -0.7331
 6149SOL     OW30079   3.328   2.339   2.389  0.3882 -0.1005 -0.2462
 6149SOL    HW130080   3.299   2.417   2.342 -0.1357 -0.0721  0.1275
 6149SOL    HW230081   3.261   2.338   2.458 -1.7448 -0.2231 -2.3439
 6150SOL     OW30082   4.513   4.434   0.389  0.2179 -0.0258  0.1944
 6150SOL    HW130083   4.544   4.524   0.397 -1.6939  0.8101 -1.7679
 6150SOL    HW230084   4.589   4.392   0.350  1.3758  1.5613  0.7444
 6151SOL     OW30085   0.300   0.338   4.620  0.0769  0.2540  0.2103
 6151SOL    HW130086   0.393   0.317   4.632  0.3583 -0.1013 -2.5089
 6151SOL    HW230087   0.271   0.300   4.703  0.1739 -0.7279 -0.2017
 6152SOL     OW30088   0.634   2.924   8.056  0.2173 -0.1944 -0.1076
 6152SOL    HW130089   0.722   2.941   8.090  2.1053  0.0691 -5.1031
 6152SOL    HW230090   0.639   2.957   7.966 -0.9494 -0.1646 -0.1580
 6153SOL     OW30091   0.481   0.992  13.113 -0.1730  0.3304 -0.0091
 6153SOL    HW130092   0.453   0.942  13.189 -3.0742  1.3317 -0.4246
 6153SOL    HW230093   0.492   0.919  13.051  0.7566  2.1301 -1.9898
 6154SOL     OW30094   0.079   1.408  16.503 -0.2681 -0.5787  0.1449
 6154SOL    HW130095   0.100   1.330  16.451 -1.2827 -1.1537  0.5882
 6154SOL    HW230096   0.072   1.467  16.428  2.4573 -0.6659 -0.1679
 6155SOL     OW30097   1.200   3.147   4.962  0.2790  0.1485  0.3857
 6155SOL    HW130098   1.192   3.192   5.046 -1.8597 -0.4119  0.4961
 6155SOL    HW230099   1.121   3.184   4.924  0.4860  1.4937  1.2863
 6156SOL     OW30100   3.630   0.681   9.042 -0.2081  1.1262 -0.1941
 6156SOL    HW130101   3.712   0.696   8.995 -0.2390  1.0523 -0.2713
 6156SOL    HW230102   3.596   0.596   9.014  2.1043  0.3587 -0.6717
 6157SOL     OW30103   4.583   2.286   5.115  0.0858 -0.2644 -0.3840
 6157SOL    HW130104   4.618   2.259   5.030  2.9430 -2.7180  1.5636
 6157SOL    HW230105   4.644   2.234   5.168  1.0215  3.3377  2.1361
 6158SOL     OW30106   4.726   0.323   7.297  0.6181  0.9885 -0.3971
 6158SOL    HW130107   4.664   0.323   7.370  0.7970 -0.0294 -0.2342
 6158SOL    HW230108   4.665   0.288   7.233 -2.7011  0.2372  3.1908
 6159SOL     OW30109   1.881   0.013  16.722 -0.1567  0.7299  0.2748
 6159SOL    HW130110   1.955   0.021  16.661 -1.5086  0.3742 -1.4005
 6159SOL    HW230111   1.894   4.657  16.745  0.1990  0.8118  0.4118
 6160SOL     OW30112   2.412   1.454  16.739  0.4784 -0.2652  0.0358
 6160SOL    HW130113   2.333   1.506  16.756 -1.1974 -3.1637  1.0615
 6160SOL    HW230114   2.379   1.366  16.756 -1.3693  0.7569  1.6880
 6161SOL     OW30115   3.471   3.348  16.875  0.2831  0.2670 -0.8338
 6161SOL    HW130116   3.488   3.439  16.849 -1.2652  1.0546  0.9353
 6161SOL    HW230117   3.443   3.370  16.964 -1.2700 -2.9783 -0.5090
 6162SOL     OW30118   1.567   0.903   3.992  0.0881 -0.4826  0.7793
 6162SOL    HW130119   1.650   0.947   4.008 -0.5460 -0.0931  2.9149
 6162SOL    HW230120   1.521   0.971   3.942  0.1397 -3.3921 -3.2294
 6163SOL     OW30121   2.287   0.384   8.339  0.6494 -0.1330 -0.5633
 6163SOL    HW130122   2.364   0.361   8.287  2.1983 -1.5711  2.3680
 6163SOL    HW230123   2.272   0.298   8.380 -1.3806  1.2233  1.5378
 6164SOL     OW30124   1.439   4.273   4.049  0.2637 -0.1143 -0.5487
 6164SOL    HW130125   1.494   4.290   4.125 -0.4856 -0.5626  0.0949
 6164SOL    HW230126   1.406   4.359   4.022 -1.2892 -0.4156  0.3644
 6165SOL     OW30127   0.119   4.556   6.450  0.0987 -0.7139  0.6180
 6165SOL    HW130128   0.102   4.496   6.377  3.7842 -0.5159 -0.4085
 6165SOL    HW230129   0.197   4.507   6.474 -0.4170 -1.1056  1.4880
 6166SOL     OW30130   4.230   1.658   6.303  0.5102  0.5555 -0.2686
 6166SOL    HW130131   4.202   1.676   6.213  1.2909 -0.0500 -0.6297
 6166SOL    HW230132   4.172   1.583   6.320  0.2867  0.7463 -0.1896
 6167SOL     OW30133   3.923   0.442   1.073 -0.5662  0.0271  0.1878
 6167SOL    HW130134   3.955   0.528   1.047 -0.3373 -0.1893 -0.2445
 6167SOL    HW230135   3.902   0.392   0.994 -2.4035  1.7965 -0.4276
 6168SOL     OW30136   2.497   1.456   6.649 -0.0304 -0.3769 -0.1692
 6168SOL    HW130137   2.417   1.443   6.597 -0.3544  0.9826 -0.0251
 6168SOL    HW230138   2.529   1.366   6.652  1.4502  0.1413 -0.7008
 6169SOL     OW30139   3.231   4.107   2.051 -0.1145  0.2653 -0.4691
 6169SOL    HW130140   3.239   4.025   2.003 -0.1098  0.9911 -1.7123
 6169SOL    HW230141   3.137   4.115   2.071 -0.2707 -1.3598 -0.5690
 6170SOL     OW30142   3.946   1.381   7.860 -0.3101  0.2567  0.1336
 6170SOL    HW130143   4.017   1.404   7.800  0.3328 -1.2988  0.2932
 6170SOL    HW230144   3.964   1.435   7.937 -3.4075  1.9519 -0.3217
 6171SOL     OW30145   4.602   1.542  11.688  0.6216  0.1003 -0.3545
 6171SOL    HW130146   4.573   1.472  11.746 -1.0390  1.0022 -0.0810
 6171SOL    HW230147   4.514   1.562  11.656  0.2694 -0.0813  0.4889
 6172SOL     OW30148   3.890   3.588   8.818 -0.4367  0.0644 -0.0276
 6172SOL    HW130149   3.886   3.652   8.889  0.0846  1.0565 -0.9139
 6172SOL    HW230150   3.976   3.612   8.784 -0.6822  0.6380 -0.2388
 6173SOL     OW30151   0.414   3.334   6.924 -0.4017 -0.1619 -0.4527
 6173SOL    HW130152   0.455   3.388   6.856 -1.9147 -0.8424 -1.9170
 6173SOL    HW230153   0.480   3.343   6.993 -1.0818  2.1513 -0.0794
 6174SOL     OW30154   2.400   2.865   3.268  0.3973 -0.3878 -0.3911
 6174SOL    HW130155   2.377   2.772   3.275 -1.3130  0.0913  0.2196
 6174SOL    HW230156   2.356   2.880   3.184  0.7834 -0.9641 -0.6980
 6175SOL     OW30157   1.327   4.396  12.194 -0.4215  0.5280  0.2857
 6175SOL    HW130158   1.242   4.438  12.204 -1.4903 -1.3577 -1.0553
 6175SOL    HW230159   1.291   4.317  12.155  2.2160  1.0710 -3.2297
 6176SOL     OW30160   3.717   0.344  12.621 -0.1312  0.0328 -0.6825
 6176SOL    HW130161   3.757   0.278  12.564 -1.0527  0.3430 -1.6873
 6176SOL    HW230162   3.713   0.303  12.708 -0.2296  1.0197 -0.2202
 6177SOL     OW30163   1.854   0.106  13.012  0.9277 -0.0282  0.1919
 6177SOL    HW130164   1.851   0.174  12.945 -0.3296 -0.1700  0.1159
 6177SOL    HW230165   1.936   0.128  13.057 -0.0720 -2.1034  3.0325
 6178SOL     OW30166   2.859   1.310   3.960 -0.3640 -0.6015  0.4882
 6178SOL    HW130167   2.939   1.258   3.948  0.6171  0.7076  1.3490
 6178SOL    HW230168   2.854   1.319   4.055  0.2866  1.1159  0.3669
 6179SOL     OW30169   2.600   3.562   0.859  0.1844 -0.6439 -0.0812
 6179SOL    HW130170   2.565   3.495   0.800  2.7330 -1.3932 -0.7534
 6179SOL    HW230171   2.524   3.585   0.912  1.5713  0.9800  1.2003
 6180SOL     OW30172   1.541   0.678   2.459  0.2389 -0.0453 -0.5259
 6180SOL    HW130173   1.615   0.618   2.451  0.0525 -0.4346  0.6412
 6180SOL    HW230174   1.495   0.631   2.529  0.1678  0.8816  0.0487
 6181SOL     OW30175   3.883   1.982   1.145 -0.2933  0.3885  0.1770
 6181SOL    HW130176   3.862   1.974   1.238 -1.5251 -1.6727 -0.2800
 6181SOL    HW230177   3.800   1.981   1.098 -0.3508  0.8667  0.2681
 6182SOL     OW30178   1.449   3.227   4.904  0.6642 -0.2912  0.1285
 6182SOL    HW130179   1.466   3.295   4.969 -0.6600  0.1712 -0.0005
 6182SOL    HW230180   1.357   3.204   4.918  0.2568  1.0229 -0.3719
 6183SOL     OW30181   1.536   1.351   0.229  0.3279 -0.4037  0.4027
 6183SOL    HW130182   1.624   1.388   0.225  0.3237 -0.6403 -1.8433
 6183SOL    HW230183   1.495   1.436   0.243  0.1569 -0.4354  0.1135
 6184SOL     OW30184   3.618   1.150   9.068 -0.0307  0.3372  0.2157
 6184SOL    HW130185   3.644   1.076   9.014 -0.1237  2.1813 -2.3535
 6184SOL    HW230186   3.621   1.116   9.158  0.3848 -0.0950  0.0382
 6185SOL     OW30187   1.214   3.718   4.291  0.9635  0.0816  0.7962
 6185SOL    HW130188   1.238   3.633   4.255  1.3669  0.8282 -0.7288
 6185SOL    HW230189   1.241   3.724   4.383  0.6051 -0.4798  0.9392
 6186SOL     OW30190   0.345   0.397   9.937 -0.0146 -0.8515  0.0728
 6186SOL    HW130191   0.328   0.349  10.018 -1.5518 -0.0857  0.1912
 6186SOL    HW230192   0.337   0.322   9.878  4.3388 -3.7546  3.0991
 6187SOL     OW30193   0.333   0.728   9.412  0.4676  0.0372  0.2050
 6187SOL    HW130194   0.249   0.773   9.425 -0.7614 -2.0549 -0.4869
 6187SOL    HW230195   0.352   0.690   9.497 -0.4185  1.3166  0.9795
 6188SOL     OW30196   0.460   4.063  17.542 -0.1442 -0.0552  0.3253
 6188SOL    HW130197   0.473   4.109  17.625  0.4004 -0.1947  0.3192
 6188SOL    HW230198   0.440   4.138  17.485  1.8107 -0.2635 -0.6415
 6189SOL     OW30199   1.081   2.808   7.652 -0.3107 -0.0754 -0.1280
 6189SOL    HW130200   1.098   2.896   7.619 -2.1437  0.2345 -0.2345
 6189SOL    HW230201   1.060   2.756   7.575  1.4921  0.0180 -0.6847
 6190SOL     OW30202   3.549   3.670   6.422 -0.0140 -0.3032 -0.0476
 6190SOL    HW130203   3.518   3.628   6.342 -1.6761 -1.0646  0.9859
 6190SOL    HW230204   3.476   3.645   6.479  0.1605  1.1925  0.8546
 6191SOL     OW30205   0.363   0.470   8.580 -0.1454  0.3509 -0.2636
 6191SOL    HW130206   0.392   0.526   8.508 -0.3817 -2.6891 -2.7315
 6191SOL    HW230207   0.446   0.452   8.624 -1.2746  0.2623  1.8345
 6192SOL     OW30208   0.868   0.961   7.315  0.7869  0.6147  0.3660
 6192SOL    HW130209   0.817   0.882   7.298  0.9391  0.2207  1.7413
 6192SOL    HW230210   0.816   0.992   7.389  0.0353  1.2025 -0.4023
 6193SOL     OW30211   3.941   3.397   1.799 -0.1950  0.0215  0.2998
 6193SOL    HW130212   3.982   3.437   1.723 -3.1771 -0.6891 -1.6538
 6193SOL    HW230213   4.004   3.331   1.828  1.0823  1.3596  0.5772
 6194SOL     OW30214   2.347   2.540   2.840 -0.2743  0.5562  0.7021
 6194SOL    HW130215   2.335   2.475   2.910  0.1773  0.8254  1.0351
 6194SOL    HW230216   2.258   2.575   2.838 -0.1282  0.8691 -0.4947
 6195SOL     OW30217   1.708   4.713   8.272 -0.0805  0.4572  0.5640
 6195SOL    HW130218   1.719   4.691   8.365 -1.2918  0.9260  0.8174
 6195SOL    HW230219   1.774   0.045   8.263 -0.2092  0.5731  0.4964
 6196SOL     OW30220   3.714   0.238   3.601 -0.5529  0.1633 -0.2611
 6196SOL    HW130221   3.801   0.199   3.616 -0.2836  0.1433 -1.9170
 6196SOL    HW230222   3.733   0.318   3.553 -0.3578  0.8662  0.9707
 6197SOL     OW30223   0.774   2.490   8.034 -0.4507 -0.1168  0.5059
 6197SOL    HW130224   0.700   2.549   8.018 -0.8947 -0.5015  1.1855
 6197SOL    HW230225   0.833   2.560   8.064  0.7230 -0.1549 -1.6327
 6198SOL     OW30226   4.291   4.258   1.667  0.4183  0.5625 -0.0605
 6198SOL    HW130227   4.296   4.246   1.573 -2.1727 -1.2278  0.0359
 6198SOL    HW230228   4.197   4.262   1.682  0.5984  1.0244  0.9585
 6199SOL     OW30229   4.270   3.638  13.073  0.2616  0.0879 -0.0281
 6199SOL    HW130230   4.269   3.618  12.979 -0.1596  1.2800 -0.2843
 6199SOL    HW230231   4.287   3.732  13.071 -2.1043  0.5580  1.1086
 6200SOL     OW30232   3.533   1.991   1.517 -0.0338 -0.5260 -0.2989
 6200SOL    HW130233   3.438   2.000   1.508 -0.0476 -1.6193 -1.3216
 6200SOL    HW230234   3.544   1.972   1.610  0.6760 -0.6532 -0.4039
 6201SOL     OW30235   1.683   1.202   3.816 -0.1065  0.0041  0.1797
 6201SOL    HW130236   1.704   1.179   3.907  0.0500  0.3393  0.2271
 6201SOL    HW230237   1.727   1.131   3.770 -0.5843 -1.4647  1.9829
 6202SOL     OW30238   1.630   1.882   0.219  0.5400  0.1749  0.1533
 6202SOL    HW130239   1.629   1.841   0.305  2.6225 -2.4523 -1.0690
 6202SOL    HW230240   1.594   1.969   0.238  0.8035  0.4225 -0.4878
 6203SOL     OW30241   2.548   1.305  10.940  0.7064 -0.1760 -0.0977
 6203SOL    HW130242   2.494   1.256  11.002  0.4924  3.4876  2.6032
 6203SOL    HW230243   2.527   1.392  10.973  2.2731  1.1976 -2.6859
 6204SOL     OW30244   1.786   1.642  15.258 -0.4681  0.6552 -0.1960
 6204SOL    HW130245   1.868   1.690  15.259 -0.2472  0.2388  1.2518
 6204SOL    HW230246   1.738   1.685  15.329  0.1369  3.5243 -1.5293
 6205SOL     OW30247   2.157   2.756   4.975 -0.3539 -0.0959  0.0417
 6205SOL    HW130248   2.163   2.712   4.890  0.1554  1.1261 -0.5620
 6205SOL    HW230249   2.239   2.803   4.992  0.6033 -0.6612 -3.0709
 6206SOL     OW30250   2.718   1.609   1.571  0.1038  0.4710  0.1546
 6206SOL    HW130251   2.810   1.606   1.544 -0.1736 -0.3333 -0.6822
 6206SOL    HW230252   2.733   1.653   1.655  0.1301  0.0264  0.3864
 6207SOL     OW30253   0.605   4.445  16.569  0.0589  0.0762  0.1224
 6207SOL    HW130254   0.616   4.482  16.656 -0.9616  0.0354  0.2688
 6207SOL    HW230255   0.684   4.472  16.522 -1.2634  3.1972 -0.2994
 6208SOL     OW30256   0.607   1.301   0.690 -0.2505  0.2869  0.1918
 6208SOL    HW130257   0.591   1.294   0.596  0.6868  0.3937  0.0185
 6208SOL    HW230258   0.675   1.368   0.683 -0.2771  0.0705 -1.9942
 6209SOL     OW30259   3.639   2.985   8.463  0.7140  0.3901  0.0404
 6209SOL    HW130260   3.591   3.067   8.469  2.1365  1.1691  0.7860
 6209SOL    HW230261   3.582   2.919   8.502  1.0342  0.6998  1.0350
 6210SOL     OW30262   1.107   0.509   8.100 -0.0086  0.4290  0.1150
 6210SOL    HW130263   1.086   0.456   8.177 -0.8853  1.9694  0.9222
 6210SOL    HW230264   1.198   0.479   8.105 -0.3524 -0.2354  2.4017
 6211SOL     OW30265   2.355   2.815   1.762 -0.2002  0.1431 -0.3170
 6211SOL    HW130266   2.437   2.852   1.728 -0.4543  1.5317  0.5903
 6211SOL    HW230267   2.304   2.893   1.740 -1.3066 -0.7331 -0.8291
 6212SOL     OW30268   2.212   0.005  13.758 -0.1523 -0.3436 -0.1905
 6212SOL    HW130269   2.298   0.007  13.800  0.2947  1.4891 -1.1823
 6212SOL    HW230270   2.204   4.648  13.742  1.8637 -0.6115  0.3586
 6213SOL     OW30271   1.667   2.854   6.260 -0.5076  0.1407 -0.0601
 6213SOL    HW130272   1.644   2.843   6.353  0.4575 -0.5166  0.1004
 6213SOL    HW230273   1.575   2.867   6.234 -1.6723  0.2458  4.0972
 6214SOL     OW30274   2.241   1.797   5.957 -0.9937  0.3877  0.0975
 6214SOL    HW130275   2.215   1.706   5.974  0.9507 -0.6784 -2.5885
 6214SOL    HW230276   2.175   1.833   6.016 -1.4543  0.4219 -0.4325
 6215SOL     OW30277   3.211   2.197   2.607  0.1691 -0.4803  0.6673
 6215SOL    HW130278   3.189   2.152   2.689 -1.3501  0.9474  1.0578
 6215SOL    HW230279   3.279   2.145   2.564 -0.4282  0.2585 -1.1434
 6216SOL     OW30280   3.685   1.297   4.166 -0.1535 -0.0488  0.2384
 6216SOL    HW130281   3.626   1.329   4.234  0.3607  0.7535  0.3156
 6216SOL    HW230282   3.747   1.370   4.174  1.7284 -1.6394  0.2486
 6217SOL     OW30283   1.392   1.695   4.894 -0.0297 -0.1231 -0.1212
 6217SOL    HW130284   1.330   1.624   4.882  0.4273 -0.4652 -0.4539
 6217SOL    HW230285   1.365   1.724   4.982  1.3027  0.4418  0.1117
 6218SOL     OW30286   1.283   2.466   3.932 -0.7184 -0.3805 -0.0020
 6218SOL    HW130287   1.259   2.380   3.965  0.2808  0.0082  1.7114
 6218SOL    HW230288   1.358   2.485   3.988  0.4053 -0.4649 -1.4794
 6219SOL     OW30289   1.268   4.328   5.435 -0.1192 -0.2144 -0.0567
 6219SOL    HW130290   1.245   4.244   5.396 -2.5159  0.6054 -0.4120
 6219SOL    HW230291   1.311   4.298   5.516 -3.1181 -1.7571  0.9650
 6220SOL     OW30292   1.986   1.010   2.803  0.4340  0.3117 -0.0260
 6220SOL    HW130293   1.964   1.078   2.740 -1.5516  0.8191  1.2211
 6220SOL    HW230294   2.082   1.005   2.805  0.3333 -0.8055  1.8502
 6221SOL     OW30295   2.134   1.352   9.399 -0.6048  0.3645  0.1187
 6221SOL    HW130296   2.067   1.323   9.461 -1.6182  0.0717 -1.1105
 6221SOL    HW230297   2.109   1.296   9.325  0.1523  0.9310 -0.5703
 6222SOL     OW30298   1.131   3.639  15.732  0.1837  0.2155  0.4551
 6222SOL    HW130299   1.097   3.718  15.775 -1.4472 -0.3029  0.1073
 6222SOL    HW230300   1.200   3.613  15.793  0.0598  0.9638  0.9191
 6223SOL     OW30301   1.923   0.989  14.697  0.2423  0.0273  0.3635
 6223SOL    HW130302   1.966   0.903  14.693 -0.2436 -0.1999 -0.0432
 6223SOL    HW230303   1.868   0.977  14.774  0.7467 -0.0935  0.7036
 6224SOL     OW30304   3.243   2.972  10.411 -0.0977 -0.1215 -0.5141
 6224SOL    HW130305   3.205   3.051  10.373 -0.9992 -1.0773 -1.6156
 6224SOL    HW230306   3.320   2.957  10.357  0.6247  0.6491  0.2986
 6225SOL     OW30307   1.540   2.296   4.689 -0.0203  0.0341  1.1762
 6225SOL    HW130308   1.449   2.325   4.690  0.3859  1.2375  2.4660
 6225SOL    HW230309   1.582   2.376   4.719 -2.1864  2.4832 -2.4897
 6226SOL     OW30310   3.705   3.547   9.826 -0.7516  0.2061  0.0692
 6226SOL    HW130311   3.668   3.633   9.807 -1.4489 -0.6109 -2.2481
 6226SOL    HW230312   3.636   3.488   9.795 -0.5615  0.7691 -1.4213
 6227SOL     OW30313   2.779   3.628  10.920  0.2682 -0.1826  0.1319
 6227SOL    HW130314   2.869   3.661  10.929  0.5118 -0.7409 -0.2309
 6227SOL    HW230315   2.738   3.707  10.885 -0.8640 -0.9192 -0.2161
 6228SOL     OW30316   3.366   4.245  16.941 -0.0024 -0.1068  0.6554
 6228SOL    HW130317   3.450   4.288  16.958 -0.9221  1.0802  2.1733
 6228SOL    HW230318   3.330   4.301  16.872 -1.6963 -0.2019  1.4608
 6229SOL     OW30319   4.592   2.683   4.863 -0.2537  0.2476  0.0349
 6229SOL    HW130320   4.564   2.614   4.802 -0.9679  1.7967 -1.4171
 6229SOL    HW230321   4.600   2.629   4.941 -3.6276  1.7342  1.4293
 6230SOL     OW30322   3.810   4.055   9.617  0.1116 -0.1785 -0.6285
 6230SOL    HW130323   3.735   4.110   9.640  0.0035  0.1051 -1.6471
 6230SOL    HW230324   3.843   4.039   9.706 -0.8467  1.4830  0.0342
 6231SOL     OW30325   3.845   3.640  12.254 -0.1649  0.1307  0.6407
 6231SOL    HW130326   3.787   3.584  12.305 -1.7593  0.4626 -0.8203
 6231SOL    HW230327   3.920   3.655  12.312  0.2762  1.5764 -0.3086
 6232SOL     OW30328   3.493   4.601   6.030 -0.4988  0.0431 -0.1791
 6232SOL    HW130329   3.439   4.522   6.036 -0.0807 -0.2378 -0.1366
 6232SOL    HW230330   3.534   4.590   5.944  0.5487 -0.1645  0.3384
 6233SOL     OW30331   1.737   0.508   2.464  0.0206  0.1929 -0.5807
 6233SOL    HW130332   1.733   0.412   2.458  1.2698  0.0959  0.0083
 6233SOL    HW230333   1.826   0.521   2.432  1.0918 -1.3882  1.6826
 6234SOL     OW30334   1.567   0.313   5.080  0.1485  0.2843  0.4621
 6234SOL    HW130335   1.638   0.315   5.145 -0.3395 -0.0794  1.0021
 6234SOL    HW230336   1.491   0.317   5.138 -0.4836 -2.2928 -0.1856
 6235SOL     OW30337   2.203   0.543  13.203  0.2988  0.2208 -0.0128
 6235SOL    HW130338   2.263   0.482  13.160 -0.6306 -0.8021  0.1529
 6235SOL    HW230339   2.200   0.509  13.293  1.0784  1.9554  0.6574
 6236SOL     OW30340   0.462   0.427   2.329 -0.0908  0.6629 -0.2096
 6236SOL    HW130341   0.552   0.440   2.361 -0.3640 -0.7355  1.1044
 6236SOL    HW230342   0.475   0.346   2.278  1.1126  0.7397 -0.0320
 6237SOL     OW30343   4.544   2.360   4.365 -0.1159  0.6733  0.6343
 6237SOL    HW130344   4.624   2.397   4.327 -0.2274  0.7872  0.5139
 6237SOL    HW230345   4.473   2.412   4.327 -1.0552 -0.9891  0.1275
 6238SOL     OW30346   2.006   4.536   5.916  0.0507 -0.0054 -0.1674
 6238SOL    HW130347   2.079   4.501   5.966  0.3182 -1.8208 -1.8076
 6238SOL    HW230348   2.021   4.526   5.822  0.3876 -2.3213  0.1276
 6239SOL     OW30349   0.283   0.139   6.149 -0.5980  0.5790 -0.2195
 6239SOL    HW130350   0.287   0.208   6.215  0.9498 -0.2710  0.5754
 6239SOL    HW230351   0.365   0.091   6.161 -0.0114  1.7907  0.7275
 6240SOL     OW30352   2.428   3.986   9.794 -0.1202  0.4835  0.4602
 6240SOL    HW130353   2.340   3.953   9.775  0.4418 -1.3993  1.1732
 6240SOL    HW230354   2.419   4.016   9.884 -1.2946  0.7921  0.2399
 6241SOL     OW30355   0.017   3.683   8.713 -0.2317 -0.1344 -0.2312
 6241SOL    HW130356   0.011   3.776   8.693  2.2618  0.0790 -0.0043
 6241SOL    HW230357   0.073   3.689   8.791  0.2942 -1.1597 -0.5281
 6242SOL     OW30358   0.138   0.781  13.948 -0.4879 -0.7096  0.5315
 6242SOL    HW130359   0.232   0.793  13.930 -0.7040  0.2036  0.0044
 6242SOL    HW230360   0.112   0.704  13.898 -0.6830 -0.9957  1.0821
 6243SOL     OW30361   1.586   2.214   6.226  0.6702  0.1432  0.2575
 6243SOL    HW130362   1.575   2.168   6.310 -0.9928 -0.6910 -0.3985
 6243SOL    HW230363   1.500   2.246   6.197  1.6811  1.0291 -1.7221
 6244SOL     OW30364   4.087   3.782  12.033  0.2715 -0.8690 -0.4679
 6244SOL    HW130365   4.060   3.767  12.124  2.2284  0.5345  0.3487
 6244SOL    HW230366   4.131   3.701  12.010  0.1167 -0.9674 -0.4176
 6245SOL     OW30367   1.554   3.368   0.346  0.7085  0.2650 -0.4209
 6245SOL    HW130368   1.471   3.371   0.299  1.0826 -0.0254 -1.0922
 6245SOL    HW230369   1.587   3.279   0.332 -0.7231 -0.5462  1.3229
 6246SOL     OW30370   0.319   1.561  16.974  0.0262 -0.2184  0.7825
 6246SOL    HW130371   0.337   1.471  16.948 -0.2702 -0.4593  1.4289
 6246SOL    HW230372   0.369   1.565  17.055  2.5068  0.5463 -0.7680
 6247SOL     OW30373   4.580   1.204   5.589  0.1278  0.1829 -0.0561
 6247SOL    HW130374   4.521   1.216   5.515  0.1171 -3.3010 -0.5864
 6247SOL    HW230375   4.528   1.238   5.662 -2.4825 -1.0461 -1.3529
 6248SOL     OW30376   1.287   0.697   2.284  0.2672  0.1011  0.1482
 6248SOL    HW130377   1.336   0.723   2.362  0.7641  1.4566 -0.6124
 6248SOL    HW230378   1.199   0.729   2.305  0.5882  0.9667  0.1648
 6249SOL     OW30379   0.762   2.349   8.689 -0.2420  0.2070  0.2477
 6249SOL    HW130380   0.812   2.288   8.743  1.7818 -0.8441 -2.8639
 6249SOL    HW230381   0.689   2.294   8.661 -1.1308  0.9861  1.0023
 6250SOL     OW30382   3.710   0.023   6.968 -0.6906  0.3552  0.0508
 6250SOL    HW130383   3.636   4.699   6.979  1.1902 -2.3322 -2.1338
 6250SOL    HW230384   3.690   0.070   6.887  1.7971  1.3223  0.0070
 6251SOL     OW30385   3.690   4.514   2.917 -0.0119 -0.0030  0.0395
 6251SOL    HW130386   3.775   4.475   2.895 -1.0721 -0.0834 -3.9489
 6251SOL    HW230387   3.642   4.438   2.949 -1.2175  0.8612  0.2627
 6252SOL     OW30388   0.092   3.447  13.794  0.8339 -1.0435  0.5499
 6252SOL    HW130389   0.186   3.429  13.788  0.7516 -1.6947  1.1883
 6252SOL    HW230390   0.091   3.520  13.856  2.7339 -0.2875 -0.3105
 6253SOL     OW30391   2.304   0.568   9.025 -0.0543 -0.5649  0.9267
 6253SOL    HW130392   2.275   0.526   9.106  0.9291  0.8726  2.0201
 6253SOL    HW230393   2.288   0.496   8.964 -1.5747  0.1735  0.4471
 6254SOL     OW30394   1.318   2.839   4.183  0.5171  0.4730 -0.0761
 6254SOL    HW130395   1.374   2.767   4.154 -0.6208 -0.3436 -0.2546
 6254SOL    HW230396   1.342   2.858   4.274 -0.5422  0.9437  0.1014
 6255SOL     OW30397   0.584   2.544   0.823 -0.3862 -0.4059  0.5664
 6255SOL    HW130398   0.676   2.555   0.801 -0.5119  0.0884  0.2892
 6255SOL    HW230399   0.598   2.493   0.903  0.0945 -2.1569 -0.6554
 6256SOL     OW30400   3.263   1.205   7.885 -0.0448 -0.6812  0.1001
 6256SOL    HW130401   3.336   1.144   7.888 -0.3075 -1.0558 -1.0121
 6256SOL    HW230402   3.265   1.241   7.974 -0.0937  0.2131 -0.2611
 6257SOL     OW30403   1.964   4.628   0.826 -0.1568 -0.0854  0.0504
 6257SOL    HW130404   1.922   4.714   0.821 -0.6095 -0.2915  0.2932
 6257SOL    HW230405   2.027   4.654   0.893  0.8089  0.1547 -0.9606
 6258SOL     OW30406   2.814   4.665   9.133 -0.4015 -0.0554 -0.6458
 6258SOL    HW130407   2.773   0.010   9.160 -0.4336  0.6635 -2.8567
 6258SOL    HW230408   2.745   4.605   9.162 -1.0696 -0.4118 -2.9203
 6259SOL     OW30409   3.801   4.602   6.275  0.7310  0.4045  0.4414
 6259SOL    HW130410   3.753   4.527   6.310 -0.6922  0.8227 -0.6278
 6259SOL    HW230411   3.802   4.662   6.349 -0.1609 -1.8218  2.2156
 6260SOL     OW30412   0.243   1.617   3.958  0.2948 -0.0291 -0.4938
 6260SOL    HW130413   0.314   1.591   3.900  1.8595 -0.2037  1.4764
 6260SOL    HW230414   0.167   1.568   3.928  1.5794 -1.9779 -0.5422
 6261SOL     OW30415   3.200   1.133  12.357 -0.1063  0.3062  0.4032
 6261SOL    HW130416   3.210   1.075  12.432 -0.2537 -0.1119  0.0990
 6261SOL    HW230417   3.243   1.212  12.389  2.4300  0.2867 -2.8851
 6262SOL     OW30418   1.538   2.535  17.279  0.1272 -0.2752  0.5901
 6262SOL    HW130419   1.633   2.537  17.289  0.2235 -2.1600 -0.0913
 6262SOL    HW230420   1.542   2.625  17.247 -1.0779 -0.1247  0.8763
 6263SOL     OW30421   1.509   0.613  14.084  0.3104 -0.5212 -0.6111
 6263SOL    HW130422   1.584   0.625  14.142 -1.9974 -0.1833  2.2988
 6263SOL    HW230423   1.449   0.601  14.158 -1.1118  0.1440 -1.6491
 6264SOL     OW30424   4.716   4.177   7.210 -0.8539 -0.0934  0.4535
 6264SOL    HW130425   4.735   4.268   7.186 -0.7217 -0.5033 -1.0199
 6264SOL    HW230426   0.017   4.172   7.297 -1.6827  2.2814  0.9423
 6265SOL     OW30427   0.983   1.307   4.840  0.0344 -0.1524 -0.3328
 6265SOL    HW130428   1.068   1.302   4.797 -0.7615 -1.8476 -1.7218
 6265SOL    HW230429   0.932   1.272   4.767 -1.6589  0.9922  0.2998
 6266SOL     OW30430   0.464   2.598   4.507 -0.1732 -0.0870  0.0215
 6266SOL    HW130431   0.382   2.561   4.474 -1.3244  1.5457  1.0476
 6266SOL    HW230432   0.458   2.566   4.597 -1.3752 -1.5040 -0.5621
 6267SOL     OW30433   3.841   1.910   9.317  0.4247  0.2715 -0.1094
 6267SOL    HW130434   3.776   1.857   9.272  3.0726  0.1178 -3.7313
 6267SOL    HW230435   3.917   1.853   9.303 -0.7196 -1.4620  0.7442
 6268SOL     OW30436   1.487   1.393   8.643 -0.3559 -0.2442 -0.2550
 6268SOL    HW130437   1.535   1.440   8.575  0.3768 -0.5285  0.0691
 6268SOL    HW230438   1.411   1.353   8.601  0.7222 -0.4111 -2.0091
 6269SOL     OW30439   4.096   4.474   7.077  0.5279 -0.3593 -0.4689
 6269SOL    HW130440   4.025   4.505   7.020  1.4333  0.8303 -0.9471
 6269SOL    HW230441   4.164   4.481   7.011  0.6164  0.5947 -0.2784
 6270SOL     OW30442   4.092   3.678   6.183 -0.5018 -0.3629 -0.1606
 6270SOL    HW130443   4.161   3.611   6.186  0.5127  0.6773 -0.3235
 6270SOL    HW230444   4.012   3.627   6.176 -2.7349  2.7246  3.3977
 6271SOL     OW30445   0.410   4.067   5.057  0.2686  0.4609 -0.3195
 6271SOL    HW130446   0.386   3.977   5.034  1.2935  0.1726 -0.2261
 6271SOL    HW230447   0.334   4.086   5.112  1.0364 -2.5980  1.7661
 6272SOL     OW30448   2.195   0.530   3.831  0.0368 -0.7081  0.4135
 6272SOL    HW130449   2.243   0.460   3.787 -1.6515  0.1461 -2.8069
 6272SOL    HW230450   2.101   0.517   3.824  0.2846  0.1026 -4.7898
 6273SOL     OW30451   1.308   2.323   6.173 -0.0005  0.2730  0.0718
 6273SOL    HW130452   1.315   2.333   6.078  0.6649 -1.4536 -0.0558
 6273SOL    HW230453   1.357   2.403   6.194 -0.5106  0.8433 -0.8764
 6274SOL     OW30454   1.441   1.578   7.610 -0.5449  0.5729 -0.0107
 6274SOL    HW130455   1.483   1.664   7.609 -0.4877  0.5242 -1.7035
 6274SOL    HW230456   1.520   1.525   7.616 -0.7264  0.0895 -1.7758
 6275SOL     OW30457   0.229   2.154   2.721 -0.4220  0.1775  0.1362
 6275SOL    HW130458   0.244   2.236   2.767  0.0322 -0.8175  1.7294
 6275SOL    HW230459   0.302   2.096   2.741 -0.5346 -0.3353 -0.8900
 6276SOL     OW30460   2.779   3.893  10.390 -0.4152 -0.5372  0.1065
 6276SOL    HW130461   2.720   3.825  10.421  0.0194 -0.4218  1.1639
 6276SOL    HW230462   2.724   3.971  10.391  0.5949  0.1712 -0.0262
 6277SOL     OW30463   2.301   0.178   2.029  0.0370 -0.0725 -0.3212
 6277SOL    HW130464   2.245   0.253   2.009  0.7660  0.2217 -1.2616
 6277SOL    HW230465   2.334   0.154   1.942 -1.0604 -1.5660 -0.3071
 6278SOL     OW30466   0.547   2.800   4.361 -0.3118 -0.4829  0.2802
 6278SOL    HW130467   0.623   2.750   4.329  0.8313  0.8387  0.9675
 6278SOL    HW230468   0.525   2.740   4.432 -0.0522 -1.7253 -0.6828
 6279SOL     OW30469   4.174   3.931   3.143  0.3201 -0.2299  0.0766
 6279SOL    HW130470   4.185   4.019   3.179 -2.1551  0.2245 -0.3224
 6279SOL    HW230471   4.181   3.949   3.049 -1.7186  0.0421 -0.0148
 6280SOL     OW30472   3.038   3.009   8.976 -0.1093 -0.5050  0.2521
 6280SOL    HW130473   3.072   3.048   8.895 -0.7576  0.2181  0.3292
 6280SOL    HW230474   2.946   3.003   8.948  0.1838 -1.6465 -0.4312
 6281SOL     OW30475   0.095   3.280   6.753  0.0480 -0.1908 -0.2664
 6281SOL    HW130476   0.071   3.241   6.837 -0.7840 -0.3183 -0.5626
 6281SOL    HW230477   0.053   3.214   6.697 -2.0880 -0.5314  1.7171
 6282SOL     OW30478   2.635   4.300   6.647  0.4600  0.1782  0.3435
 6282SOL    HW130479   2.692   4.361   6.694 -0.1950  0.1813  1.1173
 6282SOL    HW230480   2.551   4.316   6.689  0.5087 -0.8972  0.8570
 6283SOL     OW30481   0.258   0.235   0.508  0.3547 -0.1123  0.6337
 6283SOL    HW130482   0.194   0.196   0.567  0.0831  0.1125  0.4853
 6283SOL    HW230483   0.334   0.228   0.567  1.6581  0.5003 -0.9897
 6284SOL     OW30484   3.305   3.520   7.139  0.3011  0.0274 -0.0732
 6284SOL    HW130485   3.273   3.492   7.054 -1.3530 -0.1389  0.6095
 6284SOL    HW230486   3.346   3.439   7.172 -0.8085  0.3206  2.0501
 6285SOL     OW30487   4.730   1.126   4.623 -0.4666  0.4334 -0.3027
 6285SOL    HW130488   0.055   1.139   4.695  0.3240 -0.7959 -0.7588
 6285SOL    HW230489   4.665   1.193   4.646 -1.3695 -1.0844  1.5858
 6286SOL     OW30490   1.605   3.733   3.082 -0.5532  0.6523  0.2429
 6286SOL    HW130491   1.629   3.690   3.164  2.0649 -0.8668 -1.3144
 6286SOL    HW230492   1.673   3.800   3.091  0.9222 -0.9117  0.6326
 6287SOL     OW30493   3.457   3.809   8.362  0.0196  0.0877  0.1880
 6287SOL    HW130494   3.507   3.862   8.299  0.9252 -0.1531  0.6983
 6287SOL    HW230495   3.502   3.725   8.361  1.0677  0.6513 -0.1905
 6288SOL     OW30496   2.335   1.423   2.327  0.1971 -0.0795 -0.1250
 6288SOL    HW130497   2.296   1.463   2.405 -0.8718  0.6285 -1.0195
 6288SOL    HW230498   2.267   1.361   2.301 -0.9048  1.6063 -1.3069
 6289SOL     OW30499   0.529   2.348   4.710  0.8803 -0.5733  0.4038
 6289SOL    HW130500   0.514   2.254   4.725 -0.8293  0.3104  4.4572
 6289SOL    HW230501   0.619   2.342   4.678  0.0990  1.9581 -2.2488
 6290SOL     OW30502   3.972   4.601   3.605  0.3044 -1.0065  0.1338
 6290SOL    HW130503   3.957   4.589   3.511  1.8308  1.5378 -0.4135
 6290SOL    HW230504   3.896   4.553   3.638 -1.2140 -0.0926 -2.0665
 6291SOL     OW30505   0.869   4.036   8.655 -0.3952 -0.1252 -0.0268
 6291SOL    HW130506   0.826   4.025   8.570 -0.0694  1.0547 -0.3436
 6291SOL    HW230507   0.796   4.063   8.712  1.6357 -0.8434  2.8795
 6292SOL     OW30508   2.093   0.300  17.347 -1.0727  0.1129 -0.3496
 6292SOL    HW130509   1.998   0.289  17.354 -1.2465  1.9180  0.0282
 6292SOL    HW230510   2.097   0.392  17.321  0.0286  0.4850  1.1502
 6293SOL     OW30511   1.275   0.219   3.668 -0.4285 -1.0354 -0.3759
 6293SOL    HW130512   1.258   0.126   3.683  1.4131 -1.0314  1.7876
 6293SOL    HW230513   1.349   0.241   3.724 -0.7259 -1.3489  0.1372
 6294SOL     OW30514   2.658   1.192  14.817  0.1678  0.1876 -0.1256
 6294SOL    HW130515   2.613   1.222  14.896 -1.6709 -0.1640 -1.0408
 6294SOL    HW230516   2.587   1.173  14.755 -1.0569 -0.4205  1.4732
 6295SOL     OW30517   2.824   2.633  12.080  1.1408  0.2167 -0.2265
 6295SOL    HW130518   2.835   2.700  12.147  1.8028 -0.4727  0.3687
 6295SOL    HW230519   2.909   2.635  12.037  1.4440 -1.3936  0.2916
 6296SOL     OW30520   4.152   0.386   4.776  0.5672 -0.2844 -0.5367
 6296SOL    HW130521   4.141   0.425   4.862  2.4446 -1.6817  0.3223
 6296SOL    HW230522   4.225   0.436   4.740 -1.4421  2.6447 -0.5894
 6297SOL     OW30523   2.918   2.239   0.368 -0.2083  0.1728  0.4666
 6297SOL    HW130524   3.004   2.223   0.407  0.7817  2.6779 -0.6331
 6297SOL    HW230525   2.937   2.327   0.335 -0.4892  0.2328  0.4690
 6298SOL     OW30526   0.536   2.148   8.694  0.2123  0.3705  0.4429
 6298SOL    HW130527   0.541   2.159   8.789 -0.3018 -1.1125  0.6430
 6298SOL    HW230528   0.447   2.113   8.689  0.3539  0.2660 -1.3814
 6299SOL     OW30529   1.069   0.678  12.916 -0.1171  0.1174  0.3591
 6299SOL    HW130530   1.075   0.758  12.863  0.8902  1.7254  2.9248
 6299SOL    HW230531   1.161   0.652  12.910  0.1416  1.0858  0.2092
 6300SOL     OW30532   1.164   2.403   4.893 -0.3083 -0.1763  0.4632
 6300SOL    HW130533   1.197   2.364   4.974 -2.5714  1.7717  2.2945
 6300SOL    HW230534   1.073   2.373   4.885  0.0092 -0.9131 -0.4147
 6301SOL     OW30535   4.672   3.396   4.126 -0.0724 -0.0935  0.6951
 6301SOL    HW130536   4.596   3.453   4.115 -0.3463 -0.7000 -0.5964
 6301SOL    HW230537   4.627   3.321   4.165 -1.8146  0.3955 -0.3406
 6302SOL     OW30538   1.898   1.421   9.924  0.4793 -0.0505  0.4356
 6302SOL    HW130539   1.893   1.368  10.004 -1.1133  0.3555  0.6053
 6302SOL    HW230540   1.964   1.485   9.949  0.6155  0.3738 -0.9876
 6303SOL     OW30541   1.712   1.574  17.604  0.0771 -0.7662 -0.3488
 6303SOL    HW130542   1.800   1.553  17.637 -0.0735  1.2718  1.3525
 6303SOL    HW230543   1.670   1.488  17.599  1.0447 -1.2021 -1.1031
 6304SOL     OW30544   0.383   0.403   9.218 -0.8701 -0.0153  0.3312
 6304SOL    HW130545   0.312   0.372   9.274  1.1265 -1.0860  2.2636
 6304SOL    HW230546   0.405   0.491   9.249 -0.5130 -0.5909  1.7307
 6305SOL     OW30547   1.474   2.840   5.100 -0.1411  0.2618 -0.4356
 6305SOL    HW130548   1.514   2.924   5.123  1.1024 -0.4024 -0.1643
 6305SOL    HW230549   1.502   2.830   5.009  0.0927  0.7742 -0.4210
 6306SOL     OW30550   2.475   4.493   6.128  0.1333  0.5849  0.2078
 6306SOL    HW130551   2.494   4.545   6.206 -2.2634  0.0363  1.1418
 6306SOL    HW230552   2.532   4.529   6.060  0.9241 -0.9588  0.0491
 6307SOL     OW30553   0.173   2.275   6.520 -0.0815 -0.0867  0.2599
 6307SOL    HW130554   0.247   2.246   6.468 -0.0749 -4.0889  2.4776
 6307SOL    HW230555   0.230   2.304   6.591  0.2285  1.0188 -0.4506
 6308SOL     OW30556   4.094   2.950  10.990  0.6690 -0.0786 -0.3848
 6308SOL    HW130557   4.025   3.001  11.032 -0.6420 -2.8008  0.7489
 6308SOL    HW230558   4.064   2.941  10.899 -1.5457  2.2809  0.0946
 6309SOL     OW30559   2.620   4.321   7.743 -0.4643  0.9535 -0.0219
 6309SOL    HW130560   2.527   4.305   7.725 -0.1196  0.6110 -1.4640
 6309SOL    HW230561   2.637   4.247   7.802 -2.1175 -2.0126 -3.2986
 6310SOL     OW30562   0.134   2.373   5.791 -0.1603  0.2783  0.2328
 6310SOL    HW130563   0.141   2.286   5.831 -1.0421 -0.0554 -0.3546
 6310SOL    HW230564   0.227   2.397   5.791 -0.8206  2.6566 -2.8136
 6311SOL     OW30565   3.783   2.408  14.214  0.4150  0.2049 -0.4624
 6311SOL    HW130566   3.763   2.501  14.201 -0.7510 -0.3229 -2.5307
 6311SOL    HW230567   3.847   2.410  14.285 -1.3670 -0.4573  1.1569
 6312SOL     OW30568   0.001   4.122   4.907  0.2459 -0.1296 -0.1784
 6312SOL    HW130569   4.728   4.218   4.902  0.3433 -0.0805  0.6220
 6312SOL    HW230570   0.021   4.096   4.997  2.9232 -1.6059 -1.1882
 6313SOL     OW30571   0.464   0.651   3.682  0.3219 -0.9279 -0.3539
 6313SOL    HW130572   0.522   0.575   3.679  1.3765 -0.1478  0.0658
 6313SOL    HW230573   0.434   0.654   3.592 -0.3971 -2.1608 -0.1487
 6314SOL     OW30574   1.506   1.430  11.190 -0.3323 -0.4130 -0.0927
 6314SOL    HW130575   1.542   1.388  11.112  2.2602 -0.5696  1.2030
 6314SOL    HW230576   1.535   1.378  11.264  0.1312 -1.4969 -1.0366
 6315SOL     OW30577   1.101   4.186   5.693  0.6779  0.1888 -0.4267
 6315SOL    HW130578   1.134   4.276   5.687 -1.8123  1.1905  0.7809
 6315SOL    HW230579   1.169   4.135   5.649 -0.6672 -1.7140 -0.3103
 6316SOL     OW30580   1.440   0.672   1.693  0.0393  0.6699 -0.2998
 6316SOL    HW130581   1.496   0.699   1.621  0.9297  0.1036  0.1885
 6316SOL    HW230582   1.353   0.691   1.658  0.7122  1.8009 -1.2959
 6317SOL     OW30583   3.586   3.900   9.323  0.2912 -0.1483 -0.3751
 6317SOL    HW130584   3.562   3.897   9.230 -3.9616 -0.1362  0.7337
 6317SOL    HW230585   3.524   3.960   9.363 -2.4034 -1.5840 -2.3722
 6318SOL     OW30586   3.004   4.070   3.355  0.1345 -0.6789  0.5264
 6318SOL    HW130587   2.952   4.113   3.286  2.1393  0.8864  0.0037
 6318SOL    HW230588   2.942   4.086   3.427 -1.3451 -0.3680 -0.8063
 6319SOL     OW30589   0.072   4.456  13.875 -0.0194  0.6760 -0.0801
 6319SOL    HW130590   4.732   4.486  13.924 -0.2935  1.2774 -0.8785
 6319SOL    HW230591   0.031   4.397  13.811 -1.5966  1.6434  0.0321
 6320SOL     OW30592   1.143   1.834  15.225 -0.5499  0.0174  0.0239
 6320SOL    HW130593   1.224   1.871  15.261  1.0587 -4.4029  0.9968
 6320SOL    HW230594   1.072   1.883  15.263 -0.2543  1.3902 -1.1935
 6321SOL     OW30595   0.771   1.827  12.997 -0.1373  0.4932  0.1481
 6321SOL    HW130596   0.843   1.813  13.060 -0.0176 -2.4828 -0.6885
 6321SOL    HW230597   0.729   1.907  13.030 -1.9705  0.1143 -1.2679
 6322SOL     OW30598   2.509   1.867  17.649 -0.2868  0.5955 -0.0509
 6322SOL    HW130599   2.451   1.912  17.711  0.3417  1.5547 -0.1664
 6322SOL    HW230600   2.451   1.849  17.576 -0.1234 -1.1608  0.2515
 6323SOL     OW30601   0.258   0.711   8.903 -0.3636 -0.1488  0.2020
 6323SOL    HW130602   0.344   0.727   8.943 -0.7525  1.1987  0.5028
 6323SOL    HW230603   0.204   0.774   8.950  0.3816 -0.6283  1.7227
 6324SOL     OW30604   3.319   1.527  17.218  0.5445  0.2552 -0.4518
 6324SOL    HW130605   3.286   1.565  17.300  1.0433  1.7136 -0.9272
 6324SOL    HW230606   3.359   1.602  17.173 -1.3178  1.4967 -0.0680
 6325SOL     OW30607   1.936   4.539  13.208 -0.7173  0.4177  0.5938
 6325SOL    HW130608   1.857   4.591  13.203 -2.6879 -2.9002 -3.1343
 6325SOL    HW230609   1.980   4.557  13.124  1.3628 -0.8505  1.4028
 6326SOL     OW30610   4.228   4.040  17.621 -0.0906  0.2633  0.0889
 6326SOL    HW130611   4.316   4.073  17.603 -0.1576  0.4861  0.1685
 6326SOL    HW230612   4.193   4.040  17.532 -1.9675 -0.5526  0.8208
 6327SOL     OW30613   1.536   1.415   5.280 -0.4783 -0.1226  0.1621
 6327SOL    HW130614   1.583   1.449   5.204  1.4224  0.1852  1.4700
 6327SOL    HW230615   1.515   1.324   5.258  1.5762 -0.4405 -0.5265
 6328SOL     OW30616   4.549   1.085   4.011  0.2605 -0.1694 -0.4773
 6328SOL    HW130617   4.528   0.993   4.027  1.2170 -0.7004 -2.2920
 6328SOL    HW230618   4.478   1.129   4.058 -1.6731 -2.0750 -1.6529
 6329SOL     OW30619   3.170   3.349   9.573 -0.9029 -0.0200  0.0318
 6329SOL    HW130620   3.210   3.268   9.605  1.7314  1.3097  0.1150
 6329SOL    HW230621   3.204   3.350   9.483 -0.8895  1.1865  0.0609
 6330SOL     OW30622   2.686   3.913  14.551  0.2970  0.4080 -0.4222
 6330SOL    HW130623   2.688   3.947  14.461 -3.0419  0.4685 -0.4779
 6330SOL    HW230624   2.616   3.960  14.597  0.1612  0.1348 -0.3539
 6331SOL     OW30625   1.217   4.027   2.168 -0.0595 -0.1951 -0.0636
 6331SOL    HW130626   1.155   3.956   2.149  0.3331 -0.3018 -0.9486
 6331SOL    HW230627   1.291   3.997   2.115 -0.5687  0.7125 -1.2667
 6332SOL     OW30628   4.126   1.523   7.723 -0.4617  0.7967  0.1020
 6332SOL    HW130629   4.168   1.516   7.637 -1.2892  0.3328 -0.2612
 6332SOL    HW230630   4.150   1.615   7.737  1.5884 -0.0696  2.3621
 6333SOL     OW30631   4.454   0.332  16.860 -0.1354  0.5956  0.1539
 6333SOL    HW130632   4.377   0.278  16.875 -0.4340  0.5738 -1.4930
 6333SOL    HW230633   4.424   0.397  16.797  0.0320  2.1330  1.6463
 6334SOL     OW30634   2.008   2.469  14.387 -0.1147  0.6004 -0.8952
 6334SOL    HW130635   1.996   2.540  14.450 -1.3761  0.9151 -1.4982
 6334SOL    HW230636   1.918   2.464  14.353 -1.0045  1.2457  1.3554
 6335SOL     OW30637   0.494   4.721   6.096 -0.0233 -0.2954  0.0953
 6335SOL    HW130638   0.570   0.015   6.047 -1.3431  2.1656 -0.4549
 6335SOL    HW230639   0.450   4.661   6.037  1.1242 -1.8921  0.8505
 6336SOL     OW30640   3.526   1.418   8.543 -0.4864  0.0596 -0.2680
 6336SOL    HW130641   3.491   1.427   8.454  0.2443  2.9520 -0.2551
 6336SOL    HW230642   3.522   1.323   8.550 -1.8519  0.0279 -1.4426
 6337SOL     OW30643   1.767   2.565   3.587 -0.4758  0.7367  0.0655
 6337SOL    HW130644   1.812   2.558   3.503 -0.0945  0.4583  0.2944
 6337SOL    HW230645   1.680   2.593   3.558 -0.4589 -0.4654 -1.1643
 6338SOL     OW30646   2.325   3.357   7.877  0.4483  0.0844 -0.6787
 6338SOL    HW130647   2.324   3.294   7.804 -0.7543 -0.4649 -0.1809
 6338SOL    HW230648   2.242   3.350   7.924  0.5980  1.6311 -0.1889
 6339SOL     OW30649   0.846   2.041   6.546 -0.0805  0.1474 -0.3237
 6339SOL    HW130650   0.868   2.123   6.590  0.0708 -0.9920  1.7303
 6339SOL    HW230651   0.926   1.999   6.514 -0.5758  0.7134 -2.2749
 6340SOL     OW30652   1.972   2.079   8.254 -0.0454  0.1252 -0.6097
 6340SOL    HW130653   2.000   2.104   8.342 -2.6989 -0.0456  0.2789
 6340SOL    HW230654   2.026   2.135   8.198  0.1055 -0.0457 -0.6327
 6341SOL     OW30655   0.748   1.132  16.393 -0.2580  0.2483 -0.2265
 6341SOL    HW130656   0.679   1.184  16.351  0.1484 -0.5987 -1.9504
 6341SOL    HW230657   0.697   1.089  16.461  0.4097  1.2107  0.8858
 6342SOL     OW30658   2.760   3.492   1.385  0.2683  0.1391 -0.3131
 6342SOL    HW130659   2.762   3.430   1.457 -2.8587 -1.4552 -1.6281
 6342SOL    HW230660   2.697   3.461   1.321  1.0186 -0.9077 -0.5404
 6343SOL     OW30661   3.503   4.721   7.875  0.0759 -0.1931  0.3538
 6343SOL    HW130662   3.590   4.714   7.915  0.8512 -0.6534 -1.3791
 6343SOL    HW230663   3.525   0.005   7.784 -0.7333  0.1973  0.2453
 6344SOL     OW30664   3.171   0.111   8.639  0.3601  0.4587 -0.1541
 6344SOL    HW130665   3.108   0.153   8.697  1.1205  1.2825  0.0769
 6344SOL    HW230666   3.180   0.025   8.680  0.6258 -0.0524 -1.2829
 6345SOL     OW30667   0.196   4.691   9.541  0.3680 -0.6580  0.1843
 6345SOL    HW130668   0.247   4.702   9.621  0.8144  0.3316 -0.2364
 6345SOL    HW230669   0.209   4.596   9.542  3.5458 -0.2232 -0.1911
 6346SOL     OW30670   2.170   3.309  12.501  0.7646 -0.1545 -0.2252
 6346SOL    HW130671   2.185   3.399  12.472  1.9193  0.2097  1.4809
 6346SOL    HW230672   2.221   3.303  12.581  0.0220  0.3115  0.2858
 6347SOL     OW30673   1.137   1.964  14.590 -0.5617 -1.0930 -0.2278
 6347SOL    HW130674   1.124   1.900  14.659 -1.6272 -1.3553 -0.6735
 6347SOL    HW230675   1.054   1.944  14.547 -0.1895  1.6613 -2.2721
 6348SOL     OW30676   3.751   3.502   6.930 -0.1899  0.7652  0.3335
 6348SOL    HW130677   3.842   3.477   6.942 -1.0510 -1.7587  1.6093
 6348SOL    HW230678   3.707   3.501   7.015  0.2301 -0.0901  0.5379
 6349SOL     OW30679   1.834   1.642  14.954  0.4528 -0.6138 -0.0418
 6349SOL    HW130680   1.902   1.613  15.015  0.7797  3.3233  1.4406
 6349SOL    HW230681   1.813   1.729  14.986 -0.7094 -2.1426  3.4007
 6350SOL     OW30682   1.083   1.640   7.605  0.3432  0.1861 -0.1436
 6350SOL    HW130683   0.992   1.632   7.633  0.3429 -1.8287 -0.7459
 6350SOL    HW230684   1.103   1.731   7.626  0.9435 -0.4614  2.1321
 6351SOL     OW30685   0.363   1.184   6.900  0.4197 -0.1184 -0.3595
 6351SOL    HW130686   0.445   1.137   6.883 -0.1605 -1.2389 -0.0402
 6351SOL    HW230687   0.316   1.135   6.832 -0.3860 -0.9283  0.7723
 6352SOL     OW30688   3.977   1.621   8.022 -0.1578  0.2353  0.1715
 6352SOL    HW130689   4.036   1.694   8.000  2.1159 -0.5078  3.7667
 6352SOL    HW230690   3.977   1.632   8.117  0.5141 -0.4570  0.2530
 6353SOL     OW30691   3.090   2.558   0.059 -0.0734  0.1176  0.3896
 6353SOL    HW130692   3.155   2.628   0.068 -1.2597  1.2539  0.2585
 6353SOL    HW230693   3.033   2.582   0.132 -1.0082  1.5131 -0.7842
 6354SOL     OW30694   1.412   2.967   7.485  0.0849 -0.1232 -0.2363
 6354SOL    HW130695   1.340   3.001   7.539  0.1101  1.2904 -1.0861
 6354SOL    HW230696   1.393   2.873   7.481  0.1490 -0.1565  0.3038
 6355SOL     OW30697   0.972   0.836   2.084 -0.0930 -0.2696 -0.1397
 6355SOL    HW130698   0.882   0.869   2.079 -0.3830 -1.1166 -0.5026
 6355SOL    HW230699   0.985   0.833   2.179 -0.0381  2.7922 -0.0616
 6356SOL     OW30700   1.772   2.744  11.465 -0.2465  0.1044  0.4655
 6356SOL    HW130701   1.819   2.824  11.441  0.3064 -0.4929 -0.4727
 6356SOL    HW230702   1.825   2.703  11.534 -0.0277  1.0942  0.8788
 6357SOL     OW30703   2.733   1.237   5.627 -0.5977 -0.1677  0.0612
 6357SOL    HW130704   2.822   1.219   5.657 -0.8460  0.7110  1.3131
 6357SOL    HW230705   2.691   1.152   5.629  0.8678 -0.8766  0.7995
 6358SOL     OW30706   0.618   3.488   5.933 -0.2707  0.3949 -0.6950
 6358SOL    HW130707   0.656   3.515   6.017 -1.2201 -1.4311  0.3246
 6358SOL    HW230708   0.528   3.471   5.960  0.2739 -0.9033  0.3311
 6359SOL     OW30709   1.739   3.834  14.702  0.0113  0.0870 -0.4081
 6359SOL    HW130710   1.755   3.754  14.652  1.8285 -0.6750  1.3698
 6359SOL    HW230711   1.823   3.828  14.748  0.0634  2.6586 -0.1398
 6360SOL     OW30712   3.998   3.676   9.238 -0.2734  0.3227 -0.2775
 6360SOL    HW130713   3.988   3.755   9.185 -1.1545 -0.4045 -1.1847
 6360SOL    HW230714   4.036   3.711   9.318  1.3155 -1.2085 -0.3629
 6361SOL     OW30715   1.547   2.381   7.118  0.0213  0.0397 -0.0129
 6361SOL    HW130716   1.483   2.372   7.048  2.2075  0.5370 -2.0524
 6361SOL    HW230717   1.633   2.362   7.082  2.4983  3.7079  3.8954
 6362SOL     OW30718   2.386   1.525  15.202  0.2344 -0.0023 -0.5501
 6362SOL    HW130719   2.318   1.458  15.211 -1.6884  1.5779 -3.2991
 6362SOL    HW230720   2.343   1.554  15.121  1.5074  0.3661 -1.0942
 6363SOL     OW30721   0.548   2.941  13.803  0.1515 -0.1002  0.0170
 6363SOL    HW130722   0.624   2.989  13.835  0.2020 -0.5356  0.5520
 6363SOL    HW230723   0.504   3.019  13.770  2.3099  1.5158  0.9316
 6364SOL     OW30724   4.473   4.628   7.063  0.4782  0.2116  0.0102
 6364SOL    HW130725   4.546   4.680   7.096  0.4441 -0.4589  1.1333
 6364SOL    HW230726   4.428   4.686   7.002  1.1439 -2.3478 -2.9373
 6365SOL     OW30727   2.162   4.121  14.181 -0.1902  0.1749 -0.0099
 6365SOL    HW130728   2.120   4.152  14.261  0.0863 -1.6023  0.8453
 6365SOL    HW230729   2.163   4.206  14.137  1.7779 -0.1361 -0.6084
 6366SOL     OW30730   2.010   2.129   6.349 -0.5076  0.0667 -0.2991
 6366SOL    HW130731   1.973   2.207   6.307 -0.3119  1.4369  2.1206
 6366SOL    HW230732   1.928   2.084   6.368 -0.1113 -0.0390  1.1449
 6367SOL     OW30733   2.983   2.165   8.180  0.2057 -0.3863  0.1348
 6367SOL    HW130734   2.972   2.247   8.229 -0.4226 -0.2576 -0.2243
 6367SOL    HW230735   3.079   2.162   8.183  0.1024 -2.0911  1.7826
 6368SOL     OW30736   2.861   2.952   1.339 -0.1028  0.2622 -0.4598
 6368SOL    HW130737   2.859   3.029   1.396  0.9643  1.3962 -1.9451
 6368SOL    HW230738   2.924   2.974   1.271 -0.4803  0.6231 -0.6931
 6369SOL     OW30739   1.687   2.933   7.507 -0.3151  0.2023 -0.8979
 6369SOL    HW130740   1.687   2.919   7.601 -0.1592  1.7168 -0.6622
 6369SOL    HW230741   1.595   2.943   7.483 -0.5325 -0.0428 -0.1711
 6370SOL     OW30742   4.560   3.682   4.502 -0.3196  0.4322 -0.1231
 6370SOL    HW130743   4.558   3.589   4.524  1.7374  0.3681 -0.1707
 6370SOL    HW230744   4.469   3.704   4.521 -0.1103 -0.2948  1.7195
 6371SOL     OW30745   1.067   2.288  16.757 -0.3322  0.0240 -0.2644
 6371SOL    HW130746   1.101   2.354  16.819  0.2398  0.2755 -0.8421
 6371SOL    HW230747   1.145   2.232  16.755  1.1695  2.0871  0.1415
 6372SOL     OW30748   4.598   2.505   2.428 -0.5667  0.2910  0.0383
 6372SOL    HW130749   4.629   2.417   2.407  2.0967  1.1870  0.2405
 6372SOL    HW230750   4.507   2.483   2.448 -0.5117  0.2647  0.2548
 6373SOL     OW30751   2.405   0.070  15.541 -0.3652 -0.3017 -0.6914
 6373SOL    HW130752   2.450   0.135  15.595 -1.3529 -0.4673  0.3333
 6373SOL    HW230753   2.365   0.122  15.472  1.1952  2.1951  0.2839
 6374SOL     OW30754   0.704   1.034  12.645 -0.5344  0.2078 -0.1963
 6374SOL    HW130755   0.703   1.129  12.629  0.5612 -0.0412 -1.6867
 6374SOL    HW230756   0.658   1.029  12.729 -0.8653 -0.7205 -0.4344
 6375SOL     OW30757   2.417   1.995   0.748  0.1325  0.9236  0.1157
 6375SOL    HW130758   2.436   2.069   0.805 -2.0302  0.8522  0.9137
 6375SOL    HW230759   2.488   1.935   0.771 -0.8026  0.1140  0.9484
 6376SOL     OW30760   1.033   3.734   1.049  0.1240  0.5127 -0.0640
 6376SOL    HW130761   0.947   3.775   1.049 -0.4188 -0.6305 -2.9179
 6376SOL    HW230762   1.069   3.749   0.961 -0.6713 -1.5645 -0.7336
 6377SOL     OW30763   4.440   4.357   7.055  0.3725 -0.4374  0.2512
 6377SOL    HW130764   4.490   4.438   7.042 -1.2812  0.2432 -1.7048
 6377SOL    HW230765   4.361   4.366   7.002  0.4715 -0.6187  0.0755
 6378SOL     OW30766   1.762   1.401   8.499 -0.4126 -0.2111  0.1782
 6378SOL    HW130767   1.699   1.439   8.437  0.7682  0.3894 -0.6600
 6378SOL    HW230768   1.779   1.476   8.556 -0.2847 -0.6169  0.6636
 6379SOL     OW30769   3.148   2.791  12.225  0.3368 -0.3038 -0.4074
 6379SOL    HW130770   3.077   2.854  12.241  0.2167 -0.9902  1.7431
 6379SOL    HW230771   3.122   2.734  12.152 -0.8894 -1.6229  1.0567
 6380SOL     OW30772   2.573   3.448   0.279  0.1510  0.0128  0.6376
 6380SOL    HW130773   2.618   3.510   0.222 -2.0829 -0.0748 -1.2194
 6380SOL    HW230774   2.500   3.418   0.225  0.3080  3.8364 -1.6334
 6381SOL     OW30775   3.892   0.232   5.997 -0.2450 -0.1307 -0.5029
 6381SOL    HW130776   3.822   0.206   6.057  0.0022  1.4644  0.4476
 6381SOL    HW230777   3.946   0.153   5.992 -1.4622 -1.0001  0.0935
 6382SOL     OW30778   4.068   0.999   5.033  0.0901 -0.2128  0.2768
 6382SOL    HW130779   4.016   1.058   5.089 -2.2327 -1.8970 -0.1215
 6382SOL    HW230780   4.016   1.002   4.953 -2.3314  1.3515  1.8960
 6383SOL     OW30781   3.200   1.968  15.985  0.2894 -0.1447  0.7953
 6383SOL    HW130782   3.155   1.921  15.914  1.5598  0.2370 -0.2560
 6383SOL    HW230783   3.128   2.024  16.015 -0.5509 -0.4855 -0.5552
 6384SOL     OW30784   3.315   0.453  15.350  0.4053  0.1980  0.1107
 6384SOL    HW130785   3.410   0.461  15.338  0.3307  4.1485  2.4140
 6384SOL    HW230786   3.303   0.383  15.285 -0.2508  0.9803 -0.5979
 6385SOL     OW30787   0.399   3.130  11.558  0.0760  0.3785 -0.0689
 6385SOL    HW130788   0.320   3.136  11.504  1.0312 -2.5014 -1.7567
 6385SOL    HW230789   0.456   3.076  11.504 -0.2249  1.6249 -1.6081
 6386SOL     OW30790   2.103   0.877  13.279 -0.1974 -0.0212  0.0083
 6386SOL    HW130791   2.126   0.881  13.372 -1.6981  2.3428  0.2753
 6386SOL    HW230792   2.036   0.809  13.275 -1.4648  1.1717  0.7567
 6387SOL     OW30793   3.440   1.234  14.849 -0.5345  0.2207 -0.0568
 6387SOL    HW130794   3.398   1.320  14.850  1.6769  1.2993 -0.5317
 6387SOL    HW230795   3.366   1.181  14.880  1.0298 -1.2124  1.2423
 6388SOL     OW30796   0.955   4.290   4.656 -0.1655  0.4139 -0.6817
 6388SOL    HW130797   0.933   4.383   4.652 -0.3520  0.5217  2.9711
 6388SOL    HW230798   1.049   4.297   4.669 -0.5276  0.9493  1.6939
 6389SOL     OW30799   2.966   4.137   4.439 -0.2892 -0.2317  0.1983
 6389SOL    HW130800   2.898   4.179   4.387  1.6284  0.5748 -1.6663
 6389SOL    HW230801   2.916   4.103   4.513  1.2167 -0.6610  1.0150
 6390SOL     OW30802   1.692   3.756   5.385 -0.0159  0.1302 -0.0520
 6390SOL    HW130803   1.747   3.833   5.370 -0.3730  0.1632 -1.2264
 6390SOL    HW230804   1.752   3.683   5.397  1.2656  1.2813  0.5765
 6391SOL     OW30805   0.184   0.352   4.100  0.2836  0.6658 -0.2039
 6391SOL    HW130806   0.113   0.289   4.114  1.1194 -0.2882 -0.2962
 6391SOL    HW230807   0.219   0.354   4.189  1.2618  0.2276 -0.5850
 6392SOL     OW30808   4.368   2.417   8.913 -0.6883  0.4893  0.8119
 6392SOL    HW130809   4.368   2.395   8.820  0.8792  2.2136  0.3921
 6392SOL    HW230810   4.334   2.341   8.960  0.5876  0.0037  0.9704
 6393SOL     OW30811   0.326   1.335   4.042 -0.0917  0.0829  0.3743
 6393SOL    HW130812   0.235   1.361   4.058 -0.0868  1.2698 -1.5769
 6393SOL    HW230813   0.346   1.277   4.116 -1.9868 -3.3924 -1.8332
 6394SOL     OW30814   2.398   0.167   7.153 -0.7406  0.4300  0.3285
 6394SOL    HW130815   2.341   0.171   7.230  0.5191 -6.0136  1.5589
 6394SOL    HW230816   2.367   0.241   7.101 -1.4123  0.3938  0.6811
 6395SOL     OW30817   0.501   1.140  10.448 -0.0918  0.7933 -0.2548
 6395SOL    HW130818   0.517   1.097  10.532 -0.7544  0.3636 -0.3522
 6395SOL    HW230819   0.470   1.227  10.471  1.8526  0.9343  1.8371
 6396SOL     OW30820   4.134   1.826  14.894  0.6871  0.3033 -0.1618
 6396SOL    HW130821   4.084   1.749  14.921  1.3285 -0.2734 -0.6041
 6396SOL    HW230822   4.113   1.881  14.969 -1.3421  0.6866 -0.9943
 6397SOL     OW30823   2.289   3.163   8.176 -0.3229 -0.1117  0.0390
 6397SOL    HW130824   2.279   3.137   8.085  2.0286 -0.1272 -0.2021
 6397SOL    HW230825   2.383   3.179   8.168 -0.4499  0.1079 -1.0436
 6398SOL     OW30826   2.395   4.023   7.591 -0.3736 -0.4685 -0.1731
 6398SOL    HW130827   2.450   3.945   7.592  0.9104  0.4362 -0.0707
 6398SOL    HW230828   2.426   4.064   7.511 -1.9910  0.8683 -0.1278
 6399SOL     OW30829   4.637   1.164  12.944 -1.0989  0.1403  0.4542
 6399SOL    HW130830   4.699   1.168  12.871 -0.1141  1.0067  1.3270
 6399SOL    HW230831   4.557   1.197  12.903 -0.8387 -0.8908 -0.9053
 6400SOL     OW30832   0.588   2.778  13.409  0.4383 -0.1875  0.1245
 6400SOL    HW130833   0.602   2.862  13.452 -2.3158  0.5101 -0.3061
 6400SOL    HW230834   0.516   2.756  13.468  0.0059 -1.8254 -1.0076
 6401SOL     OW30835   4.114   2.930   1.782  0.5911 -0.2483 -0.4464
 6401SOL    HW130836   4.082   2.999   1.839  1.2940 -1.4833  1.4384
 6401SOL    HW230837   4.135   2.969   1.697  4.6559  1.2178  1.2188
 6402SOL     OW30838   3.327   3.726   7.858 -0.6398 -0.8193  0.3612
 6402SOL    HW130839   3.267   3.799   7.844 -0.4936 -0.7833 -0.0764
 6402SOL    HW230840   3.338   3.685   7.772  0.1964  0.0314  0.0543
 6403SOL     OW30841   3.087   2.169   5.692 -0.7015  0.0222  0.0798
 6403SOL    HW130842   3.112   2.112   5.765  1.2483 -1.8601 -2.0434
 6403SOL    HW230843   3.013   2.117   5.661  0.5858 -2.3051  0.8705
 6404SOL     OW30844   2.287   2.136   3.012  0.0118 -0.0270 -0.2739
 6404SOL    HW130845   2.194   2.114   3.018 -0.6407  1.9216 -2.9060
 6404SOL    HW230846   2.307   2.136   2.918 -1.0069  3.0715 -0.5028
 6405SOL     OW30847   2.556   3.669   3.505  0.2192 -0.2682 -0.3783
 6405SOL    HW130848   2.485   3.731   3.486 -0.3089 -0.0627  2.2712
 6405SOL    HW230849   2.600   3.708   3.581  1.0068 -0.9999 -0.4531
 6406SOL     OW30850   1.663   3.447   4.074  1.0345  0.1237 -0.0851
 6406SOL    HW130851   1.654   3.520   4.014  1.2741  1.0565  1.0088
 6406SOL    HW230852   1.639   3.489   4.157 -1.6642 -2.8071  0.6183
 6407SOL     OW30853   2.756   2.346  11.978 -0.1751  0.4257  0.6093
 6407SOL    HW130854   2.819   2.390  11.920 -1.6236 -2.4824 -3.1554
 6407SOL    HW230855   2.763   2.409  12.050 -0.9279  1.7068 -0.4190
 6408SOL     OW30856   1.466   3.588   6.282  0.9606  0.0538  0.2817
 6408SOL    HW130857   1.422   3.514   6.238 -2.9798  1.1261  2.4085
 6408SOL    HW230858   1.394   3.631   6.328  0.4056 -0.7950  0.2165
 6409SOL     OW30859   1.859   1.729   9.483  0.5400 -0.4163 -0.5473
 6409SOL    HW130860   1.785   1.777   9.445 -0.5568 -1.5682  0.1238
 6409SOL    HW230861   1.815   1.653   9.523  0.3495  0.7111  1.3891
 6410SOL     OW30862   2.233   0.532   5.363 -0.1988  0.0535 -0.3402
 6410SOL    HW130863   2.176   0.526   5.439  0.4142 -0.4147  0.0827
 6410SOL    HW230864   2.298   0.591   5.399 -3.4727  2.1953  2.0092
 6411SOL     OW30865   4.455   4.261   6.763 -0.2648 -0.0411 -0.1021
 6411SOL    HW130866   4.512   4.200   6.811  1.3167  1.1576 -0.4573
 6411SOL    HW230867   4.474   4.228   6.675  1.6872 -0.5997  0.5390
 6412SOL     OW30868   4.031   4.293   8.722  0.0223 -0.4021  0.8472
 6412SOL    HW130869   3.938   4.275   8.715 -0.1714  0.6057  0.7550
 6412SOL    HW230870   4.043   4.329   8.634  2.4100  0.4431  1.5222
 6413SOL     OW30871   0.567   2.482   4.966 -0.5534  0.0409 -0.6143
 6413SOL    HW130872   0.525   2.448   4.887  2.2663 -1.2151 -1.5776
 6413SOL    HW230873   0.588   2.402   5.014  1.3449  0.6477 -0.4410
 6414SOL     OW30874   4.123   0.985   6.064  0.4754  0.2659 -0.7503
 6414SOL    HW130875   4.171   1.058   6.025 -0.8498  1.3462 -0.3920
 6414SOL    HW230876   4.166   0.975   6.149  2.2161 -0.9788 -1.7952
 6415SOL     OW30877   0.286   2.148   9.660 -0.2429  0.1329  0.2716
 6415SOL    HW130878   0.324   2.116   9.742  1.3504  0.6776 -0.2618
 6415SOL    HW230879   0.198   2.173   9.688 -1.7458 -4.3967 -0.4612
 6416SOL     OW30880   1.853   4.193  16.752  0.1038  0.2893 -0.0768
 6416SOL    HW130881   1.758   4.200  16.750  0.0790  0.0504  0.4281
 6416SOL    HW230882   1.866   4.130  16.681  0.6093 -0.1869  0.4410
 6417SOL     OW30883   3.148   4.374  11.967  0.2414 -0.1814 -0.0599
 6417SOL    HW130884   3.146   4.279  11.963 -2.3856 -0.1670  0.7078
 6417SOL    HW230885   3.062   4.382  12.008  0.5251  0.7467  0.3591
 6418SOL     OW30886   2.509   0.131   4.108 -0.6846 -0.3794  0.1985
 6418SOL    HW130887   2.493   0.036   4.104  0.8724 -0.6849  1.2814
 6418SOL    HW230888   2.465   0.158   4.027  1.0438 -0.1295 -0.6603
 6419SOL     OW30889   4.347   0.999   2.822 -0.1264  0.3711  0.2088
 6419SOL    HW130890   4.363   1.062   2.753  3.5056 -1.2502 -0.3943
 6419SOL    HW230891   4.396   0.929   2.781  3.0664  2.7695 -0.0244
 6420SOL     OW30892   3.715   1.835   7.793  0.3135 -0.3023  0.4160
 6420SOL    HW130893   3.766   1.883   7.858 -0.6133  0.0103  0.9098
 6420SOL    HW230894   3.792   1.821   7.739 -1.3242  1.1413 -2.2803
 6421SOL     OW30895   2.978   0.614   3.983 -0.1859  0.2616  0.1135
 6421SOL    HW130896   2.990   0.521   3.963 -2.3206 -0.1051  0.5479
 6421SOL    HW230897   3.043   0.631   4.052  0.8592  1.9207 -1.2905
 6422SOL     OW30898   1.967   1.231  10.134  0.2840 -0.0175 -0.2083
 6422SOL    HW130899   1.986   1.186  10.216 -0.0024 -0.8322 -0.5893
 6422SOL    HW230900   1.879   1.252  10.165 -0.3375 -0.0729 -1.9416
 6423SOL     OW30901   2.247   4.543  15.578  0.3158 -0.1772 -0.4057
 6423SOL    HW130902   2.297   4.610  15.625 -4.6106  2.7009  0.7335
 6423SOL    HW230903   2.186   4.584  15.516  1.3631  2.2147  0.1408
 6424SOL     OW30904   2.322   1.720  12.823  0.3478  0.2471  0.7410
 6424SOL    HW130905   2.353   1.810  12.834 -0.0309  0.5583 -0.6394
 6424SOL    HW230906   2.317   1.696  12.730  2.4989  1.2673  0.3666
 6425SOL     OW30907   4.578   3.225   5.894 -0.5558 -0.3564  0.4726
 6425SOL    HW130908   4.623   3.256   5.973  1.6989  0.9913 -1.3321
 6425SOL    HW230909   4.499   3.193   5.939 -1.3060  0.2581 -0.4152
 6426SOL     OW30910   1.907   2.300   6.052 -0.4066 -0.2888 -0.5115
 6426SOL    HW130911   1.820   2.323   6.084  0.2605 -0.0786  1.1607
 6426SOL    HW230912   1.959   2.368   6.095 -0.9444  0.8736 -1.7027
 6427SOL     OW30913   0.349   3.295  11.954  0.1684 -0.9784  0.1628
 6427SOL    HW130914   0.436   3.275  11.988 -0.4998 -0.6825  2.0385
 6427SOL    HW230915   0.309   3.337  12.031  2.2668 -1.3022  1.4188
 6428SOL     OW30916   3.537   1.178   3.944 -0.2436 -0.3213 -0.2170
 6428SOL    HW130917   3.572   1.208   4.028  2.0086 -1.2526 -0.8295
 6428SOL    HW230918   3.501   1.260   3.910  0.6002  0.8860  1.8083
 6429SOL     OW30919   0.404   2.903  15.677  0.3136  0.0273 -0.6756
 6429SOL    HW130920   0.475   2.890  15.615  1.4022 -2.4333  1.0963
 6429SOL    HW230921   0.438   2.978  15.726  2.6603 -0.9708 -0.7915
 6430SOL     OW30922   4.428   0.711   5.590 -0.2012 -0.0378  0.1768
 6430SOL    HW130923   4.392   0.785   5.640 -1.1549  0.1789 -0.8172
 6430SOL    HW230924   4.376   0.633   5.607 -2.2859  1.7318  1.9199
 6431SOL     OW30925   2.178   4.313   9.015 -0.0556  0.4700 -0.4323
 6431SOL    HW130926   2.220   4.244   8.965  0.5348  0.0935  0.5917
 6431SOL    HW230927   2.220   4.305   9.101  0.8624 -3.7853 -1.2821
 6432SOL     OW30928   3.979   3.902   9.064  1.0008  0.3159 -0.3495
 6432SOL    HW130929   4.003   3.913   8.972  1.1678  3.5037  0.0605
 6432SOL    HW230930   3.945   3.986   9.094 -0.5335 -1.4089  2.6515
 6433SOL     OW30931   2.464   4.669   2.757  0.1090 -0.0098 -0.1131
 6433SOL    HW130932   2.545   4.641   2.801  0.5890 -0.4829 -1.3005
 6433SOL    HW230933   2.484   4.621   2.677  0.6210  1.0944 -0.6515
 6434SOL     OW30934   4.658   3.082  12.236  0.2240 -0.1960  0.1133
 6434SOL    HW130935   4.711   3.025  12.179  0.1349  0.3731 -0.5434
 6434SOL    HW230936   4.715   3.158  12.247 -0.2170 -0.0222  1.1053
 6435SOL     OW30937   2.517   1.021   6.752 -0.5796 -0.0341 -0.6908
 6435SOL    HW130938   2.591   1.024   6.691  0.3690  1.0055  0.5306
 6435SOL    HW230939   2.531   1.105   6.795  0.3455  0.5409 -2.1164
 6436SOL     OW30940   0.363   1.024   9.053 -0.6599  0.1305  0.0125
 6436SOL    HW130941   0.346   1.050   8.963  0.6071  1.7375  0.2328
 6436SOL    HW230942   0.368   1.114   9.085 -3.8757  0.7690 -1.2399
 6437SOL     OW30943   2.363   3.712   6.605 -0.3383 -0.2061  0.4995
 6437SOL    HW130944   2.325   3.685   6.522  0.9745  0.4395 -0.3140
 6437SOL    HW230945   2.457   3.721   6.587 -0.3274 -0.7052  0.3150
 6438SOL     OW30946   2.265   1.132   7.970  0.0765 -0.2343  0.4426
 6438SOL    HW130947   2.169   1.131   7.973  0.0460  0.0734 -0.4930
 6438SOL    HW230948   2.278   1.038   7.957  3.1856  0.0170  1.7025
 6439SOL     OW30949   0.297   1.818   8.024  0.1954 -0.0878  0.1740
 6439SOL    HW130950   0.289   1.858   7.937  0.3233  0.3229  0.3522
 6439SOL    HW230951   0.215   1.835   8.070  0.6739  3.0597 -0.0713
 6440SOL     OW30952   1.942   2.409   4.189  0.9118 -0.4912  0.0257
 6440SOL    HW130953   1.970   2.490   4.232  1.0327 -0.4029 -0.2192
 6440SOL    HW230954   1.957   2.352   4.264 -0.3867  0.0053  0.6696
 6441SOL     OW30955   3.882   1.588   9.044  0.4102  0.7203 -0.2704
 6441SOL    HW130956   3.797   1.549   9.026  2.1959 -2.0628 -2.6848
 6441SOL    HW230957   3.900   1.539   9.124 -0.1718 -1.7022 -1.6155
 6442SOL     OW30958   4.099   2.587   4.265  0.1966 -0.0254  0.6606
 6442SOL    HW130959   4.154   2.651   4.309 -0.8093  0.8425  0.6454
 6442SOL    HW230960   4.015   2.633   4.257  0.5419  0.3369 -0.8791
 6443SOL     OW30961   1.033   2.613   6.724 -0.1757 -0.2584  0.2378
 6443SOL    HW130962   1.097   2.624   6.793 -0.3216 -0.4897  0.4097
 6443SOL    HW230963   0.958   2.576   6.772 -0.8671  0.5653 -0.2052
 6444SOL     OW30964   1.385   3.527   2.722  0.4512 -0.5020 -0.1928
 6444SOL    HW130965   1.462   3.524   2.665  0.8440  2.2731  0.2017
 6444SOL    HW230966   1.315   3.526   2.657  0.2151 -1.2728  0.0839
 6445SOL     OW30967   0.242   0.382  15.192  0.5010  0.2259  0.0017
 6445SOL    HW130968   0.277   0.315  15.251  0.5059  1.9009  1.9037
 6445SOL    HW230969   0.312   0.447  15.190 -0.7748  1.5233 -2.1586
 6446SOL     OW30970   3.230   3.039   7.261  0.3371 -1.0950  0.4283
 6446SOL    HW130971   3.196   3.025   7.349  1.6061  0.5177  1.1769
 6446SOL    HW230972   3.305   2.980   7.257  1.3958  0.2994 -0.4981
 6447SOL     OW30973   1.227   0.631   3.959 -0.7041 -0.4232  0.3310
 6447SOL    HW130974   1.232   0.641   4.054 -2.8253 -2.6310  0.6787
 6447SOL    HW230975   1.320   0.613   3.947 -0.1102  2.1500  1.1568
 6448SOL     OW30976   1.577   2.107   0.340  0.4441 -0.2206  0.1641
 6448SOL    HW130977   1.527   2.083   0.419  1.0862  0.0226  0.6462
 6448SOL    HW230978   1.592   2.201   0.342  0.9019 -0.2723 -1.4338
 6449SOL     OW30979   0.474   2.057   1.768 -0.1563 -0.5653 -0.0688
 6449SOL    HW130980   0.410   2.125   1.747  1.4069  0.1251 -2.5197
 6449SOL    HW230981   0.524   2.050   1.687 -0.5822 -0.3456 -0.3493
 6450SOL     OW30982   1.257   4.153  12.107 -0.4186 -0.2828 -0.8232
 6450SOL    HW130983   1.344   4.116  12.119 -0.2440  0.4070  0.0499
 6450SOL    HW230984   1.207   4.072  12.117  1.4995 -1.3470  0.0543
 6451SOL     OW30985   4.687   2.539   0.685 -0.2436  0.2379  0.0887
 6451SOL    HW130986   4.692   2.585   0.601  1.7079 -0.0202  0.0773
 6451SOL    HW230987   4.660   2.603   0.750 -3.8452 -0.6455 -0.4923
 6452SOL     OW30988   4.480   2.426   5.430  0.0671  0.4323 -0.8211
 6452SOL    HW130989   4.569   2.456   5.445  1.5191 -3.2906 -1.9634
 6452SOL    HW230990   4.438   2.505   5.396 -1.4302  0.4286  1.0014
 6453SOL     OW30991   0.568   2.451   7.218 -0.4488 -0.0812  0.0960
 6453SOL    HW130992   0.533   2.530   7.259 -1.9236 -2.0314  2.6018
 6453SOL    HW230993   0.661   2.471   7.217 -0.7450  1.2833 -0.2547
 6454SOL     OW30994   3.955   4.541   0.920 -0.5214 -0.7849  0.2650
 6454SOL    HW130995   4.040   4.533   0.877 -1.2962  3.0080 -2.0240
 6454SOL    HW230996   3.974   4.472   0.983  2.1657 -0.9156 -0.6951
 6455SOL     OW30997   3.430   0.926  13.990  0.1824  0.1944  0.5036
 6455SOL    HW130998   3.356   0.965  13.943 -0.8785 -0.6038  1.4979
 6455SOL    HW230999   3.379   0.862  14.039 -1.2895  0.2579 -0.9424
 6456SOL     OW31000   3.526   1.015   4.550  0.5871 -0.2356  0.0065
 6456SOL    HW131001   3.510   1.107   4.568  1.9928 -0.2160  1.1140
 6456SOL    HW231002   3.439   0.980   4.568 -0.4765  2.2091 -0.3625
 6457SOL     OW31003   2.961   4.037   9.298 -0.5029 -0.2981  0.5516
 6457SOL    HW131004   2.939   3.971   9.365  0.5677 -0.2812  0.9106
 6457SOL    HW231005   2.876   4.079   9.285 -0.6957 -1.2445 -1.2416
 6458SOL     OW31006   1.731   0.825   1.874 -0.1088 -0.3645  0.2091
 6458SOL    HW131007   1.780   0.745   1.854 -0.3571  0.0518 -2.0248
 6458SOL    HW231008   1.646   0.793   1.906 -0.5037 -0.3328 -0.8184
 6459SOL     OW31009   1.372   2.089   3.604 -0.6967 -0.7226 -0.2383
 6459SOL    HW131010   1.333   2.043   3.678 -0.7761 -1.2964 -0.6367
 6459SOL    HW231011   1.346   2.039   3.526 -0.5134 -2.1413  0.6136
 6460SOL     OW31012   4.411   0.807   2.640  0.4244  0.9740  0.4997
 6460SOL    HW131013   4.474   0.794   2.568 -1.0181  1.3704 -0.8392
 6460SOL    HW231014   4.326   0.815   2.597  0.1115  2.8203  1.4810
 6461SOL     OW31015   2.611   0.296   7.244 -0.7337 -0.6065  0.5176
 6461SOL    HW131016   2.531   0.246   7.224 -1.2419  1.8231 -3.3893
 6461SOL    HW231017   2.649   0.314   7.159 -0.2191  0.1436  0.9056
 6462SOL     OW31018   2.640   3.093   2.718  0.1869  0.2170  0.3135
 6462SOL    HW131019   2.623   3.185   2.737  2.4307  0.7015 -0.0985
 6462SOL    HW231020   2.552   3.054   2.715  0.0615  0.4928  0.3596
 6463SOL     OW31021   2.059   4.281   2.802 -0.4419 -0.1438 -0.8060
 6463SOL    HW131022   2.114   4.349   2.763  0.4304 -0.5758 -0.3404
 6463SOL    HW231023   1.977   4.297   2.756 -0.4517 -0.3451 -0.8552
 6464SOL     OW31024   3.930   4.398   2.815 -0.0193 -1.2353 -0.5745
 6464SOL    HW131025   4.021   4.372   2.805  1.1604  2.0307  1.6052
 6464SOL    HW231026   3.899   4.398   2.724  0.8017 -0.9641 -0.8499
 6465SOL     OW31027   3.523   2.946   2.566  0.2890 -0.3308  0.2375
 6465SOL    HW131028   3.483   2.881   2.508  1.0562 -1.2317  0.7005
 6465SOL    HW231029   3.495   3.027   2.523  1.8551  0.2073  0.2348
 6466SOL     OW31030   1.757   0.882  15.011  0.0463 -0.1761  0.2162
 6466SOL    HW131031   1.695   0.852  14.945  1.1626  0.4342 -1.1137
 6466SOL    HW231032   1.775   0.803  15.061  0.7882 -0.2539 -0.1647
 6467SOL     OW31033   2.709   4.665   9.480  0.1546  0.2906  0.2366
 6467SOL    HW131034   2.791   4.655   9.430 -0.5063 -1.4338 -0.5112
 6467SOL    HW231035   2.717   4.605   9.553 -2.1111 -1.7623 -1.2120
 6468SOL     OW31036   3.074   0.001   3.301 -0.4546  0.1071 -0.2337
 6468SOL    HW131037   3.152   4.731   3.247  0.2355 -0.4500  0.8201
 6468SOL    HW231038   3.068   0.094   3.322 -1.3949  0.0169 -0.0906
 6469SOL     OW31039   3.894   2.530   1.332 -0.4874  0.0074  0.1528
 6469SOL    HW131040   3.886   2.453   1.275  0.8073 -0.3388  0.4404
 6469SOL    HW231041   3.818   2.577   1.297 -1.0670 -0.3221  0.9955
 6470SOL     OW31042   2.268   1.491   8.135  0.0490 -0.5244  0.3643
 6470SOL    HW131043   2.222   1.451   8.209 -1.2505  0.5672  0.1480
 6470SOL    HW231044   2.199   1.538   8.088  1.3566  0.8452 -0.2034
 6471SOL     OW31045   0.792   1.040  11.741 -0.1053  0.4155 -0.0572
 6471SOL    HW131046   0.828   1.110  11.795 -0.6474  0.0340  0.8106
 6471SOL    HW231047   0.873   0.992  11.725 -0.3968 -0.3934  0.8646
 6472SOL     OW31048   3.696   1.614   5.469  0.0963 -0.1443 -0.2979
 6472SOL    HW131049   3.712   1.670   5.545  0.9700  1.3965 -1.6253
 6472SOL    HW231050   3.602   1.595   5.470  0.3945 -1.5828  1.3594
 6473SOL     OW31051   4.343   3.341  17.528  0.3715 -0.2617  0.3234
 6473SOL    HW131052   4.428   3.299  17.511  0.6445  0.1564  0.6675
 6473SOL    HW231053   4.321   3.378  17.443  1.2027 -0.6159 -0.0527
 6474SOL     OW31054   2.900   0.726   9.987  0.0711  0.7032  0.2060
 6474SOL    HW131055   2.961   0.733   9.912 -1.4382  0.0541 -1.0690
 6474SOL    HW231056   2.956   0.751  10.061  1.5879 -2.6929  0.2025
 6475SOL     OW31057   0.727   0.692   0.845  0.4346 -0.0430 -0.1728
 6475SOL    HW131058   0.752   0.647   0.926 -0.0516  1.3422  0.7383
 6475SOL    HW231059   0.805   0.748   0.839 -0.6630  1.4334 -0.6993
 6476SOL     OW31060   0.735   3.130  13.984 -0.4201  1.3712  0.2512
 6476SOL    HW131061   0.751   3.071  14.057  0.3718  0.7194 -0.4361
 6476SOL    HW231062   0.772   3.215  14.008 -3.0017  2.1209  1.5259
 6477SOL     OW31063   1.187   1.660  17.604  0.3219  0.7154  0.3669
 6477SOL    HW131064   1.114   1.611  17.644  0.9187  1.2606  2.1372
 6477SOL    HW231065   1.254   1.593  17.590 -0.3059 -0.1191  1.3147
 6478SOL     OW31066   3.582   3.492   3.994  0.0900 -0.3066 -0.1034
 6478SOL    HW131067   3.677   3.508   4.002  0.2066 -0.7941 -0.5317
 6478SOL    HW231068   3.553   3.554   3.927 -1.8714 -1.8752 -0.6808
 6479SOL     OW31069   0.082   1.358  11.496  0.8495 -0.0634 -0.3882
 6479SOL    HW131070   0.131   1.336  11.576 -1.0367  0.8530  1.0077
 6479SOL    HW231071   0.003   1.405  11.521  0.9301  0.4809 -1.1913
 6480SOL     OW31072   4.324   4.693  13.622  0.1704 -0.3688  0.0202
 6480SOL    HW131073   4.300   4.696  13.529 -0.3065 -1.6721  0.1045
 6480SOL    HW231074   4.418   4.686  13.607  0.2245  0.2428  0.0675
 6481SOL     OW31075   3.769   0.583   1.285  0.0584 -0.0468 -0.1518
 6481SOL    HW131076   3.781   0.533   1.204  1.3653  0.0706 -0.0443
 6481SOL    HW231077   3.861   0.603   1.306 -0.0728  2.2243 -1.7594
 6482SOL     OW31078   0.294   3.743   5.046  0.6487 -0.4224 -0.1205
 6482SOL    HW131079   0.352   3.711   4.977 -0.4307 -0.1878 -1.1259
 6482SOL    HW231080   0.216   3.687   5.040  1.7427 -1.9807  0.3149
 6483SOL     OW31081   4.621   4.630   5.370  0.5117  0.5210  0.2487
 6483SOL    HW131082   4.675   4.701   5.336 -1.6342  0.4110 -3.3758
 6483SOL    HW231083   4.537   4.674   5.367  0.3374  0.1429 -0.4551
 6484SOL     OW31084   4.479   3.358   7.810  0.6289 -0.2668  0.5008
 6484SOL    HW131085   4.561   3.309   7.807  2.6842  3.1672  0.7794
 6484SOL    HW231086   4.519   3.442   7.830 -0.6474 -0.2239  2.8954
 6485SOL     OW31087   1.742   3.507   4.907  0.3339 -0.3000 -0.2588
 6485SOL    HW131088   1.734   3.560   4.829 -0.8361 -0.7385 -0.4319
 6485SOL    HW231089   1.721   3.422   4.868  3.0799 -1.6052  1.0756
 6486SOL     OW31090   4.648   0.330   7.608 -0.2325 -0.0358 -0.1320
 6486SOL    HW131091   4.606   0.287   7.682  1.0345  0.2358  0.7512
 6486SOL    HW231092   4.574   0.358   7.554 -0.7483  0.5759  0.8981
 6487SOL     OW31093   2.220   3.439   9.341  0.2255 -0.1181  0.0844
 6487SOL    HW131094   2.239   3.386   9.263  0.9204  0.9574 -0.4757
 6487SOL    HW231095   2.301   3.417   9.386  0.9753  1.3760 -0.5546
 6488SOL     OW31096   1.058   3.789   5.215  0.1695  0.2003 -0.0446
 6488SOL    HW131097   0.980   3.811   5.267  0.4775  2.9628 -0.7964
 6488SOL    HW231098   1.030   3.840   5.139  2.3087  1.2314 -0.1226
 6489SOL     OW31099   0.243   1.335  15.505 -0.0507  0.3944 -0.0081
 6489SOL    HW131100   0.218   1.308  15.594 -0.3533  2.6733  0.5866
 6489SOL    HW231101   0.190   1.414  15.518 -2.9639 -1.3174 -1.5058
 6490SOL     OW31102   3.504   1.195  17.088  0.0542 -0.3208  0.4955
 6490SOL    HW131103   3.503   1.101  17.073 -1.4918 -0.2272  0.0217
 6490SOL    HW231104   3.498   1.236  17.002  0.6897  0.9919  1.0715
 6491SOL     OW31105   3.401   1.837   8.880  0.0485  0.8168  0.2708
 6491SOL    HW131106   3.410   1.749   8.844  0.7628  1.3843 -0.9333
 6491SOL    HW231107   3.307   1.849   8.877 -0.0456 -0.1268 -0.3773
 6492SOL     OW31108   2.952   0.964   7.180  0.2106  0.0603  0.1294
 6492SOL    HW131109   2.979   1.054   7.167 -1.7654  0.7321  0.7572
 6492SOL    HW231110   3.018   0.923   7.236 -0.8397  0.6188  1.7846
 6493SOL     OW31111   0.530   3.800  17.511 -1.2995 -0.3023 -0.5259
 6493SOL    HW131112   0.597   3.805  17.443  1.1730  0.0001  1.9444
 6493SOL    HW231113   0.495   3.889  17.516  0.8094  0.6146 -2.1202
 6494SOL     OW31114   0.752   1.378   5.296 -0.2595  0.1701 -0.2253
 6494SOL    HW131115   0.814   1.349   5.230 -0.2328  0.9789 -0.5571
 6494SOL    HW231116   0.774   1.471   5.308  1.6891 -0.3239 -0.0843
 6495SOL     OW31117   1.330   0.098   7.769  0.0628 -0.3730  0.6319
 6495SOL    HW131118   1.369   0.185   7.768 -1.3488  0.2763  1.5330
 6495SOL    HW231119   1.381   0.065   7.843  3.2443  2.6499 -0.2304
 6496SOL     OW31120   3.395   0.452   8.666  0.1850  0.1721  0.4792
 6496SOL    HW131121   3.435   0.499   8.593  2.3027 -0.0868  1.4768
 6496SOL    HW231122   3.466   0.446   8.730  0.8153 -0.0133 -0.2366
 6497SOL     OW31123   3.635   1.027   0.895  0.3683 -0.7665 -0.6965
 6497SOL    HW131124   3.628   1.050   0.988 -1.8882  1.2671 -1.3707
 6497SOL    HW231125   3.722   1.060   0.874  0.3885 -0.1381  0.3574
 6498SOL     OW31126   2.103   3.793   7.902  0.1753 -0.5032  0.1709
 6498SOL    HW131127   2.131   3.779   7.812  2.6285  1.0931  0.6785
 6498SOL    HW231128   2.062   3.707   7.914 -0.0015 -0.1514  2.1044
 6499SOL     OW31129   2.719   2.882   7.957  0.0435  0.4797  0.5081
 6499SOL    HW131130   2.726   2.789   7.933  0.9327  0.9389 -0.9889
 6499SOL    HW231131   2.630   2.908   7.934 -0.3680 -0.9523  0.4526
 6500SOL     OW31132   2.582   3.492  14.324  0.3372 -0.1142  0.2954
 6500SOL    HW131133   2.579   3.417  14.265  1.6330  1.8180 -2.2388
 6500SOL    HW231134   2.559   3.564  14.265 -0.1719  0.5828  1.3557
 6501SOL     OW31135   0.262   4.262   8.168 -0.2929 -0.7913 -0.6405
 6501SOL    HW131136   0.235   4.253   8.260 -1.4874  0.7076 -0.8454
 6501SOL    HW231137   0.190   4.212   8.130 -1.6394  1.2669 -0.8502
 6502SOL     OW31138   3.029   1.669   6.619  0.0455 -0.5147 -0.0509
 6502SOL    HW131139   3.101   1.651   6.559 -1.6670  0.5397 -2.4343
 6502SOL    HW231140   2.989   1.752   6.594  1.3514 -0.2780 -1.3668
 6503SOL     OW31141   2.192   3.878   4.669  0.0864 -0.2872 -0.2778
 6503SOL    HW131142   2.142   3.808   4.711 -1.1198  0.2177 -0.8535
 6503SOL    HW231143   2.254   3.832   4.613 -0.8010 -1.5963 -0.1818
 6504SOL     OW31144   0.271   1.570  11.378  0.4009 -0.5313 -0.3968
 6504SOL    HW131145   0.301   1.534  11.461  0.0903  0.2757  0.0581
 6504SOL    HW231146   0.177   1.579  11.393  0.6033  2.1770 -0.7617
 6505SOL     OW31147   3.127   1.678  16.117  0.5917  0.0791 -0.1100
 6505SOL    HW131148   3.150   1.732  16.041 -1.7316 -2.4247 -2.5993
 6505SOL    HW231149   3.111   1.749  16.179  0.6694  0.0921 -0.1053
 6506SOL     OW31150   0.191   3.396  12.204  0.0709 -0.1612 -0.1972
 6506SOL    HW131151   0.160   3.485  12.190  1.8240  0.2724 -1.4069
 6506SOL    HW231152   0.131   3.356  12.141  1.4168 -2.6996  0.0983
 6507SOL     OW31153   3.916   1.194   6.637 -0.2068 -0.3707  0.0472
 6507SOL    HW131154   3.836   1.184   6.585  0.7505  0.4954 -1.6058
 6507SOL    HW231155   3.958   1.110   6.617  1.7921  0.8081 -0.6607
 6508SOL     OW31156   0.754   2.553  13.412 -0.1311 -0.2431 -0.1615
 6508SOL    HW131157   0.684   2.507  13.365 -2.8724  3.6447  0.1445
 6508SOL    HW231158   0.706   2.634  13.426 -0.2786 -0.5339  1.0120
 6509SOL     OW31159   4.696   1.515   4.849  0.1218 -0.1125 -0.1234
 6509SOL    HW131160   4.702   1.610   4.858 -1.5219 -0.0532  0.2992
 6509SOL    HW231161   4.632   1.506   4.779  0.8611 -2.0536 -0.5614
 6510SOL     OW31162   1.813   4.633   6.341 -0.1476 -0.5224  0.6958
 6510SOL    HW131163   1.871   4.652   6.415  1.0092 -0.6282 -0.1754
 6510SOL    HW231164   1.859   4.678   6.270 -0.1751 -1.1319  0.2873
 6511SOL     OW31165   2.369   0.324   4.690 -0.0245  0.1294  0.1161
 6511SOL    HW131166   2.415   0.404   4.667  1.5969 -1.1957 -1.2514
 6511SOL    HW231167   2.309   0.321   4.615  0.1484  0.3996 -0.0349
 6512SOL     OW31168   3.352   3.361  16.419 -0.4864  0.2428  0.1764
 6512SOL    HW131169   3.417   3.292  16.410 -1.4371 -0.5002 -0.9767
 6512SOL    HW231170   3.347   3.377  16.513  1.8326 -0.2146  0.3605
 6513SOL     OW31171   0.237   0.025   8.852  0.7923  0.1078  0.0609
 6513SOL    HW131172   0.241   0.032   8.948 -1.0683 -0.5109  0.1953
 6513SOL    HW231173   0.241   0.118   8.830 -1.7203 -0.0014 -0.9003
 6514SOL     OW31174   3.615   4.585  12.835  0.0620 -0.1883 -0.5293
 6514SOL    HW131175   3.602   4.643  12.910  0.4838  1.4287 -1.7059
 6514SOL    HW231176   3.619   4.642  12.758  1.3219 -1.7854 -1.6615
 6515SOL     OW31177   4.506   0.009   3.136  0.1312 -0.4156 -0.3015
 6515SOL    HW131178   4.423   0.024   3.090  0.9708 -0.3137 -1.7965
 6515SOL    HW231179   4.562   4.732   3.059  0.6708 -3.6581  0.6524
 6516SOL     OW31180   2.710   4.178  12.203 -0.2038 -0.1311  0.4878
 6516SOL    HW131181   2.637   4.140  12.153  1.4628 -2.0790 -0.4782
 6516SOL    HW231182   2.777   4.133  12.151  0.9400 -0.0878  1.9344
 6517SOL     OW31183   0.201   2.099  11.592 -0.4282 -0.1651 -0.0733
 6517SOL    HW131184   0.182   2.008  11.571  1.1373 -0.1348 -1.6227
 6517SOL    HW231185   0.288   2.104  11.554 -0.8688 -0.9597 -1.1687
 6518SOL     OW31186   0.838   1.533   7.938  0.1952 -0.2110 -0.4226
 6518SOL    HW131187   0.805   1.462   7.883 -2.2110 -0.3404  1.1783
 6518SOL    HW231188   0.781   1.528   8.015 -1.5212  0.0485 -1.6755
 6519SOL     OW31189   0.082   1.322   5.075  0.4348  0.2080  0.2239
 6519SOL    HW131190   0.104   1.246   5.129  0.1397  0.6044  0.9016
 6519SOL    HW231191   0.021   1.370   5.131  0.0267 -0.8081  0.6562
 6520SOL     OW31192   1.691   1.374  17.295 -0.4502  0.3295  0.1113
 6520SOL    HW131193   1.714   1.314  17.223 -0.2544 -1.3150  1.5392
 6520SOL    HW231194   1.600   1.400  17.282  0.2895  2.4545 -0.8326
 6521SOL     OW31195   4.073   3.129   7.773 -0.3394  0.0441 -0.1423
 6521SOL    HW131196   4.154   3.175   7.750  1.9413 -3.3605  1.0786
 6521SOL    HW231197   4.078   3.039   7.739  0.8870  0.4470 -1.0338
 6522SOL     OW31198   3.707   4.225   6.130  0.5451 -0.5588  0.5933
 6522SOL    HW131199   3.794   4.262   6.115 -0.7747  1.4115 -2.3058
 6522SOL    HW231200   3.684   4.281   6.205 -0.8035 -2.0360  1.2805
 6523SOL     OW31201   2.669   2.154   0.850 -0.6164  0.0400  0.0136
 6523SOL    HW131202   2.694   2.116   0.765 -3.3797  0.0974 -0.8326
 6523SOL    HW231203   2.608   2.220   0.818 -0.8565 -1.0770 -1.8747
 6524SOL     OW31204   1.792   4.168   5.823 -0.1828  0.1833 -0.5146
 6524SOL    HW131205   1.821   4.098   5.764 -1.1874 -1.5454  1.0368
 6524SOL    HW231206   1.712   4.188   5.774 -0.9993  0.5775  0.9825
 6525SOL     OW31207   1.554   3.193   6.985 -0.1078  0.0584 -0.5345
 6525SOL    HW131208   1.498   3.232   7.051 -0.8720 -3.2009  0.7272
 6525SOL    HW231209   1.500   3.225   6.912  0.4333  0.0321 -0.9464
 6526SOL     OW31210   3.757   2.377   2.957 -0.6144  0.0411 -0.2147
 6526SOL    HW131211   3.675   2.338   2.987 -1.5280  0.2780 -2.3972
 6526SOL    HW231212   3.748   2.344   2.868 -0.2805  1.6087 -0.8443
 6527SOL     OW31213   0.814   1.156   6.890  0.0324 -0.3056  0.1770
 6527SOL    HW131214   0.855   1.069   6.886  1.7343  0.4430  1.3014
 6527SOL    HW231215   0.729   1.137   6.850  0.9815  0.7814 -2.3752
 6528SOL     OW31216   3.989   1.015  14.424  0.1753  0.0957  0.0571
 6528SOL    HW131217   3.911   0.962  14.410  0.5624 -0.1907 -1.0775
 6528SOL    HW231218   4.060   0.950  14.426  0.8999  0.9745  2.5982
 6529SOL     OW31219   0.783   3.328   2.265  0.2831 -0.1945 -0.5075
 6529SOL    HW131220   0.756   3.370   2.347  0.8152  1.1008 -0.9982
 6529SOL    HW231221   0.877   3.345   2.263  0.4806 -1.2226  0.1247
 6530SOL     OW31222   3.272   4.023   0.553  0.2573 -0.0443  0.1176
 6530SOL    HW131223   3.251   3.970   0.476  2.5869 -2.0204  0.8556
 6530SOL    HW231224   3.202   4.001   0.615 -0.0645 -1.3846 -0.7399
 6531SOL     OW31225   2.261   0.818  12.417  0.1498  0.3378 -0.4358
 6531SOL    HW131226   2.252   0.872  12.495  0.3520  1.2055 -1.0074
 6531SOL    HW231227   2.247   0.891  12.356 -0.3041  0.2329 -0.4524
 6532SOL     OW31228   2.865   3.174   0.167  0.2535  0.3767  0.0248
 6532SOL    HW131229   2.795   3.208   0.223 -1.3108  0.4611 -1.9671
 6532SOL    HW231230   2.908   3.257   0.144  0.5401  0.8991  2.3993
 6533SOL     OW31231   0.895   4.402   1.818  0.1228 -0.1447 -0.5777
 6533SOL    HW131232   0.968   4.463   1.809 -0.5066  0.5026 -1.3013
 6533SOL    HW231233   0.930   4.322   1.780  0.6548  0.0884 -0.5747
 6534SOL     OW31234   4.097   0.769  16.961  0.4771 -0.4757  0.6221
 6534SOL    HW131235   4.084   0.675  16.955  0.2159 -0.4214  0.3086
 6534SOL    HW231236   4.073   0.796  16.872  1.0010  0.3423  0.7224
 6535SOL     OW31237   3.845   2.869   9.397 -0.6699  0.9603  0.5423
 6535SOL    HW131238   3.866   2.893   9.487 -1.6176 -0.6069  1.1686
 6535SOL    HW231239   3.925   2.896   9.352 -1.1900  2.0613  0.2704
 6536SOL     OW31240   3.919   1.665   7.112  0.0137  0.4386  0.3478
 6536SOL    HW131241   3.888   1.683   7.023 -1.7438  0.7022  1.0143
 6536SOL    HW231242   3.925   1.570   7.101  0.1715  0.6015 -0.9893
 6537SOL     OW31243   0.550   3.142   9.403  0.1524 -0.2146 -0.6526
 6537SOL    HW131244   0.579   3.231   9.384 -0.4159 -0.3205 -2.0223
 6537SOL    HW231245   0.574   3.095   9.323  0.0983 -3.4014  1.1991
 6538SOL     OW31246   0.946   3.919   3.054  0.2356  0.2926  0.1713
 6538SOL    HW131247   0.904   3.835   3.071 -0.6736  0.3603 -1.6740
 6538SOL    HW231248   1.001   3.889   2.981  0.6316  0.7104  0.2941
 6539SOL     OW31249   0.243   2.475   7.120 -0.6189 -0.0858  0.1318
 6539SOL    HW131250   0.294   2.394   7.123  0.0870  0.3648  0.4717
 6539SOL    HW231251   0.232   2.485   7.214  0.8318 -0.0535  0.2981
 6540SOL     OW31252   0.363   0.578   2.724 -0.0986  0.7255  0.1057
 6540SOL    HW131253   0.339   0.540   2.639  0.3748  1.9974 -0.6059
 6540SOL    HW231254   0.302   0.519   2.769 -1.0943  0.9913 -0.9068
 6541SOL     OW31255   2.032   0.803   2.364 -0.4683  0.4187 -0.5191
 6541SOL    HW131256   2.006   0.881   2.414  0.4643  0.2407  0.2490
 6541SOL    HW231257   2.126   0.809   2.381 -0.7627  0.6850  0.9940
 6542SOL     OW31258   1.122   1.949   7.388  0.4191  0.7735 -0.1409
 6542SOL    HW131259   1.092   1.938   7.298 -0.0707  2.2954 -0.1800
 6542SOL    HW231260   1.205   1.989   7.364  1.3607  0.1114  2.0509
 6543SOL     OW31261   4.682   2.376   7.622  0.3186  0.2477 -0.1734
 6543SOL    HW131262   4.663   2.306   7.684  1.9349  0.1701  0.2197
 6543SOL    HW231263   0.012   2.333   7.568  0.6812 -1.0549  1.3029
 6544SOL     OW31264   2.857   3.487   8.416  0.0421  0.3920 -0.0734
 6544SOL    HW131265   2.827   3.479   8.506 -0.6607  0.5485 -0.2956
 6544SOL    HW231266   2.819   3.409   8.376 -0.9233  1.3193 -0.9720
 6545SOL     OW31267   2.254   1.213  16.777 -0.0673 -0.6245 -0.5875
 6545SOL    HW131268   2.224   1.150  16.842 -1.1802 -1.0604 -1.5209
 6545SOL    HW231269   2.335   1.176  16.740  0.0902 -2.5234  1.6954
 6546SOL     OW31270   2.614   4.152   4.970  0.3818 -0.0041 -0.0941
 6546SOL    HW131271   2.608   4.090   4.897  0.0169  1.8400 -1.6178
 6546SOL    HW231272   2.540   4.128   5.027 -0.4839 -0.1999 -1.3084
 6547SOL     OW31273   0.323   1.531   8.292  0.0720 -0.2938 -0.1906
 6547SOL    HW131274   0.296   1.619   8.320 -0.2623 -0.5371  0.2489
 6547SOL    HW231275   0.254   1.475   8.326 -1.3699  1.4381 -0.2594
 6548SOL     OW31276   2.086   3.253   6.172  0.1929 -0.4921  0.2805
 6548SOL    HW131277   2.114   3.165   6.144 -0.4311 -0.6120  0.0290
 6548SOL    HW231278   1.993   3.231   6.182 -0.1160  0.2462 -0.9931
 6549SOL     OW31279   4.552   0.009   8.091 -0.1685 -0.0877 -0.1078
 6549SOL    HW131280   4.607   4.672   8.065  1.7544  0.4146  2.4450
 6549SOL    HW231281   4.553   4.723   8.184  1.3843  3.1668  0.6967
 6550SOL     OW31282   3.391   2.962   3.854  0.0367  0.9778 -0.3986
 6550SOL    HW131283   3.451   2.939   3.924  0.2775  1.4041 -0.4690
 6550SOL    HW231284   3.429   3.043   3.822  1.1949  0.6639  0.1885
 6551SOL     OW31285   1.648   3.545   2.609  0.1302  0.0839  0.3976
 6551SOL    HW131286   1.732   3.510   2.637 -1.5535 -1.4194  3.5353
 6551SOL    HW231287   1.652   3.623   2.663 -0.7742  0.4415 -0.0450
 6552SOL     OW31288   2.845   3.508   0.446 -0.0037  0.0503  0.3190
 6552SOL    HW131289   2.762   3.547   0.419  0.3160 -0.8677 -1.9678
 6552SOL    HW231290   2.893   3.499   0.363 -1.4171  3.5063 -0.8765
 6553SOL     OW31291   0.445   2.559   4.157  0.0913 -0.2983 -0.0838
 6553SOL    HW131292   0.435   2.469   4.127  0.8179  0.3767 -2.3627
 6553SOL    HW231293   0.489   2.538   4.239  0.8746 -2.4956 -1.0494
 6554SOL     OW31294   3.462   3.074   6.316  0.5227  0.2198  0.2989
 6554SOL    HW131295   3.466   2.984   6.348  1.2918  0.3032  0.4373
 6554SOL    HW231296   3.522   3.071   6.242 -0.1759 -0.3875 -0.2332
 6555SOL     OW31297   3.212   2.877   1.666 -0.5329  0.2969  0.2491
 6555SOL    HW131298   3.175   2.918   1.588  1.5776 -0.7866 -1.3259
 6555SOL    HW231299   3.214   2.942   1.736  1.1988 -0.6352  1.0552
 6556SOL     OW31300   0.110   4.434   0.256  0.1309  0.8868  0.2310
 6556SOL    HW131301   0.039   4.369   0.250  2.6407 -1.7803 -0.2704
 6556SOL    HW231302   0.154   4.396   0.332 -0.7920  0.3042  0.4760
 6557SOL     OW31303   1.066   2.996   2.931 -0.3128  0.4202  0.3966
 6557SOL    HW131304   1.157   2.974   2.950 -1.0164 -3.3560 -0.5314
 6557SOL    HW231305   1.062   2.987   2.836  0.9978 -0.8830  0.4629
 6558SOL     OW31306   0.782   2.465   4.109 -0.4849  0.9661 -0.8367
 6558SOL    HW131307   0.863   2.422   4.085 -0.7938 -0.2422  0.2569
 6558SOL    HW231308   0.736   2.487   4.028 -1.4331  2.4695  0.1035
 6559SOL     OW31309   3.402   0.183   7.030  0.0954  0.1239 -0.4625
 6559SOL    HW131310   3.487   0.200   7.071 -0.4370  0.7889  0.3722
 6559SOL    HW231311   3.349   0.129   7.088 -2.1989  1.8705 -0.9454
 6560SOL     OW31312   0.820   1.485   2.312 -0.1812  0.2870  0.1528
 6560SOL    HW131313   0.873   1.417   2.269  0.3039  0.4596  0.4754
 6560SOL    HW231314   0.781   1.438   2.386 -1.3719  0.6131 -0.2761
 6561SOL     OW31315   2.592   4.208   3.734  0.4122 -0.2748  0.4823
 6561SOL    HW131316   2.616   4.118   3.755 -0.0179 -0.4151  0.3781
 6561SOL    HW231317   2.513   4.188   3.684  0.1832  0.9405  0.3535
 6562SOL     OW31318   4.723   4.208   1.508 -0.1447  0.3085  0.3518
 6562SOL    HW131319   4.681   4.156   1.576  1.6284 -0.7548  0.6103
 6562SOL    HW231320   0.073   4.176   1.534 -0.7897 -1.0149  0.8882
 6563SOL     OW31321   1.297   4.630   2.454  0.3736 -0.2075 -0.4623
 6563SOL    HW131322   1.301   4.723   2.433  0.7780  0.2912  1.8089
 6563SOL    HW231323   1.211   4.602   2.423  0.2935  0.0117 -0.4351
 6564SOL     OW31324   3.892   2.553   3.502 -0.3101  0.1426 -0.5975
 6564SOL    HW131325   3.848   2.525   3.421  1.9870 -1.1985 -1.3784
 6564SOL    HW231326   3.952   2.481   3.518 -0.4019 -0.1504 -1.5516
 6565SOL     OW31327   3.662   1.799   4.904 -0.1008 -0.2350 -0.5190
 6565SOL    HW131328   3.634   1.758   4.822  1.1784 -0.2810 -0.9285
 6565SOL    HW231329   3.651   1.732   4.971  1.1040  1.0389  0.9722
 6566SOL     OW31330   3.060   3.849  11.649 -0.6352  0.2199  0.0822
 6566SOL    HW131331   3.129   3.858  11.714 -0.0884  1.6771 -0.6945
 6566SOL    HW231332   3.009   3.786  11.700  0.2563  0.6566  1.5190
 6567SOL     OW31333   3.834   3.277   3.793  0.8386  0.0548 -0.5228
 6567SOL    HW131334   3.850   3.339   3.864  1.2354 -0.2009 -0.3865
 6567SOL    HW231335   3.754   3.230   3.818  2.1837 -1.7607  0.3575
 6568SOL     OW31336   1.014   3.837   3.714  0.2880 -0.0591  0.2464
 6568SOL    HW131337   1.093   3.857   3.664  0.5190 -2.4473 -0.3069
 6568SOL    HW231338   1.026   3.896   3.788 -1.3095  1.0326 -0.3532
 6569SOL     OW31339   1.935   3.571  12.252 -0.4550  0.5226 -0.0825
 6569SOL    HW131340   1.928   3.541  12.343  1.1387 -1.6423 -0.6919
 6569SOL    HW231341   1.923   3.663  12.274 -2.1520  0.4403 -0.6510
 6570SOL     OW31342   0.914   1.976   4.715  1.1591  0.0164 -0.7701
 6570SOL    HW131343   0.869   1.905   4.670 -0.0404 -0.5002  1.2251
 6570SOL    HW231344   0.859   2.054   4.709  1.9409  0.5092 -1.5763
 6571SOL     OW31345   3.231   1.474   8.405 -0.4507 -0.3459 -0.9572
 6571SOL    HW131346   3.220   1.392   8.454 -0.2946 -0.0280 -0.3859
 6571SOL    HW231347   3.145   1.512   8.423  0.4322  0.5479  1.3634
 6572SOL     OW31348   0.863   0.576   5.021 -0.0657 -0.6328  0.3467
 6572SOL    HW131349   0.868   0.558   5.115  1.2357 -1.3835  0.1360
 6572SOL    HW231350   0.820   0.498   4.986 -0.1991 -0.0022 -0.8501
 6573SOL     OW31351   3.276   0.137   1.162  0.2259  0.7316 -0.2381
 6573SOL    HW131352   3.242   0.090   1.086  0.2127  1.5987 -0.7632
 6573SOL    HW231353   3.212   0.208   1.160 -0.5991  0.0431  1.0112
 6574SOL     OW31354   2.202   2.211   8.106  1.0944  0.1760 -0.2960
 6574SOL    HW131355   2.261   2.256   8.045  1.3324 -0.6844 -0.6980
 6574SOL    HW231356   2.161   2.150   8.045 -0.3708  0.0282  0.8433
 6575SOL     OW31357   1.671   0.023   5.914 -0.0049 -0.2328  0.2583
 6575SOL    HW131358   1.672   4.677   5.961 -0.3506 -0.2631  0.2154
 6575SOL    HW231359   1.612   0.079   5.966 -1.1684  0.3959 -1.7243
 6576SOL     OW31360   1.464   3.204   3.479 -0.0670 -0.1914  0.6195
 6576SOL    HW131361   1.416   3.137   3.528 -0.9844  0.9840  1.3398
 6576SOL    HW231362   1.545   3.153   3.483  0.9997  1.3792 -1.0991
 6577SOL     OW31363   0.506   1.386   4.668  0.1860  0.2517  0.3002
 6577SOL    HW131364   0.415   1.394   4.639 -0.3430  1.1309  2.1753
 6577SOL    HW231365   0.514   1.471   4.711  1.7225  0.8353 -1.1176
 6578SOL     OW31366   1.637   0.342  13.237  0.0955  0.0646  0.0190
 6578SOL    HW131367   1.625   0.271  13.300 -1.2868 -1.1042 -1.5617
 6578SOL    HW231368   1.731   0.350  13.225  0.4930 -0.8311  2.6577
 6579SOL     OW31369   0.193   2.449  10.560  0.2016  0.2159  0.0193
 6579SOL    HW131370   0.117   2.499  10.530  0.4237 -0.1480 -1.1594
 6579SOL    HW231371   0.186   2.443  10.655  3.2172 -4.4275 -0.0135
 6580SOL     OW31372   0.616   0.294   1.983 -0.2328  0.0675  0.1016
 6580SOL    HW131373   0.656   0.360   2.040  1.3102  1.0399 -2.1387
 6580SOL    HW231374   0.562   0.259   2.054  0.8812 -1.7017  0.0636
 6581SOL     OW31375   2.749   0.796   5.124 -0.3704  0.8036 -0.5449
 6581SOL    HW131376   2.715   0.775   5.037  0.3314  1.3292 -0.9513
 6581SOL    HW231377   2.790   0.714   5.150  0.1976  1.4001  0.4496
 6582SOL     OW31378   0.392   1.114   6.013  0.1115 -0.3353  0.6402
 6582SOL    HW131379   0.462   1.179   5.999 -0.4190 -0.3840 -2.2947
 6582SOL    HW231380   0.365   1.089   5.924 -1.0078 -0.5334  1.0413
 6583SOL     OW31381   3.523   4.329   8.821  0.1625 -0.2278  0.0206
 6583SOL    HW131382   3.566   4.253   8.860 -0.3153  0.2981  1.5594
 6583SOL    HW231383   3.494   4.284   8.741  1.8838 -0.0561 -0.6939
 6584SOL     OW31384   4.664   2.118  17.494  0.4770 -0.2803  0.0393
 6584SOL    HW131385   4.667   2.095  17.401  0.8975  0.6932 -0.1899
 6584SOL    HW231386   4.654   2.212  17.477 -0.9174 -0.1620  1.5137
 6585SOL     OW31387   0.725   1.276   7.202 -0.4870  0.5056  0.0162
 6585SOL    HW131388   0.672   1.209   7.160 -1.4250  0.9623  0.4578
 6585SOL    HW231389   0.788   1.307   7.137  1.3059 -0.0941  1.4970
 6586SOL     OW31390   3.764   1.980  11.773  0.0614 -0.5021  0.0854
 6586SOL    HW131391   3.762   1.894  11.816 -0.3586 -0.3239  0.4230
 6586SOL    HW231392   3.678   2.011  11.802 -0.0262 -1.2454  0.6441
 6587SOL     OW31393   0.630   3.540   7.576  0.1184  0.2689  0.4084
 6587SOL    HW131394   0.634   3.446   7.560 -1.6901  0.1434  0.6710
 6587SOL    HW231395   0.537   3.548   7.599 -0.1789 -0.4624 -0.5456
 6588SOL     OW31396   4.610   4.013   6.199  0.8002  0.2888  0.2019
 6588SOL    HW131397   4.626   4.069   6.275 -1.9812  0.1235  0.9105
 6588SOL    HW231398   4.691   4.024   6.149  1.9079 -0.6287  1.8187
 6589SOL     OW31399   2.915   1.076  12.077 -0.3523 -0.5654  0.1179
 6589SOL    HW131400   2.908   0.988  12.041 -1.1432  0.6763 -2.7569
 6589SOL    HW231401   2.846   1.079  12.144 -1.0972 -0.5515 -0.6559
 6590SOL     OW31402   0.759   0.021   5.571 -0.0282 -0.4267  0.2314
 6590SOL    HW131403   0.830   0.082   5.554 -0.1209 -0.6365 -0.8868
 6590SOL    HW231404   0.724   0.005   5.483 -0.6127 -0.0816  0.3977
 6591SOL     OW31405   1.809   0.340  11.667 -0.2249 -0.0542 -0.5939
 6591SOL    HW131406   1.817   0.392  11.747  2.3966 -0.7514 -0.3860
 6591SOL    HW231407   1.865   0.392  11.610  2.0554  0.0827  1.7450
 6592SOL     OW31408   2.215   0.792  10.193  0.1708 -0.5526  0.5626
 6592SOL    HW131409   2.304   0.759  10.178  0.1130 -1.2484  1.7481
 6592SOL    HW231410   2.212   0.868  10.135  0.6644 -0.6708  0.3827
 6593SOL     OW31411   1.476   0.967   6.870  0.3696 -0.3923  0.3349
 6593SOL    HW131412   1.424   0.981   6.949  0.9404 -2.0084  0.9930
 6593SOL    HW231413   1.514   1.054   6.864 -0.0572 -0.1861  0.5790
 6594SOL     OW31414   3.198   2.577   6.746 -0.8764  0.1317  0.2321
 6594SOL    HW131415   3.120   2.567   6.800  0.2285  0.2178  1.8645
 6594SOL    HW231416   3.248   2.496   6.754 -0.5891  0.2658 -0.2193
 6595SOL     OW31417   2.572   2.453   0.876 -0.5546  0.4645 -0.1272
 6595SOL    HW131418   2.648   2.460   0.935 -0.9522 -0.6423  0.5157
 6595SOL    HW231419   2.512   2.423   0.944  1.7487 -0.9547  1.3070
 6596SOL     OW31420   1.505   0.725   0.659  0.0834 -0.0314  0.5741
 6596SOL    HW131421   1.580   0.666   0.662 -0.8798 -1.0998  3.0287
 6596SOL    HW231422   1.545   0.811   0.675 -1.7522  0.7809  0.7387
 6597SOL     OW31423   0.318   1.277   3.490  0.3530  0.3982 -0.6742
 6597SOL    HW131424   0.316   1.275   3.585  1.6821  1.7224 -0.6256
 6597SOL    HW231425   0.410   1.302   3.480  0.0036  1.4482 -1.2807
 6598SOL     OW31426   1.908   0.465   5.878  0.1854 -0.5324  0.3850
 6598SOL    HW131427   1.871   0.385   5.916  1.8364 -0.7673  1.4916
 6598SOL    HW231428   1.854   0.528   5.925  1.8508 -0.2888  1.9804
 6599SOL     OW31429   2.786   2.912   7.340  0.1493  0.0342  0.2586
 6599SOL    HW131430   2.836   2.921   7.259  0.8178  2.7166  0.9917
 6599SOL    HW231431   2.813   2.991   7.386 -2.0580  0.3353  1.0796
 6600SOL     OW31432   1.893   4.050  17.354  0.2540 -0.1572  0.0382
 6600SOL    HW131433   1.866   4.138  17.381  0.5742 -0.3958  1.1234
 6600SOL    HW231434   1.816   4.032  17.301 -0.6725  2.9967  0.2994
 6601SOL     OW31435   2.923   1.825   2.014 -0.5877 -0.0352 -0.2969
 6601SOL    HW131436   2.888   1.914   2.008 -3.4878 -1.2689 -1.5983
 6601SOL    HW231437   2.960   1.820   2.102 -0.3925 -0.6876 -0.4110
 6602SOL     OW31438   4.437   2.228   3.881 -0.0843  0.1229 -0.1999
 6602SOL    HW131439   4.433   2.314   3.839 -1.0279 -0.3665 -1.1213
 6602SOL    HW231440   4.520   2.249   3.923  0.5551 -0.8075 -0.9865
 6603SOL     OW31441   2.742   3.248  11.538 -0.1053  0.5560  0.5732
 6603SOL    HW131442   2.733   3.325  11.594  1.1376 -0.0261  1.5793
 6603SOL    HW231443   2.682   3.264  11.465  0.2649  0.4095  0.2347
 6604SOL     OW31444   4.379   2.198   4.829 -0.1098 -0.2123 -0.0940
 6604SOL    HW131445   4.358   2.109   4.856 -0.2718  0.1203  0.8659
 6604SOL    HW231446   4.313   2.227   4.766 -0.2659 -1.2659 -0.4194
 6605SOL     OW31447   1.439   3.226  13.675 -0.3231  0.2393 -0.1640
 6605SOL    HW131448   1.411   3.183  13.756  3.4581 -1.6922  0.0905
 6605SOL    HW231449   1.516   3.173  13.654  0.5504  1.5902 -0.4019
 6606SOL     OW31450   1.331   2.372   9.356  0.2112 -0.0435 -0.4930
 6606SOL    HW131451   1.332   2.460   9.396  0.3933  0.2781 -1.2125
 6606SOL    HW231452   1.297   2.377   9.267 -0.9923 -2.0029 -0.1447
 6607SOL     OW31453   3.871   2.727   5.034  0.2803 -0.6611 -0.1965
 6607SOL    HW131454   3.908   2.815   5.027 -1.7297  0.3026  1.5598
 6607SOL    HW231455   3.875   2.699   4.942  0.8639  0.6599 -0.5651
 6608SOL     OW31456   2.342   0.823   9.475 -0.6845  0.1392  0.6231
 6608SOL    HW131457   2.383   0.737   9.473 -0.5225  0.2071  0.9882
 6608SOL    HW231458   2.381   0.854   9.394 -1.3655  0.4047  0.3951
 6609SOL     OW31459   3.634   2.722   6.681 -0.0228  0.3922 -0.3384
 6609SOL    HW131460   3.543   2.752   6.683 -0.6867 -1.5473 -1.1252
 6609SOL    HW231461   3.628   2.652   6.616  1.6662  0.2890 -0.3783
 6610SOL     OW31462   1.717   2.192   9.196 -0.6851  0.3587  0.3670
 6610SOL    HW131463   1.682   2.181   9.108 -1.4113 -0.5502  0.7696
 6610SOL    HW231464   1.811   2.176   9.188 -0.3954  2.1959 -0.0211
 6611SOL     OW31465   3.150   3.648  10.212  0.3662  0.1282  0.1112
 6611SOL    HW131466   3.089   3.645  10.138 -0.6444 -1.3975  1.0017
 6611SOL    HW231467   3.155   3.556  10.238  2.0754  0.6395  1.6167
 6612SOL     OW31468   1.278   2.576  14.296  0.2419 -0.1235 -0.3629
 6612SOL    HW131469   1.226   2.607  14.369 -2.6101  0.3301 -2.6006
 6612SOL    HW231470   1.311   2.494  14.334  0.6140 -0.7129 -1.9100
 6613SOL     OW31471   4.088   0.029   6.002 -0.6271  0.2882 -0.1331
 6613SOL    HW131472   4.146   0.103   6.019 -0.1897 -0.1908  0.4523
 6613SOL    HW231473   4.136   4.720   5.933 -1.5161  0.0908 -0.6165
 6614SOL     OW31474   1.328   0.994   3.663 -0.1350 -0.3566  0.6287
 6614SOL    HW131475   1.423   1.000   3.649 -0.1795 -1.3311 -0.1197
 6614SOL    HW231476   1.287   1.020   3.580 -0.7492  0.1471  1.0968
 6615SOL     OW31477   2.562   2.376   7.267 -0.3140  0.3967 -0.2056
 6615SOL    HW131478   2.496   2.308   7.279  2.0527 -2.2115 -2.2001
 6615SOL    HW231479   2.592   2.354   7.179  0.4845  1.5955 -0.2312
 6616SOL     OW31480   4.404   1.382   2.089 -0.0520 -0.2761  0.2170
 6616SOL    HW131481   4.457   1.455   2.121  1.4355 -1.7613  1.1359
 6616SOL    HW231482   4.425   1.317   2.156  1.6140 -1.3379 -1.3340
 6617SOL     OW31483   2.877   3.572  17.070 -0.0325 -0.4828  0.1485
 6617SOL    HW131484   2.912   3.499  17.121 -2.4383 -2.0141 -0.4238
 6617SOL    HW231485   2.855   3.524  16.990 -2.5119 -3.6159  2.7429
 6618SOL     OW31486   1.512   1.528   6.911  0.4065  0.1877  0.6024
 6618SOL    HW131487   1.533   1.456   6.970  0.2469  0.0753  0.5210
 6618SOL    HW231488   1.452   1.577   6.967  1.4972 -0.0769  1.9800
 6619SOL     OW31489   4.489   4.690   2.648 -0.1566  0.1585  0.1469
 6619SOL    HW131490   4.576   4.695   2.608 -1.2225  2.3814 -1.8624
 6619SOL    HW231491   4.521   4.724   2.731  0.1460 -0.6579  0.3674
 6620SOL     OW31492   1.496   0.240   3.853  0.0943 -0.4047  0.0898
 6620SOL    HW131493   1.555   0.185   3.801  1.4879  0.0760  1.1566
 6620SOL    HW231494   1.540   0.323   3.835  1.4932 -1.1494  0.0994
 6621SOL     OW31495   2.059   1.823  16.017 -0.3370 -0.7779  0.2693
 6621SOL    HW131496   2.150   1.799  16.038 -0.3338 -1.1052 -0.1104
 6621SOL    HW231497   2.030   1.851  16.104 -0.9816  3.0831 -1.1866
 6622SOL     OW31498   2.213   0.643   2.996 -0.4632  0.0257  0.6177
 6622SOL    HW131499   2.238   0.606   2.911 -0.0957  1.9413 -0.1180
 6622SOL    HW231500   2.149   0.581   3.029  0.0843  0.9990  3.4921
 6623SOL     OW31501   3.570   3.097   5.620  0.1994 -0.4138 -0.8972
 6623SOL    HW131502   3.602   3.148   5.545  1.0933  0.1775 -0.1067
 6623SOL    HW231503   3.645   3.047   5.652 -1.2566 -2.4597 -0.6583
 6624SOL     OW31504   0.499   0.651   8.051  0.2380 -0.4193 -0.0180
 6624SOL    HW131505   0.500   0.738   8.092  2.7473  0.1017 -1.1526
 6624SOL    HW231506   0.561   0.607   8.109  1.2107 -0.5047 -1.1248
 6625SOL     OW31507   0.880   0.269   6.067 -0.2743  0.0749 -0.6000
 6625SOL    HW131508   0.957   0.309   6.026 -0.6494  0.2186 -1.1659
 6625SOL    HW231509   0.914   0.222   6.143  1.0379 -0.4810 -1.5325
 6626SOL     OW31510   2.347   3.878   2.941 -0.7582 -0.4256  0.2203
 6626SOL    HW131511   2.300   3.945   2.891  0.2691  0.1065 -0.0130
 6626SOL    HW231512   2.408   3.843   2.877 -0.1309 -0.5009  0.8582
 6627SOL     OW31513   0.729   3.006   7.811 -0.1412 -0.0407  0.5593
 6627SOL    HW131514   0.728   3.005   7.715 -0.3400  2.0687  0.5422
 6627SOL    HW231515   0.795   2.949   7.850  0.8478 -0.4351 -1.6754
 6628SOL     OW31516   3.844   1.811   2.003 -0.0764 -0.5074  0.4464
 6628SOL    HW131517   3.884   1.833   1.919  0.1401 -1.9274  0.1742
 6628SOL    HW231518   3.922   1.778   2.048  0.5678 -0.0266 -0.3296
 6629SOL     OW31519   1.280   4.561   4.043 -0.4461 -0.4877 -0.1392
 6629SOL    HW131520   1.359   4.565   3.990 -1.2337  0.3796 -1.2563
 6629SOL    HW231521   1.267   4.654   4.065  0.7078 -0.6530  1.2020
 6630SOL     OW31522   0.338   2.713   1.154 -0.3581  0.2247 -0.2781
 6630SOL    HW131523   0.314   2.794   1.200 -1.8633 -0.4502  0.1464
 6630SOL    HW231524   0.399   2.743   1.087 -0.7088 -0.8100 -1.0534
 6631SOL     OW31525   3.275   1.944   5.248  0.1692 -0.0573  0.1367
 6631SOL    HW131526   3.195   1.932   5.298  0.6637 -2.0567  0.4451
 6631SOL    HW231527   3.328   1.961   5.326  2.3096  1.4117 -1.6145
 6632SOL     OW31528   3.181   2.421  16.649 -0.2983  0.2324 -0.1400
 6632SOL    HW131529   3.156   2.467  16.729  0.1849 -1.0029  0.7278
 6632SOL    HW231530   3.106   2.361  16.644 -1.5253  1.4332  3.2294
 6633SOL     OW31531   1.775   1.939   8.448  0.2277  0.2878  0.2379
 6633SOL    HW131532   1.708   2.000   8.417 -1.2601 -2.4667 -1.8671
 6633SOL    HW231533   1.833   2.011   8.475 -0.5751  1.3116 -0.8002
 6634SOL     OW31534   4.591   2.650   3.390  0.3465  0.0338 -0.0634
 6634SOL    HW131535   4.503   2.678   3.414  0.4471  0.2172  0.0984
 6634SOL    HW231536   4.589   2.568   3.439  0.4985 -1.1294 -2.0112
 6635SOL     OW31537   2.418   2.132   6.444 -0.2688  0.1851 -0.0004
 6635SOL    HW131538   2.371   2.162   6.366 -0.0028 -0.5965 -0.4612
 6635SOL    HW231539   2.371   2.056   6.477 -0.9861  0.0217 -1.3923
 6636SOL     OW31540   1.283   3.397   6.186  0.0739  0.4159 -0.1150
 6636SOL    HW131541   1.244   3.372   6.269  0.1395 -0.9462 -0.5075
 6636SOL    HW231542   1.213   3.435   6.134  0.7294  0.4995 -0.9400
 6637SOL     OW31543   2.216   0.099   4.251  0.2336 -0.4587  0.8342
 6637SOL    HW131544   2.290   0.087   4.191  0.0913 -2.1490  1.0089
 6637SOL    HW231545   2.160   0.150   4.192  0.3093 -1.1638  0.1524
 6638SOL     OW31546   3.949   3.796   8.271  0.5010  0.2892  0.2974
 6638SOL    HW131547   3.980   3.705   8.269  2.2712  0.8712  1.2467
 6638SOL    HW231548   3.957   3.815   8.365  1.3543  1.8826 -0.1063
 6639SOL     OW31549   3.474   2.289  15.055  0.0116 -0.3609  0.4266
 6639SOL    HW131550   3.556   2.253  15.087 -1.1304 -2.4233  1.0758
 6639SOL    HW231551   3.501   2.298  14.963 -1.2925  2.6117  0.3498
 6640SOL     OW31552   2.551   0.045   5.078 -0.3025 -0.7523 -0.0643
 6640SOL    HW131553   2.480   0.102   5.050  0.6629  1.6279  2.3576
 6640SOL    HW231554   2.580   0.007   4.994 -1.6289 -0.4123 -0.6793
 6641SOL     OW31555   3.111   2.416   4.380  0.0221  0.2397  0.3825
 6641SOL    HW131556   3.097   2.501   4.339  2.0115  0.1598 -0.4765
 6641SOL    HW231557   3.191   2.390   4.335 -0.3546  1.5145 -1.0180
 6642SOL     OW31558   2.998   2.803   6.551 -0.2726  0.1221 -0.3083
 6642SOL    HW131559   3.007   2.708   6.552  0.6278  0.2196  0.9986
 6642SOL    HW231560   2.910   2.810   6.514 -1.1786  0.3387  1.9010
 6643SOL     OW31561   2.015   4.244  14.939 -0.1710  0.3450  0.4878
 6643SOL    HW131562   2.028   4.207  14.852  0.0761 -1.4771  1.2874
 6643SOL    HW231563   2.085   4.308  14.937 -0.6528  0.8639  0.4055
 6644SOL     OW31564   3.913   1.164   0.954  0.0254 -0.4186 -0.0001
 6644SOL    HW131565   3.905   1.086   1.008  0.1154 -1.5759 -1.6734
 6644SOL    HW231566   3.973   1.223   1.000 -0.3386  2.4359 -3.1192
 6645SOL     OW31567   3.628   2.083   6.675  0.3038  0.2133 -0.7170
 6645SOL    HW131568   3.676   2.003   6.699 -2.5282 -0.7187  1.8208
 6645SOL    HW231569   3.564   2.043   6.616 -0.6313  0.2270  0.2851
 6646SOL     OW31570   4.643   1.605   8.350  0.1542  0.3309 -0.1827
 6646SOL    HW131571   4.643   1.676   8.414 -0.4797  1.5605 -1.5364
 6646SOL    HW231572   4.616   1.529   8.402 -0.5955  0.8104  0.1231
 6647SOL     OW31573   3.701   4.572   9.727  0.5889  0.3746  0.6180
 6647SOL    HW131574   3.768   4.604   9.788  0.2296 -2.1403  2.3003
 6647SOL    HW231575   3.627   4.630   9.745  0.1639  0.0235 -0.0050
 6648SOL     OW31576   2.963   0.672  16.145  0.7213 -0.2414 -0.2745
 6648SOL    HW131577   2.956   0.598  16.205  0.3474 -1.2539 -1.5723
 6648SOL    HW231578   3.055   0.668  16.119  0.3175 -0.5243 -1.6503
 6649SOL     OW31579   2.782   2.629   9.058  0.4168 -0.2584  0.2312
 6649SOL    HW131580   2.708   2.685   9.035  0.2692 -0.7812 -0.5580
 6649SOL    HW231581   2.729   2.555   9.087  2.0167 -0.2831  3.1492
 6650SOL     OW31582   2.708   3.586  16.027 -0.8013  0.4819 -0.0043
 6650SOL    HW131583   2.614   3.575  16.016 -0.4662 -0.5246 -1.8757
 6650SOL    HW231584   2.734   3.634  15.949 -0.1285  2.4481  1.4376
 6651SOL     OW31585   3.833   1.676  12.173  0.0780  0.1644 -0.0783
 6651SOL    HW131586   3.861   1.588  12.147 -2.0413 -1.0022  1.6523
 6651SOL    HW231587   3.741   1.673  12.147 -0.0103 -0.5899  0.3329
 6652SOL     OW31588   0.884   2.103   1.671 -0.0018 -0.0909  0.3855
 6652SOL    HW131589   0.973   2.069   1.674  0.1453  0.5236  2.7107
 6652SOL    HW231590   0.836   2.021   1.680  3.0566 -1.9403 -0.1195
 6653SOL     OW31591   1.435   0.673   4.726 -0.1773 -0.2296 -0.0008
 6653SOL    HW131592   1.439   0.640   4.637  0.1086  0.8123 -0.3802
 6653SOL    HW231593   1.502   0.626   4.776 -0.2234  0.3530  0.6163
 6654SOL     OW31594   3.884   0.048  15.345  0.8063 -0.7295  0.1962
 6654SOL    HW131595   3.823   0.008  15.283 -0.6649 -0.0587  1.2071
 6654SOL    HW231596   3.946   4.713  15.357  1.0973 -1.0391 -3.2660
 6655SOL     OW31597   3.163   1.292  15.209 -0.2550  0.3817 -0.1471
 6655SOL    HW131598   3.140   1.330  15.293  0.2597 -0.6602  0.4766
 6655SOL    HW231599   3.161   1.198  15.228  0.4675  0.2586 -0.6508
 6656SOL     OW31600   3.031   4.098  15.262  0.6004  0.2681  0.4565
 6656SOL    HW131601   3.109   4.112  15.209 -0.5031  1.5947 -0.8303
 6656SOL    HW231602   2.987   4.021  15.226 -0.3678  1.8885 -1.8403
 6657SOL     OW31603   2.407   4.099   5.142  0.3891 -0.0772  0.2859
 6657SOL    HW131604   2.390   4.005   5.146  2.0300 -0.4372 -0.8977
 6657SOL    HW231605   2.327   4.151   5.129  0.7351  0.2425 -0.5545
 6658SOL     OW31606   2.963   2.019   5.130  0.0977 -0.2263 -0.4984
 6658SOL    HW131607   2.919   1.997   5.048 -1.6032  1.2801  0.0004
 6658SOL    HW231608   2.996   2.104   5.101  0.5380 -1.0177 -2.2842
 6659SOL     OW31609   0.085   2.846   4.411  0.1684  0.1641 -0.0745
 6659SOL    HW131610   0.094   2.755   4.384 -0.7970 -0.2328  0.9296
 6659SOL    HW231611   0.131   2.846   4.495 -1.0359 -2.4784  0.6046
 6660SOL     OW31612   2.348   0.302   5.564 -0.2387 -0.4638  0.4879
 6660SOL    HW131613   2.340   0.232   5.628  0.5246 -1.3823 -0.4075
 6660SOL    HW231614   2.424   0.348   5.599 -0.0824  1.0009 -1.7881
 6661SOL     OW31615   4.511   1.499   2.948 -0.4767 -0.1774 -0.0860
 6661SOL    HW131616   4.524   1.593   2.937 -1.3582 -0.3649 -2.8814
 6661SOL    HW231617   4.560   1.488   3.029  0.9876  1.6092 -0.7253
 6662SOL     OW31618   4.223   3.129  10.644 -0.1896  0.2900  0.5016
 6662SOL    HW131619   4.196   3.220  10.660 -0.4430  0.3631 -0.3198
 6662SOL    HW231620   4.307   3.123  10.689  0.6136  0.9454 -0.9259
 6663SOL     OW31621   4.072   0.368   3.915 -0.2039  0.2809 -0.4439
 6663SOL    HW131622   3.977   0.355   3.916 -0.2803  0.9647  2.4044
 6663SOL    HW231623   4.093   0.385   3.824 -1.1963  3.5504 -0.0711
 6664SOL     OW31624   0.467   2.575   1.397 -0.7011 -0.6427  0.1325
 6664SOL    HW131625   0.435   2.626   1.323 -0.5479 -1.2969 -0.3838
 6664SOL    HW231626   0.397   2.583   1.463 -0.5866  0.0304  0.1741
 6665SOL     OW31627   4.448   4.074   1.872 -0.4626 -0.1469 -0.6715
 6665SOL    HW131628   4.390   4.108   1.803 -2.7291 -1.4845  0.5686
 6665SOL    HW231629   4.394   3.999   1.898 -1.5337  0.3394 -1.4667
 6666SOL     OW31630   2.055   3.119   8.561 -0.3839 -0.2472 -0.0226
 6666SOL    HW131631   1.993   3.190   8.578  0.8392  1.0052 -0.8085
 6666SOL    HW231632   2.108   3.158   8.492  0.3398 -0.1019  0.6134
 6667SOL     OW31633   4.156   3.474  12.281  0.3011 -0.2520 -0.0059
 6667SOL    HW131634   4.164   3.566  12.306 -1.4544  0.0842 -0.6310
 6667SOL    HW231635   4.188   3.485  12.191 -0.9336 -1.9348 -0.6584
 6668SOL     OW31636   2.289   3.798   7.378 -0.0692  0.2115 -0.7008
 6668SOL    HW131637   2.246   3.774   7.296  1.7725 -0.5056 -1.4673
 6668SOL    HW231638   2.377   3.820   7.347 -0.2044  1.5878 -0.1348
 6669SOL     OW31639   1.692   1.135   5.418 -0.2762 -0.0144 -0.4523
 6669SOL    HW131640   1.659   1.113   5.331  1.2999  0.4444 -1.1538
 6669SOL    HW231641   1.724   1.050   5.449 -2.0108 -0.4916  0.0759
 6670SOL     OW31642   0.862   3.163  17.519 -0.0371 -0.1792  0.1134
 6670SOL    HW131643   0.814   3.083  17.538 -0.4200  0.9477  3.7703
 6670SOL    HW231644   0.901   3.172  17.606  1.0607 -0.9944 -0.2964
 6671SOL     OW31645   0.160   2.064   6.939  0.2179  0.2784  0.1777
 6671SOL    HW131646   0.216   2.093   7.011  0.6717 -0.8591  0.2829
 6671SOL    HW231647   0.183   2.122   6.866  0.9229  1.3597  1.2526
 6672SOL     OW31648   0.294   0.379   4.333 -0.4590 -0.3508 -1.0878
 6672SOL    HW131649   0.379   0.416   4.358  0.2175 -2.0653 -0.8548
 6672SOL    HW231650   0.276   0.333   4.415 -1.6037  3.3555  0.7163
 6673SOL     OW31651   3.924   2.719   9.124  0.4020 -0.4411 -0.4821
 6673SOL    HW131652   3.965   2.804   9.140  1.8597 -1.0695 -0.9194
 6673SOL    HW231653   3.846   2.748   9.075 -0.0028 -0.9649 -0.1504
 6674SOL     OW31654   1.390   1.388   6.698  0.3259 -1.1843 -0.3471
 6674SOL    HW131655   1.421   1.427   6.780 -2.0525 -0.3171  0.1435
 6674SOL    HW231656   1.471   1.349   6.663 -0.2757  0.1256 -3.1648
 6675SOL     OW31657   3.456   3.195  13.383 -0.1083 -0.4119  0.3772
 6675SOL    HW131658   3.550   3.180  13.375  0.3448  1.1460  2.6723
 6675SOL    HW231659   3.446   3.111  13.427 -0.1976 -1.1879 -1.1356
 6676SOL     OW31660   1.010   3.661   5.979  0.1527 -0.1194 -0.1290
 6676SOL    HW131661   0.998   3.576   6.021 -3.0832  0.2135 -0.3906
 6676SOL    HW231662   1.077   3.701   6.035 -1.6138  0.6932  1.3955
 6677SOL     OW31663   3.372   2.838  13.747  0.6540  0.3402  0.2038
 6677SOL    HW131664   3.421   2.868  13.824 -0.8778  2.5909  0.2963
 6677SOL    HW231665   3.288   2.824  13.791  1.1186  0.2082  1.0521
 6678SOL     OW31666   0.081   3.063   8.530  0.0668  0.5026  0.5021
 6678SOL    HW131667   0.043   3.009   8.599  3.0804  1.6731  3.0775
 6678SOL    HW231668   0.167   3.082   8.569  0.2361 -0.9310  0.8297
 6679SOL     OW31669   1.381   0.788   6.146  0.7155 -0.5003  0.8836
 6679SOL    HW131670   1.374   0.810   6.239  2.3180  2.9586  0.1992
 6679SOL    HW231671   1.429   0.706   6.152  0.6800 -0.7356 -1.8834
 6680SOL     OW31672   2.312   4.496   1.992 -0.6100  0.3960 -0.3773
 6680SOL    HW131673   2.289   4.480   1.901  2.0907 -1.4618 -0.7265
 6680SOL    HW231674   2.241   4.556   2.017 -2.9287 -0.7182 -4.3245
 6681SOL     OW31675   1.139   1.159   8.170  0.4545 -0.6663 -0.1176
 6681SOL    HW131676   1.193   1.081   8.183  2.3823  0.4791 -1.2210
 6681SOL    HW231677   1.117   1.132   8.081  0.0906  0.0869 -0.2524
 6682SOL     OW31678   0.443   3.973   6.252  0.1884 -0.4203 -0.1035
 6682SOL    HW131679   0.526   4.008   6.283  0.6138 -0.5478 -1.1033
 6682SOL    HW231680   0.390   3.966   6.332  0.3436 -2.8308 -0.2119
 6683SOL     OW31681   2.535   3.651   8.614 -0.2519  0.0453 -0.8257
 6683SOL    HW131682   2.525   3.691   8.700  2.5383 -3.3561  1.0911
 6683SOL    HW231683   2.581   3.716   8.560  1.8428 -0.9475 -0.2370
 6684SOL     OW31684   2.256   2.133   6.231  0.9286 -0.3869 -0.2125
 6684SOL    HW131685   2.237   2.134   6.138  1.7093 -1.0301 -0.3766
 6684SOL    HW231686   2.167   2.127   6.265  0.2088  2.6811 -1.5360
 6685SOL     OW31687   1.267   1.473   2.607  0.4131 -0.0539  0.0509
 6685SOL    HW131688   1.346   1.437   2.567  0.3571  0.1652 -0.2606
 6685SOL    HW231689   1.221   1.511   2.532 -0.4609 -3.4650 -1.1441
 6686SOL     OW31690   2.601   3.864   1.268 -0.2097 -0.0175  0.3046
 6686SOL    HW131691   2.664   3.876   1.197 -3.2061  0.3874 -2.3485
 6686SOL    HW231692   2.532   3.809   1.229  1.2974 -0.7173 -1.3835
 6687SOL     OW31693   3.708   4.397   5.503  0.0946 -0.8720 -0.8390
 6687SOL    HW131694   3.725   4.409   5.597 -1.1692  0.2302 -0.7565
 6687SOL    HW231695   3.764   4.322   5.483 -0.0874 -1.3291  0.3553
 6688SOL     OW31696   0.314   3.786   3.023  0.5738 -0.5155  0.4111
 6688SOL    HW131697   0.224   3.819   3.033  1.0003  0.4969  0.9097
 6688SOL    HW231698   0.329   3.735   3.102 -1.7864 -1.2308  0.4232
 6689SOL     OW31699   3.163   0.569   7.033 -0.0872 -0.3889 -0.2099
 6689SOL    HW131700   3.069   0.589   7.035  0.0372  0.2701 -1.1915
 6689SOL    HW231701   3.182   0.532   7.119 -1.5311 -1.4701 -0.3445
 6690SOL     OW31702   1.379   3.904   4.191 -0.1483 -0.2687 -0.8874
 6690SOL    HW131703   1.453   3.899   4.251 -1.1244  0.6335  0.4062
 6690SOL    HW231704   1.313   3.841   4.221 -0.6473  0.3156 -0.7422
 6691SOL     OW31705   3.907   4.246  13.985 -0.6025 -0.2808 -0.0907
 6691SOL    HW131706   3.974   4.230  14.051 -0.1605  0.4096 -0.3734
 6691SOL    HW231707   3.831   4.273  14.037 -0.3582 -0.4730  0.3732
 6692SOL     OW31708   2.262   0.731   5.780  0.4202 -0.4247  0.2397
 6692SOL    HW131709   2.197   0.661   5.777  1.1989 -1.1672  0.7948
 6692SOL    HW231710   2.325   0.708   5.711  0.2086  0.3878 -0.2357
 6693SOL     OW31711   1.775   0.260  16.845 -0.2110  0.6303 -1.0163
 6693SOL    HW131712   1.686   0.229  16.832  0.4812 -1.2720 -1.1211
 6693SOL    HW231713   1.828   0.188  16.811  0.4397  0.0546  1.2436
 6694SOL     OW31714   0.331   2.749  11.924  0.1590 -0.2313 -0.2253
 6694SOL    HW131715   0.383   2.741  12.003 -0.5389  0.7772  0.3325
 6694SOL    HW231716   0.328   2.842  11.901  1.0268  0.1977  1.4211
 6695SOL     OW31717   3.706   2.749   5.500 -0.1177 -0.2788 -0.0442
 6695SOL    HW131718   3.729   2.783   5.587 -0.1380 -2.0719  0.6553
 6695SOL    HW231719   3.792   2.717   5.472 -0.5308 -0.6363 -0.9090
 6696SOL     OW31720   3.879   0.331  10.499 -0.9815 -0.7318 -0.4081
 6696SOL    HW131721   3.846   0.379  10.575 -0.6063  1.4422 -1.6006
 6696SOL    HW231722   3.914   0.406  10.451 -0.9809 -1.7344 -1.9578
 6697SOL     OW31723   4.064   0.569   2.085 -0.5559 -0.0446 -1.0098
 6697SOL    HW131724   4.058   0.482   2.046 -1.6298 -0.0964 -0.7408
 6697SOL    HW231725   4.026   0.545   2.170 -1.0027 -1.0515 -1.4909
 6698SOL     OW31726   4.004   2.177   5.410 -0.3585 -0.5085 -0.0461
 6698SOL    HW131727   4.074   2.163   5.346 -1.7228  1.3528 -1.9117
 6698SOL    HW231728   3.968   2.260   5.381  1.5457 -0.0716 -1.1846
 6699SOL     OW31729   1.479   4.053  15.057  0.1947 -0.1325  0.4773
 6699SOL    HW131730   1.537   4.129  15.070 -0.3942  0.9359 -3.1443
 6699SOL    HW231731   1.491   4.042  14.962  2.6333  0.0905  0.7504
 6700SOL     OW31732   2.883   0.715   3.761  0.0684  0.2782 -0.4702
 6700SOL    HW131733   2.929   0.798   3.765  0.0905  0.3034 -1.4429
 6700SOL    HW231734   2.919   0.670   3.838  1.7998  2.5696  0.0368
 6701SOL     OW31735   0.957   1.004   3.038  0.5919 -0.0222  0.1958
 6701SOL    HW131736   1.047   1.037   3.044 -0.2319  2.1794  0.1673
 6701SOL    HW231737   0.945   0.994   3.132  0.4763 -2.7907 -0.1054
 6702SOL     OW31738   2.384   0.380   3.715 -0.2313 -0.1699 -0.2338
 6702SOL    HW131739   2.433   0.386   3.797  0.0133 -0.4492 -0.3580
 6702SOL    HW231740   2.446   0.413   3.649  0.3567 -2.8550 -1.0099
 6703SOL     OW31741   0.564   2.140   8.942 -0.0394 -0.2986  0.1409
 6703SOL    HW131742   0.493   2.198   8.969  0.0699  0.6606 -1.5899
 6703SOL    HW231743   0.600   2.107   9.024 -1.8090  1.0585  1.4655
 6704SOL     OW31744   2.774   4.466   4.533 -0.0810  0.6263  0.2725
 6704SOL    HW131745   2.825   4.403   4.585 -1.8848  1.0128  2.5293
 6704SOL    HW231746   2.750   4.530   4.601  0.6360  0.1796  0.9499
 6705SOL     OW31747   0.783   0.657   0.038 -0.1993  0.2504 -0.2905
 6705SOL    HW131748   0.799   0.751   0.041  0.8519  0.0761 -0.6738
 6705SOL    HW231749   0.721   0.645  17.711 -0.3204  1.4485 -0.3905
 6706SOL     OW31750   3.069   0.374   8.359  0.0653 -0.3089  0.0255
 6706SOL    HW131751   3.149   0.408   8.319  0.2194 -0.4400  0.2233
 6706SOL    HW231752   2.995   0.399   8.303 -2.3271 -0.4074  3.1836
 6707SOL     OW31753   0.958   4.569  13.137  0.0962 -0.2453 -0.4843
 6707SOL    HW131754   0.865   4.574  13.115 -0.0949 -1.3619  0.0306
 6707SOL    HW231755   0.984   4.658  13.116 -2.6747  0.6114 -0.2736
 6708SOL     OW31756   3.062   0.701  10.554  0.4445 -0.2048  0.2272
 6708SOL    HW131757   3.033   0.656  10.634 -0.9911  0.1169 -0.1173
 6708SOL    HW231758   3.155   0.677  10.560  0.6176  0.1957 -0.9341
 6709SOL     OW31759   1.211   3.283   5.201 -0.1294  0.2329 -0.6449
 6709SOL    HW131760   1.160   3.345   5.252 -1.7112  0.0928 -2.0675
 6709SOL    HW231761   1.290   3.333   5.182 -0.0314 -0.0826 -1.0625
 6710SOL     OW31762   3.956   0.968   9.092 -0.5598  0.0649  0.0440
 6710SOL    HW131763   3.905   1.005   9.165  0.2238 -0.1542  0.7078
 6710SOL    HW231764   3.933   1.038   9.031  0.2178 -1.0965 -1.5782
 6711SOL     OW31765   0.480   4.398   6.904  0.4700  0.5019  0.4556
 6711SOL    HW131766   0.556   4.440   6.862  0.3555  1.1883  0.9346
 6711SOL    HW231767   0.510   4.307   6.900 -0.0039  0.3227  0.9495
 6712SOL     OW31768   2.043   0.284  12.708 -0.4299  0.3273  1.0477
 6712SOL    HW131769   2.062   0.375  12.688 -3.4062  0.7872  0.3384
 6712SOL    HW231770   1.984   0.300  12.782 -0.0781 -0.4917  1.5056
 6713SOL     OW31771   2.085   0.296  16.977 -0.2080 -0.0583 -0.0034
 6713SOL    HW131772   2.015   0.233  16.994  0.3273 -0.5152  0.5230
 6713SOL    HW231773   2.162   0.241  16.992 -0.7470 -1.7158 -3.2907
 6714SOL     OW31774   0.173   3.934   9.250 -0.1097  0.2520  0.5150
 6714SOL    HW131775   0.085   3.897   9.258 -0.3120  0.5250 -0.4117
 6714SOL    HW231776   0.212   3.847   9.254  0.8355  0.5964 -1.2034
 6715SOL     OW31777   4.018   4.079   1.352  0.2153  1.0226  0.2577
 6715SOL    HW131778   4.029   4.170   1.326  1.6820  1.4821  2.3949
 6715SOL    HW231779   4.102   4.067   1.398  0.5860  3.1424  0.0925
 6716SOL     OW31780   4.074   2.342   7.240 -0.2435  0.2509 -0.3685
 6716SOL    HW131781   4.046   2.255   7.268  1.1288  0.1956  0.8341
 6716SOL    HW231782   4.003   2.370   7.182  0.8222  1.2298 -1.1845
 6717SOL     OW31783   3.237   3.839   9.689 -0.0872 -0.6227 -0.1731
 6717SOL    HW131784   3.210   3.917   9.737  3.7283  0.4018  0.3124
 6717SOL    HW231785   3.228   3.768   9.753  0.2433 -0.4828  0.0302
 6718SOL     OW31786   4.218   0.167   5.379 -0.0751  0.2694  0.0952
 6718SOL    HW131787   4.180   0.188   5.465  1.9466  1.5782  0.6601
 6718SOL    HW231788   4.160   0.097   5.348 -0.5751 -0.4295  2.6115
 6719SOL     OW31789   3.850   0.403   3.254 -0.2875 -0.1390  0.1291
 6719SOL    HW131790   3.841   0.465   3.181  1.6474  0.3241  0.2967
 6719SOL    HW231791   3.825   0.324   3.205 -1.4234  0.7859 -0.8088
 6720SOL     OW31792   2.345   3.766   0.406  0.0438  0.2845 -0.4491
 6720SOL    HW131793   2.338   3.722   0.322 -1.3562 -0.9623  0.3134
 6720SOL    HW231794   2.267   3.734   0.452  0.5807  2.1576  1.7641
 6721SOL     OW31795   4.635   1.342   8.513  0.1594 -0.1310  0.3677
 6721SOL    HW131796   4.623   1.258   8.469 -0.6897  1.1598 -1.8743
 6721SOL    HW231797   4.570   1.344   8.583 -2.0134 -0.8389 -1.6323
 6722SOL     OW31798   2.633   3.326   7.300  0.2098  0.2311 -0.3934
 6722SOL    HW131799   2.697   3.268   7.341 -1.2321 -1.6791 -0.8095
 6722SOL    HW231800   2.694   3.389   7.262  1.5876 -1.1707 -0.4838
 6723SOL     OW31801   2.238   1.135   5.180  0.1452  0.6577  0.2785
 6723SOL    HW131802   2.222   1.045   5.152 -2.1375  0.6515  1.5833
 6723SOL    HW231803   2.175   1.185   5.129 -0.8452 -0.2116  0.6593
 6724SOL     OW31804   2.335   1.710  10.052  0.4631  0.3936 -0.1018
 6724SOL    HW131805   2.278   1.673  10.119  3.0616 -1.6016  1.0125
 6724SOL    HW231806   2.278   1.778  10.017  0.1236 -0.1350 -0.5801
 6725SOL     OW31807   4.729   0.537   5.684 -0.6225  0.2279 -0.0148
 6725SOL    HW131808   4.690   0.558   5.599  0.7352 -0.3028 -0.7832
 6725SOL    HW231809   0.033   0.619   5.711  0.9387 -0.0484 -1.4972
 6726SOL     OW31810   3.473   0.941   1.467 -0.0400 -0.0058  0.4295
 6726SOL    HW131811   3.489   1.032   1.490  1.1886 -0.7034  2.3609
 6726SOL    HW231812   3.408   0.913   1.531  0.7080 -0.9534  0.7798
 6727SOL     OW31813   2.715   3.574   8.047 -0.0666  0.3322 -0.3648
 6727SOL    HW131814   2.730   3.480   8.054 -0.1969  0.3187 -0.2704
 6727SOL    HW231815   2.729   3.600   7.955 -0.7049 -2.8781 -1.3437
 6728SOL     OW31816   1.588   3.264   7.796  0.2210  0.3555  0.1143
 6728SOL    HW131817   1.557   3.340   7.746  0.4316 -0.9713 -2.0180
 6728SOL    HW231818   1.508   3.232   7.836  0.4541 -0.1510  0.1721
 6729SOL     OW31819   3.022   0.327   4.021  0.0147  0.0703 -0.9932
 6729SOL    HW131820   3.076   0.301   3.946  0.6892 -0.0091 -0.4845
 6729SOL    HW231821   2.963   0.252   4.023 -0.8903  0.8600  2.3382
 6730SOL     OW31822   4.307   1.920   4.914 -0.0788  0.4342  0.1468
 6730SOL    HW131823   4.250   1.959   4.981 -1.0273 -0.8008  0.0606
 6730SOL    HW231824   4.343   1.854   4.973 -1.6389 -1.8948 -1.5119
 6731SOL     OW31825   3.363   4.571   5.044  0.5643  0.0150  0.0091
 6731SOL    HW131826   3.319   4.622   5.112  1.9957 -0.0664  0.9849
 6731SOL    HW231827   3.358   4.631   4.970  0.8052  1.1546  0.9263
 6732SOL     OW31828   2.217   1.923  17.003 -0.5182 -0.6436 -0.0904
 6732SOL    HW131829   2.245   2.000  17.052  1.1594 -1.6502  0.5528
 6732SOL    HW231830   2.243   1.849  17.057  1.9460  1.2702  1.3439
 6733SOL     OW31831   4.624   3.105   1.575 -0.7953  0.0266 -0.3185
 6733SOL    HW131832   4.532   3.094   1.597 -1.1645  1.1324 -1.3484
 6733SOL    HW231833   4.623   3.065   1.489  0.8068 -0.8041  0.0357
 6734SOL     OW31834   0.647   4.230   8.780 -0.1713  0.5291 -0.4149
 6734SOL    HW131835   0.665   4.285   8.704 -0.6408  2.0206  0.5539
 6734SOL    HW231836   0.653   4.297   8.847 -0.7751 -0.1926  0.3681
 6735SOL     OW31837   3.413   1.736   2.334 -0.6009 -0.1158 -0.2387
 6735SOL    HW131838   3.497   1.781   2.326  0.1056 -1.1471  1.5823
 6735SOL    HW231839   3.429   1.670   2.267  1.6982 -0.5151  0.6865
 6736SOL     OW31840   1.012   0.696   6.198 -0.1204 -0.1779  0.2396
 6736SOL    HW131841   0.975   0.768   6.248  1.1182 -0.3049  1.3191
 6736SOL    HW231842   1.077   0.743   6.146  0.8354 -0.1391  1.4843
 6737SOL     OW31843   2.737   3.257   6.260  0.5158  0.2881  0.0764
 6737SOL    HW131844   2.749   3.350   6.244 -0.9661  0.3261 -0.8670
 6737SOL    HW231845   2.674   3.236   6.191 -0.1645 -2.1866  1.4464
 6738SOL     OW31846   0.512   1.190   1.860  0.4598 -0.2671 -0.3267
 6738SOL    HW131847   0.488   1.111   1.907 -0.7202  0.1619 -0.2152
 6738SOL    HW231848   0.462   1.184   1.778 -0.9613 -3.3782  0.7735
 6739SOL     OW31849   2.663   3.733  10.591 -0.0088  0.4537  0.1880
 6739SOL    HW131850   2.679   3.685  10.673  1.4334  2.5354  1.1496
 6739SOL    HW231851   2.666   3.818  10.637 -2.0689  0.0034  1.1243
 6740SOL     OW31852   0.734   1.755   7.393  0.1210  0.1964 -0.0845
 6740SOL    HW131853   0.812   1.803   7.363  0.2389 -0.8652 -1.4844
 6740SOL    HW231854   0.744   1.667   7.358 -0.5576 -0.0947  0.4625
 6741SOL     OW31855   0.666   2.293   2.407  0.1539 -0.0534  0.1929
 6741SOL    HW131856   0.749   2.282   2.361 -0.9534  0.6113 -1.9516
 6741SOL    HW231857   0.609   2.281   2.330  2.2683  2.6858 -1.7901
 6742SOL     OW31858   4.004   0.958   6.553  0.3326 -0.9120  0.1711
 6742SOL    HW131859   4.037   0.869   6.566  1.2115 -0.5109  0.6386
 6742SOL    HW231860   4.083   0.995   6.514  0.6705  1.5228  3.1591
 6743SOL     OW31861   2.161   1.377  15.229 -0.3702  0.3228  0.8237
 6743SOL    HW131862   2.084   1.362  15.173  0.7045  0.8138 -0.7891
 6743SOL    HW231863   2.144   1.316  15.301 -0.9536 -0.8387 -0.2956
 6744SOL     OW31864   0.191   0.015   2.788  0.6439 -0.4476  0.4313
 6744SOL    HW131865   0.255   4.684   2.763  2.2747  0.8378  1.1347
 6744SOL    HW231866   0.207   0.078   2.718 -0.2207  0.6974  1.2851
 6745SOL     OW31867   0.939   0.294   9.023  0.5029 -0.1334 -0.3377
 6745SOL    HW131868   0.943   0.244   8.942  3.0427 -2.9785  1.5289
 6745SOL    HW231869   1.031   0.317   9.036  0.4614 -1.7526  2.7435
 6746SOL     OW31870   0.089   4.349   8.999  0.1678 -0.1501  0.3258
 6746SOL    HW131871   0.162   4.394   8.958  2.6582 -3.6093  0.9539
 6746SOL    HW231872   0.125   4.308   9.078 -0.4631 -2.2636 -0.4805
 6747SOL     OW31873   4.029   1.244  12.198  0.3459  0.1767  0.3508
 6747SOL    HW131874   4.120   1.235  12.170 -0.2599  0.4839 -1.7641
 6747SOL    HW231875   3.997   1.309  12.134  1.5431 -0.9770 -1.3884
 6748SOL     OW31876   1.977   1.505   2.295  0.1682  0.5638  0.4841
 6748SOL    HW131877   1.973   1.532   2.386 -1.3606  1.2357  0.2167
 6748SOL    HW231878   1.997   1.582   2.241 -0.3894 -1.2674 -2.3691
 6749SOL     OW31879   1.479   4.545  11.944  0.0034  0.2755 -0.0764
 6749SOL    HW131880   1.469   4.582  12.032 -1.3012 -0.8996  0.2539
 6749SOL    HW231881   1.569   4.513  11.951 -0.4698 -0.6532  1.6220
 6750SOL     OW31882   1.505   2.579   8.614  0.7189 -0.3883  0.1958
 6750SOL    HW131883   1.475   2.614   8.530  0.4085 -0.8272  0.1229
 6750SOL    HW231884   1.597   2.605   8.615 -0.0847  2.4243  2.3830
 6751SOL     OW31885   0.304   4.021  12.624 -0.2829  0.1233  0.5604
 6751SOL    HW131886   0.227   4.065  12.661 -0.0677 -0.0332  1.1894
 6751SOL    HW231887   0.368   4.019  12.695  1.3320  0.6471 -0.8815
 6752SOL     OW31888   1.095   3.276   4.341  0.3805 -0.6419  0.3525
 6752SOL    HW131889   1.058   3.208   4.285 -2.3473 -0.9641  2.5450
 6752SOL    HW231890   1.066   3.359   4.303  1.5505 -0.4639 -0.1587
 6753SOL     OW31891   0.729   4.692   2.723 -0.1532 -0.3921 -0.2788
 6753SOL    HW131892   0.731   4.607   2.765  0.1408 -0.4526 -0.4112
 6753SOL    HW231893   0.789   0.002   2.781 -0.3466  0.3445 -0.6699
 6754SOL     OW31894   2.956   1.447   6.221 -0.2412 -0.1755 -0.3119
 6754SOL    HW131895   2.885   1.472   6.280  1.6037 -0.7163  2.1452
 6754SOL    HW231896   2.907   1.411   6.146  2.2348 -0.6691 -1.7124
 6755SOL     OW31897   2.806   0.879  11.964 -0.6235  0.6118 -0.2241
 6755SOL    HW131898   2.732   0.933  11.937 -1.2364  0.1788  0.6167
 6755SOL    HW231899   2.765   0.793  11.959  0.6592 -0.1554  2.5235
 6756SOL     OW31900   0.560   2.484   8.893 -0.8504 -0.3547 -0.4611
 6756SOL    HW131901   0.487   2.423   8.895 -0.2214 -1.1546 -1.4890
 6756SOL    HW231902   0.615   2.440   8.828 -1.4616  0.7006 -1.6889
 6757SOL     OW31903   3.904   2.184   2.560 -0.2252 -0.0304 -0.0260
 6757SOL    HW131904   3.833   2.187   2.624  0.1316 -0.4431  0.3970
 6757SOL    HW231905   3.861   2.129   2.494 -1.4429 -1.9281  2.3200
 6758SOL     OW31906   0.134   2.783  11.614  0.2399 -0.0942  0.0893
 6758SOL    HW131907   0.191   2.840  11.562  1.0515  1.5876  2.8339
 6758SOL    HW231908   0.186   2.705  11.631  0.8303  0.4078  0.5694
 6759SOL     OW31909   4.359   0.835   3.768  0.3398 -0.0931  0.3997
 6759SOL    HW131910   4.420   0.762   3.761 -0.0652 -0.5425  1.4607
 6759SOL    HW231911   4.276   0.787   3.760 -0.5016  1.4458 -0.0809
 6760SOL     OW31912   3.659   3.729   6.813  0.3960  0.4593 -0.0851
 6760SOL    HW131913   3.685   3.650   6.861  0.3677  0.7525  0.4112
 6760SOL    HW231914   3.708   3.720   6.731  0.3788 -2.0629  0.1956
 6761SOL     OW31915   2.326   4.585  15.251  0.3221 -0.3757 -0.2437
 6761SOL    HW131916   2.294   4.500  15.281  3.1779 -1.3038  0.1831
 6761SOL    HW231917   2.295   4.635  15.327 -0.7833 -2.9072  0.9754
 6762SOL     OW31918   1.085   1.046   4.598  0.0152 -0.1308 -0.3417
 6762SOL    HW131919   1.165   1.099   4.601 -1.3399  1.8972  0.2929
 6762SOL    HW231920   1.123   0.961   4.577  2.1497  0.5155  0.9681
 6763SOL     OW31921   0.803   2.369   5.288  0.1753  0.0576 -1.0407
 6763SOL    HW131922   0.773   2.278   5.286 -0.5762  0.2880 -0.0737
 6763SOL    HW231923   0.719   2.412   5.274 -1.0410 -2.3305 -0.9690
 6764SOL     OW31924   0.885   2.067  12.331 -0.4815 -0.1634 -0.7406
 6764SOL    HW131925   0.801   2.048  12.289 -0.1093 -1.5759 -0.8385
 6764SOL    HW231926   0.939   2.095  12.256 -0.0302 -0.4057 -0.5057
 6765SOL     OW31927   3.662   2.837   2.078 -0.2408  0.1403  0.2580
 6765SOL    HW131928   3.750   2.831   2.116 -1.1905  1.5788  2.6898
 6765SOL    HW231929   3.655   2.933   2.073 -0.2940  0.0798 -0.9971
 6766SOL     OW31930   4.021   3.224   4.847  0.4454 -0.2408 -0.3352
 6766SOL    HW131931   4.020   3.291   4.916 -2.3548  0.8907 -1.4850
 6766SOL    HW231932   3.936   3.249   4.813  0.5037 -1.0322 -1.0595
 6767SOL     OW31933   1.664   0.381   0.741  0.8879  0.2556  0.2053
 6767SOL    HW131934   1.671   0.340   0.655 -0.9723 -0.6577  0.4721
 6767SOL    HW231935   1.686   0.473   0.728 -0.5134  0.5570 -0.1232
 6768SOL     OW31936   4.199   4.244   3.544 -0.0667  0.0273  0.3033
 6768SOL    HW131937   4.251   4.316   3.510  2.2141 -2.2830 -1.0791
 6768SOL    HW231938   4.252   4.165   3.537  1.0238  0.6964  1.0771
 6769SOL     OW31939   0.685   0.397   7.349  0.3311 -0.4145 -0.6283
 6769SOL    HW131940   0.626   0.467   7.375  1.5723  0.5544 -0.3760
 6769SOL    HW231941   0.757   0.411   7.412 -0.0008  0.1546 -0.3748
 6770SOL     OW31942   1.760   3.634  10.220  0.0161 -0.4263 -0.4108
 6770SOL    HW131943   1.720   3.652  10.305 -1.5486 -0.5356 -1.1326
 6770SOL    HW231944   1.689   3.594  10.170 -0.6255  0.8655 -0.5448
 6771SOL     OW31945   2.787   3.378  16.785  0.2177 -0.1418  0.0619
 6771SOL    HW131946   2.877   3.408  16.774  0.8561 -1.2124  2.3836
 6771SOL    HW231947   2.743   3.462  16.792  0.1734 -0.1755  0.1780
 6772SOL     OW31948   2.069   0.025   4.454  0.0771  0.2961  0.6438
 6772SOL    HW131949   2.133   0.002   4.522  0.0367  0.7677  0.8443
 6772SOL    HW231950   2.126   0.041   4.379  0.1024 -2.7704  0.0090
 6773SOL     OW31951   3.614   4.521   5.100  0.3048  0.1940 -0.2871
 6773SOL    HW131952   3.519   4.537   5.100  0.7009  2.5611  0.6704
 6773SOL    HW231953   3.620   4.431   5.132  0.3222  0.7579  1.3043
 6774SOL     OW31954   0.175   1.571   0.405  0.4866 -0.7681 -0.4260
 6774SOL    HW131955   0.133   1.487   0.423 -0.5742 -0.3766 -1.1038
 6774SOL    HW231956   0.168   1.622   0.486  2.0178 -1.2088 -0.0081
 6775SOL     OW31957   1.052   2.479   2.439 -0.1898  0.2193 -0.2172
 6775SOL    HW131958   1.008   2.394   2.438  1.0705 -0.4359  0.7529
 6775SOL    HW231959   1.043   2.502   2.346 -1.2798  2.1518  0.3621
 6776SOL     OW31960   0.749   4.244   8.173 -0.1244  0.4122 -0.0063
 6776SOL    HW131961   0.734   4.280   8.085 -0.4675  1.8351  0.6364
 6776SOL    HW231962   0.663   4.202   8.177 -0.8645  1.7180 -2.1427
 6777SOL     OW31963   3.734   0.382   8.015  0.6074 -0.8253 -0.1846
 6777SOL    HW131964   3.729   0.353   8.106  0.5523 -2.7849 -0.8164
 6777SOL    HW231965   3.778   0.467   8.023 -2.8466  0.7366  2.1515
 6778SOL     OW31966   1.673   1.376   4.163  0.2123  0.0478  0.0317
 6778SOL    HW131967   1.596   1.381   4.106  0.3308  0.8448 -0.0576
 6778SOL    HW231968   1.749   1.390   4.105  0.6565  1.5785  0.9815
 6779SOL     OW31969   3.654   2.476   4.350 -0.2379  0.0962  0.4082
 6779SOL    HW131970   3.686   2.454   4.262  0.6668 -1.8816  1.2210
 6779SOL    HW231971   3.731   2.451   4.401 -0.3412 -1.7158 -0.3061
 6780SOL     OW31972   0.988   0.702   4.621 -0.0666  0.0644  0.1139
 6780SOL    HW131973   1.078   0.683   4.647  0.5804  0.7750 -1.6210
 6780SOL    HW231974   0.979   0.773   4.685 -0.6055  1.1172 -1.1308
 6781SOL     OW31975   3.598   1.405   1.319 -0.0933  0.5452 -0.4698
 6781SOL    HW131976   3.568   1.393   1.229  3.0846 -1.2786 -1.2639
 6781SOL    HW231977   3.685   1.365   1.317  0.2517  1.3673 -1.5171
 6782SOL     OW31978   1.493   0.627  17.635 -0.7009  0.5581 -0.1620
 6782SOL    HW131979   1.417   0.569  17.632  0.9656 -1.4945 -1.9804
 6782SOL    HW231980   1.550   0.564  17.678  0.3346  1.7777  0.2473
 6783SOL     OW31981   2.001   1.735   6.414  0.3175 -0.8777 -0.5154
 6783SOL    HW131982   2.087   1.701   6.439 -0.0329 -1.2780  0.1199
 6783SOL    HW231983   1.980   1.666   6.351  0.0613 -0.5615 -0.7773
 6784SOL     OW31984   3.069   3.169   8.353 -0.1692  0.2515 -0.1440
 6784SOL    HW131985   3.114   3.248   8.381  2.4971 -1.6890  1.0522
 6784SOL    HW231986   3.085   3.168   8.258 -0.2691 -0.2904 -0.1553
 6785SOL     OW31987   0.042   0.004   6.271  0.3643 -0.2849 -0.1396
 6785SOL    HW131988   0.093   4.707   6.344 -1.6306 -1.0026  0.9407
 6785SOL    HW231989   0.110   0.057   6.231  0.8362  0.0574  1.1032
 6786SOL     OW31990   1.607   4.576   6.743 -0.1726  0.0969 -0.3336
 6786SOL    HW131991   1.587   4.622   6.662  2.1669  0.8842 -0.4808
 6786SOL    HW231992   1.657   4.648   6.781 -1.2777  0.0014  1.2734
 6787SOL     OW31993   0.211   0.556   3.435  0.4936 -0.0775 -0.3837
 6787SOL    HW131994   0.306   0.567   3.431  0.2666  1.2158 -2.3251
 6787SOL    HW231995   0.168   0.633   3.399 -1.5545 -0.9769  0.1465
 6788SOL     OW31996   3.020   2.678   6.189  0.1536 -0.6748  0.3519
 6788SOL    HW131997   2.944   2.699   6.135  1.2090  1.8997 -0.1447
 6788SOL    HW231998   3.045   2.765   6.221  0.9414 -0.3764 -1.0480
 6789SOL     OW31999   4.148   0.005   9.494 -0.4739  0.4418 -0.0128
 6789SOL    HW132000   4.225   0.007   9.438 -0.6900 -2.6015 -0.3867
 6789SOL    HW232001   4.190   0.038   9.573  0.9379  0.9250 -0.9676
 6790SOL     OW32002   2.451   0.797   1.993 -0.4216  0.4536  0.0846
 6790SOL    HW132003   2.377   0.746   2.028  1.5077 -1.1336  1.8825
 6790SOL    HW232004   2.522   0.784   2.056 -0.0157  3.3495  0.2160
 6791SOL     OW32005   0.114   2.629   7.671 -0.0679  0.4550  0.1590
 6791SOL    HW132006   0.040   2.683   7.642  0.8084  1.4938 -0.1436
 6791SOL    HW232007   0.068   2.545   7.663 -0.5844  0.9722 -2.2529
 6792SOL     OW32008   3.753   2.040   9.055 -0.3888 -0.1714 -0.1770
 6792SOL    HW132009   3.807   1.968   9.021 -0.6123 -2.1631  3.7222
 6792SOL    HW232010   3.775   2.043   9.148  1.3948  0.9511 -0.6289
 6793SOL     OW32011   3.386   1.740   1.065 -0.5418  0.1594 -0.5800
 6793SOL    HW132012   3.433   1.657   1.070 -0.6465  0.2468  2.1434
 6793SOL    HW232013   3.442   1.788   1.004 -1.7940  2.4726  0.0865
 6794SOL     OW32014   2.624   0.116  13.679  0.3050 -0.4626  0.4027
 6794SOL    HW132015   2.599   0.032  13.640  0.0300 -0.1488 -0.0874
 6794SOL    HW232016   2.713   0.123  13.645 -0.4727 -2.0774 -1.9994
 6795SOL     OW32017   0.474   1.973   6.383 -0.0458 -0.5537  0.0528
 6795SOL    HW132018   0.455   2.066   6.366 -2.3829 -1.3058 -1.4027
 6795SOL    HW232019   0.446   1.961   6.473  0.0119 -1.2826 -0.0284
 6796SOL     OW32020   1.340   4.021   3.966 -0.1530 -0.2843 -0.2812
 6796SOL    HW132021   1.385   4.103   3.986  1.2393 -1.3712  1.0363
 6796SOL    HW232022   1.352   3.981   4.052 -2.6250 -0.4430  0.0100
 6797SOL     OW32023   4.304   2.050   2.760 -0.0393 -0.1521  0.0289
 6797SOL    HW132024   4.259   1.983   2.811 -0.6160  0.5758  0.4775
 6797SOL    HW232025   4.356   2.097   2.825 -1.1248  0.2123  0.6318
 6798SOL     OW32026   1.298   4.034   5.561  0.2730  0.1701 -0.1523
 6798SOL    HW132027   1.290   3.942   5.585  1.0036  0.4173  0.9950
 6798SOL    HW232028   1.379   4.035   5.510  1.1354 -0.1740  1.2209
 6799SOL     OW32029   2.566   4.433   0.127  0.0120  0.0976  0.2246
 6799SOL    HW132030   2.588   4.349   0.167 -0.1996 -0.6497 -1.2342
 6799SOL    HW232031   2.648   4.482   0.116 -1.0609  2.0019  0.7640
 6800SOL     OW32032   0.908   1.031  12.929  0.2684 -0.3764  0.0232
 6800SOL    HW132033   0.984   1.008  12.877 -0.1038  0.5935 -0.9341
 6800SOL    HW232034   0.905   1.123  12.904  0.6537 -0.2078  0.5897
 6801SOL     OW32035   1.345   1.184   4.120  0.0065  0.0898 -0.0630
 6801SOL    HW132036   1.344   1.137   4.036 -2.1297  2.4153 -1.3416
 6801SOL    HW232037   1.373   1.274   4.102 -1.2521  0.0795 -2.1158
 6802SOL     OW32038   3.538   0.827   0.735  0.0208  0.2335 -0.4600
 6802SOL    HW132039   3.573   0.906   0.777 -1.5754  1.8697 -2.1620
 6802SOL    HW232040   3.565   0.850   0.646 -0.8314  1.8585 -0.3019
 6803SOL     OW32041   3.573   0.550   8.435  0.0381 -0.6099  0.0058
 6803SOL    HW132042   3.642   0.496   8.398 -0.3941 -1.0203 -0.2028
 6803SOL    HW232043   3.620   0.594   8.506  0.5422  0.0659 -0.7508
 6804SOL     OW32044   0.339   2.331   4.369  0.2263  0.0249 -0.1814
 6804SOL    HW132045   0.428   2.365   4.359  0.5144 -0.6608  0.0747
 6804SOL    HW232046   0.352   2.237   4.356 -1.4335 -0.2014 -0.1405
 6805SOL     OW32047   0.156   2.306   7.444 -0.1284 -0.4904  0.4348
 6805SOL    HW132048   0.137   2.389   7.401 -1.3268  0.2587  2.4031
 6805SOL    HW232049   0.101   2.248   7.392 -0.8713  0.0170  0.6597
 6806SOL     OW32050   1.568   2.359  17.506 -0.2866  0.4475 -0.1695
 6806SOL    HW132051   1.512   2.375  17.582 -1.0927  1.4142 -0.9600
 6806SOL    HW232052   1.513   2.384  17.432 -1.5806 -0.6431  0.4039
 6807SOL     OW32053   2.610   0.429  15.197 -0.0496  0.1837 -0.0358
 6807SOL    HW132054   2.515   0.421  15.197 -0.0168 -0.3118 -1.1223
 6807SOL    HW232055   2.624   0.477  15.116  0.7604  2.0355  1.2142
 6808SOL     OW32056   3.510   1.378   7.098 -0.1267 -0.2703  0.0406
 6808SOL    HW132057   3.426   1.358   7.139  0.1166 -1.0423  0.1586
 6808SOL    HW232058   3.578   1.372   7.165 -0.2996 -1.4164  0.1111
 6809SOL     OW32059   2.313   4.593  17.229  0.4447 -0.2525 -0.2672
 6809SOL    HW132060   2.263   4.674  17.216 -0.3466 -0.8361 -0.8572
 6809SOL    HW232061   2.291   4.543  17.151  4.9104  0.6135 -2.0311
 6810SOL     OW32062   1.884   0.661   5.595 -0.0478 -0.4209 -0.0107
 6810SOL    HW132063   1.815   0.597   5.579  0.5832 -0.9011 -0.8154
 6810SOL    HW232064   1.961   0.605   5.594  2.6836  3.3434 -2.4496
 6811SOL     OW32065   2.107   0.390   6.162 -0.2108  0.1121 -0.0621
 6811SOL    HW132066   2.094   0.341   6.081  1.5315 -1.2494  0.4671
 6811SOL    HW232067   2.028   0.444   6.166 -3.0536 -3.9848 -1.1817
 6812SOL     OW32068   1.179   4.314   3.675  0.3293  0.2843 -0.5392
 6812SOL    HW132069   1.083   4.316   3.676  0.3781  0.9273  1.7790
 6812SOL    HW232070   1.205   4.249   3.608  1.0708 -0.3283  0.3434
 6813SOL     OW32071   1.371   3.078  13.904 -0.1244 -0.7074 -0.0690
 6813SOL    HW132072   1.282   3.053  13.928 -0.4951  0.1320 -0.5680
 6813SOL    HW232073   1.422   2.998  13.920 -1.1692 -1.1025  1.2009
 6814SOL     OW32074   0.002   4.681   7.491  0.3133  0.0827 -0.0908
 6814SOL    HW132075   0.077   4.643   7.537  0.0677 -1.8584 -1.2732
 6814SOL    HW232076   0.051   0.010   7.443 -0.0522 -0.1006 -0.7209
 6815SOL     OW32077   4.039   2.301   3.059  0.8484 -0.5146  0.0172
 6815SOL    HW132078   3.959   2.352   3.044  2.1337  0.5505 -3.1311
 6815SOL    HW232079   4.005   2.213   3.048  0.5361 -0.4601  0.5426
 6816SOL     OW32080   3.614   0.346   5.076  0.4686  0.5330 -0.5432
 6816SOL    HW132081   3.617   0.435   5.110 -1.1124  0.1553  0.6140
 6816SOL    HW232082   3.575   0.366   4.991 -0.1060  0.6649 -0.2512
 6817SOL     OW32083   0.923   3.457  16.556  0.4746  0.7118  0.4663
 6817SOL    HW132084   0.828   3.459  16.554  0.5217  2.3768 -0.5262
 6817SOL    HW232085   0.939   3.409  16.475  2.0535  0.7237  0.7663
 6818SOL     OW32086   4.590   1.175  14.336 -0.5914  0.9246  0.0823
 6818SOL    HW132087   4.511   1.182  14.389  0.0087 -0.3895  1.1594
 6818SOL    HW232088   4.592   1.264  14.302  1.7243  0.6627 -0.4703
 6819SOL     OW32089   4.376   1.122   7.344  0.5870 -0.0204  0.1038
 6819SOL    HW132090   4.305   1.186   7.336  0.1168 -0.7179 -1.4061
 6819SOL    HW232091   4.345   1.053   7.403 -0.7560 -0.8144 -1.5170
 6820SOL     OW32092   2.425   4.554   2.246 -0.0660  0.2109 -0.0897
 6820SOL    HW132093   2.390   4.544   2.157 -0.4273  0.2156  0.0512
 6820SOL    HW232094   2.414   4.648   2.257  0.0497  0.5597 -2.8209
 6821SOL     OW32095   1.781   4.550   8.056 -0.3971  0.5364 -0.6143
 6821SOL    HW132096   1.873   4.575   8.048 -0.2477 -0.0692 -0.7576
 6821SOL    HW232097   1.765   4.576   8.147  0.6467  1.6824 -0.7547
 6822SOL     OW32098   2.677   0.254   2.247  0.1823  0.3479  0.2855
 6822SOL    HW132099   2.771   0.249   2.265  0.7676 -0.8205 -3.0714
 6822SOL    HW232100   2.679   0.263   2.151  0.3628  0.2984  0.2842
 6823SOL     OW32101   1.377   1.701   5.238 -0.1860 -0.3633  0.3401
 6823SOL    HW132102   1.372   1.724   5.331  0.6345 -2.1768  0.8393
 6823SOL    HW232103   1.431   1.621   5.235 -0.4796 -0.6631  2.6461
 6824SOL     OW32104   0.432   0.341   8.181 -0.2036  0.1973  0.1847
 6824SOL    HW132105   0.384   0.297   8.251  0.7362 -0.4927  0.3890
 6824SOL    HW232106   0.449   0.269   8.121  2.0662 -0.7764  2.0003
 6825SOL     OW32107   2.750   3.718   0.672  0.5976  0.0893  0.3871
 6825SOL    HW132108   2.699   3.710   0.591 -1.1015  0.1411  1.4529
 6825SOL    HW232109   2.717   3.642   0.720  0.0665 -0.7276 -1.2482
 6826SOL     OW32110   0.929   1.598  17.656  0.2054  0.4798  0.1292
 6826SOL    HW132111   0.876   1.545  17.596 -0.1760  0.4957  0.4500
 6826SOL    HW232112   0.864   1.623  17.722 -0.3037 -1.2931  0.3160
 6827SOL     OW32113   2.344   0.151   8.519 -0.9417 -0.4785 -0.0311
 6827SOL    HW132114   2.406   0.079   8.521  0.5702  0.8776  1.8991
 6827SOL    HW232115   2.401   0.212   8.566 -2.2557  1.3661 -0.7917
 6828SOL     OW32116   1.078   1.138  13.661 -0.5196 -1.1180 -0.5431
 6828SOL    HW132117   1.119   1.143  13.747  3.0530 -2.4131 -2.1754
 6828SOL    HW232118   1.138   1.096  13.599  0.3065 -1.8305  0.7302
 6829SOL     OW32119   3.178   4.203   2.796 -0.4900 -0.0518  0.1648
 6829SOL    HW132120   3.130   4.198   2.878 -1.2585  0.5177 -0.2524
 6829SOL    HW232121   3.172   4.298   2.782  0.9974  0.1272  0.7084
 6830SOL     OW32122   3.539   2.046  15.303  0.9757 -0.0592  0.2106
 6830SOL    HW132123   3.577   2.108  15.241 -0.1669  0.3397 -0.0896
 6830SOL    HW232124   3.571   2.080  15.386 -1.6699 -0.3776  1.3508
 6831SOL     OW32125   1.711   2.475   5.884 -0.0602 -0.5212  0.4341
 6831SOL    HW132126   1.695   2.505   5.973  0.8335  0.4807  0.2605
 6831SOL    HW232127   1.627   2.498   5.844  1.2187 -0.6269 -2.3384
 6832SOL     OW32128   1.725   4.301  17.385  0.1891 -0.3174 -0.1978
 6832SOL    HW132129   1.740   4.382  17.434 -2.4324  0.5811 -0.8669
 6832SOL    HW232130   1.656   4.331  17.327 -0.3268 -0.0753  0.5324
 6833SOL     OW32131   1.280   1.002   8.887  0.4777 -0.4695  0.2357
 6833SOL    HW132132   1.249   0.995   8.977  0.1484  0.1874  0.1719
 6833SOL    HW232133   1.252   1.092   8.867  1.5833 -0.3686 -0.8339
 6834SOL     OW32134   3.378   3.163   3.445  0.3011 -0.2721 -0.0568
 6834SOL    HW132135   3.358   3.182   3.353 -0.7309  1.4569  0.5114
 6834SOL    HW232136   3.296   3.124   3.476  0.3315  0.1728  0.5942
 6835SOL     OW32137   2.137   2.431   3.619 -0.0200  0.2789  0.2611
 6835SOL    HW132138   2.054   2.393   3.591 -0.7180 -0.6697  3.6880
 6835SOL    HW232139   2.165   2.356   3.671  0.2722  0.6417  0.6258
 6836SOL     OW32140   0.429   0.738  11.140 -0.2082 -0.3342 -0.3615
 6836SOL    HW132141   0.507   0.745  11.196 -1.0027  0.6474  0.6050
 6836SOL    HW232142   0.456   0.779  11.058 -3.8677 -1.1153 -1.9352
 6837SOL     OW32143   2.860   1.961   6.834 -0.5489 -0.4380  0.2419
 6837SOL    HW132144   2.887   1.925   6.749  0.5098  0.5986  0.1250
 6837SOL    HW232145   2.855   2.053   6.809 -0.4640  0.3771  3.3080
 6838SOL     OW32146   0.523   1.897   7.207  0.1013  0.0628  0.1223
 6838SOL    HW132147   0.489   1.817   7.168  1.1090  0.2532 -1.1549
 6838SOL    HW232148   0.588   1.861   7.266 -0.0104 -0.6695 -0.2036
 6839SOL     OW32149   2.723   3.833  17.088  0.5642  0.3906  0.3622
 6839SOL    HW132150   2.776   3.754  17.085 -0.9991 -0.6499  0.0656
 6839SOL    HW232151   2.770   3.882  17.155  1.0406 -1.1805  1.1641
 6840SOL     OW32152   0.185   0.670   6.241  0.0097  0.3887 -0.3462
 6840SOL    HW132153   0.273   0.648   6.211  0.0606  0.0826  0.0213
 6840SOL    HW232154   0.199   0.734   6.311 -1.7219 -1.4912  1.7438
 6841SOL     OW32155   2.476   3.404   3.530 -0.0027 -0.1240  0.5315
 6841SOL    HW132156   2.403   3.422   3.591 -0.9960  0.2572 -0.7657
 6841SOL    HW232157   2.495   3.494   3.503  2.8148 -0.8879 -0.0020
 6842SOL     OW32158   2.551   3.829   8.830  0.6107  0.0571 -0.0722
 6842SOL    HW132159   2.605   3.802   8.904  2.2721 -0.0923 -1.3534
 6842SOL    HW232160   2.601   3.903   8.797  0.6485  0.8508  1.7773
 6843SOL     OW32161   4.104   3.170   1.610 -0.2814  0.4020 -0.2172
 6843SOL    HW132162   4.017   3.186   1.571  0.2363 -1.3702 -2.1246
 6843SOL    HW232163   4.137   3.259   1.606 -2.3793  1.2405  0.9574
 6844SOL     OW32164   1.681   3.052   4.725  0.1833 -0.4745 -0.0920
 6844SOL    HW132165   1.630   3.005   4.791  1.0576 -1.0030  0.2167
 6844SOL    HW232166   1.610   3.075   4.666 -0.9733 -2.0118  0.7096
 6845SOL     OW32167   2.672   2.417  14.396 -0.5281  0.3112  0.2865
 6845SOL    HW132168   2.661   2.471  14.474 -1.5499  0.9867 -0.3298
 6845SOL    HW232169   2.589   2.370  14.385  0.6848 -2.0575  1.2856
 6846SOL     OW32170   3.699   0.537   5.733  1.1094 -0.2424 -0.6359
 6846SOL    HW132171   3.605   0.542   5.715  1.0687 -0.4584 -0.4833
 6846SOL    HW232172   3.701   0.595   5.809 -0.4690 -0.3805 -0.4887
 6847SOL     OW32173   2.576   3.606   3.887  0.7673 -0.3120  1.0002
 6847SOL    HW132174   2.663   3.647   3.884  0.2491  0.6580 -0.8984
 6847SOL    HW232175   2.524   3.681   3.916  1.2951 -0.1403  1.4986
 6848SOL     OW32176   2.244   1.250   1.357  0.0103  0.9134  0.2542
 6848SOL    HW132177   2.330   1.268   1.396  0.1959  1.2807 -0.3311
 6848SOL    HW232178   2.181   1.233   1.428  1.1139 -0.5153  0.8900
 6849SOL     OW32179   0.229   0.507  16.067  0.0646  0.0233  0.5306
 6849SOL    HW132180   0.255   0.596  16.041  2.6301 -0.3029  1.9880
 6849SOL    HW232181   0.300   0.485  16.128  0.1251 -2.1254 -0.3357
 6850SOL     OW32182   4.513   3.332   1.428  0.5186 -0.1356 -0.6372
 6850SOL    HW132183   4.540   3.265   1.491 -1.3688  0.8054  1.1692
 6850SOL    HW232184   4.543   3.297   1.345 -0.6644 -1.7951 -0.3633
 6851SOL     OW32185   0.925   1.080  13.905  0.9130 -0.8444  0.6580
 6851SOL    HW132186   0.957   1.036  13.984  1.1873  0.0752  1.0560
 6851SOL    HW232187   1.000   1.135  13.881  1.4415 -0.2447  3.7205
 6852SOL     OW32188   1.520   0.972   4.545  0.3955 -0.0360  0.1999
 6852SOL    HW132189   1.566   1.033   4.488  0.3417  1.1643  1.4375
 6852SOL    HW232190   1.579   0.947   4.616 -0.0165 -2.9706 -0.4874
 6853SOL     OW32191   2.200   0.141   5.079 -0.8844 -0.4536  0.0244
 6853SOL    HW132192   2.146   0.214   5.049 -0.0481 -0.4443 -1.4678
 6853SOL    HW232193   2.232   0.115   4.992 -1.8432 -1.4830 -0.0148
 6854SOL     OW32194   2.032   3.889  11.247  0.3285 -0.4511 -0.2691
 6854SOL    HW132195   2.019   3.843  11.164  1.5734 -0.5139 -0.4272
 6854SOL    HW232196   1.948   3.882  11.294  0.8192  0.4139  0.7446
 6855SOL     OW32197   0.326   0.672   4.134 -0.0153 -0.3541 -0.2023
 6855SOL    HW132198   0.284   0.613   4.197 -0.3231 -0.7633 -0.7879
 6855SOL    HW232199   0.417   0.643   4.130  0.4435  0.8637  1.3791
 6856SOL     OW32200   1.880   3.087   3.335  0.4654  0.5420  0.2731
 6856SOL    HW132201   1.928   3.033   3.272 -1.3047 -1.2486  0.4662
 6856SOL    HW232202   1.930   3.073   3.415  2.2644 -1.3836 -1.1634
 6857SOL     OW32203   3.368   3.607   6.854  0.0375 -0.4012 -0.1489
 6857SOL    HW132204   3.277   3.586   6.830 -0.2129  0.2407  0.2190
 6857SOL    HW232205   3.417   3.642   6.779 -1.8668  0.6300 -0.9241
 6858SOL     OW32206   0.861   3.347   5.039  0.1860  0.0538  0.3641
 6858SOL    HW132207   0.921   3.325   5.110 -0.3765  0.1080  0.8652
 6858SOL    HW232208   0.787   3.291   5.063  1.1632 -0.2341  2.7487
 6859SOL     OW32209   4.533   1.149   8.132 -0.2933  0.1305 -0.0284
 6859SOL    HW132210   4.626   1.169   8.129 -0.7961  1.8195 -3.5355
 6859SOL    HW232211   4.488   1.220   8.087 -1.0551 -1.7017 -2.1576
 6860SOL     OW32212   4.103   4.254   2.495 -0.3187  0.5829 -0.0538
 6860SOL    HW132213   4.121   4.238   2.588  2.3276  0.5084 -0.5744
 6860SOL    HW232214   4.016   4.292   2.489 -0.8121 -0.6468 -0.9094
 6861SOL     OW32215   0.213   1.053   2.234  0.8603  0.3317 -0.3870
 6861SOL    HW132216   0.143   1.014   2.286 -0.3500  1.3535 -1.2329
 6861SOL    HW232217   0.233   1.131   2.285  0.1242  0.2705 -0.0044
 6862SOL     OW32218   1.184   0.782   1.664  0.7663  0.4354  0.3254
 6862SOL    HW132219   1.157   0.873   1.675  1.3383  0.2888  2.9698
 6862SOL    HW232220   1.145   0.732   1.736 -0.7563  0.0399 -0.7814
 6863SOL     OW32221   4.199   4.008   9.413  0.3253  0.7466 -0.2262
 6863SOL    HW132222   4.215   4.095   9.451  2.2653  0.0613  0.5096
 6863SOL    HW232223   4.194   4.033   9.321 -0.6088  0.9138 -0.1373
 6864SOL     OW32224   1.978   1.118  15.642 -0.3849 -0.0285  0.7041
 6864SOL    HW132225   1.937   1.158  15.718 -2.9361  0.6159 -1.0179
 6864SOL    HW232226   2.052   1.179  15.643  1.5314 -2.3099  0.1415
 6865SOL     OW32227   0.979   0.174   5.553 -0.0929 -0.6611 -0.2208
 6865SOL    HW132228   1.072   0.198   5.555 -0.1495 -0.4063 -0.5986
 6865SOL    HW232229   0.936   0.258   5.570  0.5383 -0.9298  2.7824
 6866SOL     OW32230   2.574   1.135   3.967  0.3704 -0.6375  0.1368
 6866SOL    HW132231   2.586   1.120   4.060  1.0755 -2.3931 -0.2281
 6866SOL    HW232232   2.655   1.087   3.945  0.3388 -1.3333  1.5156
 6867SOL     OW32233   4.409   3.192   5.493 -0.2324  0.0131 -0.3497
 6867SOL    HW132234   4.484   3.195   5.433 -0.0661  0.9597 -0.1026
 6867SOL    HW232235   4.417   3.272   5.545 -2.0475 -1.3703  2.0061
 6868SOL     OW32236   3.788   1.258  14.078  0.3677 -0.1255 -0.2601
 6868SOL    HW132237   3.733   1.215  14.013  0.9034  0.1185 -0.8721
 6868SOL    HW232238   3.784   1.350  14.052  3.5130 -0.1261 -0.7440
 6869SOL     OW32239   3.791   2.501  11.181 -0.7369  0.0856  0.3096
 6869SOL    HW132240   3.812   2.580  11.131  3.4313  0.1414  2.1188
 6869SOL    HW232241   3.793   2.536  11.270 -1.8557 -1.2655  0.8716
 6870SOL     OW32242   1.855   0.049   5.690  0.4164  0.3900  0.4011
 6870SOL    HW132243   1.809   0.006   5.762  3.3444 -2.3005  0.6854
 6870SOL    HW232244   1.801   0.126   5.671  2.4379  1.6919 -0.0689
 6871SOL     OW32245   2.715   3.102   5.314  0.0508  0.3143  0.3953
 6871SOL    HW132246   2.646   3.056   5.267  0.9180  1.2184 -1.7631
 6871SOL    HW232247   2.769   3.154   5.255  0.1635  0.1173  0.3240
 6872SOL     OW32248   1.225   0.896   8.224 -0.4154 -0.4852 -0.2109
 6872SOL    HW132249   1.312   0.876   8.260 -1.0166 -0.0363  1.5264
 6872SOL    HW232250   1.187   0.812   8.250  1.0389 -1.3392 -0.8368
 6873SOL     OW32251   1.037   3.289   7.794  0.5989 -0.0509  0.1119
 6873SOL    HW132252   0.959   3.315   7.842  0.4089  0.8176 -0.6608
 6873SOL    HW232253   1.068   3.227   7.860  1.1866 -0.9737 -1.0344
 6874SOL     OW32254   0.832   0.572  17.303 -0.3611 -0.7762  0.4625
 6874SOL    HW132255   0.788   0.532  17.228  1.5212  0.7514 -1.4427
 6874SOL    HW232256   0.855   0.659  17.270 -2.6460 -0.8341 -1.2539
 6875SOL     OW32257   1.481   3.511   7.644  0.0459  0.5834  0.1933
 6875SOL    HW132258   1.560   3.560   7.621  1.1718 -0.7375  1.2596
 6875SOL    HW232259   1.464   3.548   7.731 -1.0224 -1.7685  0.9640
 6876SOL     OW32260   2.500   4.617   7.801 -0.1797  0.1783 -0.0146
 6876SOL    HW132261   2.546   4.534   7.817 -0.6785  0.0520  0.7279
 6876SOL    HW232262   2.560   4.661   7.740  0.5054 -0.7060  0.0207
 6877SOL     OW32263   1.320   1.740   5.495 -0.0905 -0.3334  0.1284
 6877SOL    HW132264   1.248   1.797   5.521 -0.8277 -0.4665 -1.6613
 6877SOL    HW232265   1.351   1.706   5.579 -0.0347  2.1247  1.1197
 6878SOL     OW32266   0.080   1.100   3.449  0.3698 -0.5736 -0.1532
 6878SOL    HW132267   0.116   1.186   3.468 -1.2395 -0.2008  1.2202
 6878SOL    HW232268   0.132   1.047   3.509  0.7070 -0.6434 -0.5027
 6879SOL     OW32269   2.081   4.556   0.593  0.0656  0.7908 -1.0346
 6879SOL    HW132270   2.020   4.620   0.555 -0.1089  0.7984 -0.7423
 6879SOL    HW232271   2.042   4.554   0.680  0.9990 -0.9661 -0.6701
 6880SOL     OW32272   3.828   3.890  15.710 -0.5932 -1.1138 -0.6858
 6880SOL    HW132273   3.784   3.814  15.673 -0.6189 -0.7887 -1.3215
 6880SOL    HW232274   3.824   3.954  15.638 -0.5922 -0.3144  0.0212
 6881SOL     OW32275   3.162   3.491  16.203 -0.8105  0.0195 -0.7180
 6881SOL    HW132276   3.189   3.467  16.292  0.6052  0.7598 -0.9616
 6881SOL    HW232277   3.091   3.427  16.193 -1.1771  0.3454 -0.2256
 6882SOL     OW32278   3.787   4.038  10.763  0.6890 -0.4765 -0.5634
 6882SOL    HW132279   3.809   3.945  10.772 -1.8938 -1.1546 -1.4522
 6882SOL    HW232280   3.750   4.043  10.675  2.4546 -0.6223 -1.3160
 6883SOL     OW32281   1.727   4.515   3.034 -0.4651 -0.7992  0.3719
 6883SOL    HW132282   1.751   4.588   3.092 -2.2987 -0.7356  1.0499
 6883SOL    HW232283   1.806   4.462   3.028  2.7513  4.2534 -2.0453
 6884SOL     OW32284   1.691   0.282  13.638 -0.0157 -0.4365  0.6116
 6884SOL    HW132285   1.637   0.305  13.714 -0.1196 -0.0663  0.4255
 6884SOL    HW232286   1.709   0.368  13.602 -0.4546 -1.4049 -1.9187
 6885SOL     OW32287   2.306   1.157   3.525  0.4337  0.0376  0.1497
 6885SOL    HW132288   2.372   1.158   3.594  4.3908  0.6463 -3.6973
 6885SOL    HW232289   2.363   1.154   3.449  0.3083 -0.8575  0.0993
 6886SOL     OW32290   1.167   4.508   4.806 -0.1282 -0.0738  0.2187
 6886SOL    HW132291   1.124   4.447   4.867  1.0742 -0.3851  0.7529
 6886SOL    HW232292   1.113   4.506   4.727  0.8727 -0.1610 -0.4652
 6887SOL     OW32293   2.175   1.563  16.811 -0.7442 -1.0981  0.7330
 6887SOL    HW132294   2.096   1.512  16.795 -0.8477 -0.7930  0.2534
 6887SOL    HW232295   2.188   1.549  16.905  1.8305 -1.1078  0.3792
 6888SOL     OW32296   0.096   1.051   7.880 -0.3584 -0.2434 -0.0115
 6888SOL    HW132297   0.054   1.132   7.908 -1.4042 -0.9689  0.5433
 6888SOL    HW232298   0.034   0.979   7.896 -0.2100 -0.5070 -0.6118
 6889SOL     OW32299   4.566   0.949   2.366  0.0289  0.2745  0.0012
 6889SOL    HW132300   4.595   0.899   2.290  1.9911  1.0207  0.2449
 6889SOL    HW232301   4.635   0.939   2.432 -2.7533  0.5123  2.9340
 6890SOL     OW32302   0.729   1.110   4.871  0.0671 -0.9763  0.1914
 6890SOL    HW132303   0.760   1.049   4.937 -1.3802 -1.4069  0.4702
 6890SOL    HW232304   0.635   1.126   4.881  0.3825  1.5794 -0.9069
 6891SOL     OW32305   4.065   1.583   0.030  0.9001  0.1258 -0.3861
 6891SOL    HW132306   4.026   1.510  17.727 -0.3201  0.2667  0.3698
 6891SOL    HW232307   4.078   1.539   0.114 -2.4547 -1.8271 -0.8951
 6892SOL     OW32308   0.123   0.580  11.866  0.1673  0.1910 -0.5480
 6892SOL    HW132309   0.215   0.605  11.871  0.0482  0.2363  1.4828
 6892SOL    HW232310   0.082   0.648  11.920  0.6055  0.4023 -0.4837
 6893SOL     OW32311   3.826   2.207   5.016 -0.6664 -0.3167  0.0260
 6893SOL    HW132312   3.802   2.203   4.923 -1.4957 -2.0639  0.3163
 6893SOL    HW232313   3.766   2.275   5.046  0.9549  0.5544  1.2909
 6894SOL     OW32314   4.080   1.326   1.088  0.1434 -0.1945  0.2921
 6894SOL    HW132315   4.099   1.417   1.110 -1.0171  0.2360 -0.4526
 6894SOL    HW232316   4.166   1.303   1.054  0.2460  0.3069  0.2251
 6895SOL     OW32317   4.170   2.877   4.112  0.4027 -1.0192 -0.3249
 6895SOL    HW132318   4.128   2.807   4.061  1.4315 -1.6427 -0.3132
 6895SOL    HW232319   4.260   2.845   4.115  0.5205 -0.3641  3.3528
 6896SOL     OW32320   0.943   0.614   7.400 -0.2303 -0.0854 -0.3504
 6896SOL    HW132321   0.942   0.687   7.462  2.3309 -0.8318  0.5733
 6896SOL    HW232322   0.932   0.536   7.454  0.2033  0.7155  0.8869
 6897SOL     OW32323   1.883   1.366   9.047 -1.1553 -0.4061  0.1959
 6897SOL    HW132324   1.930   1.289   9.077  0.9747  0.9754  0.4433
 6897SOL    HW232325   1.792   1.346   9.066 -0.7815 -1.4355  0.8638
 6898SOL     OW32326   1.355   1.597   6.419 -0.4896  0.2484  0.2222
 6898SOL    HW132327   1.402   1.524   6.459  1.0264  1.0222 -0.1707
 6898SOL    HW232328   1.387   1.603   6.329  1.8415 -0.4901  1.0223
 6899SOL     OW32329   2.581   4.148   4.575  0.6610 -0.3538 -0.2295
 6899SOL    HW132330   2.674   4.156   4.596  0.7177  0.2311 -0.6993
 6899SOL    HW232331   2.552   4.105   4.656 -0.8408 -3.5083 -2.4613
 6900SOL     OW32332   2.334   2.593   1.965  0.1451  0.7307 -0.4236
 6900SOL    HW132333   2.240   2.581   1.974 -0.2291  1.6353 -3.0316
 6900SOL    HW232334   2.348   2.661   1.899  0.0734  1.9188  0.8004
 6901SOL     OW32335   4.345   4.117   7.172 -0.1669 -0.4581  0.0947
 6901SOL    HW132336   4.348   4.074   7.086  0.8778 -0.4247  0.1168
 6901SOL    HW232337   4.376   4.205   7.152 -0.3694 -0.9218 -2.2630
 6902SOL     OW32338   3.076   3.631   6.850  0.2743 -0.3405  0.3328
 6902SOL    HW132339   3.019   3.617   6.774  1.3862  0.1325 -0.5869
 6902SOL    HW232340   3.034   3.576   6.916  0.0243  1.3476  1.5635
 6903SOL     OW32341   3.863   3.100   1.962 -0.1610 -0.2447  0.1334
 6903SOL    HW132342   3.861   3.052   2.045  1.2997 -1.2145 -0.3978
 6903SOL    HW232343   3.947   3.142   1.982 -1.1557  2.0221 -0.4967
 6904SOL     OW32344   4.512   2.062   9.638 -0.1085  0.5434 -0.0256
 6904SOL    HW132345   4.503   1.986   9.695  1.5484  0.1949 -0.2473
 6904SOL    HW232346   4.573   2.022   9.576 -1.9258  0.8330 -2.0083
 6905SOL     OW32347   1.959   3.094   6.703  0.4528 -0.0396 -0.2338
 6905SOL    HW132348   1.901   3.170   6.698  1.2979  0.4965 -2.0023
 6905SOL    HW232349   2.015   3.112   6.627  0.2587  1.9198  0.0935
 6906SOL     OW32350   1.979   4.078  11.887 -0.2605  1.0854 -0.7134
 6906SOL    HW132351   1.953   4.158  11.933 -0.6994 -0.1498  1.2109
 6906SOL    HW232352   2.071   4.052  11.892 -0.5744  0.2212  0.5254
 6907SOL     OW32353   3.289   4.726  13.541 -0.1331 -0.0928  0.0691
 6907SOL    HW132354   3.319   0.061  13.485 -2.3066  2.1007  1.6909
 6907SOL    HW232355   3.358   4.707  13.604  0.6816 -0.7160 -1.0141
 6908SOL     OW32356   3.179   1.478   1.808 -0.3953 -0.3287 -0.0479
 6908SOL    HW132357   3.224   1.518   1.733  0.1339 -0.7150  0.0646
 6908SOL    HW232358   3.166   1.550   1.869  0.1004 -0.0663 -0.2416
 6909SOL     OW32359   3.948   0.942  12.333 -0.3076 -0.8197  0.2667
 6909SOL    HW132360   3.886   0.883  12.290 -0.4288 -0.7502  0.3468
 6909SOL    HW232361   3.905   0.953  12.417 -1.8331  0.2992 -0.6592
 6910SOL     OW32362   1.528   2.209   1.943  0.2001 -0.2694 -0.0950
 6910SOL    HW132363   1.487   2.273   1.884 -0.6596  0.0767  0.8854
 6910SOL    HW232364   1.544   2.135   1.885 -0.8725  0.1063 -0.8660
 6911SOL     OW32365   3.796   4.435   5.765 -0.0517  0.1037  0.0162
 6911SOL    HW132366   3.809   4.510   5.823 -0.1093 -0.6402  0.9809
 6911SOL    HW232367   3.870   4.386   5.800 -1.0904 -0.7581  0.9821
 6912SOL     OW32368   1.187   3.753   8.062  0.1981  0.5029  0.6593
 6912SOL    HW132369   1.214   3.723   7.976 -0.0918 -1.0088  1.1045
 6912SOL    HW232370   1.094   3.742   8.043  0.9760 -1.9224 -1.6693
 6913SOL     OW32371   4.169   3.735   7.142  0.2149  0.0308 -0.0131
 6913SOL    HW132372   4.109   3.788   7.091 -3.5590 -3.2694  0.9805
 6913SOL    HW232373   4.216   3.691   7.071  1.1443  0.9899  0.0083
 6914SOL     OW32374   1.040   3.484   6.916  0.1304 -0.2909 -0.3018
 6914SOL    HW132375   1.079   3.423   6.979 -0.0682  0.7420  0.8037
 6914SOL    HW232376   1.023   3.547   6.985  3.6419  2.4470 -1.9110
 6915SOL     OW32377   0.681   0.726   8.299 -0.1046  0.2276 -0.3287
 6915SOL    HW132378   0.658   0.813   8.269  0.2400 -0.5666 -2.8715
 6915SOL    HW232379   0.751   0.701   8.239  1.0227  0.9207  0.6825
 6916SOL     OW32380   4.633   3.375  13.615  0.2964  0.1749  0.3253
 6916SOL    HW132381   4.697   3.408  13.678  2.2108  0.8894 -1.9655
 6916SOL    HW232382   4.603   3.299  13.664  3.5594  0.4833  2.8192
 6917SOL     OW32383   3.464   0.728   6.780  0.3126  0.1384 -0.7903
 6917SOL    HW132384   3.393   0.701   6.722 -0.7804  1.2424  0.0165
 6917SOL    HW232385   3.464   0.670   6.856  0.2173  0.7990 -0.2833
 6918SOL     OW32386   2.493   1.018   3.046 -0.1376  0.1131  0.1881
 6918SOL    HW132387   2.569   1.073   3.062  0.2580 -0.0156 -1.2469
 6918SOL    HW232388   2.425   1.082   3.026 -2.5989 -1.5998  3.0290
 6919SOL     OW32389   1.328   2.494   3.261  0.3177 -0.1139  0.0720
 6919SOL    HW132390   1.306   2.501   3.168  0.5300 -0.9977 -0.0444
 6919SOL    HW232391   1.411   2.450   3.248 -0.1411 -0.8275 -0.4273
 6920SOL     OW32392   3.452   3.576   6.172 -0.8603  0.1729 -0.7332
 6920SOL    HW132393   3.502   3.507   6.128  1.1165  1.2590 -0.1865
 6920SOL    HW232394   3.464   3.643   6.105  1.2133  0.8798  0.3373
 6921SOL     OW32395   4.459   0.777   3.317  0.5358  0.1694 -0.2846
 6921SOL    HW132396   4.364   0.767   3.325  0.7180  0.0386  1.7604
 6921SOL    HW232397   4.479   0.851   3.375 -1.1710 -0.9674  1.7531
 6922SOL     OW32398   1.088   0.664   1.883  0.3358 -0.2622  0.0298
 6922SOL    HW132399   1.018   0.603   1.861  0.4537  0.0985 -1.3842
 6922SOL    HW232400   1.051   0.695   1.966 -1.1632 -0.5528 -0.5215
 6923SOL     OW32401   3.319   4.053   6.387  0.2972  0.2541  0.1592
 6923SOL    HW132402   3.323   4.027   6.479 -0.3249  1.1581  0.4493
 6923SOL    HW232403   3.258   3.986   6.356 -0.0184  1.0413 -0.9262
 6924SOL     OW32404   1.294   4.135   2.754  0.3986 -0.0673 -0.1747
 6924SOL    HW132405   1.236   4.211   2.747 -1.2794 -1.2183  1.4985
 6924SOL    HW232406   1.310   4.117   2.661  0.4411 -1.7332  0.1695
 6925SOL     OW32407   3.171   3.122  16.957 -0.1558  0.5141 -0.2402
 6925SOL    HW132408   3.235   3.114  17.029 -0.2031  3.4761  0.1048
 6925SOL    HW232409   3.093   3.074  16.986  0.7958  0.5444  2.3962
 6926SOL     OW32410   0.706   3.828   6.769 -0.4150  0.2128  0.4113
 6926SOL    HW132411   0.802   3.825   6.780 -0.4447  0.7730  0.7959
 6926SOL    HW232412   0.698   3.827   6.674 -1.1927 -1.2146  0.4935
 6927SOL     OW32413   0.080   0.048  15.387 -0.5227  0.8086 -0.4552
 6927SOL    HW132414   0.100   0.017  15.475 -0.4811 -0.0343 -0.7613
 6927SOL    HW232415   0.163   0.092  15.369 -0.7082  1.2317 -0.2739
 6928SOL     OW32416   0.300   2.039  17.607 -0.3998  0.1978 -0.4019
 6928SOL    HW132417   0.251   2.117  17.583 -0.8675  0.8446  2.6304
 6928SOL    HW232418   0.284   2.042  17.701  3.3939 -0.4198  0.2469
 6929SOL     OW32419   0.234   0.376   2.536  0.2472  0.2687 -0.1073
 6929SOL    HW132420   0.271   0.406   2.453  0.0152 -0.8206 -0.5943
 6929SOL    HW232421   0.239   0.281   2.534 -0.3925  0.1882  1.3092
 6930SOL     OW32422   0.498   4.712   2.010  0.5499 -0.0565  0.0058
 6930SOL    HW132423   0.587   4.695   1.979  1.0350  0.8520  0.8972
 6930SOL    HW232424   0.447   4.634   1.987 -0.1277  0.8165 -1.4410
 6931SOL     OW32425   3.760   0.849   4.728 -0.0921  0.0488 -0.1213
 6931SOL    HW132426   3.703   0.772   4.728  1.8669 -1.4015  1.2346
 6931SOL    HW232427   3.840   0.803   4.703  0.6809  1.2800  0.1058
 6932SOL     OW32428   4.486   2.761  11.771 -0.6898  0.1162  0.0572
 6932SOL    HW132429   4.550   2.700  11.735  1.4137  1.5049  1.4523
 6932SOL    HW232430   4.405   2.749  11.721 -1.6099 -0.2051  1.6220
 6933SOL     OW32431   0.294   0.185   4.827  0.0502 -0.4053 -0.3265
 6933SOL    HW132432   0.226   0.140   4.878  1.1671 -0.5136  1.1056
 6933SOL    HW232433   0.350   0.108   4.813  0.1622 -0.3382 -0.2488
 6934SOL     OW32434   1.208   2.104   2.030 -0.0801  0.4129 -0.0472
 6934SOL    HW132435   1.202   2.172   1.964 -0.6587  0.3678 -0.0400
 6934SOL    HW232436   1.122   2.064   2.027  0.7775 -1.3724 -0.7173
 6935SOL     OW32437   3.749   0.002   5.134  0.0962  0.0857  0.3154
 6935SOL    HW132438   3.708   4.657   5.106 -0.4308  1.0179 -1.6434
 6935SOL    HW232439   3.771   4.712   5.223 -4.3519 -0.4492  1.2589
 6936SOL     OW32440   4.219   1.552   3.816 -0.1573 -0.9594  0.1182
 6936SOL    HW132441   4.209   1.623   3.752 -0.6988 -0.0204  1.2570
 6936SOL    HW232442   4.314   1.544   3.830  0.0682 -0.8081 -1.3117
 6937SOL     OW32443   4.025   3.672   6.581  0.2544  0.3292 -0.0403
 6937SOL    HW132444   3.934   3.642   6.584  0.0444  0.7764 -1.8437
 6937SOL    HW232445   4.073   3.589   6.589 -0.1726 -0.0395 -1.3361
 6938SOL     OW32446   4.600   4.733   4.910  0.3302 -0.0917 -0.1194
 6938SOL    HW132447   4.592   4.692   4.824 -1.2916 -1.9416  0.9177
 6938SOL    HW232448   4.546   0.074   4.898 -1.3395 -1.2378  0.0491
 6939SOL     OW32449   0.056   2.432   1.002  0.1470  0.5920 -0.1125
 6939SOL    HW132450   0.008   2.391   0.930  2.6034  2.3223 -2.7043
 6939SOL    HW232451   0.120   2.483   0.952 -0.7694  1.6712 -0.1891
 6940SOL     OW32452   2.127   4.226   7.806  0.1759  0.6356  0.6515
 6940SOL    HW132453   2.058   4.182   7.856 -1.2085  0.3337 -1.5105
 6940SOL    HW232454   2.196   4.234   7.872 -0.0042 -0.4219  0.9661
 6941SOL     OW32455   4.317   1.009   6.550 -0.2761  0.0085  0.2321
 6941SOL    HW132456   4.283   1.021   6.639  0.4902 -0.8381  0.6433
 6941SOL    HW232457   4.401   1.049   6.569 -1.0951  0.6863  2.4523
 6942SOL     OW32458   3.449   1.092   6.167  0.2304  0.1653 -0.1393
 6942SOL    HW132459   3.454   1.092   6.071  1.3923 -0.6686 -0.0795
 6942SOL    HW232460   3.541   1.098   6.192 -0.3859  0.2065  2.1006
 6943SOL     OW32461   2.214   1.760   3.890 -0.0113  0.1782 -0.2711
 6943SOL    HW132462   2.176   1.672   3.884 -1.4428  0.6393  1.8205
 6943SOL    HW232463   2.196   1.768   3.984  0.1080 -0.9138 -0.1529
 6944SOL     OW32464   2.715   3.137   4.394  0.8105  0.0617 -0.4124
 6944SOL    HW132465   2.626   3.137   4.359  1.1493  1.4682 -1.2858
 6944SOL    HW232466   2.753   3.166   4.311  1.3672 -0.6195 -0.3959
 6945SOL     OW32467   0.927   2.963  10.891  0.0100 -0.2465 -0.1379
 6945SOL    HW132468   0.857   2.909  10.927 -0.0507 -0.1841 -0.1644
 6945SOL    HW232469   0.995   2.967  10.959  1.3594  0.7997 -1.5353
 6946SOL     OW32470   3.010   0.644   2.157  0.3634  0.0197 -0.3813
 6946SOL    HW132471   3.039   0.690   2.078  0.0739  0.9930  0.0794
 6946SOL    HW232472   2.931   0.602   2.124 -0.6680  0.1594  1.9315
 6947SOL     OW32473   2.675   3.231   4.672  0.0781 -0.1610 -0.3018
 6947SOL    HW132474   2.658   3.202   4.582 -0.3239 -4.0515  1.0189
 6947SOL    HW232475   2.674   3.150   4.723  1.6209 -0.3104 -0.5129
 6948SOL     OW32476   3.965   0.149   3.648 -0.2572  0.0929 -0.3639
 6948SOL    HW132477   3.946   0.056   3.656 -0.4873  0.0967 -0.8866
 6948SOL    HW232478   4.059   0.134   3.659 -0.6992 -1.9406  0.7323
 6949SOL     OW32479   3.820   0.059  13.860  0.2173  0.4193  0.0062
 6949SOL    HW132480   3.785   0.055  13.949 -1.6890  2.3178 -0.6611
 6949SOL    HW232481   3.895   0.004  13.884 -1.0831 -1.1353  0.4755
 6950SOL     OW32482   3.476   1.915   5.916  0.1108  0.4141  0.0166
 6950SOL    HW132483   3.525   1.964   5.850 -1.9263 -0.2190 -1.9286
 6950SOL    HW232484   3.416   1.863   5.864 -0.0711 -1.6953  2.3381
 6951SOL     OW32485   1.376   1.055   6.444 -0.3049 -0.2594  0.1509
 6951SOL    HW132486   1.358   0.962   6.432  0.0752 -0.1696 -1.2037
 6951SOL    HW232487   1.364   1.063   6.538 -1.1487 -2.3401  0.2068
 6952SOL     OW32488   2.604   4.088   7.899  0.0717 -0.1239 -0.2389
 6952SOL    HW132489   2.592   3.994   7.905 -1.5687  0.1964  1.4921
 6952SOL    HW232490   2.628   4.124   7.984  1.1380 -1.0825 -0.1377
 6953SOL     OW32491   0.871   0.997  15.351 -0.2490 -0.2317 -0.1241
 6953SOL    HW132492   0.831   0.915  15.381 -0.5942  0.1926  0.5766
 6953SOL    HW232493   0.957   0.990  15.393 -0.6961  0.8577  0.9738
 6954SOL     OW32494   0.159   3.107   2.425 -0.1373 -0.0505 -0.4716
 6954SOL    HW132495   0.124   3.108   2.514  0.3305 -1.2834 -0.2765
 6954SOL    HW232496   0.076   3.103   2.379 -0.6816  2.3181  0.2718
 6955SOL     OW32497   3.144   2.201   8.607  0.7484  0.6086  0.1421
 6955SOL    HW132498   3.210   2.134   8.589  0.6190 -0.5096  3.8213
 6955SOL    HW232499   3.069   2.164   8.560  0.8934 -0.7427  0.9743
 6956SOL     OW32500   0.342   2.867   2.428  0.1813  0.2551  0.2451
 6956SOL    HW132501   0.351   2.875   2.523 -0.8179 -0.6911  0.4166
 6956SOL    HW232502   0.290   2.947   2.418  0.2178  0.2199 -0.1943
 6957SOL     OW32503   1.545   2.162  11.714  0.2373 -0.2123  0.3682
 6957SOL    HW132504   1.595   2.234  11.675  0.2471 -0.7274 -0.5794
 6957SOL    HW232505   1.612   2.141  11.779 -0.0214  3.7770  1.8936
 6958SOL     OW32506   2.868   2.700   5.390  0.4693 -0.2573 -0.1675
 6958SOL    HW132507   2.941   2.639   5.401  0.0952 -0.2891  2.3002
 6958SOL    HW232508   2.894   2.790   5.408  0.0240  0.4094 -2.8431
 6959SOL     OW32509   0.008   2.679   1.446  0.1535 -0.1553 -0.2031
 6959SOL    HW132510   4.667   2.683   1.502  0.6065  1.7277  0.2960
 6959SOL    HW232511   4.722   2.625   1.370  1.8404  0.5942 -1.2565
 6960SOL     OW32512   0.035   2.078   7.997 -0.2939  0.0416  0.5351
 6960SOL    HW132513   0.088   2.047   7.924 -0.2529  1.4320 -0.0362
 6960SOL    HW232514   4.727   1.998   8.024  2.5375 -2.0259 -1.0561
 6961SOL     OW32515   1.213   1.999   5.569 -0.4183 -0.4081  0.2854
 6961SOL    HW132516   1.218   2.082   5.523  2.3373 -0.7348 -0.0078
 6961SOL    HW232517   1.125   2.001   5.606  0.3106 -0.9275  2.0319
 6962SOL     OW32518   3.184   0.085   2.451  0.0048 -0.0084  0.1030
 6962SOL    HW132519   3.255   0.145   2.477  0.9796 -0.2088 -2.1102
 6962SOL    HW232520   3.118   0.105   2.517 -1.2466  0.5863 -1.3320
 6963SOL     OW32521   2.448   0.588  16.443 -0.6964 -0.2801 -0.2116
 6963SOL    HW132522   2.373   0.530  16.459 -1.1288  0.1203 -0.7484
 6963SOL    HW232523   2.403   0.672  16.435 -0.3367  0.0395  1.1414
 6964SOL     OW32524   1.354   2.913   6.917 -0.2585  0.4390  0.3169
 6964SOL    HW132525   1.407   2.965   6.855  1.8365  0.0216  1.7583
 6964SOL    HW232526   1.310   2.985   6.962  2.2591  1.4152  1.2388
 6965SOL     OW32527   4.071   4.307   9.355 -0.4017  0.1242 -0.1488
 6965SOL    HW132528   4.036   4.360   9.427  0.0220 -0.0536  0.1869
 6965SOL    HW232529   4.007   4.333   9.289 -2.1749  0.0134  1.4943
 6966SOL     OW32530   0.343   3.314   3.768 -0.5940 -0.4534  0.4069
 6966SOL    HW132531   0.288   3.375   3.720  0.7376  0.1727 -0.3282
 6966SOL    HW232532   0.371   3.362   3.846 -1.2172  0.0156  0.3349
 6967SOL     OW32533   1.416   3.877   4.681 -0.1103  0.3643 -0.0370
 6967SOL    HW132534   1.403   3.853   4.773  2.9561 -0.7914  0.1059
 6967SOL    HW232535   1.324   3.895   4.662 -0.5183 -2.9730 -1.3605
 6968SOL     OW32536   1.017   3.991   0.114 -0.1101 -0.4187 -0.1945
 6968SOL    HW132537   1.106   3.977   0.146 -0.6330 -0.8506  1.0651
 6968SOL    HW232538   1.038   3.927   0.047  0.8124 -0.4186  0.0877
 6969SOL     OW32539   1.852   2.602   5.043 -0.0402  0.7550  0.8465
 6969SOL    HW132540   1.779   2.634   4.991  2.1632  1.8329 -1.6073
 6969SOL    HW232541   1.809   2.553   5.113  1.8535 -0.5288  1.1141
 6970SOL     OW32542   1.539   1.012   8.808 -0.3881  0.7222  0.4696
 6970SOL    HW132543   1.579   0.941   8.857  2.6950 -0.2278 -3.3961
 6970SOL    HW232544   1.445   1.000   8.819 -0.3539  0.2212  0.1950
 6971SOL     OW32545   4.674   1.389   6.484  0.0820 -0.5407 -0.0178
 6971SOL    HW132546   0.029   1.414   6.492 -0.9652  2.7245  2.0364
 6971SOL    HW232547   4.669   1.368   6.391 -2.3940  1.0391 -0.2598
 6972SOL     OW32548   2.367   3.125   6.297  0.1674 -0.6129 -0.0441
 6972SOL    HW132549   2.392   3.193   6.235  0.2857  0.3989  1.1137
 6972SOL    HW232550   2.288   3.085   6.262 -0.1329 -0.9152  0.9770
 6973SOL     OW32551   3.794   4.166   5.363  0.2501  0.0101 -0.3081
 6973SOL    HW132552   3.856   4.147   5.293  1.1213 -0.0306  0.4801
 6973SOL    HW232553   3.744   4.085   5.374  0.3561 -0.0529 -0.2977
 6974SOL     OW32554   3.341   1.027  15.742 -0.2925  0.3117  0.2991
 6974SOL    HW132555   3.321   0.956  15.681 -0.3165 -0.0541  0.7390
 6974SOL    HW232556   3.259   1.075  15.739  0.9977  2.4345 -1.3784
 6975SOL     OW32557   3.813   1.799  11.206  0.1565 -0.1462 -0.2448
 6975SOL    HW132558   3.728   1.775  11.170  1.0070 -2.1861 -0.8910
 6975SOL    HW232559   3.877   1.751  11.153  1.9241  1.1897  0.6674
 6976SOL     OW32560   3.176   1.108   7.040 -0.3181 -0.0334  0.1575
 6976SOL    HW132561   3.194   1.016   7.021 -1.4102 -0.6265  2.0067
 6976SOL    HW232562   3.253   1.128   7.095 -0.2290 -0.9049  0.3403
 6977SOL     OW32563   1.428   3.528   6.905 -0.3416  0.1645 -0.3574
 6977SOL    HW132564   1.519   3.551   6.888 -0.6696  1.9814  0.2837
 6977SOL    HW232565   1.415   3.549   6.997 -2.8189 -1.3096 -0.3774
 6978SOL     OW32566   0.212   0.458   8.981  0.1682  0.2757 -0.5238
 6978SOL    HW132567   0.277   0.419   9.040 -0.0232 -1.1827 -1.2747
 6978SOL    HW232568   0.243   0.547   8.966 -1.0555  0.5019 -1.6364
 6979SOL     OW32569   2.803   2.288   3.358 -0.0065 -0.6548  0.0172
 6979SOL    HW132570   2.827   2.200   3.386  2.4630  0.1810  0.5217
 6979SOL    HW232571   2.843   2.348   3.421  0.1314  0.4300 -1.1122
 6980SOL     OW32572   1.688   0.832   9.678 -0.7302  0.0824 -0.4391
 6980SOL    HW132573   1.699   0.925   9.699 -0.7549 -0.4509  1.9806
 6980SOL    HW232574   1.629   0.841   9.603 -1.9881  2.5657  0.8395
 6981SOL     OW32575   0.106   4.346   3.228  0.2586 -0.1424  0.6675
 6981SOL    HW132576   0.175   4.402   3.263 -0.3071  0.9206  0.1063
 6981SOL    HW232577   0.032   4.385   3.274  0.5694 -1.3887  2.1830
 6982SOL     OW32578   0.540   0.245   4.048  0.4012 -0.6027 -0.0765
 6982SOL    HW132579   0.574   0.172   3.996 -0.9085 -1.4792  0.2894
 6982SOL    HW232580   0.599   0.238   4.124  1.0147 -1.2489 -0.6184
 6983SOL     OW32581   0.239   2.764   0.228  0.3043 -0.0095 -0.2065
 6983SOL    HW132582   0.226   2.675   0.194 -1.0341 -0.5726  1.7871
 6983SOL    HW232583   0.316   2.797   0.183  0.9258  0.6011  1.3065
 6984SOL     OW32584   0.560   2.023   8.084  0.1393  0.0664 -0.3623
 6984SOL    HW132585   0.553   1.928   8.092  0.0368  0.2006  1.1718
 6984SOL    HW232586   0.536   2.037   7.992  0.5065  0.6292 -0.3718
 6985SOL     OW32587   1.164   3.791  17.713 -0.0753  0.2553  0.1971
 6985SOL    HW132588   1.247   3.817   0.009  1.1097 -1.4944 -1.1069
 6985SOL    HW232589   1.195   3.752  17.632 -0.3032 -1.2705  0.8566
 6986SOL     OW32590   1.650   1.187   6.936 -0.6376  0.1414  0.1727
 6986SOL    HW132591   1.730   1.209   6.985 -0.3415 -0.3226 -0.0976
 6986SOL    HW232592   1.593   1.208   7.009  0.7573  0.7987  1.0868
 6987SOL     OW32593   3.890   3.072   5.955 -0.9811 -0.2926  0.2705
 6987SOL    HW132594   3.974   3.033   5.933 -0.3220  2.6996 -2.5714
 6987SOL    HW232595   3.915   3.144   6.014 -0.9072 -0.5632  0.5730
 6988SOL     OW32596   1.886   2.254   7.300 -0.3031  0.0519 -0.6725
 6988SOL    HW132597   1.967   2.272   7.252  0.4206 -0.9546  0.1428
 6988SOL    HW232598   1.855   2.177   7.251  0.1807 -1.3490  1.2204
 6989SOL     OW32599   3.845   1.347   1.257 -0.2538 -0.2045 -0.5167
 6989SOL    HW132600   3.933   1.355   1.295 -0.2667 -1.4165 -0.2243
 6989SOL    HW232601   3.859   1.340   1.163 -0.1294 -1.5224 -0.3973
 6990SOL     OW32602   2.485   2.995  12.857  0.7897 -0.0751 -0.1094
 6990SOL    HW132603   2.555   2.944  12.898  1.3575 -0.7088 -1.8671
 6990SOL    HW232604   2.498   3.080  12.899  0.4207 -0.0919  0.0358
 6991SOL     OW32605   2.143   1.083   0.873  0.0116 -0.8597  0.8186
 6991SOL    HW132606   2.089   1.139   0.817 -1.6786 -2.2655  1.0293
 6991SOL    HW232607   2.141   0.995   0.836  2.4391 -1.1279  1.3382
 6992SOL     OW32608   0.765   0.587   1.691 -0.0863  0.2113  0.1236
 6992SOL    HW132609   0.817   0.545   1.759 -0.1576  0.0597  0.0837
 6992SOL    HW232610   0.719   0.508   1.662  2.9182 -1.9623  1.2565
 6993SOL     OW32611   2.607   1.476   9.343 -0.3197  0.3256 -0.0456
 6993SOL    HW132612   2.693   1.466   9.303  0.0352  0.7066  0.6357
 6993SOL    HW232613   2.574   1.387   9.330 -0.1409  0.0305  1.6065
 6994SOL     OW32614   2.051   3.496   7.645 -0.3782 -0.1308 -0.7200
 6994SOL    HW132615   2.104   3.571   7.615  1.8058 -1.2081  0.4298
 6994SOL    HW232616   2.019   3.535   7.726  1.6335  2.8303 -1.3227
 6995SOL     OW32617   3.986   2.114   3.349 -0.8480  0.0888  0.2087
 6995SOL    HW132618   4.017   2.037   3.303  0.2290  0.8519 -0.3406
 6995SOL    HW232619   3.906   2.134   3.299  0.6730  2.0581 -1.4235
 6996SOL     OW32620   4.329   1.803   3.314  0.5190 -0.2255  0.3584
 6996SOL    HW132621   4.332   1.747   3.391 -0.3751 -2.2789 -1.1129
 6996SOL    HW232622   4.418   1.836   3.324  0.5391 -0.3872  0.6882
 6997SOL     OW32623   2.299   0.993   9.673 -0.5121  0.0751 -0.0454
 6997SOL    HW132624   2.322   0.944   9.594 -0.3564 -1.1902  0.7938
 6997SOL    HW232625   2.239   0.935   9.719  2.4359 -1.8986  1.3158
 6998SOL     OW32626   0.162   2.209   4.071 -0.0444 -0.0877 -0.6574
 6998SOL    HW132627   0.218   2.184   4.144 -1.5264 -0.0402  0.4963
 6998SOL    HW232628   0.221   2.223   3.998  2.2141  3.4546  1.8584
 6999SOL     OW32629   1.781   1.056   4.085  0.0057  0.4695  0.7968
 6999SOL    HW132630   1.745   1.053   4.174  0.3928 -1.6615  0.8940
 6999SOL    HW232631   1.863   1.100   4.104  0.2317  0.1054  0.6628
 7000SOL     OW32632   0.465   3.941  13.538  0.3796  0.5649  0.3481
 7000SOL    HW132633   0.471   3.880  13.465 -0.2840  0.6878  0.1893
 7000SOL    HW232634   0.558   3.964  13.540 -0.2659  3.0264  2.0925
 7001SOL     OW32635   2.399   1.487  16.465 -0.0087  0.2563  0.2650
 7001SOL    HW132636   2.358   1.402  16.449  0.0587  0.1587  0.6068
 7001SOL    HW232637   2.405   1.485  16.561 -1.6515  1.2399  0.3926
 7002SOL     OW32638   3.406   2.272   1.252 -0.3207 -0.0419  0.2056
 7002SOL    HW132639   3.450   2.218   1.318  0.8048  0.6453  0.0154
 7002SOL    HW232640   3.395   2.222   1.171 -2.1200  0.9384 -0.1331
 7003SOL     OW32641   2.618   3.441   5.955 -0.1047  0.1958  0.6355
 7003SOL    HW132642   2.586   3.354   5.975 -1.3637  0.2314 -1.2265
 7003SOL    HW232643   2.703   3.418   5.917 -0.5083 -0.4825  0.1571
 7004SOL     OW32644   4.663   3.037  13.420  0.6114  0.4995  0.1676
 7004SOL    HW132645   4.730   3.092  13.460  0.6075  0.6170  0.0124
 7004SOL    HW232646   4.588   3.097  13.424  0.1657 -0.2168  2.1905
 7005SOL     OW32647   0.773   3.213   4.405  0.0306  0.6008 -0.1046
 7005SOL    HW132648   0.815   3.288   4.446  0.5535  0.8001 -0.9982
 7005SOL    HW232649   0.712   3.257   4.345 -0.5932  1.1392  0.9275
 7006SOL     OW32650   3.362   2.881   4.467  0.0030  0.0719 -0.0937
 7006SOL    HW132651   3.387   2.847   4.553  1.1739  0.6353 -0.2120
 7006SOL    HW232652   3.278   2.913   4.501 -0.5523 -0.6098 -0.8215
 7007SOL     OW32653   4.686   2.636   9.052 -0.5220  0.3482  0.4376
 7007SOL    HW132654   4.733   2.703   9.101 -0.0883  0.0383  0.4496
 7007SOL    HW232655   0.022   2.590   9.009  0.5643  1.4206  1.1343
 7008SOL     OW32656   2.979   1.100   4.401 -0.1914 -0.3525  0.3501
 7008SOL    HW132657   3.036   1.039   4.353 -1.9643 -1.2716 -0.5769
 7008SOL    HW232658   2.898   1.097   4.350  0.2637  0.8957 -0.4435
 7009SOL     OW32659   4.128   1.660   9.057  0.2220  0.1033  0.1740
 7009SOL    HW132660   4.192   1.606   9.011  0.0577  1.3471 -1.5157
 7009SOL    HW232661   4.040   1.633   9.028  0.8391 -1.8583  0.1353
 7010SOL     OW32662   0.007   2.939   0.765  0.0603  0.2357  0.6138
 7010SOL    HW132663   4.666   2.994   0.769 -0.4203 -0.5538  2.1532
 7010SOL    HW232664   0.081   2.994   0.737 -1.2243  1.1565 -0.9872
 7011SOL     OW32665   0.897   1.063   1.610  0.8303 -0.5878 -0.1557
 7011SOL    HW132666   0.838   1.121   1.562 -0.5705 -1.1549  0.8664
 7011SOL    HW232667   0.830   1.013   1.657  0.2333  0.5104  0.1397
 7012SOL     OW32668   4.520   4.592   4.125  0.0453  0.1759  0.0245
 7012SOL    HW132669   4.498   4.520   4.184 -0.0479 -0.0143 -0.2406
 7012SOL    HW232670   4.463   4.577   4.049  1.0439  2.5588 -1.1701
 7013SOL     OW32671   4.265   1.951   4.651 -0.0542 -0.2872  0.1115
 7013SOL    HW132672   4.253   1.921   4.742 -2.6341  1.7462  0.4589
 7013SOL    HW232673   4.201   2.023   4.653 -0.3361 -0.5520  1.0336
 7014SOL     OW32674   0.288   3.553  10.412  0.0045  0.3893 -0.7168
 7014SOL    HW132675   0.267   3.466  10.377 -2.3590  0.2742  0.9712
 7014SOL    HW232676   0.215   3.566  10.473  0.5434 -2.7382  0.5773
 7015SOL     OW32677   1.192   4.217  15.036 -0.0351  0.3940  0.7794
 7015SOL    HW132678   1.139   4.149  15.078 -0.7948 -1.1831 -2.7499
 7015SOL    HW232679   1.277   4.175  15.051 -0.8580 -1.4264  0.3191
 7016SOL     OW32680   3.482   3.384   0.701  0.4120 -0.5300  0.1265
 7016SOL    HW132681   3.567   3.423   0.721 -0.1302  1.0277 -0.6801
 7016SOL    HW232682   3.522   3.298   0.685  0.4644 -0.6564  0.9132
 7017SOL     OW32683   0.135   4.090   3.162 -0.1289 -0.3145  0.6165
 7017SOL    HW132684   0.212   4.072   3.216  1.3473  3.1675 -0.2939
 7017SOL    HW232685   0.136   4.186   3.163 -1.7738 -0.2833 -1.2338
 7018SOL     OW32686   2.020   2.048  15.882  0.0342 -0.3154 -0.7286
 7018SOL    HW132687   2.079   2.076  15.951 -0.0286  3.9921 -2.3970
 7018SOL    HW232688   2.013   1.957  15.908  0.1955 -0.3841 -0.9263
 7019SOL     OW32689   1.432   3.439   9.200 -0.1113  0.1536 -0.2618
 7019SOL    HW132690   1.494   3.374   9.232 -2.0458 -1.6812 -0.2665
 7019SOL    HW232691   1.370   3.388   9.148 -1.7529  0.4367  1.4354
 7020SOL     OW32692   0.198   4.373   7.477  0.2783 -0.7306  0.2165
 7020SOL    HW132693   0.187   4.455   7.524  0.7756 -0.6747  0.2333
 7020SOL    HW232694   0.270   4.339   7.529  0.7627 -0.5871 -0.3628
 7021SOL     OW32695   4.730   0.495   7.894  0.5799 -0.0937  0.3350
 7021SOL    HW132696   0.008   0.551   7.970  0.8267  1.3028 -0.7535
 7021SOL    HW232697   4.727   0.549   7.816 -0.6701  1.3518  1.3779
 7022SOL     OW32698   2.558   1.134   1.111 -0.3517 -0.2554 -0.3374
 7022SOL    HW132699   2.584   1.116   1.201 -2.5104 -0.2884  0.2618
 7022SOL    HW232700   2.475   1.089   1.101 -0.3414 -0.5647  0.9780
 7023SOL     OW32701   1.112   0.255  14.569  0.0491 -0.6244  0.4938
 7023SOL    HW132702   1.154   0.194  14.630 -0.2516 -2.1864 -0.8603
 7023SOL    HW232703   1.020   0.243  14.590 -0.5427 -0.0651 -1.7415
 7024SOL     OW32704   4.340   1.874   8.414 -0.3565 -0.0299 -0.2365
 7024SOL    HW132705   4.298   1.960   8.420 -2.4388 -0.9768 -1.1758
 7024SOL    HW232706   4.353   1.857   8.321 -2.1069  0.4704 -0.5669
 7025SOL     OW32707   0.831   0.258   9.266  0.4843 -0.4040  0.0930
 7025SOL    HW132708   0.763   0.191   9.255 -1.2892  1.1999  1.3927
 7025SOL    HW232709   0.861   0.264   9.175  0.4890  1.7790  0.2345
 7026SOL     OW32710   1.603   2.865   6.522 -0.3739 -0.3961  0.9734
 7026SOL    HW132711   1.651   2.880   6.604  1.2794 -1.0522  0.1296
 7026SOL    HW232712   1.517   2.872   6.562 -1.2786 -1.0947 -0.8687
 7027SOL     OW32713   4.156   2.526   8.166  0.4157 -0.7660 -0.6987
 7027SOL    HW132714   4.156   2.621   8.153  0.0829 -0.5972  0.5232
 7027SOL    HW232715   4.094   2.515   8.238  1.0984  1.7464  0.2813
 7028SOL     OW32716   3.563   0.263   3.013  0.1998  0.3228  0.1511
 7028SOL    HW132717   3.493   0.260   2.948  0.8202 -0.6050 -0.4699
 7028SOL    HW232718   3.507   0.273   3.090  0.7512 -2.2974  0.9017
 7029SOL     OW32719   2.790   1.638   9.992  0.0061 -0.0215 -0.5146
 7029SOL    HW132720   2.799   1.554   9.948  0.0190 -0.3968  0.2083
 7029SOL    HW232721   2.811   1.692   9.916 -1.3172  0.6668 -0.3894
 7030SOL     OW32722   2.953   1.389  13.583  0.4492 -0.1985  0.1188
 7030SOL    HW132723   2.885   1.456  13.574  0.4466 -0.1322  0.6733
 7030SOL    HW232724   2.930   1.367  13.673  1.4725 -1.1739  0.1488
 7031SOL     OW32725   1.856   2.010  11.894 -0.1744 -0.7184 -0.0341
 7031SOL    HW132726   1.776   2.057  11.919  0.0425 -0.6637  0.5720
 7031SOL    HW232727   1.909   2.019  11.974  2.1888 -0.1307 -1.6716
 7032SOL     OW32728   2.310   0.236  14.168  0.1551 -0.2589 -0.0347
 7032SOL    HW132729   2.255   0.160  14.147  1.7865 -0.8764 -2.0992
 7032SOL    HW232730   2.285   0.289  14.092 -1.9878 -0.1166  0.7922
 7033SOL     OW32731   2.529   1.473  13.857 -0.0577  0.9491 -0.2505
 7033SOL    HW132732   2.458   1.528  13.822 -0.0957  1.8561  1.2546
 7033SOL    HW232733   2.491   1.445  13.940  1.9860 -3.2434 -0.7594
 7034SOL     OW32734   4.451   0.766   3.042 -0.1797 -0.5505  0.4561
 7034SOL    HW132735   4.368   0.718   3.043  0.5378 -1.7758 -0.1358
 7034SOL    HW232736   4.472   0.736   3.131 -1.6235 -1.4201  0.4946
 7035SOL     OW32737   2.732   2.879   6.762 -0.3574 -0.2041 -0.3907
 7035SOL    HW132738   2.785   2.939   6.709  1.4725 -0.1286  1.5361
 7035SOL    HW232739   2.683   2.936   6.821  3.0466  0.5069  1.7667
 7036SOL     OW32740   3.167   3.512   2.753  0.4489  0.3941 -0.3539
 7036SOL    HW132741   3.193   3.598   2.718  0.8447  0.6038  0.4572
 7036SOL    HW232742   3.106   3.535   2.823  2.0962  3.1210  0.2281
 7037SOL     OW32743   1.313   2.699   7.448 -0.0380 -0.0700  0.6911
 7037SOL    HW132744   1.382   2.662   7.393 -1.5538 -1.0250 -0.5583
 7037SOL    HW232745   1.299   2.633   7.516 -1.7910  0.3549  0.7400
 7038SOL     OW32746   4.617   2.998  15.626  0.0081 -0.4951  0.1533
 7038SOL    HW132747   4.647   2.952  15.548 -1.4806  1.0525 -1.3180
 7038SOL    HW232748   4.530   3.020  15.593  0.4053 -2.9033 -2.4926
 7039SOL     OW32749   3.141   2.634   1.758 -0.1722  0.2248 -0.1701
 7039SOL    HW132750   3.117   2.673   1.843  1.7543  3.8425 -1.2951
 7039SOL    HW232751   3.186   2.712   1.727 -1.4001  0.7920 -0.4821
 7040SOL     OW32752   4.297   1.817   3.000  0.5355 -0.5792 -0.4797
 7040SOL    HW132753   4.302   1.807   3.095  0.3467  0.4978 -0.3592
 7040SOL    HW232754   4.249   1.738   2.975 -1.4212  0.1168  1.0701
 7041SOL     OW32755   4.133   3.856   6.394  0.3643  0.1465  0.0186
 7041SOL    HW132756   4.084   3.802   6.456  0.5370 -1.0008 -0.8291
 7041SOL    HW232757   4.151   3.796   6.321  0.4442  0.9990 -0.6551
 7042SOL     OW32758   2.345   3.213  12.722 -0.5220  0.0819  0.2681
 7042SOL    HW132759   2.396   3.226  12.802  0.3216  1.0757 -0.4222
 7042SOL    HW232760   2.363   3.121  12.702 -1.3222 -0.0117 -0.0180
 7043SOL     OW32761   2.761   1.464   6.396  0.3216 -0.1976  0.1808
 7043SOL    HW132762   2.666   1.470   6.404  0.2767  1.0030 -1.1661
 7043SOL    HW232763   2.794   1.427   6.478  1.0702 -0.2461 -0.1382
 7044SOL     OW32764   4.284   3.894   5.732 -0.0904  0.2796 -0.0063
 7044SOL    HW132765   4.367   3.848   5.743 -0.6027 -0.5916  0.2227
 7044SOL    HW232766   4.230   3.865   5.806 -1.4701  1.7961 -0.4060
 7045SOL     OW32767   2.950   2.118  10.583  0.3003 -0.2464 -0.1013
 7045SOL    HW132768   3.006   2.085  10.513  1.4635  2.1048 -0.2800
 7045SOL    HW232769   2.942   2.035  10.630 -1.5359  1.3017  2.3121
 7046SOL     OW32770   3.577   3.484   8.011  0.2367 -0.1247  0.6958
 7046SOL    HW132771   3.649   3.538   7.980  0.1528 -0.3846  0.0570
 7046SOL    HW232772   3.548   3.438   7.933  0.9302  2.6713 -1.1924
 7047SOL     OW32773   1.574   1.155   4.872  0.8762  0.2175 -0.3537
 7047SOL    HW132774   1.617   1.186   4.792  2.4746 -0.7241  0.1482
 7047SOL    HW232775   1.613   1.067   4.875  0.8320  0.2614  1.3726
 7048SOL     OW32776   2.317   0.494   6.001 -0.2133 -0.0428 -0.3549
 7048SOL    HW132777   2.278   0.476   6.086 -1.3590 -1.6299 -1.2184
 7048SOL    HW232778   2.281   0.582   5.991  2.1253  0.9304 -0.3022
 7049SOL     OW32779   3.680   1.195  15.564 -0.7060  0.3406 -0.0144
 7049SOL    HW132780   3.741   1.268  15.578  1.1993 -0.8471 -2.2855
 7049SOL    HW232781   3.709   1.175  15.475  0.9750 -0.9109  0.8223
 7050SOL     OW32782   3.221   2.214   4.638 -0.2496  0.7640 -0.4038
 7050SOL    HW132783   3.230   2.294   4.690 -1.0109  0.2736  0.4911
 7050SOL    HW232784   3.131   2.226   4.610 -1.0426 -0.6134  1.5133
 7051SOL     OW32785   0.174   1.434   1.293  0.5797  0.6627 -0.2861
 7051SOL    HW132786   0.083   1.461   1.305  0.5815 -0.6272  2.4595
 7051SOL    HW232787   0.207   1.515   1.255 -0.5628  1.2773  0.0385
 7052SOL     OW32788   4.296   0.806   2.297  0.2006 -0.0941  0.4515
 7052SOL    HW132789   4.253   0.844   2.373 -1.6106  1.5187 -1.3942
 7052SOL    HW232790   4.379   0.850   2.315 -0.4861  0.2695  2.7738
 7053SOL     OW32791   3.764   0.623  12.670  0.7279  0.4266 -0.0088
 7053SOL    HW132792   3.719   0.636  12.754 -0.1308 -0.7288 -0.2905
 7053SOL    HW232793   3.761   0.527  12.667  1.7482  0.4038 -0.2372
 7054SOL     OW32794   1.331   2.775   6.570 -0.0006 -0.4743 -0.1815
 7054SOL    HW132795   1.317   2.750   6.478 -1.4363 -0.0774 -0.0656
 7054SOL    HW232796   1.394   2.704   6.587  0.0712 -0.6543 -1.1886
 7055SOL     OW32797   1.281   3.516   4.132 -0.3330 -0.0439 -0.1150
 7055SOL    HW132798   1.317   3.437   4.092  0.3561 -0.6611  1.7562
 7055SOL    HW232799   1.287   3.576   4.057 -0.7482  0.1602  0.0175
 7056SOL     OW32800   1.189   2.553   8.098  0.1257 -0.1467  0.3764
 7056SOL    HW132801   1.197   2.527   8.189 -0.6291 -0.4589  0.3476
 7056SOL    HW232802   1.247   2.630   8.093  0.1316 -0.0009  3.1446
 7057SOL     OW32803   0.460   0.656  10.187  0.7390  0.4925 -0.2848
 7057SOL    HW132804   0.431   0.653  10.096 -0.1566 -1.1455  0.0545
 7057SOL    HW232805   0.473   0.747  10.213 -1.4787  1.1711 -1.6060
 7058SOL     OW32806   4.531   4.451  11.447  0.4354  0.0321 -0.2184
 7058SOL    HW132807   4.601   4.502  11.487 -1.5797  0.8964  2.2209
 7058SOL    HW232808   4.573   4.426  11.365  0.0799  0.2638 -0.4730
 7059SOL     OW32809   0.527   0.690  16.123  0.2000 -0.2976  0.1472
 7059SOL    HW132810   0.468   0.737  16.064  0.4016  0.0525  0.2202
 7059SOL    HW232811   0.525   0.741  16.204 -2.9525 -3.0894  1.8026
 7060SOL     OW32812   3.193   1.574  11.765  0.6148 -0.5416  0.1442
 7060SOL    HW132813   3.211   1.504  11.703 -0.2636 -0.0369 -0.6881
 7060SOL    HW232814   3.102   1.592  11.740  0.7409  3.4393  2.4970
 7061SOL     OW32815   0.092   2.325  16.665 -0.4516  0.2799 -0.4110
 7061SOL    HW132816   0.138   2.397  16.708 -0.6058  0.2229 -0.1515
 7061SOL    HW232817   0.015   2.313  16.721  2.2655  1.0665  3.5432
 7062SOL     OW32818   2.743   2.376   3.972  0.2884  0.3223  0.2737
 7062SOL    HW132819   2.670   2.316   3.958 -0.7463  1.8139 -0.8324
 7062SOL    HW232820   2.704   2.460   3.945 -0.5124  0.4107  1.6904
 7063SOL     OW32821   1.179   2.027   3.829  0.7137 -0.0335  0.0501
 7063SOL    HW132822   1.105   1.982   3.790  0.4442 -0.0046  0.5252
 7063SOL    HW232823   1.211   1.969   3.898 -1.9752  1.0772  2.2219
 7064SOL     OW32824   1.601   0.250   2.537 -0.2137 -0.2257  0.8150
 7064SOL    HW132825   1.607   0.236   2.443 -2.4748 -0.2836  0.6706
 7064SOL    HW232826   1.547   0.328   2.551  0.3626 -0.0572  2.1083
 7065SOL     OW32827   1.045   0.012   6.500  1.0226 -0.0784 -0.1241
 7065SOL    HW132828   1.049   4.671   6.555  1.0638  0.8291  1.1454
 7065SOL    HW232829   0.978   0.064   6.546  0.2127 -2.3721  1.2892
 7066SOL     OW32830   0.538   4.471   5.075  0.8535  0.1962 -0.2674
 7066SOL    HW132831   0.527   4.411   5.148 -2.0759  3.2073  1.7648
 7066SOL    HW232832   0.450   4.487   5.040  0.9640 -1.5041 -1.2975
 7067SOL     OW32833   0.669   0.693  17.521 -0.2572  0.3380  0.3794
 7067SOL    HW132834   0.715   0.772  17.549 -3.6480  3.2298 -2.3054
 7067SOL    HW232835   0.732   0.637  17.475 -1.8892  0.5916 -2.1465
 7068SOL     OW32836   3.411   2.914  11.495  0.6865 -0.4086  0.0708
 7068SOL    HW132837   3.456   2.831  11.486 -1.2742 -1.6691  1.8580
 7068SOL    HW232838   3.464   2.948  11.567 -0.0634 -3.2924  1.9712
 7069SOL     OW32839   1.281   1.278   8.919 -0.3573  0.2295  0.6072
 7069SOL    HW132840   1.261   1.352   8.976  2.2021  0.8181  0.7466
 7069SOL    HW232841   1.374   1.269   8.941 -0.0822  1.8430  0.1310
 7070SOL     OW32842   3.527   0.083  16.711  0.4304 -0.0696  0.1597
 7070SOL    HW132843   3.511   0.088  16.806  0.9306  2.1822  0.1339
 7070SOL    HW232844   3.536   0.177  16.693  0.4073  0.3292  2.1617
 7071SOL     OW32845   0.449   2.982   3.506 -0.0019  0.2447  0.4273
 7071SOL    HW132846   0.384   3.014   3.569  0.4421  2.3852 -0.2348
 7071SOL    HW232847   0.529   3.018   3.545  0.1799  1.0484 -0.7033
 7072SOL     OW32848   2.705   1.905   4.341  0.6198 -0.2807  0.0521
 7072SOL    HW132849   2.793   1.943   4.349  0.1095  0.8528  0.3687
 7072SOL    HW232850   2.654   1.967   4.394 -1.1161 -2.5582  1.0460
 7073SOL     OW32851   1.896   1.519   2.574 -0.3269  0.0915 -0.3878
 7073SOL    HW132852   1.895   1.582   2.647 -0.5807 -1.0854  0.6117
 7073SOL    HW232853   1.803   1.521   2.553 -0.5650  1.8630  0.7916
 7074SOL     OW32854   4.228   0.441   5.298  0.4848  0.3380  0.0242
 7074SOL    HW132855   4.286   0.420   5.224 -0.5832  0.9669 -0.9993
 7074SOL    HW232856   4.221   0.352   5.332 -1.8150  1.6703  3.0078
 7075SOL     OW32857   2.576   0.094   5.385  0.1621 -0.2300 -0.1539
 7075SOL    HW132858   2.651   0.149   5.360  0.5284  0.1524  1.8482
 7075SOL    HW232859   2.516   0.157   5.346  0.6921  2.0542  2.7635
 7076SOL     OW32860   3.956   1.361   9.177 -0.7000  0.3507 -0.4316
 7076SOL    HW132861   3.994   1.399   9.256 -0.9071  2.9189 -1.5708
 7076SOL    HW232862   3.933   1.272   9.204 -2.5428  1.4800  1.6576
 7077SOL     OW32863   3.323   2.915   8.685  0.5861  0.3124  0.8007
 7077SOL    HW132864   3.416   2.903   8.702  0.9795  0.9832 -0.8596
 7077SOL    HW232865   3.320   2.906   8.589 -0.9315 -1.7295  1.0372
 7078SOL     OW32866   3.519   1.033  13.619  0.3363 -0.5849 -0.1022
 7078SOL    HW132867   3.464   1.035  13.541  0.0066  1.0806  0.1761
 7078SOL    HW232868   3.599   1.063  13.575 -0.2586 -0.8628 -1.3532
 7079SOL     OW32869   4.421   1.537   9.453 -0.5566 -0.0550  0.2272
 7079SOL    HW132870   4.406   1.587   9.533 -1.5819 -0.6995  0.4319
 7079SOL    HW232871   4.369   1.588   9.390  0.9737 -0.6488 -1.5255
 7080SOL     OW32872   0.057   0.365   6.781 -0.0324 -0.0390 -0.1928
 7080SOL    HW132873   0.067   0.277   6.817 -0.9067  0.1567  0.5301
 7080SOL    HW232874   0.148   0.382   6.755  0.2181  1.1526  1.4472
 7081SOL     OW32875   3.521   4.574   3.543 -0.3551  0.5221 -0.4873
 7081SOL    HW132876   3.435   4.536   3.525  1.2997 -2.5667 -1.8589
 7081SOL    HW232877   3.513   4.667   3.521 -0.5703  0.1770 -1.8535
 7082SOL     OW32878   1.910   1.796   7.014 -0.0176  0.1655 -0.5850
 7082SOL    HW132879   1.814   1.800   7.008 -0.1248 -3.2993 -1.2419
 7082SOL    HW232880   1.908   1.746   7.095  1.5375  0.1303 -0.5666
 7083SOL     OW32881   4.563   3.028  13.136  0.4322 -0.5436 -0.1826
 7083SOL    HW132882   4.604   3.010  13.220 -3.4630  2.1028  2.2884
 7083SOL    HW232883   4.471   3.047  13.158  0.9931  1.8225  0.1163
 7084SOL     OW32884   3.839   1.084   3.203 -0.1311  0.6555  0.5217
 7084SOL    HW132885   3.843   1.049   3.292 -2.8876 -0.7714  0.0877
 7084SOL    HW232886   3.928   1.115   3.186 -1.8593  4.6385 -1.2949
 7085SOL     OW32887   3.967   0.437   8.386  0.4856 -0.6551 -0.1045
 7085SOL    HW132888   3.940   0.502   8.321 -0.8505  0.7270  1.8305
 7085SOL    HW232889   3.974   0.496   8.460 -0.8863  1.4751 -1.6659
 7086SOL     OW32890   4.530   4.613   9.717 -0.1326 -0.5539  0.2951
 7086SOL    HW132891   4.570   4.526   9.709  0.2329 -0.3858  0.3005
 7086SOL    HW232892   4.584   4.661   9.655 -1.6754  1.0544  0.1871
 7087SOL     OW32893   1.812   4.283   7.745  0.4017  0.3011 -0.2655
 7087SOL    HW132894   1.882   4.347   7.756 -0.1198  0.8170  0.0343
 7087SOL    HW232895   1.793   4.287   7.651  1.0345  0.6048 -0.3783
 7088SOL     OW32896   3.859   0.904   3.450 -0.1210 -0.6176 -0.4266
 7088SOL    HW132897   3.817   0.841   3.393 -2.3535 -0.0356  0.5514
 7088SOL    HW232898   3.784   0.927   3.506 -1.9217 -3.1133 -1.8467
 7089SOL     OW32899   3.839   1.429   3.201 -0.2413 -1.0103  0.5154
 7089SOL    HW132900   3.868   1.390   3.283  2.1888 -0.6752 -0.1747
 7089SOL    HW232901   3.759   1.471   3.232 -0.3050 -1.6961  1.2694
 7090SOL     OW32902   0.369   0.478  11.301 -0.0149 -0.2863  0.0364
 7090SOL    HW132903   0.449   0.458  11.350 -1.6455 -1.7490  2.1353
 7090SOL    HW232904   0.317   0.400  11.324  0.6775 -1.1576 -1.3234
 7091SOL     OW32905   3.605   3.300  12.978 -0.2769  0.6881  0.4017
 7091SOL    HW132906   3.513   3.316  12.998 -1.1238 -2.1191 -1.3149
 7091SOL    HW232907   3.624   3.392  12.998  1.3625  0.2236  1.0293
 7092SOL     OW32908   2.949   1.734   5.149 -0.9535 -0.0235 -0.3704
 7092SOL    HW132909   2.960   1.828   5.158  0.2134 -0.6168  4.2880
 7092SOL    HW232910   2.971   1.696   5.234 -0.8049 -0.3051 -0.5345
 7093SOL     OW32911   4.541   4.064   0.077  0.2288 -0.6432  0.3286
 7093SOL    HW132912   4.511   3.976   0.056 -1.6748  0.1507 -0.3207
 7093SOL    HW232913   4.492   4.119   0.016  1.6811  0.6347  0.3070
 7094SOL     OW32914   2.616   2.252   9.700  0.4409 -0.7511  0.3558
 7094SOL    HW132915   2.588   2.167   9.666  1.7053 -1.0491  0.0408
 7094SOL    HW232916   2.591   2.299   9.622 -0.1614 -1.1703  0.2976
 7095SOL     OW32917   3.276   3.723  13.208 -0.4963 -0.7109  0.3287
 7095SOL    HW132918   3.369   3.701  13.205 -0.3815  0.1566 -2.1309
 7095SOL    HW232919   3.271   3.803  13.156  1.6856  0.8350  2.5338
 7096SOL     OW32920   0.525   4.379   3.650 -0.2208 -0.2104  0.8827
 7096SOL    HW132921   0.493   4.295   3.617 -2.6590  0.2555  2.0437
 7096SOL    HW232922   0.532   4.425   3.567  1.7651  0.1667  1.2453
 7097SOL     OW32923   3.669   1.555   4.507  0.1528 -0.6559 -0.3329
 7097SOL    HW132924   3.740   1.581   4.447 -0.1632  1.4597  0.1876
 7097SOL    HW232925   3.644   1.638   4.549  0.0289 -0.7040 -0.3128
 7098SOL     OW32926   1.500   0.898  17.669 -0.5851 -0.0166  0.0591
 7098SOL    HW132927   1.521   0.936   0.009 -2.2835 -1.0761  0.9360
 7098SOL    HW232928   1.492   0.805  17.691  0.5705 -0.6912 -2.3703
 7099SOL     OW32929   2.586   0.299   4.932  0.0365  0.1449 -0.4182
 7099SOL    HW132930   2.535   0.266   4.857  1.1813 -1.9757 -0.2720
 7099SOL    HW232931   2.670   0.263   4.903  0.2219  0.1940  0.0682
 7100SOL     OW32932   0.796   4.643  15.359 -0.6921 -0.0845 -0.2854
 7100SOL    HW132933   0.706   4.659  15.388 -0.6968 -0.6143 -0.0040
 7100SOL    HW232934   0.783   4.660  15.266  0.3482 -0.6122 -0.5296
 7101SOL     OW32935   0.337   4.630  15.557 -0.0985  0.3682  0.3166
 7101SOL    HW132936   0.369   4.601  15.642  0.6452 -2.2945 -0.8831
 7101SOL    HW232937   0.397   4.703  15.538  2.2653 -1.8752 -0.8808
 7102SOL     OW32938   3.879   1.040   4.842  0.3907 -0.5582 -0.7980
 7102SOL    HW132939   3.845   0.954   4.815 -0.1858 -0.1619 -1.3277
 7102SOL    HW232940   3.873   1.099   4.767  1.1384 -0.4233 -0.7427
 7103SOL     OW32941   3.428   4.566   3.995 -0.0722  0.3139 -0.5834
 7103SOL    HW132942   3.502   4.591   3.940  0.8152  1.6597  1.2077
 7103SOL    HW232943   3.471   4.510   4.059 -3.2590 -1.8269 -0.2877
 7104SOL     OW32944   0.071   3.519   6.642 -0.0619 -0.2531 -0.9396
 7104SOL    HW132945   0.088   3.427   6.662  0.9148  0.3753  1.0943
 7104SOL    HW232946   0.103   3.553   6.726  1.6140 -3.5340 -0.2589
 7105SOL     OW32947   0.829   3.316   7.976  0.3519  0.6802 -0.4766
 7105SOL    HW132948   0.763   3.331   7.908 -0.6435 -0.2293  0.2864
 7105SOL    HW232949   0.796   3.239   8.022 -1.0108  0.7357 -1.3624
 7106SOL     OW32950   2.624   0.548   8.776 -0.3511  0.0826 -0.1560
 7106SOL    HW132951   2.677   0.553   8.855 -0.2130  1.0640 -0.3032
 7106SOL    HW232952   2.695   0.541   8.711  0.6123  0.7685  0.8330
 7107SOL     OW32953   3.760   3.745   5.327  0.1186 -0.3920 -0.2723
 7107SOL    HW132954   3.732   3.791   5.406  3.7748  0.9870  0.2237
 7107SOL    HW232955   3.855   3.756   5.324  0.1773 -0.5015  1.7897
 7108SOL     OW32956   2.761   4.381   8.295  0.2445  0.1005  0.0984
 7108SOL    HW132957   2.817   4.458   8.292  1.3591 -0.6407  1.8646
 7108SOL    HW232958   2.828   4.316   8.275 -0.9048 -1.0374 -0.0764
 7109SOL     OW32959   0.449   2.339  16.409  0.3976 -0.2368  0.1355
 7109SOL    HW132960   0.360   2.372  16.394  0.9889  1.2221 -0.1627
 7109SOL    HW232961   0.471   2.354  16.501 -1.8087  0.3462  0.5802
 7110SOL     OW32962   0.618   1.629   6.870 -0.2330  0.0687 -0.3731
 7110SOL    HW132963   0.711   1.608   6.861 -1.1879 -4.0057 -1.0952
 7110SOL    HW232964   0.583   1.566   6.807 -0.9363 -1.0338  1.1095
 7111SOL     OW32965   0.569   0.791   8.936 -0.0210  0.5057 -0.3071
 7111SOL    HW132966   0.640   0.736   8.970 -1.5215 -1.1133  0.2538
 7111SOL    HW232967   0.530   0.825   9.017  0.5537  1.4244 -0.4147
 7112SOL     OW32968   0.163   4.641   0.388 -0.4977  0.1248 -0.6884
 7112SOL    HW132969   0.150   4.566   0.330  0.2865  0.6850 -1.5999
 7112SOL    HW232970   0.074   4.669   0.406 -0.8088 -1.0111 -0.4870
 7113SOL     OW32971   2.955   2.440  11.818  0.6450 -0.4872 -0.0419
 7113SOL    HW132972   2.988   2.525  11.790 -0.9265  0.4378  0.9004
 7113SOL    HW232973   2.965   2.389  11.738  0.7362  2.1388 -1.7224
 7114SOL     OW32974   3.235   3.481  14.846 -0.1435 -0.0378  1.4960
 7114SOL    HW132975   3.159   3.453  14.897 -1.4705  0.9320  0.0756
 7114SOL    HW232976   3.204   3.483  14.755  0.0772  1.9724  1.4663
 7115SOL     OW32977   1.564   3.699   3.979 -0.0512 -0.5298  0.0884
 7115SOL    HW132978   1.486   3.709   3.925  0.7099  3.6843 -0.2110
 7115SOL    HW232979   1.551   3.782   4.026 -0.1966 -0.4992 -0.0069
 7116SOL     OW32980   4.256   4.561   5.891 -0.1526 -0.6890 -0.2141
 7116SOL    HW132981   4.278   4.520   5.975  1.3979  2.6548  1.0046
 7116SOL    HW232982   4.339   4.560   5.842  0.9254 -0.1011  1.5809
 7117SOL     OW32983   4.239   0.936   6.293  0.2001  0.9088 -0.3193
 7117SOL    HW132984   4.286   0.931   6.376 -1.7513 -0.7082  0.6846
 7117SOL    HW232985   4.280   0.873   6.233 -0.7391 -1.6700  1.8063
 7118SOL     OW32986   0.211   4.584   2.097  0.3930  0.4740  0.1076
 7118SOL    HW132987   0.267   4.552   2.026 -0.1088  1.0504 -0.5437
 7118SOL    HW232988   0.138   4.615   2.042  3.4688  0.7369 -3.8457
 7119SOL     OW32989   3.522   4.416   7.158 -0.7273 -0.7871  0.1456
 7119SOL    HW132990   3.498   4.457   7.241 -1.0420  1.4376 -1.0337
 7119SOL    HW232991   3.615   4.425   7.177 -0.7818 -1.6224  0.7917
 7120SOL     OW32992   0.154   2.643  14.266 -0.2597 -0.4504 -0.5099
 7120SOL    HW132993   0.102   2.712  14.225  0.0747  0.1322  0.0481
 7120SOL    HW232994   0.155   2.578  14.196 -2.1521 -0.0809 -0.8789
 7121SOL     OW32995   3.649   4.586   1.729  0.6696 -0.5519  0.4955
 7121SOL    HW132996   3.716   4.653   1.744  0.7073 -0.3280 -0.6481
 7121SOL    HW232997   3.708   4.512   1.736  0.2679 -1.1684 -2.4836
 7122SOL     OW32998   0.919   1.389   6.803  0.4043 -0.1689  0.6733
 7122SOL    HW132999   0.893   1.314   6.856 -1.5854 -1.3734 -2.0201
 7122SOL    HW233000   0.992   1.347   6.756  0.1917  1.3479 -1.0287
 7123SOL     OW33001   2.422   2.407  17.196 -0.7029 -0.1079  0.1014
 7123SOL    HW133002   2.441   2.465  17.270  0.3020  0.9397 -0.9930
 7123SOL    HW233003   2.431   2.470  17.125  0.3519  1.0457  1.2375
 7124SOL     OW33004   1.603   1.162   5.796  0.1934 -0.3163  0.2415
 7124SOL    HW133005   1.579   1.070   5.783 -0.3736  0.2781 -2.9484
 7124SOL    HW233006   1.539   1.214   5.748 -0.5631 -0.7996  0.7181
 7125SOL     OW33007   3.425   4.177  13.876 -0.1765 -0.0592  0.4708
 7125SOL    HW133008   3.439   4.121  13.800 -0.4800  0.1145  0.2872
 7125SOL    HW233009   3.367   4.248  13.847  1.1630  1.4656  1.5522
 7126SOL     OW33010   0.658   3.526  16.532  0.4229 -0.1509  0.1932
 7126SOL    HW133011   0.615   3.485  16.607 -0.2206 -1.4928 -0.9184
 7126SOL    HW233012   0.593   3.587  16.497  1.0429 -1.2241 -2.7870
 7127SOL     OW33013   3.012   3.722   5.981 -0.0103  0.6423  1.0207
 7127SOL    HW133014   3.102   3.751   5.999  0.9600  0.1085 -3.0003
 7127SOL    HW233015   2.959   3.792   6.019 -2.0165  0.1496 -0.8650
 7128SOL     OW33016   3.545   2.060   8.891  0.6874 -0.2887 -0.8409
 7128SOL    HW133017   3.488   1.984   8.901 -0.0052  0.4248  0.6223
 7128SOL    HW233018   3.613   2.048   8.957  0.3386  0.1574 -0.3999
 7129SOL     OW33019   0.200   2.597   8.957 -0.3510  0.6935 -0.4609
 7129SOL    HW133020   0.268   2.627   8.897 -0.8358  0.3595 -1.1738
 7129SOL    HW233021   0.220   2.669   9.018  2.2136  0.9021 -1.5466
 7130SOL     OW33022   0.623   0.513  11.900 -0.5906  0.8353 -0.3443
 7130SOL    HW133023   0.625   0.606  11.879 -2.8093  1.0277  0.3867
 7130SOL    HW233024   0.626   0.522  11.996  2.5783 -1.3285 -0.2118
 7131SOL     OW33025   3.147   0.252  10.337 -0.1143  0.6020  0.4769
 7131SOL    HW133026   3.221   0.242  10.276 -1.4961 -0.6184 -1.0226
 7131SOL    HW233027   3.154   0.346  10.349  0.7919  0.5953  0.0546
 7132SOL     OW33028   1.468   2.607   5.792 -0.0959  0.1353 -0.0607
 7132SOL    HW133029   1.441   2.694   5.821  0.0972  0.0242  0.4509
 7132SOL    HW233030   1.470   2.636   5.701  3.4856 -1.4692 -0.4898
 7133SOL     OW33031   1.612   3.200   3.043 -0.1950  0.2480 -0.0269
 7133SOL    HW133032   1.590   3.287   3.009 -0.0800  0.1150 -0.4498
 7133SOL    HW233033   1.666   3.221   3.119 -0.6577 -1.8824  0.8877
 7134SOL     OW33034   0.750   4.463   9.341  0.7060 -0.0260  0.4420
 7134SOL    HW133035   0.678   4.403   9.361  1.4934 -1.7683 -1.9175
 7134SOL    HW233036   0.821   4.398   9.350 -1.3524 -2.3037  0.3091
 7135SOL     OW33037   4.661   3.138   0.173  0.2705  0.3400 -0.4325
 7135SOL    HW133038   4.572   3.124   0.142  0.7384  0.6478 -1.8802
 7135SOL    HW233039   4.691   3.204   0.111 -1.3320  1.4241 -0.0503
 7136SOL     OW33040   4.505   0.630   7.715  0.0154 -1.1651 -0.1549
 7136SOL    HW133041   4.474   0.676   7.638  0.0101  0.1276  0.6205
 7136SOL    HW233042   4.450   0.552   7.708  1.1814 -1.8895 -1.2411
 7137SOL     OW33043   0.298   3.479   9.051 -0.1771  0.0342 -0.0384
 7137SOL    HW133044   0.238   3.536   9.004 -1.7424  0.9391  3.0448
 7137SOL    HW233045   0.235   3.410   9.072  1.0058 -0.8350  0.6555
 7138SOL     OW33046   1.429   4.332   2.252  0.0829 -0.1158 -0.0943
 7138SOL    HW133047   1.424   4.357   2.344 -0.0699  1.3037 -0.4863
 7138SOL    HW233048   1.403   4.241   2.260  0.1632 -0.2695 -1.5078
 7139SOL     OW33049   0.878   4.699   1.576 -0.2806 -0.1363  0.4558
 7139SOL    HW133050   0.824   4.640   1.525  0.2994 -0.4127  0.1623
 7139SOL    HW233051   0.881   0.044   1.526 -1.3367 -0.0848  0.4920
 7140SOL     OW33052   2.149   3.553  15.041 -0.4383 -0.4874 -0.4086
 7140SOL    HW133053   2.061   3.589  15.041 -0.1876  0.1417 -1.1905
 7140SOL    HW233054   2.127   3.463  15.017  0.8495 -0.7553 -0.5999
 7141SOL     OW33055   3.163   3.951   7.816 -0.2318  0.3129  0.3057
 7141SOL    HW133056   3.168   4.011   7.741 -2.0537  1.5133  1.1555
 7141SOL    HW233057   3.175   4.013   7.888  0.3291  0.5434  0.0201
 7142SOL     OW33058   1.993   0.847  10.319 -0.5457 -0.0821 -0.4220
 7142SOL    HW133059   2.076   0.824  10.276  1.1106 -1.0955  3.2337
 7142SOL    HW233060   1.970   0.763  10.360 -3.1346  0.2281 -1.2899
 7143SOL     OW33061   3.725   3.178   6.373  0.1590  0.4192 -0.2520
 7143SOL    HW133062   3.680   3.158   6.291  0.0778 -0.9943  0.1380
 7143SOL    HW233063   3.748   3.088   6.395  0.5173  0.6793  0.4612
 7144SOL     OW33064   1.779   3.238   2.592 -0.0924 -0.3739 -0.2013
 7144SOL    HW133065   1.706   3.176   2.599  2.2210 -3.3644 -2.5862
 7144SOL    HW233066   1.808   3.241   2.683 -0.8676  3.9603 -0.0925
 7145SOL     OW33067   2.529   2.625  12.073 -0.8852  0.1411  0.8161
 7145SOL    HW133068   2.605   2.620  12.131  0.1063 -1.5753 -0.5998
 7145SOL    HW233069   2.560   2.694  12.014 -0.0258 -2.5780 -1.9293
 7146SOL     OW33070   2.045   2.823   4.157 -0.3795  0.3290  0.5139
 7146SOL    HW133071   2.050   2.845   4.064  1.0748 -1.3302  0.2007
 7146SOL    HW233072   1.957   2.859   4.171  0.3554  2.2059  0.3510
 7147SOL     OW33073   3.789   3.768   8.041  0.6013 -0.2476  0.3877
 7147SOL    HW133074   3.694   3.780   8.051  0.3748 -1.8265  0.0542
 7147SOL    HW233075   3.814   3.763   8.133  2.6487 -0.6658 -0.2067
 7148SOL     OW33076   2.795   3.322   8.134 -0.2901  0.1719  0.2687
 7148SOL    HW133077   2.880   3.277   8.126  0.4722  2.1021 -2.8051
 7148SOL    HW233078   2.733   3.250   8.138  1.7895 -1.6655 -0.2895
 7149SOL     OW33079   1.554   4.228   3.329  0.4756 -0.8061  0.2112
 7149SOL    HW133080   1.525   4.292   3.264  0.2360 -0.6785  0.4417
 7149SOL    HW233081   1.583   4.286   3.399  0.2492  1.9864 -1.9858
 7150SOL     OW33082   0.063   1.776   1.244 -0.0264 -0.0916  0.0545
 7150SOL    HW133083   4.732   1.709   1.253 -1.4276  1.1724 -1.0928
 7150SOL    HW233084   0.060   1.830   1.323  0.0662  1.6111 -1.0892
 7151SOL     OW33085   2.739   4.729   2.157 -0.2958 -0.0571  0.1827
 7151SOL    HW133086   2.699   0.075   2.186 -1.6672 -0.2552 -1.1499
 7151SOL    HW233087   2.809   0.029   2.104 -1.1407  0.5669 -0.5075
 7152SOL     OW33088   1.407   2.957  17.681  0.3246 -0.2876 -0.0529
 7152SOL    HW133089   1.432   3.041  17.643 -1.4673  0.5430  0.6079
 7152SOL    HW233090   1.320   2.976  17.716  0.0529  2.2650 -2.0918
 7153SOL     OW33091   2.801   3.952   4.864  0.1700  0.4582  0.7453
 7153SOL    HW133092   2.870   3.892   4.894  0.1818  0.7105  1.2325
 7153SOL    HW233093   2.761   3.986   4.944 -0.0812 -1.0098  1.2481
 7154SOL     OW33094   0.924   2.403   6.127 -0.3525  1.0261 -0.1085
 7154SOL    HW133095   0.920   2.313   6.097  0.7366 -0.1904  3.3805
 7154SOL    HW233096   0.940   2.392   6.221  2.6352  2.9530 -0.3744
 7155SOL     OW33097   2.532   2.717   8.913 -0.0693  0.2670  0.1431
 7155SOL    HW133098   2.496   2.793   8.959 -0.5271  0.0595  0.1236
 7155SOL    HW233099   2.510   2.732   8.821  0.6979 -1.9162 -0.4026
 7156SOL     OW33100   2.023   2.543   9.946  0.5048  0.0011  0.7192
 7156SOL    HW133101   1.946   2.493   9.917  0.1407  1.5387 -0.9800
 7156SOL    HW233102   2.086   2.478   9.977 -0.1065 -1.3385 -0.8161
 7157SOL     OW33103   2.884   1.913   6.583 -0.0431  0.0502 -0.1119
 7157SOL    HW133104   2.928   1.980   6.530 -1.2665  2.2697  1.6662
 7157SOL    HW233105   2.799   1.912   6.539  0.7134  2.3398 -1.6600
 7158SOL     OW33106   3.114   2.321   7.709  0.3722  0.2194 -0.3657
 7158SOL    HW133107   3.072   2.238   7.728  1.1410  0.2741  1.5951
 7158SOL    HW233108   3.142   2.350   7.796  1.2197  0.7176 -0.8064
 7159SOL     OW33109   1.952   1.794   4.737 -0.2232 -0.1524  0.2377
 7159SOL    HW133110   1.976   1.869   4.792 -0.5025  0.5948 -0.6606
 7159SOL    HW233111   1.973   1.820   4.648  0.8183  0.8893  0.8002
 7160SOL     OW33112   1.925   4.171   6.904  0.8475 -0.2138 -0.3438
 7160SOL    HW133113   1.946   4.264   6.909 -0.5391  0.0234  1.1577
 7160SOL    HW233114   1.848   4.167   6.960  0.5734 -1.1037 -0.7699
 7161SOL     OW33115   1.902   1.003  15.245 -0.4793  0.0954  0.4833
 7161SOL    HW133116   1.978   1.046  15.204 -0.0682 -2.4917 -1.4397
 7161SOL    HW233117   1.852   0.979  15.167  2.1673  1.4894 -1.6628
 7162SOL     OW33118   0.481   0.885   8.525  0.0772 -0.6517 -0.5363
 7162SOL    HW133119   0.459   0.974   8.496 -0.0622 -0.3052  0.6397
 7162SOL    HW233120   0.396   0.844   8.508  0.3543 -1.1824 -0.6462
 7163SOL     OW33121   3.094   1.548   7.141  0.4569 -0.5402  0.0661
 7163SOL    HW133122   3.102   1.482   7.072  1.0161 -1.2603  0.8286
 7163SOL    HW233123   3.102   1.627   7.087  0.3460 -0.3418  0.3427
 7164SOL     OW33124   0.862   0.553   5.321  0.0126  0.1015 -0.8259
 7164SOL    HW133125   0.906   0.637   5.305  0.6445 -0.4027 -1.7228
 7164SOL    HW233126   0.779   0.589   5.354  0.6584  0.4518  0.3960
 7165SOL     OW33127   1.230   0.672   3.479  0.0146  0.2690 -0.0634
 7165SOL    HW133128   1.203   0.714   3.561 -0.1653 -4.0367  2.1007
 7165SOL    HW233129   1.205   0.581   3.496 -0.7183  0.4052 -0.4172
 7166SOL     OW33130   3.723   0.935   1.739 -0.6818  0.8109  0.0500
 7166SOL    HW133131   3.777   0.949   1.817 -0.4862  0.1863  0.0332
 7166SOL    HW233132   3.649   0.880   1.768  0.7445 -2.1480 -1.9003
 7167SOL     OW33133   4.061   2.402   2.682 -0.4598 -0.2242  0.4972
 7167SOL    HW133134   4.042   2.312   2.656 -0.1387  0.4533 -2.1171
 7167SOL    HW233135   4.145   2.402   2.729  1.4661  0.5118 -2.8910
 7168SOL     OW33136   2.547   0.032   9.702 -0.3506 -0.1039  0.5066
 7168SOL    HW133137   2.592   0.116   9.709 -0.2638 -0.2315  1.5141
 7168SOL    HW233138   2.597   4.726   9.632 -0.1398  0.8642  0.0780
 7169SOL     OW33139   0.270   1.970  15.155  0.2773  0.3130  0.4450
 7169SOL    HW133140   0.351   1.924  15.177 -0.6392 -1.0621  1.0142
 7169SOL    HW233141   0.206   1.902  15.179  0.8567 -0.9668 -1.6038
 7170SOL     OW33142   3.838   2.175  17.336 -0.5572 -0.0541 -0.3290
 7170SOL    HW133143   3.780   2.099  17.338  0.8043 -1.0484  1.0072
 7170SOL    HW233144   3.805   2.234  17.404  0.7288 -0.2654  0.4663
 7171SOL     OW33145   1.135   2.160   7.984 -0.1093  0.3414 -0.1114
 7171SOL    HW133146   1.055   2.116   8.014 -1.4909  1.4084 -2.2408
 7171SOL    HW233147   1.196   2.089   7.962  1.9130  1.5244  1.7031
 7172SOL     OW33148   4.122   0.305   2.700  0.5055  0.1864 -0.9796
 7172SOL    HW133149   4.187   0.292   2.630  0.1688  0.1041 -1.2776
 7172SOL    HW233150   4.057   0.244   2.665  1.5019 -1.3705 -0.1088
 7173SOL     OW33151   1.768   0.831   6.657 -0.4061  1.1281  0.0733
 7173SOL    HW133152   1.728   0.790   6.581  2.2006  1.4689 -1.4714
 7173SOL    HW233153   1.740   0.788   6.738  2.6084  0.7358  0.9358
 7174SOL     OW33154   2.748   4.530   6.784 -0.3094 -0.3908 -0.4107
 7174SOL    HW133155   2.839   4.557   6.770 -0.7518  1.7949  0.8774
 7174SOL    HW233156   2.725   4.559   6.872 -0.1938 -1.1751 -0.1280
 7175SOL     OW33157   3.771   3.730   6.248 -0.1509  0.1130  0.2968
 7175SOL    HW133158   3.774   3.639   6.218  0.1088 -0.0957  0.9503
 7175SOL    HW233159   3.775   3.716   6.343 -0.1866  0.9522  0.4171
 7176SOL     OW33160   0.244   2.881   2.115 -0.8442  0.0570  0.4914
 7176SOL    HW133161   0.155   2.894   2.084 -1.1424  0.0637  1.3308
 7176SOL    HW233162   0.238   2.860   2.209  1.0405 -0.5509  0.4805
 7177SOL     OW33163   3.297   1.172   9.408  0.2177  0.3154  0.3388
 7177SOL    HW133164   3.244   1.175   9.328  0.3680 -1.2398  0.1803
 7177SOL    HW233165   3.305   1.262   9.439  0.0953  1.4900 -3.0729
 7178SOL     OW33166   1.285   3.376   2.161  0.4090 -0.2870  0.1818
 7178SOL    HW133167   1.323   3.378   2.249  0.8336  0.8857 -0.0308
 7178SOL    HW233168   1.282   3.466   2.127 -0.0425  0.8637  3.2386
 7179SOL     OW33169   2.402   1.410  12.363 -0.1202 -0.0752 -0.2355
 7179SOL    HW133170   2.351   1.456  12.430  0.6561 -1.0931  1.0710
 7179SOL    HW233171   2.342   1.416  12.289 -2.7899 -1.7537  1.8122
 7180SOL     OW33172   1.467   2.409  16.772 -0.2622  0.2326 -0.3207
 7180SOL    HW133173   1.423   2.456  16.701  0.2316 -0.9097 -1.3838
 7180SOL    HW233174   1.423   2.324  16.767 -0.3373  0.3668 -2.0189
 7181SOL     OW33175   1.267   1.843   8.498  0.6677  0.0552 -0.0927
 7181SOL    HW133176   1.207   1.783   8.454  0.6212 -0.1882  0.3027
 7181SOL    HW233177   1.303   1.894   8.425  2.0147  0.4063  0.8104
 7182SOL     OW33178   4.004   4.104   5.171  0.1655 -0.2729  0.0639
 7182SOL    HW133179   4.023   4.045   5.097 -2.0760  0.0592 -0.7806
 7182SOL    HW233180   4.085   4.094   5.220  0.8276 -0.4007 -1.0558
 7183SOL     OW33181   0.941   1.995  16.835  0.4455 -0.0446  0.2610
 7183SOL    HW133182   0.978   2.083  16.836  0.8440 -0.2180  1.4675
 7183SOL    HW233183   0.855   1.999  16.877  1.2521 -1.3847  2.0396
 7184SOL     OW33184   4.617   3.469  11.755  0.4629  0.2135  0.1968
 7184SOL    HW133185   4.626   3.564  11.756  0.8725  0.1520  2.1296
 7184SOL    HW233186   4.547   3.458  11.820  1.5041  0.9539  1.4428
 7185SOL     OW33187   0.397   2.329   5.993 -0.1249 -0.2301 -0.0950
 7185SOL    HW133188   0.491   2.333   6.007 -0.4583  2.4429  1.3776
 7185SOL    HW233189   0.386   2.235   6.001  0.8512  0.1733  5.6082
 7186SOL     OW33190   2.928   1.922  12.238  0.5980  0.0638  0.2538
 7186SOL    HW133191   2.899   2.011  12.218  0.8577  0.3160  0.9871
 7186SOL    HW233192   2.987   1.899  12.166 -2.4225  0.1221 -2.2152
 7187SOL     OW33193   0.363   1.851   4.041 -0.2461  0.7094 -0.4975
 7187SOL    HW133194   0.455   1.831   4.058 -0.3240 -0.2211 -1.1810
 7187SOL    HW233195   0.324   1.771   4.006  1.8290  0.1771 -1.6222
 7188SOL     OW33196   0.020   1.098   1.275 -0.0012 -0.5555  0.0336
 7188SOL    HW133197   0.037   1.095   1.370 -1.2221  0.0507  0.2668
 7188SOL    HW233198   4.667   1.131   1.282 -0.3851 -1.5687 -0.0801
 7189SOL     OW33199   2.335   2.801   8.617  0.4530 -0.3765  0.0411
 7189SOL    HW133200   2.402   2.734   8.636 -1.0651 -1.7901  0.4055
 7189SOL    HW233201   2.385   2.882   8.607 -0.9973  0.7033  1.5334
 7190SOL     OW33202   3.442   0.934   7.615 -0.2882  0.3602  0.2117
 7190SOL    HW133203   3.398   0.923   7.700 -1.2265  3.6410  0.1654
 7190SOL    HW233204   3.366   0.956   7.560 -0.0390  0.4208 -0.1089
 7191SOL     OW33205   0.368   2.952   1.273  0.5096  0.3032  0.0630
 7191SOL    HW133206   0.296   2.932   1.332 -1.5114  2.3685 -1.7095
 7191SOL    HW233207   0.365   3.048   1.278 -1.9491  0.0773  2.5643
 7192SOL     OW33208   3.672   2.328   0.969 -0.1505  0.0046 -0.2424
 7192SOL    HW133209   3.673   2.282   1.053  0.7714 -1.4273 -1.0456
 7192SOL    HW233210   3.727   2.403   0.992 -0.7836  0.7086 -1.0358
 7193SOL     OW33211   1.624   0.276  10.103  0.8426 -0.4299 -0.8602
 7193SOL    HW133212   1.541   0.229  10.109  1.5438 -1.4300  1.0371
 7193SOL    HW233213   1.589   0.348  10.051 -0.4810 -1.8401 -1.9276
 7194SOL     OW33214   2.087   1.335   8.614 -0.9308 -0.2604 -0.0687
 7194SOL    HW133215   2.080   1.291   8.699  1.1829 -0.3420  0.0583
 7194SOL    HW233216   2.036   1.415   8.627  0.5666  0.7905 -0.6466
 7195SOL     OW33217   0.695   0.503   2.874  0.1678 -0.1407 -0.2217
 7195SOL    HW133218   0.642   0.435   2.917  2.3656 -1.1640  0.9032
 7195SOL    HW233219   0.630   0.553   2.826 -0.7777 -3.3024 -2.2464
 7196SOL     OW33220   3.075   0.833   5.806  0.2299 -0.3419  0.2003
 7196SOL    HW133221   3.074   0.833   5.901 -0.4721 -1.0033  0.1890
 7196SOL    HW233222   3.169   0.827   5.784  0.5869 -2.9314  2.3715
 7197SOL     OW33223   3.524   0.344  14.481  0.4124  0.3684  0.2837
 7197SOL    HW133224   3.430   0.342  14.465  0.3495  1.4313  0.5245
 7197SOL    HW233225   3.555   0.382  14.399 -2.1441 -1.1208 -1.3604
 7198SOL     OW33226   0.835   4.566   8.874  0.1892  0.1101 -0.4307
 7198SOL    HW133227   0.871   4.549   8.787 -0.0519  0.3661 -0.5800
 7198SOL    HW233228   0.916   4.580   8.922 -0.9338  1.7572  0.9736
 7199SOL     OW33229   2.650   1.265   1.695  0.3015  0.0780 -0.6533
 7199SOL    HW133230   2.739   1.246   1.721 -0.2181 -0.7256  0.5137
 7199SOL    HW233231   2.665   1.346   1.647 -0.3248 -0.8973 -2.5403
 7200SOL     OW33232   2.973   1.154   9.445  0.4146  0.0451  0.3978
 7200SOL    HW133233   2.974   1.243   9.482  2.7467 -0.2143  0.9475
 7200SOL    HW233234   3.055   1.142   9.398 -0.9968 -0.7505 -1.8740
 7201SOL     OW33235   0.427   0.019   4.300  0.6391 -0.1625 -0.5939
 7201SOL    HW133236   0.410   0.102   4.256 -0.8250 -0.8426 -1.3101
 7201SOL    HW233237   0.523   0.020   4.299  0.6338  0.8954  0.2249
 7202SOL     OW33238   1.330   4.226  11.810 -0.0201  0.2043  0.1041
 7202SOL    HW133239   1.419   4.194  11.822 -0.0827  0.1026  0.2980
 7202SOL    HW233240   1.299   4.222  11.900 -2.6754 -0.2361 -0.8224
 7203SOL     OW33241   1.437   2.841   4.730 -0.2984  0.0106  0.2366
 7203SOL    HW133242   1.433   2.884   4.645 -0.7519 -1.5543 -0.5193
 7203SOL    HW233243   1.362   2.886   4.768  0.4540  3.4863 -2.3495
 7204SOL     OW33244   4.677   2.563  10.543  0.3124 -0.0068 -0.1166
 7204SOL    HW133245   4.698   2.642  10.592 -0.4599 -1.2523  2.2059
 7204SOL    HW233246   4.612   2.608  10.488  1.2836 -0.2632 -1.4633
 7205SOL     OW33247   2.915   2.176  12.591 -0.1313 -0.3752 -0.1897
 7205SOL    HW133248   2.907   2.189  12.497  0.1429  0.8241 -0.0528
 7205SOL    HW233249   2.997   2.125  12.593 -0.9557 -1.6451  1.1066
 7206SOL     OW33250   3.660   3.174   3.530  0.0598 -0.6007 -0.3118
 7206SOL    HW133251   3.684   3.252   3.580 -0.5075 -0.2637 -0.5659
 7206SOL    HW233252   3.566   3.161   3.543 -0.0976  0.5116 -0.2705
 7207SOL     OW33253   2.898   3.740   9.082  0.6274  0.6391  0.4747
 7207SOL    HW133254   2.804   3.723   9.086  0.4365  1.5166 -0.1755
 7207SOL    HW233255   2.908   3.826   9.042  2.1972 -0.2876 -1.0829
 7208SOL     OW33256   2.473   3.851  13.409 -0.0368  0.6008  0.7364
 7208SOL    HW133257   2.539   3.902  13.456  1.0874 -1.0607  0.9415
 7208SOL    HW233258   2.405   3.823  13.470  0.2677 -0.2562  0.6826
 7209SOL     OW33259   0.956   0.798   5.226 -0.4966 -0.2182  0.0763
 7209SOL    HW133260   1.025   0.837   5.172 -1.3134  0.1428 -0.6975
 7209SOL    HW233261   0.879   0.809   5.171  0.2335  2.0100 -0.4918
 7210SOL     OW33262   3.877   1.179   8.147  0.1965 -0.4802 -0.1047
 7210SOL    HW133263   3.940   1.223   8.205  1.6730 -1.1977 -1.1866
 7210SOL    HW233264   3.818   1.252   8.126  1.2572  0.1422 -0.9153
 7211SOL     OW33265   2.869   1.068   6.324 -0.7345  0.0660  0.0375
 7211SOL    HW133266   2.821   1.134   6.273  0.6177  0.1515 -1.1030
 7211SOL    HW233267   2.885   1.123   6.401  3.0463 -1.1005  0.0417
 7212SOL     OW33268   1.611   2.002   1.742  0.0358 -0.4604 -0.3507
 7212SOL    HW133269   1.583   1.975   1.655 -1.0571  2.3572 -0.8596
 7212SOL    HW233270   1.704   1.977   1.739  0.4207  0.9557  0.0859
 7213SOL     OW33271   1.838   3.263  11.411  0.3384 -0.2594  0.0785
 7213SOL    HW133272   1.866   3.280  11.320  1.3191 -0.7282  0.2968
 7213SOL    HW233273   1.778   3.337  11.422 -0.6463 -0.9579 -0.5577
 7214SOL     OW33274   0.558   4.541   0.341  0.2012 -1.0719  0.4101
 7214SOL    HW133275   0.601   4.624   0.321  2.3436 -2.1566  0.5012
 7214SOL    HW233276   0.630   4.495   0.384 -0.3911 -2.1001  0.3071
 7215SOL     OW33277   1.949   0.574  12.267 -0.1301 -0.0979 -0.0415
 7215SOL    HW133278   1.877   0.529  12.310 -0.2057  0.4249  0.3812
 7215SOL    HW233279   2.021   0.546  12.325  0.0239  0.7334  0.1733
 7216SOL     OW33280   2.886   4.214  13.512  0.0005 -0.0024 -0.2548
 7216SOL    HW133281   2.882   4.146  13.445  1.2403  0.5584 -0.8941
 7216SOL    HW233282   2.863   4.157  13.586 -1.7443  0.5526 -0.3701
 7217SOL     OW33283   1.887   0.075  13.448 -0.0967 -0.4748  1.2639
 7217SOL    HW133284   1.796   0.102  13.437  1.2512  2.7414 -2.0927
 7217SOL    HW233285   1.910   0.069  13.356 -1.8144  2.6234  0.6440
 7218SOL     OW33286   0.655   0.323   3.415  0.0333 -0.1184 -0.1580
 7218SOL    HW133287   0.681   0.382   3.345 -0.2403 -1.0274 -1.0263
 7218SOL    HW233288   0.562   0.317   3.394 -0.2808 -1.1433  1.5086
 7219SOL     OW33289   2.844   2.844  12.241 -0.8057  0.2266  0.5587
 7219SOL    HW133290   2.822   2.806  12.326 -1.4812  0.2627  0.4010
 7219SOL    HW233291   2.763   2.891  12.219  0.7286  1.4132 -2.5805
 7220SOL     OW33292   3.266   1.458  16.285 -0.0208  0.2033  0.0880
 7220SOL    HW133293   3.322   1.513  16.340  0.0799  1.6529 -1.4513
 7220SOL    HW233294   3.245   1.523  16.218  3.0054 -0.0174 -1.0907
 7221SOL     OW33295   1.282   1.275   8.499  0.2845 -0.3204 -0.4998
 7221SOL    HW133296   1.354   1.229   8.456 -1.2704 -1.8071 -1.5244
 7221SOL    HW233297   1.232   1.199   8.530  0.9362 -0.5535 -0.0097
 7222SOL     OW33298   0.378   3.004   4.286 -0.4409  0.4872  0.1207
 7222SOL    HW133299   0.309   2.970   4.343 -0.4214 -1.3849 -0.9864
 7222SOL    HW233300   0.455   2.953   4.313  0.3219  1.5618 -0.0297
 7223SOL     OW33301   0.262   3.059   3.681  0.1000  0.3184  0.1453
 7223SOL    HW133302   0.286   3.150   3.696  1.7118 -0.3697  1.7361
 7223SOL    HW233303   0.199   3.034   3.749 -1.0483 -0.2039 -1.1131
 7224SOL     OW33304   2.505   1.110  16.708  0.2954 -0.1486 -0.0560
 7224SOL    HW133305   2.490   1.017  16.724 -0.9717  0.1080  0.2338
 7224SOL    HW233306   2.518   1.117  16.614 -0.0613 -0.2675 -0.1139
 7225SOL     OW33307   1.315   1.006  11.055 -0.7936  0.3402  0.3727
 7225SOL    HW133308   1.381   0.989  10.988  0.3793 -1.8991  2.1040
 7225SOL    HW233309   1.237   1.018  11.001  0.5659  1.2272 -1.4101
 7226SOL     OW33310   2.278   4.567  11.325 -0.2034 -0.0873  0.1777
 7226SOL    HW133311   2.228   4.647  11.309  2.2940  1.7604  1.5860
 7226SOL    HW233312   2.284   4.527  11.238  0.1851 -2.0195  1.0955
 7227SOL     OW33313   1.408   3.216   4.409 -0.1186 -0.1605  0.0266
 7227SOL    HW133314   1.341   3.256   4.465  0.6840 -1.7164  2.1272
 7227SOL    HW233315   1.387   3.249   4.322  2.2218 -1.4727 -1.0342
 7228SOL     OW33316   2.209   2.934  13.245  0.2046 -0.3298  1.1543
 7228SOL    HW133317   2.270   3.007  13.244 -0.1074 -0.0792  0.7599
 7228SOL    HW233318   2.258   2.866  13.199  1.3146 -0.4874  2.5260
 7229SOL     OW33319   3.936   3.242   7.532 -0.1966  0.4003 -0.3409
 7229SOL    HW133320   3.999   3.312   7.514 -0.6685  0.9020 -0.0343
 7229SOL    HW233321   3.973   3.213   7.616 -0.7683  2.2665  0.5507
 7230SOL     OW33322   1.120   3.201   4.042 -0.1492  0.4041  0.3936
 7230SOL    HW133323   1.180   3.127   4.048 -1.7492 -0.7203  2.3967
 7230SOL    HW233324   1.141   3.249   3.961 -0.9731 -1.0689 -0.7012
 7231SOL     OW33325   1.704   2.397   6.458 -0.0027 -0.2462  0.5057
 7231SOL    HW133326   1.674   2.306   6.466  1.2714 -0.7196 -0.0355
 7231SOL    HW233327   1.678   2.402   6.366  0.8846  0.8119  0.3116
 7232SOL     OW33328   2.608   0.280  16.568  0.0401  0.0757  0.0047
 7232SOL    HW133329   2.532   0.235  16.605  1.0856 -0.1539  1.8827
 7232SOL    HW233330   2.643   0.325  16.645 -0.3968  0.5805 -0.0895
 7233SOL     OW33331   2.883   3.916   6.104 -0.2199  0.1242  0.0604
 7233SOL    HW133332   2.809   3.947   6.156  0.1479 -1.4129  1.4715
 7233SOL    HW233333   2.915   4.002   6.075 -2.4825  0.7727 -0.5541
 7234SOL     OW33334   2.969   2.181  14.772 -0.0258 -0.1857  0.3259
 7234SOL    HW133335   3.011   2.259  14.809  2.1592 -0.5264 -1.4823
 7234SOL    HW233336   2.918   2.223  14.703  1.8394 -0.7615 -1.3926
 7235SOL     OW33337   1.717   1.125   8.526 -0.5881 -0.0177  0.1628
 7235SOL    HW133338   1.692   1.146   8.616 -1.5333  0.9084 -0.3129
 7235SOL    HW233339   1.737   1.215   8.501 -3.5658  0.7311  0.4137
 7236SOL     OW33340   3.070   3.555   7.341  0.2548  0.1851  0.2739
 7236SOL    HW133341   3.144   3.528   7.286 -1.4177 -1.5860 -1.1261
 7236SOL    HW233342   3.063   3.479   7.398 -0.4633  0.7098  0.8796
 7237SOL     OW33343   0.636   3.345   2.804  0.4099 -0.5772 -0.3895
 7237SOL    HW133344   0.707   3.311   2.860 -0.0697 -1.0796 -0.0861
 7237SOL    HW233345   0.574   3.273   2.812 -0.3502  0.0427 -0.6347
 7238SOL     OW33346   4.084   1.106   1.272 -0.0136 -0.4363 -0.0748
 7238SOL    HW133347   4.069   1.155   1.353  2.4450  2.1417 -1.1585
 7238SOL    HW233348   4.073   1.175   1.206 -0.3499  1.5568  2.0853
 7239SOL     OW33349   2.212   0.891   5.121  0.1515  0.0170  0.1632
 7239SOL    HW133350   2.295   0.860   5.084  0.0328 -2.1983  1.7270
 7239SOL    HW233351   2.206   0.835   5.199  0.5590  0.8418  0.7854
 7240SOL     OW33352   3.495   4.179   1.883  0.3302 -0.0690  0.2596
 7240SOL    HW133353   3.455   4.266   1.875 -0.7598 -0.5234  0.7414
 7240SOL    HW233354   3.485   4.166   1.978  1.0043  1.0429  0.4888
 7241SOL     OW33355   2.353   3.135   5.370  0.5328 -0.0045 -0.1547
 7241SOL    HW133356   2.352   3.060   5.429 -1.0859  0.4341  0.3539
 7241SOL    HW233357   2.446   3.140   5.347  0.5566 -0.4541 -0.1552
 7242SOL     OW33358   4.375   1.560   7.870 -0.6701  0.0880 -0.2508
 7242SOL    HW133359   4.440   1.493   7.848 -0.3341  1.1277 -2.4550
 7242SOL    HW233360   4.300   1.504   7.885 -1.3367  0.8400 -0.7805
 7243SOL     OW33361   3.618   3.311   6.724 -0.2512  0.1936 -0.5845
 7243SOL    HW133362   3.713   3.323   6.722 -0.0648 -1.4515 -0.8949
 7243SOL    HW233363   3.600   3.376   6.793 -2.8491 -1.7150  0.4941
 7244SOL     OW33364   4.476   3.141   8.338 -0.3036  0.4772 -0.0067
 7244SOL    HW133365   4.494   3.228   8.372  0.0258  0.0011  1.0083
 7244SOL    HW233366   4.559   3.096   8.330 -1.8244 -2.1505 -1.0631
 7245SOL     OW33367   1.408   2.943   3.271  0.0526 -0.0612  0.0541
 7245SOL    HW133368   1.371   2.885   3.338  2.2006  1.1217  2.2442
 7245SOL    HW233369   1.502   2.931   3.286  0.0964 -0.4938 -0.5780
 7246SOL     OW33370   3.770   0.901   2.359  0.0178  0.3021  0.4127
 7246SOL    HW133371   3.851   0.873   2.317 -0.0323 -0.8829  1.1124
 7246SOL    HW233372   3.724   0.933   2.282  0.5943 -0.8671 -0.4042
 7247SOL     OW33373   3.001   0.517   8.098  0.7560  0.0811 -0.8178
 7247SOL    HW133374   3.024   0.491   8.008  0.3627 -1.4444 -0.4758
 7247SOL    HW233375   3.062   0.587   8.119  0.6489  0.5122 -1.9012
 7248SOL     OW33376   2.073   2.489   1.946  0.2682  0.3834  0.3405
 7248SOL    HW133377   2.107   2.429   1.879 -0.3577 -1.0463  1.3138
 7248SOL    HW233378   2.044   2.564   1.893  3.3900 -0.6040 -2.7453
 7249SOL     OW33379   2.534   2.446  11.149 -0.0439  0.5174 -0.1808
 7249SOL    HW133380   2.457   2.401  11.115  0.3758 -0.3757  0.0508
 7249SOL    HW233381   2.606   2.401  11.105  0.7656 -0.5170  2.1744
 7250SOL     OW33382   0.728   4.207   3.535  0.3976  0.2617 -0.0669
 7250SOL    HW133383   0.776   4.191   3.616 -3.0300 -0.4306  1.8307
 7250SOL    HW233384   0.764   4.292   3.510 -0.1809  0.0883 -1.4856
 7251SOL     OW33385   2.885   2.290  16.718 -0.6686  0.6037 -0.8566
 7251SOL    HW133386   2.882   2.332  16.804  0.4365  0.6827 -0.8497
 7251SOL    HW233387   2.873   2.199  16.745  0.4500  0.3807 -1.1090
 7252SOL     OW33388   2.218   0.089   2.922  0.3329  0.2400  0.1834
 7252SOL    HW133389   2.253   0.132   2.845 -3.4744 -0.4103 -1.8875
 7252SOL    HW233390   2.147   0.034   2.889 -1.5832  2.1694  1.0881
 7253SOL     OW33391   3.660   2.453   8.802 -0.2634 -0.6258 -0.5806
 7253SOL    HW133392   3.576   2.408   8.789 -1.1164  1.4186 -2.1753
 7253SOL    HW233393   3.691   2.400   8.875 -0.1555 -0.7614 -0.7228
 7254SOL     OW33394   3.437   0.915  10.631  0.4882  0.3702  0.1526
 7254SOL    HW133395   3.394   0.935  10.714 -1.5866 -2.2699 -0.3010
 7254SOL    HW233396   3.531   0.923  10.650  0.8060  0.5065 -1.4899
 7255SOL     OW33397   2.853   4.709  10.712  0.2644 -0.4857 -0.0790
 7255SOL    HW133398   2.806   4.628  10.729  0.6655 -0.3822  1.5747
 7255SOL    HW233399   2.786   0.039  10.701  0.7991  0.0530 -0.1160
 7256SOL     OW33400   0.394   0.869   1.362  0.2223  0.1284 -0.2544
 7256SOL    HW133401   0.411   0.907   1.448 -0.5896  1.5640 -0.7320
 7256SOL    HW233402   0.485   0.870   1.331  0.5241 -2.1080  0.5966
 7257SOL     OW33403   4.210   3.128   7.139 -0.2016  0.4703  0.9036
 7257SOL    HW133404   4.194   3.165   7.052 -2.6091 -2.2161  0.1919
 7257SOL    HW233405   4.121   3.101   7.164 -0.8885  1.9545  0.0043
 7258SOL     OW33406   2.781   0.406  10.010  0.1989  0.0459  0.1594
 7258SOL    HW133407   2.763   0.478  10.071 -4.4096  0.0570 -1.2411
 7258SOL    HW233408   2.689   0.391   9.989 -0.1792 -0.5278  2.1941
 7259SOL     OW33409   1.876   0.500   7.258 -0.4038 -0.1697 -0.2147
 7259SOL    HW133410   1.927   0.497   7.177  0.1209  0.9347  0.0712
 7259SOL    HW233411   1.801   0.443   7.244 -1.6852  1.6309 -0.6148
 7260SOL     OW33412   3.447   0.972   9.516 -0.5275  0.4501  0.3676
 7260SOL    HW133413   3.482   0.990   9.604 -0.4116  0.7119  0.2688
 7260SOL    HW233414   3.390   1.044   9.489 -0.1626  1.0194  1.0941
 7261SOL     OW33415   4.182   3.527   2.640  0.5255 -0.3705 -0.0927
 7261SOL    HW133416   4.245   3.519   2.569  0.7085  0.5211 -0.0297
 7261SOL    HW233417   4.244   3.556   2.707 -0.6094  0.0042  0.7950
 7262SOL     OW33418   2.629   3.206   1.843 -0.0293  0.6747  0.0467
 7262SOL    HW133419   2.661   3.123   1.807  1.3092  0.0505  2.6247
 7262SOL    HW233420   2.714   3.246   1.862  1.7876 -2.9946 -0.3108
 7263SOL     OW33421   3.577   3.712   1.907  0.4022  0.1403 -0.5325
 7263SOL    HW133422   3.566   3.769   1.982 -3.3282  1.6769 -2.2521
 7263SOL    HW233423   3.546   3.775   1.842 -0.4216  2.7384  2.4025
 7264SOL     OW33424   0.103   2.568   3.857 -0.0637 -0.1152 -0.3133
 7264SOL    HW133425   0.169   2.610   3.802  0.3408 -1.9949 -1.2507
 7264SOL    HW233426   0.130   2.604   3.941 -2.6289  2.7595 -0.7299
 7265SOL     OW33427   1.555   1.192  11.340 -0.4218  0.2709 -0.2111
 7265SOL    HW133428   1.532   1.101  11.318 -0.3742  0.3892 -0.7459
 7265SOL    HW233429   1.647   1.199  11.315 -0.1869 -3.0969 -0.3669
 7266SOL     OW33430   1.540   0.341   4.438 -0.0102  0.7971 -0.1176
 7266SOL    HW133431   1.565   0.264   4.489 -0.6427  1.6153  1.4375
 7266SOL    HW233432   1.449   0.324   4.412  1.2458 -2.6142 -2.1740
 7267SOL     OW33433   2.763   0.684   6.562 -0.1343  0.2722 -0.2404
 7267SOL    HW133434   2.848   0.722   6.582 -0.0890  1.1808 -2.1412
 7267SOL    HW233435   2.715   0.758   6.523  1.4154  0.7626 -1.2193
 7268SOL     OW33436   2.464   1.824   2.312  0.0992  0.1364 -0.1277
 7268SOL    HW133437   2.369   1.812   2.314  0.1525 -0.4330 -1.1835
 7268SOL    HW233438   2.467   1.912   2.274  0.6667  0.5301  0.8321
 7269SOL     OW33439   2.999   2.482   2.999  0.2685 -0.2474  0.2515
 7269SOL    HW133440   2.920   2.439   3.033  0.1502 -2.3652 -2.7245
 7269SOL    HW233441   3.018   2.421   2.928  0.1457  0.3506 -0.2970
 7270SOL     OW33442   2.636   3.382   4.038 -0.0417  0.0659 -0.4269
 7270SOL    HW133443   2.573   3.421   4.099  1.9005  1.0733  0.9347
 7270SOL    HW233444   2.637   3.456   3.977 -0.8636  0.2234 -0.2517
 7271SOL     OW33445   4.405   4.527   1.035  0.6053  0.1018  0.4548
 7271SOL    HW133446   4.483   4.555   1.084  2.1697 -0.1905 -1.8491
 7271SOL    HW233447   4.337   4.538   1.101  1.7507 -0.5259  1.7438
 7272SOL     OW33448   0.729   2.075   0.084 -0.2385 -0.1344 -0.8162
 7272SOL    HW133449   0.744   1.994   0.131 -0.8077  1.6180  2.3544
 7272SOL    HW233450   0.818   2.108   0.071 -0.9396  2.0379 -0.2250
 7273SOL     OW33451   2.627   1.742   6.371 -0.0700  0.4581  0.3507
 7273SOL    HW133452   2.650   1.833   6.389  1.8016 -0.3568  2.0694
 7273SOL    HW233453   2.540   1.747   6.333  0.5125 -0.3474 -1.0712
 7274SOL     OW33454   0.578   2.093   7.795  0.4959  0.6196 -0.3027
 7274SOL    HW133455   0.600   2.094   7.702 -1.1498  0.7512 -0.7074
 7274SOL    HW233456   0.529   2.176   7.794  0.9470  0.9009  0.3771
 7275SOL     OW33457   4.622   0.909   8.504 -0.3004 -0.4293 -0.1562
 7275SOL    HW133458   4.661   0.863   8.430 -1.9434 -2.0154 -0.0260
 7275SOL    HW233459   4.574   0.984   8.466  0.0231 -0.0675  0.1470
 7276SOL     OW33460   3.803   2.588  11.440  0.3664 -0.2532  0.1902
 7276SOL    HW133461   3.862   2.527  11.484 -0.2116  0.9977  2.7322
 7276SOL    HW233462   3.872   2.638  11.396 -0.7422 -0.1365 -1.4431
 7277SOL     OW33463   3.803   0.094  12.544 -0.2603 -0.2328  0.1198
 7277SOL    HW133464   3.833   0.097  12.453 -0.7594  3.8356  0.0833
 7277SOL    HW233465   3.721   0.044  12.532  0.0934 -0.5188 -1.1505
 7278SOL     OW33466   1.008   2.507   0.338 -0.7285 -0.2427  0.4370
 7278SOL    HW133467   0.935   2.533   0.395  0.1342  1.4531  0.7762
 7278SOL    HW233468   0.971   2.441   0.280  1.9227 -0.5802 -0.8521
 7279SOL     OW33469   4.360   0.079   7.364 -0.1884 -0.0741  1.1239
 7279SOL    HW133470   4.405   0.003   7.401  3.9665  2.9735  2.3619
 7279SOL    HW233471   4.358   0.054   7.271 -3.2825  4.1599  0.0477
 7280SOL     OW33472   0.288   0.897  13.566 -0.1017  0.0031  0.1415
 7280SOL    HW133473   0.348   0.843  13.513 -0.9101  0.6700 -1.4489
 7280SOL    HW233474   0.306   0.852  13.648 -0.5228  0.9327  0.7336
 7281SOL     OW33475   1.221   1.484   4.938  0.0148  0.3029  0.0537
 7281SOL    HW133476   1.199   1.414   5.001  1.9489 -0.7432 -0.4267
 7281SOL    HW233477   1.190   1.452   4.853  0.9211  1.2212 -0.6066
 7282SOL     OW33478   2.353   2.907   8.962  0.8626  0.4139 -0.6395
 7282SOL    HW133479   2.269   2.864   8.947  0.9423 -0.5424  1.7308
 7282SOL    HW233480   2.339   2.978   9.024  0.5675 -2.3290  2.4375
 7283SOL     OW33481   3.588   0.653   1.830 -0.3558  0.1857 -0.1311
 7283SOL    HW133482   3.679   0.653   1.860 -0.9770  0.0629  1.7401
 7283SOL    HW233483   3.599   0.617   1.742 -2.2590 -1.0385  0.1321
 7284SOL     OW33484   4.005   1.640   4.536 -0.1644 -0.2812 -0.3157
 7284SOL    HW133485   3.997   1.672   4.626 -2.7553  3.5797 -1.9547
 7284SOL    HW233486   3.958   1.708   4.489  1.0130 -0.5685 -1.8900
 7285SOL     OW33487   4.217   3.219   2.447 -0.0381  0.5085 -1.0108
 7285SOL    HW133488   4.186   3.134   2.418  0.5422  0.3904 -1.2875
 7285SOL    HW233489   4.296   3.222   2.392  0.4125 -1.4674 -0.4875
 7286SOL     OW33490   0.688   0.520  13.572 -0.7679  0.5072  0.1633
 7286SOL    HW133491   0.739   0.600  13.556  0.0038 -0.0812 -0.3671
 7286SOL    HW233492   0.761   0.478  13.617 -0.6228  0.6939  0.1059
 7287SOL     OW33493   3.430   1.427   8.238 -0.3429  0.0148  0.0833
 7287SOL    HW133494   3.363   1.455   8.301 -1.2347 -0.3990 -0.6669
 7287SOL    HW233495   3.378   1.410   8.159 -0.7273  0.8479  0.1470
 7288SOL     OW33496   1.789   4.571  17.522 -0.2832 -0.5570 -0.5077
 7288SOL    HW133497   1.732   4.588  17.597  0.9574  2.4363 -0.2780
 7288SOL    HW233498   1.869   4.580  17.574 -1.4730  0.6542  1.1041
 7289SOL     OW33499   1.224   2.407   7.864  0.4736 -0.1227  0.0768
 7289SOL    HW133500   1.179   2.333   7.905  0.5260  0.8573  1.9435
 7289SOL    HW233501   1.176   2.481   7.902 -2.1891 -0.3563 -2.8589
 7290SOL     OW33502   1.246   2.794  13.603  0.4645 -0.5184 -0.1454
 7290SOL    HW133503   1.251   2.799  13.507  0.8090  2.2452  0.0246
 7290SOL    HW233504   1.171   2.853  13.615  1.3432  0.5551  0.0672
 7291SOL     OW33505   4.341   0.064   6.879  0.1448  0.6896 -0.6528
 7291SOL    HW133506   4.394   0.069   6.800  1.5184  3.1042  0.4304
 7291SOL    HW233507   4.271   0.004   6.853  0.7973 -1.0987  1.6192
 7292SOL     OW33508   1.271   4.501   3.388 -0.4238 -0.1485 -0.0248
 7292SOL    HW133509   1.229   4.581   3.356  0.2953  0.4801  0.5845
 7292SOL    HW233510   1.225   4.438   3.333 -0.5598  0.4333 -0.5699
 7293SOL     OW33511   3.191   4.118  11.918  0.0646 -0.0543  0.1374
 7293SOL    HW133512   3.278   4.124  11.957 -0.2169  3.9232  0.1512
 7293SOL    HW233513   3.165   4.036  11.961 -1.0313  1.8482  3.0646
 7294SOL     OW33514   1.542   4.702  17.320 -0.2059  0.1003 -0.5764
 7294SOL    HW133515   1.570   4.634  17.258  2.3124  2.7282 -2.3273
 7294SOL    HW233516   1.478   4.654  17.372  0.2360  0.4838  0.3158
 7295SOL     OW33517   4.553   4.408   5.934  0.3903  0.7434 -0.0550
 7295SOL    HW133518   4.575   4.433   6.024 -0.6017 -0.3929  0.5042
 7295SOL    HW233519   4.547   4.488   5.882  0.1592  1.1260  0.5620
 7296SOL     OW33520   1.151   1.009   5.088 -0.1201  0.2715  0.2066
 7296SOL    HW133521   1.083   1.029   5.023  2.0186  0.3918 -1.9667
 7296SOL    HW233522   1.223   1.055   5.045  1.4362  0.4709  3.0467
 7297SOL     OW33523   3.917   3.406   3.414 -0.5312  0.0342  0.6138
 7297SOL    HW133524   3.895   3.426   3.505 -2.1764 -2.0721  0.6775
 7297SOL    HW233525   3.901   3.312   3.406 -1.9389  0.6066 -3.2281
 7298SOL     OW33526   2.389   2.082   8.457  0.2710  0.5355 -0.0175
 7298SOL    HW133527   2.371   2.009   8.517  0.4308 -0.8452 -1.6773
 7298SOL    HW233528   2.420   2.035   8.380  0.8602 -0.2310  0.6837
 7299SOL     OW33529   0.715   2.609   1.491  0.0252  0.5542  0.0824
 7299SOL    HW133530   0.627   2.574   1.478 -0.1014  0.3612  1.5097
 7299SOL    HW233531   0.700   2.702   1.470  0.8107  0.2913 -1.6602
 7300SOL     OW33532   2.222   3.665   3.260 -0.9130  0.2883  0.1940
 7300SOL    HW133533   2.290   3.606   3.229  0.2385  0.7235  1.9605
 7300SOL    HW233534   2.147   3.607   3.278 -0.5463 -0.8710 -1.9698
 7301SOL     OW33535   0.204   3.265   6.362  0.5281 -0.2308 -0.4566
 7301SOL    HW133536   0.241   3.252   6.449  1.9010  1.1581 -0.8353
 7301SOL    HW233537   0.177   3.356   6.347 -1.7530 -0.8964 -0.4426
 7302SOL     OW33538   1.642   0.702  10.770  0.3478 -0.2482  0.3752
 7302SOL    HW133539   1.687   0.766  10.716  0.1851 -0.5975 -0.1789
 7302SOL    HW233540   1.623   0.752  10.849 -1.1231  0.4766 -0.4392
 7303SOL     OW33541   2.795   0.179   6.603 -0.3419 -0.2027  0.3330
 7303SOL    HW133542   2.751   0.105   6.645 -0.3865  0.0372  0.7103
 7303SOL    HW233543   2.877   0.183   6.653  0.0079 -0.1036 -0.2451
 7304SOL     OW33544   2.925   3.320   6.482 -1.2281 -0.2557 -0.1553
 7304SOL    HW133545   2.856   3.282   6.428  0.3171 -1.7522 -1.0767
 7304SOL    HW233546   2.883   3.392   6.529 -2.3805 -0.5148 -0.7816
 7305SOL     OW33547   3.133   1.237   8.502  0.1035 -0.2093  0.5296
 7305SOL    HW133548   3.066   1.234   8.434 -1.5801  2.3200  2.0839
 7305SOL    HW233549   3.152   1.146   8.524 -2.5542 -1.3394 -1.8347
 7306SOL     OW33550   2.892   3.750   3.923  0.1225 -0.4855 -0.1183
 7306SOL    HW133551   2.923   3.695   3.995  2.0623  0.9652  0.1507
 7306SOL    HW233552   2.892   3.837   3.961  0.1872  0.1362 -1.5618
 7307SOL     OW33553   3.580   2.048  17.144 -0.5661 -0.4680  0.6143
 7307SOL    HW133554   3.646   1.992  17.184  3.2089  2.9328 -0.8415
 7307SOL    HW233555   3.510   2.050  17.209 -0.6166 -1.4120  0.5808
 7308SOL     OW33556   4.087   4.019  13.807  0.0531 -0.3130  0.2246
 7308SOL    HW133557   4.054   3.933  13.832 -1.7950  0.1410 -0.5830
 7308SOL    HW233558   4.013   4.076  13.830  1.4193  1.3780  0.4172
 7309SOL     OW33559   0.374   0.771   2.236 -0.1484 -0.2004 -0.4558
 7309SOL    HW133560   0.446   0.717   2.205 -0.1842 -0.9113  0.7244
 7309SOL    HW233561   0.363   0.752   2.329 -0.7403 -1.5739 -0.8033
 7310SOL     OW33562   0.462   2.644   2.365 -0.2721  0.7953 -0.1377
 7310SOL    HW133563   0.432   2.733   2.384  1.7143  1.3907  0.2330
 7310SOL    HW233564   0.449   2.636   2.271  0.9014  0.2944 -0.2546
 7311SOL     OW33565   1.613   4.077   4.975  0.2912  0.6601  0.1774
 7311SOL    HW133566   1.641   3.987   4.991  1.3558  0.9657  0.0388
 7311SOL    HW233567   1.656   4.132   5.041 -0.2335 -1.5460  2.3382
 7312SOL     OW33568   1.513   0.530   8.530  0.4237  0.3678  0.1517
 7312SOL    HW133569   1.537   0.447   8.490 -1.1517 -0.0606  0.1000
 7312SOL    HW233570   1.432   0.538   8.480 -0.5539 -0.2887  1.6469
 7313SOL     OW33571   1.997   0.947   4.442  0.6772 -0.0887  0.4084
 7313SOL    HW133572   1.957   0.979   4.523  0.1354  2.0693 -0.6995
 7313SOL    HW233573   2.027   1.035   4.418 -0.4585  0.6369  1.6285
 7314SOL     OW33574   1.432   3.302   6.586  0.2813  0.2620  0.1633
 7314SOL    HW133575   1.502   3.366   6.594  2.1429 -1.5906 -1.4831
 7314SOL    HW233576   1.472   3.233   6.534  0.9397  0.6894  0.1088
 7315SOL     OW33577   2.155   2.205   3.773  0.1282  0.3370  0.3933
 7315SOL    HW133578   2.203   2.124   3.754 -0.2930 -0.0922  1.1512
 7315SOL    HW233579   2.098   2.175   3.844 -0.6095 -3.2872 -1.7574
 7316SOL     OW33580   2.188   3.379   2.124 -0.1644  0.3175  0.0381
 7316SOL    HW133581   2.271   3.376   2.077 -0.7317  0.6169 -0.9770
 7316SOL    HW233582   2.130   3.379   2.048  2.8013  2.1269 -2.1967
 7317SOL     OW33583   4.001   0.303   5.154  0.1335 -0.6662 -0.2135
 7317SOL    HW133584   4.002   0.207   5.152 -1.2576 -0.6811 -0.4208
 7317SOL    HW233585   3.913   0.323   5.185  0.5556 -0.8420  1.0833
 7318SOL     OW33586   4.669   2.018   4.094  0.3369 -0.5883  0.2132
 7318SOL    HW133587   4.695   1.966   4.170 -0.1793 -0.8400  0.2168
 7318SOL    HW233588   4.729   2.091   4.083  0.9631 -1.2826 -0.9787
 7319SOL     OW33589   1.102   2.890   6.612 -0.1699  0.0435  0.4467
 7319SOL    HW133590   1.057   2.808   6.633 -0.5593  0.6054  1.7782
 7319SOL    HW233591   1.190   2.856   6.603 -0.4704 -0.1679 -1.7209
 7320SOL     OW33592   4.179   3.008   9.564 -0.6547 -0.5538 -0.4194
 7320SOL    HW133593   4.201   3.067   9.493  2.0965 -0.4924  0.5063
 7320SOL    HW233594   4.165   3.073   9.633  0.9558 -0.8333  0.1757
 7321SOL     OW33595   2.083   3.160   5.860 -1.0052  0.1511  0.2328
 7321SOL    HW133596   2.049   3.072   5.879  1.1174 -0.7288  0.0233
 7321SOL    HW233597   2.103   3.148   5.767 -3.1456 -2.2816  0.0918
 7322SOL     OW33598   4.083   0.122  13.170 -0.2555  0.0953  0.5942
 7322SOL    HW133599   4.131   0.078  13.100 -2.6726 -0.8934 -0.4448
 7322SOL    HW233600   4.135   0.103  13.248  0.7507 -0.4532 -0.1947
 7323SOL     OW33601   4.515   2.531  10.973  0.5525 -0.2758  0.7335
 7323SOL    HW133602   4.566   2.563  11.047  3.0291 -0.0257 -1.0840
 7323SOL    HW233603   4.471   2.613  10.952 -0.1230 -0.1177  2.7561
 7324SOL     OW33604   4.425   3.491   5.974  0.4269  0.0031 -0.0030
 7324SOL    HW133605   4.478   3.440   5.913  1.6938  0.0958  1.0232
 7324SOL    HW233606   4.491   3.558   5.993  1.6568 -0.5284 -2.4101
 7325SOL     OW33607   2.608   2.382  16.859  0.6349  0.1550 -0.5069
 7325SOL    HW133608   2.643   2.299  16.893  0.6816  0.2901 -0.2250
 7325SOL    HW233609   2.639   2.378  16.768 -0.4580 -1.1755 -0.8298
 7326SOL     OW33610   2.184   1.342   2.672 -0.1333 -0.3737 -0.4439
 7326SOL    HW133611   2.139   1.404   2.729 -0.9516 -2.0519  0.7250
 7326SOL    HW233612   2.113   1.280   2.658 -1.0259  0.4346  0.5329
 7327SOL     OW33613   3.892   0.332   7.155  0.1172 -0.1060 -0.4467
 7327SOL    HW133614   3.948   0.400   7.192 -2.2638  2.7746 -2.1891
 7327SOL    HW233615   3.880   0.357   7.064 -0.3422 -1.7459 -0.8403
 7328SOL     OW33616   0.919   0.758   2.892 -0.4560 -0.6697 -0.7884
 7328SOL    HW133617   0.872   0.705   2.956  1.4946 -1.1479  0.2723
 7328SOL    HW233618   0.916   0.839   2.943 -1.1087  0.4228 -2.5901
 7329SOL     OW33619   3.336   2.010   6.556 -0.7094 -0.1672  0.0961
 7329SOL    HW133620   3.288   2.077   6.507 -0.1423 -0.0159 -0.2474
 7329SOL    HW233621   3.384   1.972   6.482 -1.2088 -0.7295  0.0557
 7330SOL     OW33622   1.450   0.347   7.859 -0.5904 -0.1734  0.1073
 7330SOL    HW133623   1.450   0.379   7.949 -3.4750 -0.1449  0.1231
 7330SOL    HW233624   1.542   0.330   7.843 -0.7217  0.2955 -1.1606
 7331SOL     OW33625   0.953   2.155  13.369  0.1205  0.3552 -0.3145
 7331SOL    HW133626   0.974   2.114  13.285  0.6863  1.6753 -0.8221
 7331SOL    HW233627   1.027   2.126  13.422  0.9932  1.2143 -1.0585
 7332SOL     OW33628   3.898   1.282  14.339 -0.1662  0.0428  0.6733
 7332SOL    HW133629   3.943   1.199  14.356 -0.6698 -0.5187 -0.7032
 7332SOL    HW233630   3.860   1.274  14.252  1.8373  1.2609 -0.3037
 7333SOL     OW33631   4.481   2.337   5.907 -0.5633  0.1651  0.1156
 7333SOL    HW133632   4.415   2.406   5.904  0.0678  0.6599 -2.5930
 7333SOL    HW233633   4.452   2.284   5.980 -3.7383  0.4022 -0.9996
 7334SOL     OW33634   3.974   3.732   1.738 -0.1499 -0.2160  0.1924
 7334SOL    HW133635   3.908   3.676   1.697 -0.5331  1.4423 -1.4404
 7334SOL    HW233636   3.945   3.815   1.702 -0.7311 -0.0581  1.0083
 7335SOL     OW33637   0.021   3.848   0.301  1.0704  0.1194  0.3912
 7335SOL    HW133638   0.064   3.789   0.362  1.5427  0.1019  0.0381
 7335SOL    HW233639   4.684   3.872   0.358 -0.5936 -0.7386 -1.4041
 7336SOL     OW33640   1.237   2.835   5.689  0.0907  0.3559 -0.0810
 7336SOL    HW133641   1.251   2.914   5.636 -3.2256  2.0184  1.4962
 7336SOL    HW233642   1.213   2.768   5.625  1.7740  1.2339 -1.6293
 7337SOL     OW33643   2.127   2.627   6.193  0.0436 -0.3913 -0.5117
 7337SOL    HW133644   2.066   2.700   6.181  1.1953  0.5286 -0.7579
 7337SOL    HW233645   2.160   2.623   6.103  0.0296 -0.7445 -0.5001
 7338SOL     OW33646   1.388   1.507  14.126  0.0586  0.0611 -0.1308
 7338SOL    HW133647   1.375   1.590  14.079 -1.5369 -0.3784 -0.4609
 7338SOL    HW233648   1.450   1.541  14.191  0.0300 -1.2325  0.5715
 7339SOL     OW33649   2.361   2.065   2.766  0.1181  0.0693 -0.1843
 7339SOL    HW133650   2.441   2.072   2.713 -0.9554 -1.8741 -2.0524
 7339SOL    HW233651   2.303   2.028   2.700  1.5317 -2.3036 -0.0888
 7340SOL     OW33652   1.488   2.520   6.333 -0.0411  0.1534  0.0977
 7340SOL    HW133653   1.491   2.495   6.426  0.1581 -0.9850 -0.2169
 7340SOL    HW233654   1.416   2.582   6.342 -0.7132 -0.8461  1.6550
 7341SOL     OW33655   1.444   2.672   0.251 -0.1078 -0.3211 -0.4073
 7341SOL    HW133656   1.386   2.614   0.201 -1.0847 -1.8373  2.5506
 7341SOL    HW233657   1.492   2.707   0.176  0.6900 -1.3620 -0.3700
 7342SOL     OW33658   0.351   1.308   7.754 -0.4720  0.2856 -0.4322
 7342SOL    HW133659   0.379   1.300   7.845 -0.4353 -0.2747 -0.4923
 7342SOL    HW233660   0.354   1.215   7.732 -0.7060  1.0609 -3.7539
 7343SOL     OW33661   1.130   0.861   7.985 -0.3205  0.4697  0.0525
 7343SOL    HW133662   1.142   0.904   8.069 -0.1225  0.7187 -0.1034
 7343SOL    HW233663   1.178   0.778   7.980  1.2943  1.4544 -0.8443
 7344SOL     OW33664   4.093   4.699   4.265 -0.1057 -0.1781  0.4363
 7344SOL    HW133665   4.072   0.004   4.181 -1.0976 -0.5385  0.5085
 7344SOL    HW233666   4.171   0.013   4.286 -1.0297  1.5647 -0.3130
 7345SOL     OW33667   2.899   2.147  16.387  0.5156 -0.4766 -0.1117
 7345SOL    HW133668   2.909   2.118  16.478 -1.1313 -2.6603 -0.6319
 7345SOL    HW233669   2.945   2.075  16.345  1.0953 -1.5043  2.2803
 7346SOL     OW33670   1.957   3.081  13.615  0.0064 -0.1209  0.2620
 7346SOL    HW133671   1.926   3.105  13.528  1.2419 -1.1287 -0.4602
 7346SOL    HW233672   2.043   3.046  13.591 -0.6193 -0.7969 -0.9168
 7347SOL     OW33673   4.166   3.399   7.395 -0.1878  0.0944 -0.7016
 7347SOL    HW133674   4.230   3.470   7.395  0.5284 -0.5616  0.1210
 7347SOL    HW233675   4.161   3.380   7.301  0.6927 -0.3194 -0.6643
 7348SOL     OW33676   0.650   3.118   3.661  0.5045  1.1047  0.1795
 7348SOL    HW133677   0.739   3.137   3.691  0.6708  1.7254 -0.6794
 7348SOL    HW233678   0.606   3.092   3.741  0.4253  1.5896  0.2951
 7349SOL     OW33679   1.625   0.157  17.590 -0.1265 -0.2620  0.7164
 7349SOL    HW133680   1.645   0.093  17.659  0.7284 -1.7374 -0.9172
 7349SOL    HW233681   1.624   0.104  17.510  1.5845  2.3742 -1.0553
 7350SOL     OW33682   0.344   1.268   0.068  0.0456  0.2680  0.1221
 7350SOL    HW133683   0.294   1.349   0.059 -2.1140 -1.0476  0.0092
 7350SOL    HW233684   0.378   1.251  17.725  1.9214 -1.0514  1.0914
 7351SOL     OW33685   4.623   2.939  10.300  0.2982  0.3176  1.0781
 7351SOL    HW133686   4.671   2.868  10.256 -1.6643  0.3033 -1.0006
 7351SOL    HW233687   4.533   2.913  10.283  0.5864  1.3402 -1.9004
 7352SOL     OW33688   4.551   1.307   9.335 -0.3253 -0.4691  0.1205
 7352SOL    HW133689   4.563   1.250   9.411  0.7741 -2.0758 -1.2706
 7352SOL    HW233690   4.498   1.382   9.363  0.1628 -0.8220  2.0323
 7353SOL     OW33691   3.234   1.642  12.384  0.3837  0.5545 -0.2533
 7353SOL    HW133692   3.260   1.733  12.398 -0.7660  0.7170  0.8621
 7353SOL    HW233693   3.198   1.649  12.295 -2.1217 -1.0256  0.6307
 7354SOL     OW33694   3.003   2.976   9.987 -0.2377  0.2715 -0.0404
 7354SOL    HW133695   2.994   2.900   9.930  1.7844 -0.4578  0.6101
 7354SOL    HW233696   2.931   2.953  10.046 -1.1145  1.9579 -0.4432
 7355SOL     OW33697   1.244   2.564  17.343 -0.2619  0.0613  0.0040
 7355SOL    HW133698   1.298   2.600  17.413 -2.8549  2.1227  0.9334
 7355SOL    HW233699   1.315   2.536  17.285  0.5623  3.3721 -0.6173
 7356SOL     OW33700   4.449   4.464   5.616  0.2151 -0.1124 -0.0100
 7356SOL    HW133701   4.510   4.391   5.622 -0.3165 -0.5097  0.5617
 7356SOL    HW233702   4.509   4.533   5.585 -0.9876 -0.1328 -2.4192
 7357SOL     OW33703   0.918   3.745   1.833 -0.1198  0.3804  0.5349
 7357SOL    HW133704   0.924   3.708   1.745 -3.5887 -1.6168  1.1607
 7357SOL    HW233705   0.896   3.671   1.889 -0.0434  0.8942  1.2468
 7358SOL     OW33706   1.654   2.485   4.437 -1.1071 -0.3820 -0.1170
 7358SOL    HW133707   1.616   2.561   4.394 -0.1592 -0.1816 -0.6035
 7358SOL    HW233708   1.748   2.498   4.452 -1.7724  1.9502  2.0623
 7359SOL     OW33709   3.333   0.301   5.250  0.7413  0.1403 -0.0857
 7359SOL    HW133710   3.427   0.291   5.236  0.3539 -1.9738 -1.2075
 7359SOL    HW233711   3.339   0.328   5.342  1.5005 -0.3434  0.0052
 7360SOL     OW33712   3.498   0.606  11.853 -0.1503  0.0558 -0.6268
 7360SOL    HW133713   3.449   0.524  11.847  0.1586 -0.2813  1.6263
 7360SOL    HW233714   3.572   0.582  11.797  1.4832 -1.8023  2.3875
 7361SOL     OW33715   0.152   1.854   7.174 -0.3434  0.7832  0.2291
 7361SOL    HW133716   0.075   1.834   7.120 -1.1279  0.9348  1.2784
 7361SOL    HW233717   0.151   1.950   7.171  1.1935  0.7637 -0.6490
 7362SOL     OW33718   1.096   3.788  12.291 -0.3745 -0.7283 -0.2826
 7362SOL    HW133719   1.045   3.709  12.275  0.6022 -1.7541  1.5846
 7362SOL    HW233720   1.106   3.827  12.205 -1.9011  0.2223 -0.0255
 7363SOL     OW33721   4.356   2.666   9.039 -0.9842  0.2851 -0.1289
 7363SOL    HW133722   4.417   2.632   9.104 -0.7607  1.0124  0.0493
 7363SOL    HW233723   4.352   2.596   8.974  0.0990 -1.0166  1.2362
 7364SOL     OW33724   2.153   0.143   9.139  0.4356 -0.6804  0.4752
 7364SOL    HW133725   2.073   0.101   9.169 -0.1680 -1.0044 -1.5946
 7364SOL    HW233726   2.220   0.094   9.187  1.3568 -0.0343 -0.1510
 7365SOL     OW33727   1.189   2.049   1.669  0.9369 -0.2480 -0.0607
 7365SOL    HW133728   1.193   2.128   1.723  2.3564  0.9029 -1.8232
 7365SOL    HW233729   1.239   2.080   1.593 -0.6490  0.5354 -0.7767
 7366SOL     OW33730   0.701   1.133   8.580 -0.1300 -1.2277 -0.2356
 7366SOL    HW133731   0.792   1.150   8.557 -0.8971  1.2427 -1.4951
 7366SOL    HW233732   0.681   1.060   8.522 -0.9306 -1.0912 -0.1398
 7367SOL     OW33733   3.057   2.430  14.789 -0.4100 -0.2601 -0.4030
 7367SOL    HW133734   3.012   2.510  14.760 -0.8292 -0.0914  0.7271
 7367SOL    HW233735   3.123   2.465  14.849 -0.5041 -1.0223  0.1478
 7368SOL     OW33736   2.399   2.427   7.966  0.6169  0.2192 -0.4448
 7368SOL    HW133737   2.439   2.392   7.886 -0.3889 -1.0707 -0.3791
 7368SOL    HW233738   2.333   2.490   7.938  1.2993  0.7330 -0.9007
 7369SOL     OW33739   4.369   2.892   5.106 -0.5131  0.1676 -0.2182
 7369SOL    HW133740   4.350   2.897   5.013 -2.3004  0.1865  0.1543
 7369SOL    HW233741   4.463   2.875   5.110 -0.4342  0.5591 -0.3644
 7370SOL     OW33742   3.867   3.408   2.664  0.1825  0.1564 -0.6621
 7370SOL    HW133743   3.807   3.339   2.635  0.0523 -0.6062  1.3460
 7370SOL    HW233744   3.832   3.428   2.751  0.0423 -3.5663  0.1295
 7371SOL     OW33745   0.641   2.722   6.902 -0.0393 -1.1971 -0.5739
 7371SOL    HW133746   0.596   2.679   6.830  1.6603 -1.5250 -1.4323
 7371SOL    HW233747   0.687   2.649   6.943 -1.6625 -2.7728 -1.6018
 7372SOL     OW33748   2.440   0.029  13.887  0.3040 -0.3865 -0.3901
 7372SOL    HW133749   2.518   0.033  13.832 -0.1024  0.4076 -0.9206
 7372SOL    HW233750   2.486   0.054  13.967  0.5788 -2.9334  0.2303
 7373SOL     OW33751   0.061   3.153   7.766 -0.2651  0.5193  0.4775
 7373SOL    HW133752   0.029   3.216   7.830 -1.4866  1.1356 -0.7347
 7373SOL    HW233753   0.114   3.106   7.831  1.3533 -0.2308 -1.3833
 7374SOL     OW33754   4.413   2.876   4.806 -0.1620 -0.7134  0.0772
 7374SOL    HW133755   4.433   2.908   4.718  1.9367  0.6318  1.0271
 7374SOL    HW233756   4.482   2.811   4.815  0.2098 -0.3959 -0.4752
 7375SOL     OW33757   4.058   0.105  15.014  0.0257 -0.0178  0.4690
 7375SOL    HW133758   4.026   0.131  15.100  1.0648  0.0312  0.8296
 7375SOL    HW233759   4.046   0.192  14.975  1.4848 -0.7897 -1.7188
 7376SOL     OW33760   0.470   4.629   5.776 -0.4544 -0.3565 -0.3639
 7376SOL    HW133761   0.497   4.717   5.749 -0.9392 -1.0843 -3.2184
 7376SOL    HW233762   0.543   4.572   5.750  0.3342  1.3280 -1.9137
 7377SOL     OW33763   2.175   3.752   1.109  0.2248 -0.3983 -0.3948
 7377SOL    HW133764   2.107   3.718   1.051 -0.5018 -0.1294  0.3058
 7377SOL    HW233765   2.128   3.773   1.190 -0.4909  0.7330 -1.1012
 7378SOL     OW33766   0.641   2.103   1.994 -0.2749  0.4280  0.8640
 7378SOL    HW133767   0.584   2.082   1.920  0.6630 -1.6322  0.7124
 7378SOL    HW233768   0.689   2.176   1.957  0.1784 -0.5803 -0.5274
 7379SOL     OW33769   1.925   0.675   8.166  0.2673 -0.0844 -0.0008
 7379SOL    HW133770   1.971   0.650   8.246 -0.8049 -1.2166  0.2644
 7379SOL    HW233771   1.961   0.762   8.152 -2.3965  1.0575  0.2065
 7380SOL     OW33772   2.381   0.701  11.878 -1.2126 -0.1532  0.3745
 7380SOL    HW133773   2.336   0.624  11.913  0.4817 -1.1410  0.3363
 7380SOL    HW233774   2.318   0.772  11.861  2.1756  2.6830 -0.3842
 7381SOL     OW33775   2.332   3.452   5.565  0.6302  0.6866  0.7505
 7381SOL    HW133776   2.279   3.455   5.644  1.4430 -0.7803  1.3606
 7381SOL    HW233777   2.409   3.402   5.592 -1.4440 -1.8654  1.9017
 7382SOL     OW33778   3.887   1.102   9.314  0.1563  0.1612  0.3593
 7382SOL    HW133779   3.808   1.107   9.367 -0.5597 -0.9538 -0.5882
 7382SOL    HW233780   3.945   1.066   9.381 -0.3334  1.5424  1.4997
 7383SOL     OW33781   4.035   1.560  11.777  0.2292 -0.4687 -0.1809
 7383SOL    HW133782   3.947   1.538  11.745 -0.5086  0.9195  0.8936
 7383SOL    HW233783   4.046   1.653  11.761 -2.2327  0.0203  1.0592
 7384SOL     OW33784   0.805   4.035   5.956 -0.5468 -0.1742 -0.5737
 7384SOL    HW133785   0.792   4.128   5.936 -1.3735 -0.0934  0.3641
 7384SOL    HW233786   0.818   4.040   6.051 -0.6620 -1.0979 -0.5090
 7385SOL     OW33787   2.960   1.185   5.746  0.2808  0.0416  0.3481
 7385SOL    HW133788   2.959   1.205   5.839 -1.7527 -2.6002  0.9078
 7385SOL    HW233789   3.018   1.110   5.756 -0.8640 -0.3634  3.6946
 7386SOL     OW33790   2.043   0.594   4.680  0.3480 -0.0491  0.6463
 7386SOL    HW133791   2.034   0.596   4.584  3.0875 -1.5555  0.3310
 7386SOL    HW233792   2.049   0.499   4.692  1.7751 -0.2462 -1.4563
 7387SOL     OW33793   0.029   3.305  12.028  0.0172 -0.5756  0.9351
 7387SOL    HW133794   0.059   3.334  11.942 -3.3819 -2.2610 -0.8410
 7387SOL    HW233795   4.673   3.329  12.023 -0.2239 -1.7970 -0.4243
 7388SOL     OW33796   4.222   1.487   3.055 -0.2094  0.1085  0.2600
 7388SOL    HW133797   4.302   1.487   3.002  0.8081 -3.3758  1.7574
 7388SOL    HW233798   4.167   1.419   3.017 -0.6547  1.0933 -0.8646
 7389SOL     OW33799   2.768   3.597  13.833 -0.1366 -0.1982  0.6455
 7389SOL    HW133800   2.760   3.614  13.739 -0.0114  0.4802  0.7606
 7389SOL    HW233801   2.679   3.565  13.852 -1.7531  1.7083 -3.7030
 7390SOL     OW33802   1.966   0.593  13.071 -0.0129  0.1064  0.5109
 7390SOL    HW133803   2.059   0.581  13.089  0.3631  0.5898 -1.0881
 7390SOL    HW233804   1.922   0.579  13.155 -1.6276 -1.3042 -0.5752
 7391SOL     OW33805   1.856   3.277   8.255  0.0032  0.7442  0.1666
 7391SOL    HW133806   1.823   3.366   8.239  0.0279  0.4189 -1.7422
 7391SOL    HW233807   1.772   3.232   8.254  0.0590  0.6494 -0.2406
 7392SOL     OW33808   3.165   1.454   5.805  0.1072 -0.2436 -0.2395
 7392SOL    HW133809   3.091   1.492   5.852  0.2555  1.2454 -1.2102
 7392SOL    HW233810   3.213   1.402   5.869  1.0469  0.4562 -0.3921
 7393SOL     OW33811   1.945   3.752  17.290  0.2586 -0.8504  0.0269
 7393SOL    HW133812   1.943   3.728  17.197  0.9637  0.0671 -0.2263
 7393SOL    HW233813   1.856   3.785  17.304  0.3821 -0.0959 -0.9917
 7394SOL     OW33814   4.478   2.088   9.032  0.0766  0.3380 -0.4675
 7394SOL    HW133815   4.521   2.075   8.947 -1.0199 -0.1004 -0.9578
 7394SOL    HW233816   4.546   2.080   9.098 -0.4784 -0.6894 -0.0282
 7395SOL     OW33817   2.435   3.807  10.047 -0.1077 -0.1411 -0.2226
 7395SOL    HW133818   2.353   3.777  10.086  0.0572  1.1243  1.0731
 7395SOL    HW233819   2.463   3.880  10.101  0.8752 -0.8624  0.2478
 7396SOL     OW33820   3.077   2.870   8.147  0.3337  0.0863 -0.5247
 7396SOL    HW133821   3.089   2.964   8.156  1.7164 -0.1152 -0.1856
 7396SOL    HW233822   3.166   2.863   8.113  1.5324 -0.1582  2.5916
 7397SOL     OW33823   2.830   3.682  13.572  0.2992  0.0993  0.2904
 7397SOL    HW133824   2.752   3.698  13.518  0.5499  0.4955  0.0440
 7397SOL    HW233825   2.907   3.688  13.515  0.1922  2.3445  0.4028
 7398SOL     OW33826   1.283   4.286   7.736  0.2851  0.2469  0.0430
 7398SOL    HW133827   1.208   4.244   7.778  1.3682 -1.0800  0.6604
 7398SOL    HW233828   1.319   4.330   7.812 -0.1278  1.2479 -0.3418
 7399SOL     OW33829   4.234   2.910  13.952  0.6435 -0.0069  0.0063
 7399SOL    HW133830   4.224   2.815  13.962  0.5608  0.0913  0.9055
 7399SOL    HW233831   4.328   2.913  13.967  0.8378 -0.3658 -1.1182
 7400SOL     OW33832   4.608   2.344   1.746  0.0042  0.4675 -0.0384
 7400SOL    HW133833   4.598   2.250   1.729 -0.4873  0.4173  0.4988
 7400SOL    HW233834   4.597   2.350   1.841 -1.5893  1.7735 -0.2878
 7401SOL     OW33835   1.148   2.187  15.227  0.9349  0.3952 -0.7889
 7401SOL    HW133836   1.194   2.132  15.164 -1.1694 -2.0710 -0.1240
 7401SOL    HW233837   1.090   2.123  15.267  0.7514  2.2568  1.8828
 7402SOL     OW33838   0.017   3.216  13.028  0.1018  0.2916  0.0758
 7402SOL    HW133839   0.021   3.135  12.978  1.1709 -0.0021  0.6438
 7402SOL    HW233840   4.690   3.185  13.093 -1.2261  0.3720 -1.1956
 7403SOL     OW33841   0.139   0.624   8.692  0.5312  0.3083  0.7744
 7403SOL    HW133842   0.207   0.565   8.661  0.5441 -0.8978  3.0552
 7403SOL    HW233843   0.175   0.632   8.781  2.0165  0.8415  0.1204
 7404SOL     OW33844   1.227   1.027  15.645 -0.3342  0.7353  0.4742
 7404SOL    HW133845   1.153   1.085  15.657 -0.2921  1.3501 -2.2493
 7404SOL    HW233846   1.199   1.005  15.556  0.9027  0.2699  0.2008
 7405SOL     OW33847   3.182   1.318   5.233  0.3419 -0.4124  0.3657
 7405SOL    HW133848   3.152   1.350   5.318 -0.6001  1.0618 -0.5303
 7405SOL    HW233849   3.104   1.320   5.178  0.5022  2.5212  0.2802
 7406SOL     OW33850   0.134   2.169   1.575  0.5526  0.3739 -0.7194
 7406SOL    HW133851   0.188   2.092   1.557  3.1191  2.3266 -1.3307
 7406SOL    HW233852   0.193   2.224   1.626  0.6502 -1.4040  1.1062
 7407SOL     OW33853   1.459   4.079  17.316 -0.4379  0.3951 -0.0068
 7407SOL    HW133854   1.383   4.080  17.374  0.3441  1.0440  0.9920
 7407SOL    HW233855   1.456   4.165  17.274 -4.6272  0.5534  0.5588
 7408SOL     OW33856   3.012   0.392  11.782  0.0203 -0.1377 -0.1544
 7408SOL    HW133857   2.974   0.371  11.867  0.8907  1.5484  0.6428
 7408SOL    HW233858   2.980   0.330  11.716  1.2503  0.9274 -1.7724
 7409SOL     OW33859   1.167   0.799   1.119 -0.2787  0.2713  0.1067
 7409SOL    HW133860   1.138   0.778   1.208  0.9441 -0.7112  0.2757
 7409SOL    HW233861   1.261   0.806   1.139  0.1626 -1.3803 -1.3886
 7410SOL     OW33862   1.173   0.384   4.313  0.3272 -0.2322  0.2765
 7410SOL    HW133863   1.224   0.306   4.293  0.2629 -0.9197  2.8193
 7410SOL    HW233864   1.087   0.359   4.277  0.9995 -1.3445 -0.5640
 7411SOL     OW33865   0.224   0.523  16.596  0.2825  0.0242  0.3113
 7411SOL    HW133866   0.129   0.517  16.602  0.0777  2.5272 -0.4193
 7411SOL    HW233867   0.240   0.582  16.670  1.0147 -2.6081  2.2672
 7412SOL     OW33868   3.046   2.419  15.947 -0.0464 -0.2915 -0.2521
 7412SOL    HW133869   3.002   2.501  15.968 -1.7215 -1.6899  1.7634
 7412SOL    HW233870   3.000   2.409  15.864  0.1555  1.6550 -0.5828
 7413SOL     OW33871   0.705   1.973  17.573  0.1531  0.6070 -0.7320
 7413SOL    HW133872   0.718   2.023  17.653 -0.6452  2.5126 -1.7984
 7413SOL    HW233873   0.785   1.930  17.544  0.3567  1.5831 -1.6109
 7414SOL     OW33874   1.910   2.599  12.121  0.3281  0.1265  0.1145
 7414SOL    HW133875   1.972   2.618  12.192 -0.2674  2.6277 -0.0178
 7414SOL    HW233876   1.829   2.634  12.157  0.1557  0.2779 -0.4227
 7415SOL     OW33877   1.847   3.109   6.194 -0.1963  0.2463  0.3494
 7415SOL    HW133878   1.797   3.045   6.244 -1.8217  0.7123 -0.6667
 7415SOL    HW233879   1.776   3.173   6.181  0.4041  0.8484  0.0124
 7416SOL     OW33880   3.957   0.293  15.243  0.6144 -0.0085 -0.0417
 7416SOL    HW133881   3.985   0.355  15.310 -0.3131 -1.1075  1.3759
 7416SOL    HW233882   3.915   0.226  15.298 -1.3999 -0.4730 -2.1379
 7417SOL     OW33883   1.038   2.364  13.147  0.2175  0.0633 -0.4010
 7417SOL    HW133884   1.028   2.323  13.233  1.0370 -1.6383 -1.1251
 7417SOL    HW233885   1.048   2.456  13.171 -0.0169 -0.5996  2.2215
 7418SOL     OW33886   4.548   3.523   2.717  0.0016  0.6643  0.5220
 7418SOL    HW133887   4.519   3.552   2.630 -0.1213  0.5497  0.5247
 7418SOL    HW233888   4.538   3.429   2.706  1.4459  0.6095 -0.3256
 7419SOL     OW33889   3.512   4.417   4.590  0.2617 -0.8340  0.1391
 7419SOL    HW133890   3.560   4.422   4.672 -0.4675  1.6714  0.4076
 7419SOL    HW233891   3.428   4.452   4.618 -1.0409 -1.5076 -2.8912
 7420SOL     OW33892   2.420   1.172  12.507 -1.0012 -0.1714 -0.1735
 7420SOL    HW133893   2.424   1.259  12.468  1.7149 -0.3584 -0.3192
 7420SOL    HW233894   2.477   1.125  12.446 -0.9093  1.9911 -1.7549
 7421SOL     OW33895   0.854   0.230  14.627  0.6200 -0.5581 -0.6919
 7421SOL    HW133896   0.836   0.137  14.618  1.4553 -0.7100 -0.7696
 7421SOL    HW233897   0.794   0.269  14.564 -0.1284 -2.2168 -1.0126
 7422SOL     OW33898   2.963   1.507   7.376  0.3575 -0.1477 -0.0245
 7422SOL    HW133899   3.008   1.580   7.419  0.6298 -0.4865  0.2604
 7422SOL    HW233900   2.986   1.507   7.283  0.1815 -0.1508 -0.0682
 7423SOL     OW33901   4.727   1.186   9.039 -0.5705 -0.1069 -0.3444
 7423SOL    HW133902   0.042   1.155   8.963  2.3434 -2.7354  2.6967
 7423SOL    HW233903   0.005   1.279   9.025  1.2082 -0.1349  1.2763
 7424SOL     OW33904   2.411   2.296   4.639  0.2696  0.4866 -0.2593
 7424SOL    HW133905   2.462   2.291   4.559 -2.2150 -2.5951 -1.6385
 7424SOL    HW233906   2.471   2.339   4.700  0.1004  0.5415 -0.1314
 7425SOL     OW33907   4.256   3.410   8.663 -0.6875  0.2053 -0.1013
 7425SOL    HW133908   4.239   3.343   8.598  0.0029  0.2210 -0.2950
 7425SOL    HW233909   4.315   3.462   8.609 -1.6309 -0.0213 -1.3302
 7426SOL     OW33910   2.255   3.574   9.598 -0.5280 -0.2786  0.0710
 7426SOL    HW133911   2.346   3.545   9.601  0.4106  2.7710  1.1040
 7426SOL    HW233912   2.223   3.540   9.515  2.3537 -0.7147 -0.8631
 7427SOL     OW33913   0.076   0.844   2.459  0.2498 -0.1821 -0.3783
 7427SOL    HW133914   0.093   0.934   2.488 -0.9563  0.6263 -2.1425
 7427SOL    HW233915   0.071   0.798   2.542  1.2808  0.3775 -0.0006
 7428SOL     OW33916   4.529   4.145  10.038  0.7408  0.2880 -0.0857
 7428SOL    HW133917   4.513   4.211   9.970  2.5694 -0.9811 -1.7675
 7428SOL    HW233918   4.437   4.130  10.059 -0.4457  3.2588 -3.0886
 7429SOL     OW33919   1.953   2.706   2.323 -0.3238  0.9294  0.4256
 7429SOL    HW133920   2.016   2.720   2.393 -0.5752  0.5577  0.7259
 7429SOL    HW233921   1.994   2.650   2.258 -0.9428  0.7305  0.2053
 7430SOL     OW33922   2.993   1.579   2.427 -0.2771  0.4688 -0.2737
 7430SOL    HW133923   3.079   1.603   2.459  0.6037  0.8195 -2.8482
 7430SOL    HW233924   3.006   1.583   2.332 -1.4216 -0.8305 -0.4852
 7431SOL     OW33925   1.059   0.076   5.268 -0.1526  0.1341  0.5161
 7431SOL    HW133926   1.147   0.041   5.259  0.1482  1.4827 -1.6016
 7431SOL    HW233927   1.055   0.069   5.364 -0.0570  0.2816  0.5303
 7432SOL     OW33928   2.961   3.666  11.806  0.0899  0.0742  0.0447
 7432SOL    HW133929   2.905   3.685  11.881  2.2628  1.0314  1.4387
 7432SOL    HW233930   2.971   3.573  11.825  3.1566  0.5069  0.6074
 7433SOL     OW33931   2.351   2.420   4.942  0.8551  0.1513 -0.0588
 7433SOL    HW133932   2.262   2.427   4.976  0.8829  0.8773 -0.1358
 7433SOL    HW233933   2.385   2.497   4.988  1.5873  0.6128 -1.3546
 7434SOL     OW33934   4.670   1.236   3.760 -0.0489 -0.0671 -0.6545
 7434SOL    HW133935   4.602   1.189   3.808  0.5341  0.3662  0.6214
 7434SOL    HW233936   4.725   1.160   3.738 -0.5323 -0.8619  0.8226
 7435SOL     OW33937   0.588   0.856   3.827  0.1619  0.0986 -0.4449
 7435SOL    HW133938   0.642   0.785   3.862 -0.9157  0.3089  1.6940
 7435SOL    HW233939   0.529   0.803   3.773 -3.3770  1.5110  2.0108
 7436SOL     OW33940   0.946   2.535   9.940  0.2652 -0.6862 -0.4682
 7436SOL    HW133941   0.858   2.498   9.950 -0.7484  1.3248 -1.9027
 7436SOL    HW233942   0.969   2.507  10.028 -0.6733  0.4006  0.1119
 7437SOL     OW33943   3.703   3.456   5.818  0.4183  0.4954 -0.2093
 7437SOL    HW133944   3.620   3.411   5.803  0.7878 -0.3701  0.3474
 7437SOL    HW233945   3.765   3.437   5.747 -2.0446 -0.3396 -2.1465
 7438SOL     OW33946   4.170   0.783  14.504 -0.0160  0.2518  0.5321
 7438SOL    HW133947   4.157   0.747  14.592 -2.6875 -0.7422 -0.2463
 7438SOL    HW233948   4.150   0.710  14.445 -0.3335  0.7320  0.0561
 7439SOL     OW33949   4.486   0.253   5.511  0.1378  0.1955 -0.4650
 7439SOL    HW133950   4.456   0.322   5.571  2.6898 -0.7748  1.9202
 7439SOL    HW233951   4.425   0.190   5.550  1.5277 -2.0472 -1.9655
 7440SOL     OW33952   1.383   2.123   2.244 -0.5631 -0.2896  0.2695
 7440SOL    HW133953   1.456   2.065   2.222  1.5418  2.0299  1.1003
 7440SOL    HW233954   1.318   2.096   2.179 -1.0584  1.7520 -0.0907
 7441SOL     OW33955   2.194   3.586   3.576  0.1233 -0.3551 -0.2856
 7441SOL    HW133956   2.232   3.665   3.538 -0.1969  0.1197  0.3858
 7441SOL    HW233957   2.257   3.538   3.629  0.3230  1.6057  1.2585
 7442SOL     OW33958   0.037   1.867   5.642  0.1096  0.0870  0.4136
 7442SOL    HW133959   0.054   1.783   5.685  0.9738  0.9405  1.7508
 7442SOL    HW233960   4.712   1.838   5.575  1.8445 -3.7057  0.4245
 7443SOL     OW33961   2.861   3.146  14.796  0.1010 -0.6964 -0.2590
 7443SOL    HW133962   2.854   3.134  14.891  2.0136 -0.5464 -0.0984
 7443SOL    HW233963   2.955   3.159  14.782 -0.1529  2.0647  0.5257
 7444SOL     OW33964   1.439   0.914   1.861  0.0467  0.2106  0.3611
 7444SOL    HW133965   1.414   0.853   1.792  1.8064 -1.9754  1.6658
 7444SOL    HW233966   1.465   0.988   1.807  2.0843  0.4018  1.5979
 7445SOL     OW33967   3.669   4.238   0.795  0.1202 -0.1747  0.1558
 7445SOL    HW133968   3.675   4.167   0.731  0.3030 -0.9944  1.0841
 7445SOL    HW233969   3.673   4.316   0.740  1.0564 -0.0606  0.3943
 7446SOL     OW33970   3.248   2.361   6.457 -0.0376  0.2477  0.7077
 7446SOL    HW133971   3.219   2.337   6.545 -0.7791  3.0408  1.2215
 7446SOL    HW233972   3.249   2.276   6.413 -1.2759  0.6415 -0.0830
 7447SOL     OW33973   2.723   1.283   2.753  0.3536  0.1453 -0.1621
 7447SOL    HW133974   2.687   1.360   2.710 -0.0075  0.7719  1.2489
 7447SOL    HW233975   2.709   1.208   2.696 -1.5410  0.5378 -0.2015
 7448SOL     OW33976   0.815   4.615   1.968 -0.0381 -0.3679 -0.1570
 7448SOL    HW133977   0.828   4.548   1.900  0.7135 -0.5934  0.2154
 7448SOL    HW233978   0.906   4.620   1.996  0.5038  0.3802 -2.0891
 7449SOL     OW33979   1.233   0.424   4.994  0.2434  0.0505  1.4281
 7449SOL    HW133980   1.168   0.396   4.930  2.7119  1.6402 -1.8067
 7449SOL    HW233981   1.216   0.518   5.002 -1.8748 -0.2067 -0.2309
 7450SOL     OW33982   1.288   2.539   2.057  0.2173 -0.5954 -0.7397
 7450SOL    HW133983   1.326   2.598   1.992  1.2199  1.3702  1.6192
 7450SOL    HW233984   1.373   2.512   2.091  1.2974  1.8236 -1.4555
 7451SOL     OW33985   4.084   2.012   8.845 -0.2559 -0.1367 -0.5121
 7451SOL    HW133986   4.117   2.089   8.891  0.7298 -1.9871  1.8266
 7451SOL    HW233987   4.038   1.962   8.912 -2.4447  0.6554 -1.4068
 7452SOL     OW33988   2.887   0.610   2.449 -0.2754 -0.5535  0.0269
 7452SOL    HW133989   2.901   0.620   2.355  1.5547  0.2730  0.3813
 7452SOL    HW233990   2.944   0.673   2.494 -1.4067  1.1138 -0.8766
 7453SOL     OW33991   3.780   4.642   1.467  0.2473  0.1414 -0.2346
 7453SOL    HW133992   3.784   4.715   1.529 -0.6752  0.0582 -0.0717
 7453SOL    HW233993   3.700   4.670   1.422 -0.7646 -0.5431  1.1406
 7454SOL     OW33994   3.768   1.937   2.859  0.4463  0.2175 -0.6821
 7454SOL    HW133995   3.781   1.848   2.893 -1.1255 -0.5470 -2.0538
 7454SOL    HW233996   3.696   1.968   2.913 -0.1761  0.0032 -1.3864
 7455SOL     OW33997   1.505   0.920   5.786 -0.9275 -0.0964  0.7959
 7455SOL    HW133998   1.477   0.911   5.695  0.0790  1.7541  0.3011
 7455SOL    HW233999   1.510   0.829   5.816  2.0745 -0.1399  0.1805
 7456SOL     OW34000   1.941   1.318  15.845  0.1310  0.5107  0.5954
 7456SOL    HW134001   1.973   1.268  15.921 -1.0936  0.1448  0.8658
 7456SOL    HW234002   1.912   1.399  15.888 -0.3842  0.1564  0.9165
 7457SOL     OW34003   2.702   2.156   5.739  0.2495 -0.8101 -0.3513
 7457SOL    HW134004   2.612   2.188   5.731  0.8937  0.8426 -1.0261
 7457SOL    HW234005   2.724   2.161   5.832 -0.2715 -0.1156 -0.2616
 7458SOL     OW34006   3.944   3.864   6.964  0.7959 -0.8691  0.0006
 7458SOL    HW134007   3.857   3.837   6.994 -0.2932  0.5325 -1.8452
 7458SOL    HW234008   3.933   3.951   6.926  0.7392 -1.0891 -0.4876
 7459SOL     OW34009   0.794   3.551   1.947  0.2024  0.5146  0.2495
 7459SOL    HW134010   0.779   3.580   2.037 -2.1089 -2.7540  0.9196
 7459SOL    HW234011   0.707   3.520   1.921 -0.6206  1.6928  1.6469
 7460SOL     OW34012   4.144   1.324   7.310 -0.4413 -0.2759 -0.4763
 7460SOL    HW134013   4.073   1.348   7.251  0.2061 -0.6970 -1.4210
 7460SOL    HW234014   4.090   1.286   7.379 -2.1712 -0.4923 -1.9445
 7461SOL     OW34015   0.840   2.911  16.007 -0.4843 -0.3299 -0.3083
 7461SOL    HW134016   0.871   2.846  16.070 -0.3409 -2.2745 -2.3797
 7461SOL    HW234017   0.924   2.956  16.002 -0.6422  0.0219  0.2643
 7462SOL     OW34018   0.070   0.950   0.348 -0.1980 -0.1472 -0.1164
 7462SOL    HW134019   0.056   1.045   0.341  2.2322  0.2663  0.3809
 7462SOL    HW234020   4.722   0.907   0.340 -0.9264  1.3261 -0.2689
 7463SOL     OW34021   3.088   0.814   1.917 -0.2151  0.6973  0.3148
 7463SOL    HW134022   3.032   0.891   1.919 -0.5432  0.4294  1.6648
 7463SOL    HW234023   3.143   0.843   1.845  0.6581 -1.5453  0.0529
 7464SOL     OW34024   1.551   2.625   8.346  0.0111 -0.1260  0.4239
 7464SOL    HW134025   1.587   2.566   8.280 -2.6504 -0.5726 -0.6367
 7464SOL    HW234026   1.633   2.670   8.363  0.6620 -0.3267 -2.2054
 7465SOL     OW34027   4.036   1.100   7.598  0.0917 -0.1577  1.1340
 7465SOL    HW134028   4.005   1.185   7.566 -1.8611 -1.0575  0.6902
 7465SOL    HW234029   4.015   1.104   7.691 -3.0454 -1.7477  0.4825
 7466SOL     OW34030   3.967   1.407  17.148  0.5350 -0.3547 -0.1991
 7466SOL    HW134031   4.039   1.397  17.211 -1.4277 -2.9587  1.6487
 7466SOL    HW234032   3.943   1.317  17.124  0.6678 -0.6118  0.6335
 7467SOL     OW34033   1.641   1.700   5.943  0.1449 -0.2843  0.1133
 7467SOL    HW134034   1.626   1.635   5.874 -1.1703  1.1369 -0.9574
 7467SOL    HW234035   1.731   1.728   5.927 -0.0788 -0.1113 -0.8374
 7468SOL     OW34036   0.498   1.266   5.551  0.0256 -0.5461  0.3688
 7468SOL    HW134037   0.555   1.262   5.628 -0.4019 -2.5063  0.5748
 7468SOL    HW234038   0.511   1.360   5.539  3.2808 -1.1878 -1.0455
 7469SOL     OW34039   3.612   4.223   5.872  0.6267 -0.1413 -0.3588
 7469SOL    HW134040   3.652   4.307   5.853  0.0720  0.3820  0.7397
 7469SOL    HW234041   3.664   4.210   5.952  0.7104 -0.0518 -0.3988
 7470SOL     OW34042   2.885   4.327   4.777 -0.0079  0.1756 -0.1208
 7470SOL    HW134043   2.902   4.243   4.820 -0.3500 -0.5751 -1.4424
 7470SOL    HW234044   2.837   4.376   4.843 -2.1630 -0.6334 -1.1051
 7471SOL     OW34045   0.368   1.783  17.211  0.6755 -0.2026  0.3953
 7471SOL    HW134046   0.418   1.828  17.278 -0.8518  1.3945  0.4626
 7471SOL    HW234047   0.431   1.714  17.191  0.8309  0.1775 -0.4179
 7472SOL     OW34048   3.101   2.785   1.966 -0.0591 -0.3598  0.0352
 7472SOL    HW134049   3.066   2.873   1.976  0.7322 -0.0722  0.3304
 7472SOL    HW234050   3.041   2.732   2.019  1.5322 -1.3625  0.8610
 7473SOL     OW34051   0.778   4.099   6.216 -0.2332 -0.0192  0.7404
 7473SOL    HW134052   0.738   4.184   6.235 -1.1940 -0.4761  0.7818
 7473SOL    HW234053   0.802   4.064   6.302  0.7294  0.7855  0.8064
 7474SOL     OW34054   1.924   2.010   6.034  0.3457  0.5142  0.0288
 7474SOL    HW134055   1.934   2.101   6.060  0.9805  0.4629 -0.0422
 7474SOL    HW234056   1.986   1.958   6.085 -1.6463 -0.7045  1.2125
 7475SOL     OW34057   4.330   2.371   6.790  0.6999  0.0566  0.2713
 7475SOL    HW134058   4.374   2.412   6.716 -1.4479 -0.2072 -1.1435
 7475SOL    HW234059   4.287   2.298   6.746  2.1107 -0.7347  0.2168
 7476SOL     OW34060   4.721   0.860  11.714  0.5046 -0.3410  0.0909
 7476SOL    HW134061   4.695   0.911  11.791  2.3917  0.0465  0.4755
 7476SOL    HW234062   0.033   0.927  11.666 -0.3246  0.6082  0.5689
 7477SOL     OW34063   0.040   0.391   6.140 -0.6850  0.0053  0.3147
 7477SOL    HW134064   0.112   0.449   6.114 -1.6520 -0.2533 -2.9039
 7477SOL    HW234065   4.716   0.419   6.072  1.4492  1.9912 -0.7355
 7478SOL     OW34066   0.721   4.704  13.227  0.5452 -0.5489 -0.2069
 7478SOL    HW134067   0.724   4.682  13.320  0.1287 -0.6209 -0.2109
 7478SOL    HW234068   0.644   4.664  13.188  1.2995 -2.0138 -0.1871
 7479SOL     OW34069   2.413   2.468   3.614  0.6630  0.2711 -0.1905
 7479SOL    HW134070   2.325   2.433   3.601  1.6404 -1.7884 -1.3260
 7479SOL    HW234071   2.400   2.470   3.708 -1.2635  0.5297 -0.4593
 7480SOL     OW34072   1.501   0.088   2.774 -0.1315  0.2061 -0.3130
 7480SOL    HW134073   1.496   0.147   2.699  2.7148  0.5486 -0.2378
 7480SOL    HW234074   1.523   0.151   2.843 -0.6568  1.3882 -1.2256
 7481SOL     OW34075   2.502   2.591   4.190  0.5228 -0.1798  0.4664
 7481SOL    HW134076   2.495   2.680   4.156  0.3125  0.0428  1.0849
 7481SOL    HW234077   2.580   2.598   4.245  1.4959 -0.2854 -0.8947
 7482SOL     OW34078   4.697   0.690   4.366  0.9304 -0.6111 -0.0505
 7482SOL    HW134079   4.691   0.640   4.285  0.0296 -0.2448 -0.2132
 7482SOL    HW234080   4.653   0.773   4.347  2.0637  0.2581  1.1340
 7483SOL     OW34081   4.110   4.340   1.285 -0.0971  0.1568 -0.0043
 7483SOL    HW134082   4.065   4.387   1.355  0.6719 -0.3891  0.8462
 7483SOL    HW234083   4.198   4.344   1.321 -0.5324 -1.3883  1.2220
 7484SOL     OW34084   3.748   2.394   8.159 -0.1628 -0.0505  0.7049
 7484SOL    HW134085   3.730   2.450   8.234  0.7258  2.3572 -0.8656
 7484SOL    HW234086   3.740   2.307   8.196 -0.7327  0.3268  1.4660
 7485SOL     OW34087   1.723   0.339   1.043  0.2198 -0.3346 -0.8163
 7485SOL    HW134088   1.766   0.254   1.054  0.6638 -0.2272 -1.6851
 7485SOL    HW234089   1.690   0.332   0.953  1.1642  0.6242 -1.2386
 7486SOL     OW34090   4.440   4.046   5.031  0.3568 -0.1849 -0.2294
 7486SOL    HW134091   4.356   4.085   5.057 -0.6645 -1.8290 -1.1168
 7486SOL    HW234092   4.426   4.025   4.939  0.8148 -1.2841 -0.0409
 7487SOL     OW34093   2.260   3.060   7.941  0.3521 -0.6356  0.0772
 7487SOL    HW134094   2.171   3.031   7.960 -0.0342 -0.0438 -0.8591
 7487SOL    HW234095   2.278   3.046   7.848 -0.3893  1.3221 -0.3511
 7488SOL     OW34096   3.412   3.958   5.532 -0.8681 -0.1464  0.2461
 7488SOL    HW134097   3.505   3.945   5.512 -1.1446  0.5598 -1.4816
 7488SOL    HW234098   3.405   4.037   5.585  1.3481  0.1047  0.1722
 7489SOL     OW34099   2.701   3.745   7.092  0.1361  0.6405 -0.4311
 7489SOL    HW134100   2.774   3.683   7.086 -1.7378 -1.5314 -0.7040
 7489SOL    HW234101   2.733   3.817   7.039  0.4750  0.3456 -0.6316
 7490SOL     OW34102   2.312   3.335  13.966 -0.4118  1.0813 -0.2997
 7490SOL    HW134103   2.276   3.297  13.885  0.3874 -0.9240  0.2863
 7490SOL    HW234104   2.248   3.324  14.037  1.1057  1.6815  1.1485
 7491SOL     OW34105   4.040   2.183   2.138 -0.1784 -0.3063  0.1876
 7491SOL    HW134106   4.058   2.145   2.052 -0.3580  0.2614 -0.1027
 7491SOL    HW234107   4.103   2.139   2.194 -0.5166 -1.9546 -0.7248
 7492SOL     OW34108   2.960   0.779   4.349 -0.0590 -0.0234 -0.3804
 7492SOL    HW134109   2.906   0.733   4.414 -3.4750  1.5550 -2.1349
 7492SOL    HW234110   2.891   0.831   4.308  1.0410  1.3210 -0.4981
 7493SOL     OW34111   0.704   3.390  14.054  0.2824 -0.8575 -0.3428
 7493SOL    HW134112   0.698   3.453  13.983  1.0494  0.5208  0.8266
 7493SOL    HW234113   0.616   3.350  14.051 -0.4004  0.7869 -1.8958
 7494SOL     OW34114   1.936   3.696  12.649  0.4338  0.1034  0.2589
 7494SOL    HW134115   1.863   3.747  12.684 -0.0102 -0.0925 -0.3804
 7494SOL    HW234116   2.010   3.728  12.700  1.9838 -1.7708 -0.7700
 7495SOL     OW34117   3.558   2.349   8.367 -0.6578 -0.4577 -0.3660
 7495SOL    HW134118   3.547   2.436   8.405 -0.9862 -0.7554  0.2202
 7495SOL    HW234119   3.543   2.299   8.447 -2.1358 -0.9257 -0.9266
 7496SOL     OW34120   1.453   3.484   5.955 -0.0063  0.3373 -0.3190
 7496SOL    HW134121   1.387   3.433   6.001  1.2529 -2.6960 -1.8782
 7496SOL    HW234122   1.510   3.425   5.905 -0.8961  0.2292 -1.2102
 7497SOL     OW34123   1.494   2.157   3.881 -0.7753  0.6280 -0.2034
 7497SOL    HW134124   1.554   2.124   3.814 -2.0765 -0.2551 -0.9349
 7497SOL    HW234125   1.455   2.231   3.833  2.0440  0.9415 -2.0017
 7498SOL     OW34126   3.707   0.595   5.137  0.8330  0.4249  0.2172
 7498SOL    HW134127   3.764   0.584   5.213  1.0194  1.1268  0.1791
 7498SOL    HW234128   3.668   0.682   5.145 -0.1231  0.1140 -1.0419
 7499SOL     OW34129   0.178   0.635   4.654  0.1837  0.0082 -0.1325
 7499SOL    HW134130   0.089   0.636   4.618 -0.0430  0.9057  0.4365
 7499SOL    HW234131   0.193   0.541   4.650 -0.0561 -0.0772  0.8377
 7500SOL     OW34132   4.463   0.212   9.473  0.0627  0.4229 -0.6507
 7500SOL    HW134133   4.454   0.128   9.428  0.8095 -0.2432  0.4292
 7500SOL    HW234134   4.428   0.203   9.562  0.3139 -0.7261 -0.6630
 7501SOL     OW34135   1.996   1.652   5.731  0.1179 -0.8235  0.3174
 7501SOL    HW134136   1.936   1.642   5.658 -1.9375  1.7434  1.6612
 7501SOL    HW234137   1.974   1.741   5.759 -0.8718 -0.3275 -2.1003
 7502SOL     OW34138   1.398   3.177  17.490 -0.0816  0.4056 -0.1695
 7502SOL    HW134139   1.447   3.131  17.422  1.1962 -1.5295  2.0467
 7502SOL    HW234140   1.319   3.188  17.438 -0.4484  0.2869  0.3515
 7503SOL     OW34141   1.598   1.412   6.469  0.2223 -0.2431  0.4502
 7503SOL    HW134142   1.625   1.356   6.542 -1.4272  1.0478  2.0512
 7503SOL    HW234143   1.677   1.466   6.461  0.5822 -0.8881 -0.3744
 7504SOL     OW34144   3.063   2.731   8.961 -0.2128 -0.2496 -0.2667
 7504SOL    HW134145   3.060   2.707   9.054 -2.5257 -0.3224 -0.3558
 7504SOL    HW234146   3.069   2.826   8.968 -1.7235 -0.2347  0.8817
 7505SOL     OW34147   3.145   4.195   7.643 -0.0736 -0.5541  0.2107
 7505SOL    HW134148   3.100   4.272   7.677  1.2100 -0.3675  1.4791
 7505SOL    HW234149   3.121   4.188   7.550  2.6252  0.0557 -0.5264
 7506SOL     OW34150   4.650   1.124   5.981 -0.0915 -0.3212 -0.1246
 7506SOL    HW134151   4.565   1.127   5.939  0.2574  1.4860 -0.6754
 7506SOL    HW234152   4.658   1.028   5.986  2.8925 -0.1409 -1.4366
 7507SOL     OW34153   4.219   1.895   9.384 -0.5427  0.6018 -0.3385
 7507SOL    HW134154   4.239   1.953   9.457 -0.8155  2.0382 -1.4049
 7507SOL    HW234155   4.307   1.878   9.351 -0.6423  0.8598 -0.7410
 7508SOL     OW34156   4.560   1.939   0.891 -0.2473 -0.0507 -0.2844
 7508SOL    HW134157   4.498   1.967   0.824  1.7140  1.1037 -1.5956
 7508SOL    HW234158   4.522   1.857   0.921 -0.1799 -0.1044 -0.3467
 7509SOL     OW34159   1.175   3.772   7.363  0.0337  0.3827  0.2630
 7509SOL    HW134160   1.168   3.853   7.313 -1.7569 -0.0049 -0.1114
 7509SOL    HW234161   1.207   3.726   7.285  1.6584 -1.0622  1.7747
 7510SOL     OW34162   0.081   1.804   0.951  0.2081 -0.0353 -0.4257
 7510SOL    HW134163   4.734   1.844   0.925 -0.6559 -0.3742  1.8208
 7510SOL    HW234164   0.056   1.801   1.044 -0.6263 -1.2695 -0.6879
 7511SOL     OW34165   2.184   1.966   7.172  0.1562 -0.1881  0.4898
 7511SOL    HW134166   2.219   1.878   7.165  0.9571  0.0527  1.4400
 7511SOL    HW234167   2.093   1.956   7.202  0.1178 -0.1916  0.3706
 7512SOL     OW34168   3.172   3.524   8.328  0.0958 -0.9813  0.2472
 7512SOL    HW134169   3.239   3.518   8.259 -1.5709 -1.2770 -1.3644
 7512SOL    HW234170   3.099   3.546   8.270 -0.9027  0.3627  2.0134
 7513SOL     OW34171   1.527   4.688  12.262  0.4292 -0.0630 -0.0976
 7513SOL    HW134172   1.536   4.608  12.314  0.8937  0.7642  1.0924
 7513SOL    HW234173   1.620   4.701  12.241 -0.6464  2.3109 -3.3184
 7514SOL     OW34174   2.669   2.428   2.811  0.1050  0.6647 -0.2880
 7514SOL    HW134175   2.686   2.505   2.757 -2.0134  2.1222  1.0984
 7514SOL    HW234176   2.729   2.448   2.883  1.0143  1.0896 -1.1656
 7515SOL     OW34177   2.607   2.147   2.502 -0.1237 -0.3338 -0.1155
 7515SOL    HW134178   2.643   2.233   2.524  2.3963 -1.3049 -0.4683
 7515SOL    HW234179   2.624   2.107   2.587  2.8145  1.8818  0.3379
 7516SOL     OW34180   3.787   0.451   5.395  0.0990  0.1476 -0.2652
 7516SOL    HW134181   3.794   0.412   5.482 -0.4281  0.5102 -0.0619
 7516SOL    HW234182   3.867   0.503   5.396  0.8483 -0.9986 -0.0162
 7517SOL     OW34183   3.797   2.381   4.779 -0.1962  0.2247 -0.0324
 7517SOL    HW134184   3.703   2.366   4.783 -0.4883  2.3901  1.1788
 7517SOL    HW234185   3.813   2.375   4.684  0.2560 -0.0993  0.0639
 7518SOL     OW34186   2.457   1.704   9.272 -0.0644  0.6095 -0.0781
 7518SOL    HW134187   2.506   1.632   9.312 -1.2352 -0.4669 -0.5554
 7518SOL    HW234188   2.369   1.666   9.271 -0.4088  1.4047 -0.0492
 7519SOL     OW34189   0.837   1.860   8.453 -0.1082 -0.2860  0.2534
 7519SOL    HW134190   0.865   1.950   8.435  2.1384 -1.5817 -2.7691
 7519SOL    HW234191   0.814   1.863   8.546 -1.4169  1.3228 -0.1249
 7520SOL     OW34192   0.116   3.811   6.608  0.2189  0.4560  0.1239
 7520SOL    HW134193   0.087   3.724   6.638  0.6720 -0.0934 -1.0268
 7520SOL    HW234194   0.153   3.842   6.690 -0.1650  2.1652 -0.3627
 7521SOL     OW34195   2.226   4.310  15.771  0.3673  0.4086 -0.1920
 7521SOL    HW134196   2.180   4.386  15.735 -0.8279  0.9811  2.5441
 7521SOL    HW234197   2.320   4.327  15.762 -0.0840  2.4909 -1.1633
 7522SOL     OW34198   1.307   2.784   9.949 -0.0765 -0.7902  0.0553
 7522SOL    HW134199   1.322   2.782  10.043 -1.0114  1.0166  0.2285
 7522SOL    HW234200   1.364   2.859   9.931 -0.6262  0.0777  1.9296
 7523SOL     OW34201   3.771   2.663   8.300  0.4926  0.2736 -0.3854
 7523SOL    HW134202   3.716   2.731   8.339 -0.5470 -1.4829  1.2434
 7523SOL    HW234203   3.843   2.665   8.362 -0.5928  0.4029  0.8784
 7524SOL     OW34204   3.943   1.825  12.360 -0.2787  0.2614  0.0317
 7524SOL    HW134205   3.854   1.838  12.393 -0.7862  1.8822 -2.0023
 7524SOL    HW234206   3.925   1.767  12.286  1.8521  1.8551 -1.7412
 7525SOL     OW34207   2.468   0.402   9.702 -0.1471  0.1844  0.1145
 7525SOL    HW134208   2.449   0.405   9.796 -0.4772  0.4374  0.0422
 7525SOL    HW234209   2.553   0.363   9.719 -0.3711 -0.2278  0.2758
 7526SOL     OW34210   3.400   4.209  11.210  0.0120  0.3829 -0.0413
 7526SOL    HW134211   3.401   4.276  11.141  0.7398  0.7295  0.3052
 7526SOL    HW234212   3.480   4.233  11.257  0.2585  1.5832 -1.0643
 7527SOL     OW34213   3.616   0.788   7.229  0.1319 -0.2329  0.3280
 7527SOL    HW134214   3.616   0.769   7.135  0.1860 -0.5041  0.3835
 7527SOL    HW234215   3.658   0.707   7.256 -1.9952 -1.4700 -0.1092
 7528SOL     OW34216   2.103   3.833  15.718  0.6301 -0.0459  0.5222
 7528SOL    HW134217   2.188   3.853  15.758  0.2048  0.8414  0.9895
 7528SOL    HW234218   2.057   3.917  15.719  1.0651  0.1870  1.1256
 7529SOL     OW34219   4.098   0.513  14.378 -0.0284  0.7038 -0.2605
 7529SOL    HW134220   4.004   0.502  14.362 -0.0124 -1.3407  1.1730
 7529SOL    HW234221   4.119   0.426  14.412  0.2571  0.4246 -1.1590
 7530SOL     OW34222   3.724   2.241   2.104  0.0405 -0.0894  0.1456
 7530SOL    HW134223   3.815   2.245   2.074 -0.4900  2.1745 -1.2052
 7530SOL    HW234224   3.678   2.272   2.026  1.8247  0.0659 -0.8638
 7531SOL     OW34225   2.579   2.480   0.575  0.1719  0.4068 -0.2380
 7531SOL    HW134226   2.507   2.427   0.609  1.5817 -0.0875  1.9927
 7531SOL    HW234227   2.592   2.429   0.495 -0.9132 -1.0205  0.4935
 7532SOL     OW34228   4.515   1.923   5.814 -0.1268 -0.3452  0.5916
 7532SOL    HW134229   4.570   1.910   5.737 -2.7072 -0.3678 -1.2391
 7532SOL    HW234230   4.472   1.838   5.808 -1.1886  0.4931 -3.7750
 7533SOL     OW34231   0.352   3.153   8.469 -0.5304 -0.0237  0.1934
 7533SOL    HW134232   0.424   3.203   8.507 -0.7499 -1.1865  2.1509
 7533SOL    HW234233   0.350   3.182   8.378  0.2056  0.5160  0.3530
 7534SOL     OW34234   1.363   0.574   1.937  0.1479 -0.1577  0.6062
 7534SOL    HW134235   1.399   0.590   1.850 -0.8748  0.4137  0.2854
 7534SOL    HW234236   1.292   0.638   1.946  0.1555 -0.1349  0.5016
 7535SOL     OW34237   0.930   1.606  12.002  0.2957 -0.3039 -1.1622
 7535SOL    HW134238   0.887   1.646  12.077 -0.0124 -1.4181 -0.7570
 7535SOL    HW234239   0.869   1.536  11.978  0.8592 -1.9343  2.3022
 7536SOL     OW34240   4.714   2.666   6.205  0.6966 -0.2616 -0.1366
 7536SOL    HW134241   4.681   2.581   6.176 -0.1652 -0.4577  1.4241
 7536SOL    HW234242   0.004   2.652   6.296  0.5048 -0.4019 -0.1024
 7537SOL     OW34243   1.822   0.048   3.808 -0.1045 -0.2293  0.3766
 7537SOL    HW134244   1.744   0.021   3.761  1.1954 -2.0452 -0.7372
 7537SOL    HW234245   1.891   0.045   3.742  0.2712  1.4390  0.6770
 7538SOL     OW34246   4.073   3.240   9.676  0.2801 -0.0253  0.1972
 7538SOL    HW134247   4.122   3.293   9.613 -0.5916  0.7915  0.2148
 7538SOL    HW234248   4.085   3.283   9.761  2.4983  0.4963 -0.3536
 7539SOL     OW34249   3.756   0.765   5.929 -0.9176  0.1207  0.5179
 7539SOL    HW134250   3.680   0.822   5.918 -0.8316  0.2984  0.8367
 7539SOL    HW234251   3.750   0.759   6.024 -1.9475  0.5024  0.4716
 7540SOL     OW34252   4.394   1.475   1.368  0.5310  0.1320  0.0341
 7540SOL    HW134253   4.357   1.559   1.394 -0.5858 -0.5732  0.7525
 7540SOL    HW234254   4.346   1.471   1.285 -1.4040  1.4282  1.0644
 7541SOL     OW34255   1.687   2.602  17.610  0.2935  0.1686  0.5112
 7541SOL    HW134256   1.700   2.533  17.546  0.9589 -1.8929  2.8752
 7541SOL    HW234257   1.728   2.566  17.689  3.0899  0.4812 -0.7922
 7542SOL     OW34258   2.997   3.774   2.173  0.2803 -0.2858 -0.0783
 7542SOL    HW134259   2.928   3.746   2.233  1.3590  3.9937  3.1181
 7542SOL    HW234260   3.003   3.689   2.129 -1.3278  1.1465 -3.0837
 7543SOL     OW34261   0.272   2.628   1.589  0.1909 -0.2925 -0.6540
 7543SOL    HW134262   0.186   2.663   1.567 -0.2396 -0.2259  1.1441
 7543SOL    HW234263   0.243   2.542   1.620 -1.5152  0.1409 -1.0436
 7544SOL     OW34264   1.481   2.469   4.114 -0.1876  0.0779 -0.6494
 7544SOL    HW134265   1.550   2.453   4.050  0.4644  0.4306 -0.0466
 7544SOL    HW234266   1.534   2.480   4.193  0.3398 -1.6119 -0.7713
 7545SOL     OW34267   3.689   2.313  13.243 -1.9494  0.0444 -0.8476
 7545SOL    HW134268   3.705   2.240  13.183  0.6811 -0.7472  0.8364
 7545SOL    HW234269   3.751   2.371  13.200  1.1639 -3.0223 -0.5160
 7546SOL     OW34270   2.969   4.560   7.831  0.2474  0.2805 -0.0463
 7546SOL    HW134271   3.002   4.536   7.918  0.6598  0.8116 -0.0502
 7546SOL    HW234272   2.895   4.618   7.849 -0.9538 -1.8280  1.7556
 7547SOL     OW34273   1.420   3.309   4.064  0.0218  0.3727 -1.0051
 7547SOL    HW134274   1.511   3.283   4.051  0.2603  1.8790 -2.3424
 7547SOL    HW234275   1.379   3.225   4.045 -1.2301  0.9527 -0.9070
 7548SOL     OW34276   0.130   2.883   6.311  0.2559  0.4092 -0.2317
 7548SOL    HW134277   0.173   2.959   6.272 -0.0492  1.3041  1.1777
 7548SOL    HW234278   0.109   2.825   6.238  0.0925 -0.1577  0.2704
 7549SOL     OW34279   2.351   1.765  16.374 -0.3403  0.5995 -0.0116
 7549SOL    HW134280   2.427   1.711  16.352 -1.6034 -0.4712 -1.7588
 7549SOL    HW234281   2.338   1.749  16.467 -0.2347  1.1934  0.1056
 7550SOL     OW34282   3.934   2.695   5.323 -0.5904 -0.4299 -0.2062
 7550SOL    HW134283   3.902   2.694   5.233 -0.3886 -0.0006 -0.2861
 7550SOL    HW234284   4.013   2.750   5.318 -0.7951 -0.1653 -0.5318
 7551SOL     OW34285   2.832   1.209   4.890 -0.3200 -0.0777  0.0932
 7551SOL    HW134286   2.814   1.154   4.966 -0.2435 -1.4796 -0.9049
 7551SOL    HW234287   2.916   1.248   4.915 -0.2915  0.4968 -0.9070
 7552SOL     OW34288   1.968   4.181  12.933 -0.2920 -0.2316 -0.2024
 7552SOL    HW134289   2.001   4.099  12.970 -1.1918 -0.6901 -0.4174
 7552SOL    HW234290   1.966   4.224  13.018 -1.1666 -1.1447  0.2397
 7553SOL     OW34291   4.017   3.990  10.526 -0.2621 -0.2218 -0.3311
 7553SOL    HW134292   3.972   4.071  10.550  0.1329 -0.0797 -0.0815
 7553SOL    HW234293   4.086   3.987  10.592  0.5049 -0.6677 -1.1553
 7554SOL     OW34294   4.376   1.665   4.127  0.0881  0.5264 -0.6500
 7554SOL    HW134295   4.300   1.625   4.169  1.2500  0.9883  1.8628
 7554SOL    HW234296   4.380   1.625   4.040 -0.2382 -0.8001 -0.0528
 7555SOL     OW34297   1.040   2.528   1.788 -0.2754 -0.6314  0.5601
 7555SOL    HW134298   1.108   2.587   1.756 -2.5724  1.5885 -0.2094
 7555SOL    HW234299   0.989   2.518   1.707 -0.2730  2.8332  0.1132
 7556SOL     OW34300   2.798   1.835   8.234  0.0507  0.5718 -0.2092
 7556SOL    HW134301   2.855   1.772   8.190 -0.3313 -0.6463  1.0330
 7556SOL    HW234302   2.770   1.887   8.159  0.3584  0.3616 -0.4676
 7557SOL     OW34303   3.992   1.937   5.845 -0.0969 -0.3493 -0.0895
 7557SOL    HW134304   4.021   2.023   5.874  1.2110 -1.1192  0.8738
 7557SOL    HW234305   3.915   1.958   5.792  0.3116 -1.3762 -1.1038
 7558SOL     OW34306   2.429   2.425   2.196  0.0779  0.0125  0.1071
 7558SOL    HW134307   2.404   2.493   2.134  4.3985  0.2181 -1.3843
 7558SOL    HW234308   2.358   2.361   2.202 -0.1642  0.2301 -0.4656
 7559SOL     OW34309   2.671   4.654   4.849 -0.7441 -0.7879 -0.3856
 7559SOL    HW134310   2.617   4.596   4.795  0.2823  0.2890 -2.5850
 7559SOL    HW234311   2.728   4.582   4.878 -1.4158 -1.8291 -1.6633
 7560SOL     OW34312   4.685   0.203   2.566  0.1108  0.1159  0.5102
 7560SOL    HW134313   0.040   0.179   2.576  0.1472 -0.1532 -0.4743
 7560SOL    HW234314   4.687   0.294   2.597  0.6484  1.0109 -2.1528
 7561SOL     OW34315   3.034   3.008   1.110 -0.4967  0.1522  0.4100
 7561SOL    HW134316   3.045   3.092   1.066 -1.6629  0.3796  0.5481
 7561SOL    HW234317   3.083   2.955   1.047 -0.2475  1.6576 -0.6395
 7562SOL     OW34318   0.598   4.032   4.291 -0.0156  0.3791  0.9204
 7562SOL    HW134319   0.671   4.080   4.331  0.6566  1.2529 -1.3656
 7562SOL    HW234320   0.570   3.965   4.353 -1.9028  0.2453 -0.0906
 7563SOL     OW34321   0.338   2.072   3.403 -0.2970  0.7176 -0.2680
 7563SOL    HW134322   0.357   2.150   3.351  1.7046 -0.5189 -1.4100
 7563SOL    HW234323   0.273   2.097   3.469  0.8102 -1.8853  1.8360
 7564SOL     OW34324   3.079   0.956   3.693  0.2756  0.0093 -0.2139
 7564SOL    HW134325   3.026   0.936   3.616 -1.4683  2.0925  0.4381
 7564SOL    HW234326   3.101   1.049   3.681  1.8310 -0.3458 -0.0574
 7565SOL     OW34327   3.040   0.199  16.401  0.0635  0.2401  0.4865
 7565SOL    HW134328   2.962   0.144  16.393  1.4087 -1.5706 -0.3552
 7565SOL    HW234329   3.106   0.134  16.427 -0.4153  0.4971  2.3569
 7566SOL     OW34330   3.336   1.192  12.687 -0.2318  0.8400  0.1086
 7566SOL    HW134331   3.351   1.105  12.650  1.4326  1.9729 -1.8603
 7566SOL    HW234332   3.331   1.251  12.612 -0.9275 -0.9105 -1.1982
 7567SOL     OW34333   2.196   4.647  10.416  0.0400  0.5852  0.3097
 7567SOL    HW134334   2.276   4.596  10.428 -1.5332 -2.4587 -1.9689
 7567SOL    HW234335   2.173   4.650  10.508 -4.9782  0.7070 -0.9384
 7568SOL     OW34336   3.651   4.128   1.642  0.4990 -0.3513  0.1329
 7568SOL    HW134337   3.651   4.200   1.705 -0.9855 -0.3833  0.1729
 7568SOL    HW234338   3.560   4.120   1.613  0.9990 -1.4527 -1.1224
 7569SOL     OW34339   0.749   4.210  16.626 -0.0594 -0.1309  0.0022
 7569SOL    HW134340   0.717   4.181  16.712 -0.0320  0.4112  0.1969
 7569SOL    HW234341   0.677   4.272  16.611  1.2304  1.1437 -0.8727
 7570SOL     OW34342   1.073   4.627  14.250  0.4085  0.2325  0.0871
 7570SOL    HW134343   0.978   4.628  14.264  0.7006  0.7900  1.9410
 7570SOL    HW234344   1.087   4.720  14.234  2.6341 -0.3065 -1.0636
 7571SOL     OW34345   1.183   0.734   7.334  0.6342  0.5922 -0.6091
 7571SOL    HW134346   1.104   0.682   7.352  1.7786 -0.8069  0.4247
 7571SOL    HW234347   1.147   0.819   7.312 -2.5135 -0.3604  0.8347
 7572SOL     OW34348   2.071   3.350   8.849 -0.1308  0.5077  0.5424
 7572SOL    HW134349   2.138   3.299   8.804  0.1350  0.9648  0.4282
 7572SOL    HW234350   2.060   3.297   8.928 -1.1492 -1.4161 -0.8849
 7573SOL     OW34351   0.412   0.964   3.446  0.5481  0.0483 -0.3375
 7573SOL    HW134352   0.462   1.000   3.519 -0.4736 -0.7098  0.7433
 7573SOL    HW234353   0.334   1.019   3.440  1.6896  1.6301 -0.6371
 7574SOL     OW34354   2.616   1.470  13.417 -0.5282  0.0103 -0.0603
 7574SOL    HW134355   2.661   1.427  13.344  1.1600 -0.0662  1.0422
 7574SOL    HW234356   2.531   1.427  13.407 -0.3463 -0.7776  1.9218
 7575SOL     OW34357   4.571   2.636   3.824  0.0971  0.4454 -0.4776
 7575SOL    HW134358   4.574   2.708   3.761 -1.6023  0.0077 -1.0746
 7575SOL    HW234359   4.664   2.636   3.846  0.3099 -3.0995 -1.3004
 7576SOL     OW34360   2.368   0.747   3.904 -0.1837  0.1103 -0.4065
 7576SOL    HW134361   2.433   0.771   3.839  1.0241 -2.2033 -0.0416
 7576SOL    HW234362   2.329   0.670   3.862  0.0459 -0.8283  1.0754
 7577SOL     OW34363   1.725   0.551   7.962 -0.2627  0.3884 -0.0230
 7577SOL    HW134364   1.775   0.547   8.044  0.2533 -2.1152 -0.4571
 7577SOL    HW234365   1.662   0.622   7.975 -1.7285 -1.2812  2.0488
 7578SOL     OW34366   3.406   1.305   1.755 -0.4284 -0.1591  0.2062
 7578SOL    HW134367   3.337   1.371   1.764  3.1796  3.4151  1.5281
 7578SOL    HW234368   3.448   1.313   1.840 -0.3402 -0.2438  0.1718
 7579SOL     OW34369   2.968   2.686   3.213  0.2168  0.1486  0.0483
 7579SOL    HW134370   2.969   2.622   3.142 -2.0199 -1.0207  1.0559
 7579SOL    HW234371   2.876   2.712   3.207  0.5280  1.7657  2.3333
 7580SOL     OW34372   0.730   0.886  11.443 -0.1147  0.3268  0.9692
 7580SOL    HW134373   0.782   0.941  11.502  1.1086  0.3690 -0.1722
 7580SOL    HW234374   0.733   0.807  11.497  0.4452  0.4556  1.1278
 7581SOL     OW34375   2.766   1.440   0.594  0.1289 -0.4001 -0.1365
 7581SOL    HW134376   2.771   1.535   0.590 -2.2129 -0.3141 -1.0499
 7581SOL    HW234377   2.689   1.422   0.541 -0.1244  0.1597  0.0407
 7582SOL     OW34378   2.762   0.200  15.225  0.3884  0.2294 -0.1879
 7582SOL    HW134379   2.721   0.286  15.222  0.7893  0.4980  2.0837
 7582SOL    HW234380   2.787   0.193  15.317  1.0064  1.0916 -0.2909
 7583SOL     OW34381   2.294   1.719  10.815  0.0617  0.0554  0.6431
 7583SOL    HW134382   2.269   1.635  10.854 -2.2942  1.3574  1.8679
 7583SOL    HW234383   2.265   1.778  10.884 -0.5474 -1.2845  1.5357
 7584SOL     OW34384   2.608   3.441   5.417 -0.4444  0.0916 -0.6491
 7584SOL    HW134385   2.645   3.368   5.367  1.8643  0.0653  1.0570
 7584SOL    HW234386   2.553   3.396   5.480 -0.2246  0.8730  0.1052
 7585SOL     OW34387   3.125   4.067   8.583  0.2314 -0.2720  0.0698
 7585SOL    HW134388   3.115   4.023   8.668 -0.6612  0.5316  0.3809
 7585SOL    HW234389   3.042   4.112   8.570  0.2784  0.2624  1.6029
 7586SOL     OW34390   0.982   2.095   6.214  0.1482  0.1712 -0.4610
 7586SOL    HW134391   1.008   2.003   6.206 -3.1323 -0.7290 -0.8411
 7586SOL    HW234392   0.889   2.088   6.236  0.8291 -1.0980  1.9218
 7587SOL     OW34393   1.994   2.529   6.782  0.0385  0.0401 -0.2626
 7587SOL    HW134394   2.025   2.448   6.741  3.0921  1.7931 -1.4359
 7587SOL    HW234395   1.937   2.569   6.716  3.5329  0.2927 -3.1575
 7588SOL     OW34396   2.985   3.218   9.785 -0.4421 -0.9141 -0.0531
 7588SOL    HW134397   3.038   3.253   9.714  0.4617  0.0675  1.1112
 7588SOL    HW234398   3.045   3.233   9.858 -0.3584 -3.2229  0.3475
 7589SOL     OW34399   3.604   4.320   7.614 -0.0701 -0.0139 -0.4081
 7589SOL    HW134400   3.683   4.317   7.668  0.2372  2.7746 -0.7159
 7589SOL    HW234401   3.586   4.226   7.606  0.0819 -0.0211 -0.6695
 7590SOL     OW34402   3.518   0.049  13.367 -0.0290 -0.4433 -0.7082
 7590SOL    HW134403   3.601   0.042  13.320  1.2782 -0.6307  1.6866
 7590SOL    HW234404   3.550   0.055  13.456  1.5017 -1.3766 -1.2063
 7591SOL     OW34405   4.640   4.430  12.897  0.3529  0.2658  0.1337
 7591SOL    HW134406   4.699   4.364  12.934 -0.6264 -1.3640 -1.2089
 7591SOL    HW234407   4.690   4.507  12.926 -0.5015  1.7391 -2.3330
 7592SOL     OW34408   2.982   0.352   5.234  0.3141  0.2770 -0.5397
 7592SOL    HW134409   2.914   0.300   5.191 -0.4427  0.9516 -0.1594
 7592SOL    HW234410   3.031   0.281   5.275 -0.6104  0.4545  0.8859
 7593SOL     OW34411   3.567   1.974  16.371 -1.1471 -0.4088 -0.1589
 7593SOL    HW134412   3.525   2.002  16.289 -1.9090 -1.5914 -0.1835
 7593SOL    HW234413   3.530   2.041  16.428 -1.2733  0.3817 -1.1674
 7594SOL     OW34414   1.818   2.858   8.171  0.1458 -0.4541  0.3757
 7594SOL    HW134415   1.853   2.891   8.089 -1.4306  3.2987  1.2050
 7594SOL    HW234416   1.901   2.817   8.199 -0.3417 -0.1617  2.2437
 7595SOL     OW34417   2.859   1.692   6.966 -0.1464 -0.0556  0.2976
 7595SOL    HW134418   2.842   1.764   6.905 -1.3846 -0.1757  0.4990
 7595SOL    HW234419   2.946   1.720   6.995 -0.1639  1.4054 -1.0339
 7596SOL     OW34420   2.897   1.281   1.807  0.0972 -0.1374  0.7800
 7596SOL    HW134421   2.861   1.334   1.878  1.2690  1.7544 -0.0288
 7596SOL    HW234422   2.982   1.321   1.786 -0.6392  1.9781  1.7508
 7597SOL     OW34423   0.324   1.869   0.450 -0.1589  0.1565 -0.9093
 7597SOL    HW134424   0.326   1.936   0.518  1.8262 -0.0253 -0.7914
 7597SOL    HW234425   0.232   1.876   0.425 -0.5728 -0.4777  0.4385
 7598SOL     OW34426   2.507   3.699  14.517  0.9089  0.4836 -0.0074
 7598SOL    HW134427   2.594   3.729  14.543  1.5548 -1.9237  0.5752
 7598SOL    HW234428   2.545   3.631  14.462 -0.9822 -1.3966  1.0497
 7599SOL     OW34429   3.733   0.329   8.300  0.2897 -0.2450  0.0856
 7599SOL    HW134430   3.712   0.259   8.362  0.2106 -0.6463 -0.3909
 7599SOL    HW234431   3.809   0.370   8.340 -1.4317  0.6721  2.3800
 7600SOL     OW34432   0.876   4.197   3.792 -0.4259 -0.0873 -0.4861
 7600SOL    HW134433   0.944   4.139   3.827  0.8131  2.7107  1.7469
 7600SOL    HW234434   0.845   4.244   3.870  2.2227 -0.7569  0.9678
 7601SOL     OW34435   4.039   0.574  11.989 -0.0163  0.3471 -0.0671
 7601SOL    HW134436   4.075   0.637  11.926 -0.6360  2.5756  1.8150
 7601SOL    HW234437   4.083   0.599  12.070 -1.6088  0.7279  0.6729
 7602SOL     OW34438   0.976   1.867  17.553  0.2772  0.4130  0.1321
 7602SOL    HW134439   0.977   1.774  17.574 -3.0018  0.4250  0.2069
 7602SOL    HW234440   1.068   1.893  17.561  0.2300  0.8206 -0.6660
 7603SOL     OW34441   3.186   4.507   7.082 -0.2161  0.1740  0.5147
 7603SOL    HW134442   3.097   4.475   7.073  0.0949 -0.8536  1.1894
 7603SOL    HW234443   3.226   4.429   7.119 -0.6030 -0.5588 -0.6066
 7604SOL     OW34444   1.797   1.431  11.931 -0.4186 -0.0744  0.3684
 7604SOL    HW134445   1.781   1.512  11.980 -0.9564  0.0325  0.0173
 7604SOL    HW234446   1.885   1.419  11.965 -0.1572  0.9499  0.0600
 7605SOL     OW34447   0.809   2.840   1.080  0.1848  0.1296 -0.7438
 7605SOL    HW134448   0.843   2.834   0.990  1.2383 -0.1781 -0.3223
 7605SOL    HW234449   0.719   2.810   1.064 -0.3314  3.2848 -3.9337
 7606SOL     OW34450   1.204   0.014   7.536 -0.2293  0.6119 -0.5575
 7606SOL    HW134451   1.238   0.052   7.617  2.0041  0.3539 -1.3713
 7606SOL    HW234452   1.256   4.671   7.538 -1.1616 -0.0382 -2.0248
 7607SOL     OW34453   0.429   1.615   1.437 -0.1192  0.0381  0.6558
 7607SOL    HW134454   0.434   1.612   1.341 -0.4799  1.3502  0.5990
 7607SOL    HW234455   0.520   1.641   1.453  0.7552 -1.7022 -1.3613
 7608SOL     OW34456   2.879   1.069   9.706 -0.4457  0.6942 -0.4774
 7608SOL    HW134457   2.797   1.025   9.685  0.4465 -0.5232 -1.3957
 7608SOL    HW234458   2.927   1.079   9.624  0.0233 -0.0160 -0.2945
 7609SOL     OW34459   1.667   4.313   6.834 -0.3166  0.5624 -0.0865
 7609SOL    HW134460   1.642   4.360   6.913 -1.1764 -0.5837  0.3096
 7609SOL    HW234461   1.659   4.390   6.777  1.3842  1.7902  1.3121
 7610SOL     OW34462   3.596   0.144   3.928 -0.4471  0.4966  0.3179
 7610SOL    HW134463   3.632   0.057   3.912 -1.5123 -0.2994  2.1742
 7610SOL    HW234464   3.631   0.165   4.015  0.9630  2.7585 -0.7858
 7611SOL     OW34465   3.795   2.455   4.122 -0.3946  0.7330 -0.7840
 7611SOL    HW134466   3.889   2.442   4.125 -0.2753  1.3470 -2.1207
 7611SOL    HW234467   3.770   2.478   4.033 -0.5433 -0.9364 -1.1697
 7612SOL     OW34468   0.651   0.838   5.765  0.5478  0.7338  0.0823
 7612SOL    HW134469   0.669   0.847   5.671  2.2878 -0.3414  0.3116
 7612SOL    HW234470   0.737   0.813   5.799  0.2016 -2.3486 -1.3067
 7613SOL     OW34471   1.006   3.403   7.559 -0.0083  0.2561 -0.0723
 7613SOL    HW134472   1.098   3.423   7.544 -0.1985  0.7351 -0.5859
 7613SOL    HW234473   1.015   3.364   7.646 -1.3874 -1.9827 -0.9236
 7614SOL     OW34474   2.482   1.907   9.879  0.1325 -0.3083 -0.5441
 7614SOL    HW134475   2.533   1.861   9.812 -1.1602 -0.2571 -1.5606
 7614SOL    HW234476   2.503   1.857   9.958  0.5362  0.1147 -0.3814
 7615SOL     OW34477   1.852   4.112  11.087  0.2703 -0.4030  0.3030
 7615SOL    HW134478   1.780   4.048  11.082 -0.5489  0.5663 -0.2327
 7615SOL    HW234479   1.925   4.055  11.111 -0.4361 -0.1111  3.1687
 7616SOL     OW34480   2.216   1.928   0.553 -0.3344 -0.5175  0.2400
 7616SOL    HW134481   2.270   1.966   0.622  0.0680 -3.2234  1.4095
 7616SOL    HW234482   2.123   1.948   0.567 -0.6455 -1.4797 -0.4492
 7617SOL     OW34483   0.387   1.628  15.304  0.6530 -0.3648  0.4494
 7617SOL    HW134484   0.437   1.547  15.314  1.9062  0.3568  0.0632
 7617SOL    HW234485   0.385   1.624  15.209  2.0551  0.9944  0.3524
 7618SOL     OW34486   1.579   3.078   2.674  0.0443  0.2740 -0.1127
 7618SOL    HW134487   1.632   3.034   2.740 -0.0046 -1.6271 -1.3393
 7618SOL    HW234488   1.493   3.073   2.715  2.0068 -2.5723  3.5832
 7619SOL     OW34489   1.014   3.211   5.756 -0.0122  0.2458  0.0014
 7619SOL    HW134490   0.985   3.130   5.713 -0.9833  0.0650  1.0108
 7619SOL    HW234491   0.938   3.223   5.812 -0.0361 -2.6927  0.6077
 7620SOL     OW34492   1.850   1.124   2.246 -0.5513 -0.5048 -0.1743
 7620SOL    HW134493   1.842   1.030   2.263  0.8287 -0.7447 -0.8684
 7620SOL    HW234494   1.823   1.127   2.155  0.2822 -1.3123 -0.4524
 7621SOL     OW34495   2.785   2.705   7.109  0.2180 -0.4529  0.5139
 7621SOL    HW134496   2.707   2.754   7.136 -0.0871  0.1105 -1.3861
 7621SOL    HW234497   2.846   2.778   7.114 -1.8566  1.0935  2.9688
 7622SOL     OW34498   1.894   3.248  11.994  0.2087  0.0537 -0.1927
 7622SOL    HW134499   1.929   3.206  12.073 -1.4628 -1.6249 -0.3644
 7622SOL    HW234500   1.834   3.300  12.048 -2.0331 -2.7352 -0.0242
 7623SOL     OW34501   3.920   1.156   6.034  0.5971 -0.1167 -0.1132
 7623SOL    HW134502   3.995   1.098   6.049  0.1886 -0.4721  0.5491
 7623SOL    HW234503   3.853   1.132   6.098 -1.3043 -0.2813 -2.1801
 7624SOL     OW34504   4.151   2.287   4.688 -0.8528 -0.3902 -0.2313
 7624SOL    HW134505   4.168   2.381   4.691 -0.9811 -0.4078  1.2304
 7624SOL    HW234506   4.129   2.269   4.597 -0.9683  1.2053 -0.5236
 7625SOL     OW34507   1.712   1.432  13.424 -0.4669  0.2467  0.1636
 7625SOL    HW134508   1.777   1.430  13.495  1.4840 -0.1414 -1.6289
 7625SOL    HW234509   1.751   1.489  13.358  0.2483 -1.7751 -1.1544
 7626SOL     OW34510   0.192   4.569   5.708  0.2590  0.8179  0.4399
 7626SOL    HW134511   0.279   4.596   5.736  0.2544  1.6976 -0.4040
 7626SOL    HW234512   0.126   4.633   5.736 -1.2473 -0.7492  0.4958
 7627SOL     OW34513   3.088   1.468   9.092  0.3984  0.5697  0.7219
 7627SOL    HW134514   3.114   1.376   9.090  0.7975  0.7255 -1.9637
 7627SOL    HW234515   3.025   1.465   9.164 -1.9705  0.0093 -1.3362
 7628SOL     OW34516   4.266   3.021   1.149 -0.2892  0.5213  0.0646
 7628SOL    HW134517   4.176   3.053   1.151 -0.3378  0.3639  0.5280
 7628SOL    HW234518   4.292   2.986   1.235  1.2483 -1.4685 -1.2098
 7629SOL     OW34519   3.757   4.689   2.702  0.2815  0.1105  0.0599
 7629SOL    HW134520   3.728   4.615   2.756 -2.3698  2.7427  2.2316
 7629SOL    HW234521   3.682   4.712   2.647 -1.3173 -2.7429  1.0387
 7630SOL     OW34522   2.109   0.706   6.294  0.0341 -0.3867 -0.2608
 7630SOL    HW134523   2.110   0.788   6.245 -0.6421 -0.5104 -0.4704
 7630SOL    HW234524   2.199   0.693   6.324  0.4803  0.8427 -1.0747
 7631SOL     OW34525   1.582   3.418   2.344  0.2496 -0.2851 -0.3756
 7631SOL    HW134526   1.617   3.454   2.425  0.9564 -0.4707 -0.6039
 7631SOL    HW234527   1.517   3.358   2.381  1.7853 -1.0342  1.0894
 7632SOL     OW34528   4.708   0.011   7.173 -0.2501 -0.2522  0.1352
 7632SOL    HW134529   0.043   0.015   7.236  0.9249 -0.6402 -1.1799
 7632SOL    HW234530   0.008   0.066   7.103  2.3022 -1.1509  0.7445
 7633SOL     OW34531   2.053   4.061   7.600  0.0977  0.3478 -0.4823
 7633SOL    HW134532   2.047   4.138   7.544  2.5862 -0.0037 -1.2695
 7633SOL    HW234533   2.073   4.119   7.674 -0.6148  1.4340 -1.1530
 7634SOL     OW34534   2.784   3.101   8.424 -0.7452  0.0831 -0.5068
 7634SOL    HW134535   2.787   3.058   8.338 -1.2442  0.2987 -0.6287
 7634SOL    HW234536   2.875   3.089   8.450 -0.7586 -1.1614 -1.0097
 7635SOL     OW34537   1.841   1.487   7.744 -0.2623 -0.6191 -0.2254
 7635SOL    HW134538   1.775   1.434   7.789 -1.7787  0.5479 -1.0599
 7635SOL    HW234539   1.917   1.431   7.732  0.4022  0.8882 -3.3029
 7636SOL     OW34540   2.524   4.595   8.745 -0.1056  0.3369 -0.4061
 7636SOL    HW134541   2.531   4.534   8.672 -0.7927  1.1419 -1.1577
 7636SOL    HW234542   2.430   4.614   8.748  0.4708  2.9320  1.0466
 7637SOL     OW34543   2.354   3.420   3.772 -0.1352 -0.3766 -0.2731
 7637SOL    HW134544   2.360   3.325   3.783  3.6764 -0.2665 -1.3114
 7637SOL    HW234545   2.440   3.458   3.789 -0.8792  0.5577  1.3530
 7638SOL     OW34546   2.640   2.268  15.291 -0.1498  0.3006  0.1775
 7638SOL    HW134547   2.709   2.246  15.353  0.8479  3.2374  0.1383
 7638SOL    HW234548   2.560   2.245  15.336 -1.1211  2.1043 -0.6104
 7639SOL     OW34549   2.194   3.840  12.249  0.1111  0.4092 -0.1649
 7639SOL    HW134550   2.169   3.928  12.222  0.1563 -0.1868 -2.1291
 7639SOL    HW234551   2.288   3.843  12.229  0.1254  4.3619  0.6467
 7640SOL     OW34552   4.034   1.479   6.285  0.0805 -0.0122  0.7713
 7640SOL    HW134553   3.949   1.475   6.242  1.2260  0.0947 -1.4940
 7640SOL    HW234554   4.098   1.457   6.217  0.4821  2.8676  0.2162
 7641SOL     OW34555   4.298   0.534   4.121 -0.5934  0.0429 -0.0461
 7641SOL    HW134556   4.382   0.529   4.075 -0.5785  1.0191 -0.1306
 7641SOL    HW234557   4.236   0.507   4.053 -0.2062 -0.1194 -0.3320
 7642SOL     OW34558   3.883   2.747   5.913  0.2648 -0.0623 -0.1067
 7642SOL    HW134559   3.934   2.774   5.837  1.3864  1.6816  1.2446
 7642SOL    HW234560   3.805   2.715   5.870 -0.3673  1.4054 -0.0421
 7643SOL     OW34561   3.980   2.821   7.950  0.0223  0.2111  0.5497
 7643SOL    HW134562   3.892   2.786   7.963  0.2992 -1.3559 -1.9477
 7643SOL    HW234563   3.991   2.845   7.858  0.1216 -1.4534  0.1326
 7644SOL     OW34564   0.553   3.449   3.640 -0.0517 -0.3180 -0.4792
 7644SOL    HW134565   0.562   3.477   3.731  0.1097 -1.8248 -0.0450
 7644SOL    HW234566   0.522   3.360   3.658  2.0706 -1.3948 -2.2782
 7645SOL     OW34567   3.760   1.441  15.689 -0.7696  0.1816 -0.0347
 7645SOL    HW134568   3.733   1.471  15.602 -1.5645  1.5072  0.6671
 7645SOL    HW234569   3.850   1.473  15.689 -0.9960  0.8209 -0.4583
 7646SOL     OW34570   4.212   3.481   3.489 -0.0369  1.0405  0.2031
 7646SOL    HW134571   4.208   3.465   3.584  1.0907  1.9215  0.3888
 7646SOL    HW234572   4.252   3.396   3.470 -0.9108  0.2660  1.7936
 7647SOL     OW34573   0.346   2.691   2.762 -0.1584 -0.3474 -0.4666
 7647SOL    HW134574   0.313   2.734   2.840 -1.3649  0.0066 -1.1692
 7647SOL    HW234575   0.409   2.758   2.735  0.5993 -0.6130  0.6303
 7648SOL     OW34576   1.227   3.656   3.100  0.1455 -0.2077 -0.0529
 7648SOL    HW134577   1.157   3.686   3.157 -0.3312  1.1491 -1.3423
 7648SOL    HW234578   1.179   3.619   3.026 -2.0466 -0.5571  1.5397
 7649SOL     OW34579   0.941   1.852   4.369 -0.3306  0.3192 -0.1392
 7649SOL    HW134580   0.911   1.943   4.366 -0.7857  0.0915 -2.3033
 7649SOL    HW234581   0.926   1.823   4.279 -0.3139 -1.1809  0.3405
 7650SOL     OW34582   2.546   1.068   7.814  0.2662  0.5967 -0.2423
 7650SOL    HW134583   2.563   1.120   7.893  1.0672 -0.6572  0.4132
 7650SOL    HW234584   2.621   1.010   7.810 -1.3336 -1.5307  0.6377
 7651SOL     OW34585   0.985   2.667  15.159  0.0623 -0.6178  0.9300
 7651SOL    HW134586   1.070   2.682  15.119  1.0179 -1.0294  2.7944
 7651SOL    HW234587   0.991   2.572  15.164  0.3772 -0.4960  2.9054
 7652SOL     OW34588   2.186   1.698   4.503 -0.1995  0.2126 -0.7458
 7652SOL    HW134589   2.166   1.792   4.505  0.0829  0.2720 -0.7083
 7652SOL    HW234590   2.281   1.700   4.487  0.2026  2.4684  1.8186
 7653SOL     OW34591   2.598   4.447   5.885  0.2339 -0.0047 -0.3818
 7653SOL    HW134592   2.540   4.422   5.813 -1.2520  0.7660  0.5408
 7653SOL    HW234593   2.626   4.361   5.915 -1.6944 -0.9514 -1.2772
 7654SOL     OW34594   0.585   0.897   4.660  0.9759  0.1244 -0.1332
 7654SOL    HW134595   0.593   0.986   4.695  2.0643  0.8974 -2.3138
 7654SOL    HW234596   0.615   0.839   4.729  1.6333 -0.8440 -1.2357
 7655SOL     OW34597   2.453   0.489  10.249  0.2949 -0.0335  0.8195
 7655SOL    HW134598   2.384   0.478  10.315  1.3200 -1.2083  1.6891
 7655SOL    HW234599   2.532   0.508  10.300  0.5282 -3.3624  1.6692
 7656SOL     OW34600   2.248   2.306   8.780 -0.0054  0.8629  0.4459
 7656SOL    HW134601   2.257   2.334   8.689 -1.1345  0.5505  0.2330
 7656SOL    HW234602   2.318   2.357   8.821  0.2182  0.5432  0.4581
 7657SOL     OW34603   3.007   1.374   3.667  0.4858 -0.1557  0.1036
 7657SOL    HW134604   3.089   1.324   3.667  0.6963  0.1926  0.2466
 7657SOL    HW234605   2.981   1.376   3.575  0.3529 -1.6288  0.1150
 7658SOL     OW34606   3.497   4.272   3.690  0.6043 -0.7533  0.9545
 7658SOL    HW134607   3.427   4.291   3.628 -0.0481  2.4155  2.6707
 7658SOL    HW234608   3.498   4.361   3.726 -0.0614 -1.0747  1.7642
 7659SOL     OW34609   1.924   0.253   6.580 -0.4303 -0.4718 -0.0763
 7659SOL    HW134610   1.886   0.277   6.495 -0.2769 -0.9123 -0.2672
 7659SOL    HW234611   1.974   0.177   6.550  0.6193  0.2232 -0.0986
 7660SOL     OW34612   2.754   1.941   9.084  0.3846 -0.1776  0.1296
 7660SOL    HW134613   2.826   1.995   9.118 -0.0633  0.7514 -0.3881
 7660SOL    HW234614   2.765   1.867   9.143  1.7857  0.5349  0.7803
 7661SOL     OW34615   2.309   2.902   7.709  0.3831  0.1838  0.5639
 7661SOL    HW134616   2.404   2.900   7.695  0.0140  0.8132 -2.0901
 7661SOL    HW234617   2.265   2.895   7.624  0.4419  0.9483  0.4657
 7662SOL     OW34618   0.502   3.546   6.749 -0.2327 -1.1448  0.3320
 7662SOL    HW134619   0.589   3.571   6.716 -0.7847  0.5393  0.1788
 7662SOL    HW234620   0.482   3.610   6.818 -1.2461 -1.4502  0.3136
 7663SOL     OW34621   1.787   1.692   8.572  0.2782  0.1165 -0.1001
 7663SOL    HW134622   1.753   1.680   8.660  1.0555 -2.0046 -0.0683
 7663SOL    HW234623   1.778   1.787   8.567 -0.7580  0.0685  1.0666
 7664SOL     OW34624   0.029   4.341   1.996  0.2555  0.1211 -0.0929
 7664SOL    HW134625   4.692   4.394   1.965  1.1645  0.5145 -1.5651
 7664SOL    HW234626   4.736   4.317   2.084 -3.1414 -0.2635 -1.3271
 7665SOL     OW34627   4.147   3.876   4.993 -0.0588  0.3859  0.4754
 7665SOL    HW134628   4.219   3.828   5.034 -1.4295  0.6607  3.1904
 7665SOL    HW234629   4.077   3.812   5.005  1.9028 -1.6547  0.8994
 7666SOL     OW34630   1.717   2.971   5.468 -0.1321  0.0349 -0.1682
 7666SOL    HW134631   1.664   2.923   5.532  0.5552 -1.2378 -0.5509
 7666SOL    HW234632   1.684   3.059   5.486  0.9502  0.2947  0.4968
 7667SOL     OW34633   2.897   1.374  15.106 -0.7791  0.2952  0.0229
 7667SOL    HW134634   2.890   1.325  15.024 -2.6767  1.6454 -0.6188
 7667SOL    HW234635   2.988   1.351  15.124 -0.8551  0.2692  0.3831
 7668SOL     OW34636   3.169   0.639   3.029  0.3135 -0.0611 -0.3641
 7668SOL    HW134637   3.247   0.683   3.064 -0.7426  0.3595  1.4807
 7668SOL    HW234638   3.157   0.559   3.079  1.3560  0.1421  0.2284
 7669SOL     OW34639   4.535   4.265   8.926 -0.4331  0.4243  0.6304
 7669SOL    HW134640   4.520   4.210   9.003 -0.9109  0.6556  0.7006
 7669SOL    HW234641   4.630   4.270   8.936 -0.6059  4.6919  0.2071
 7670SOL     OW34642   1.141   4.353  10.580  0.0623  0.1810 -0.3136
 7670SOL    HW134643   1.199   4.314  10.644 -1.6065 -0.4487  0.8011
 7670SOL    HW234644   1.059   4.305  10.592  2.4020 -3.2905  1.5012
 7671SOL     OW34645   3.753   2.022   8.229 -0.1685  0.0359  0.3930
 7671SOL    HW134646   3.761   1.937   8.273 -0.5831 -1.7784 -2.9836
 7671SOL    HW234647   3.771   1.990   8.140 -1.3708  2.6668 -0.7983
 7672SOL     OW34648   1.611   0.429  10.835  0.1896 -0.3607  0.1171
 7672SOL    HW134649   1.621   0.521  10.811  0.9817 -0.3642  0.4414
 7672SOL    HW234650   1.670   0.433  10.910  1.7261  1.3063 -1.1752
 7673SOL     OW34651   4.501   4.611   7.404  0.0908 -0.2205  0.3931
 7673SOL    HW134652   4.585   4.649   7.429 -0.0563  0.1851  0.2659
 7673SOL    HW234653   4.528   4.544   7.341 -1.6137  0.5235 -1.1294
 7674SOL     OW34654   0.410   1.622   0.794 -0.1210  0.5264  0.4205
 7674SOL    HW134655   0.501   1.646   0.780  0.1483  0.2772  1.7509
 7674SOL    HW234656   0.415   1.542   0.846  0.6097 -0.9553 -1.9345
 7675SOL     OW34657   4.176   4.633   1.185 -0.1266  0.1672  0.0493
 7675SOL    HW134658   4.091   4.657   1.148 -0.7969 -1.2833  0.6457
 7675SOL    HW234659   4.148   4.585   1.263 -1.6435 -1.4361 -1.4776
 7676SOL     OW34660   1.770   2.070   5.342 -0.4419  0.3715  0.0234
 7676SOL    HW134661   1.682   2.074   5.380 -0.5887  0.7790 -0.3709
 7676SOL    HW234662   1.812   2.153   5.362  1.2446 -0.4106 -0.2459
 7677SOL     OW34663   1.535   0.376   1.243 -0.2271 -0.7574  0.4516
 7677SOL    HW134664   1.504   0.350   1.156 -2.5097  0.1144  1.0007
 7677SOL    HW234665   1.620   0.410   1.215 -1.4683  0.6850 -1.5844
 7678SOL     OW34666   0.095   1.100   9.336  0.2568 -0.2554 -0.7266
 7678SOL    HW134667   0.044   1.126   9.259 -0.2472  2.6016  0.5798
 7678SOL    HW234668   0.147   1.179   9.346  0.4584 -0.3732 -0.8504
 7679SOL     OW34669   2.320   2.152   3.363  0.5180 -0.1425 -0.1967
 7679SOL    HW134670   2.242   2.142   3.417  2.3503 -0.9472  2.3262
 7679SOL    HW234671   2.381   2.095   3.410  2.2451  1.3332 -0.6494
 7680SOL     OW34672   2.665   1.868   3.298 -0.0310  0.1496 -0.0198
 7680SOL    HW134673   2.647   1.882   3.205  2.0416  0.3783 -0.3771
 7680SOL    HW234674   2.594   1.923   3.331 -1.5114 -2.0707  0.4930
 7681SOL     OW34675   4.175   4.706  13.407 -0.5603  0.2346  0.1102
 7681SOL    HW134676   4.136   4.622  13.383 -0.8335  0.2969  0.3454
 7681SOL    HW234677   4.095   0.014  13.433 -0.1139  0.6199  0.8101
 7682SOL     OW34678   4.408   1.984  12.301  0.0740 -0.4628  0.1204
 7682SOL    HW134679   4.493   1.941  12.298 -0.4406 -1.2516 -3.0549
 7682SOL    HW234680   4.445   2.072  12.290 -2.5140  0.8932  2.2982
 7683SOL     OW34681   2.374   1.373   8.662 -0.4957 -0.5214  0.2041
 7683SOL    HW134682   2.278   1.369   8.652 -0.6440  0.6880  1.2200
 7683SOL    HW234683   2.392   1.298   8.719 -0.3131 -2.5668 -2.5086
 7684SOL     OW34684   3.870   2.412   5.320  0.0947 -0.6038  0.2466
 7684SOL    HW134685   3.780   2.442   5.335  0.5317  0.2739  1.1183
 7684SOL    HW234686   3.925   2.486   5.343  0.8683 -0.4587 -2.0776
 7685SOL     OW34687   0.041   2.364  10.268  0.3396 -0.4865  0.1120
 7685SOL    HW134688   0.044   2.281  10.315  0.8223 -0.7957 -0.4618
 7685SOL    HW234689   0.061   2.443  10.320  1.0872 -0.1847 -0.6278
 7686SOL     OW34690   3.069   1.388  12.290  0.4114 -0.0948  0.1241
 7686SOL    HW134691   3.066   1.292  12.285 -0.5502 -0.0487 -0.2758
 7686SOL    HW234692   3.052   1.401  12.383  1.3369  0.5016  0.2077
 7687SOL     OW34693   2.106   0.506   5.694  0.0628 -0.3599 -0.2449
 7687SOL    HW134694   2.093   0.431   5.636  1.6844 -0.3301 -0.6362
 7687SOL    HW234695   2.020   0.497   5.736 -0.0697 -3.0912 -1.1302
 7688SOL     OW34696   4.471   1.432   3.570  0.0935 -0.4094  0.2058
 7688SOL    HW134697   4.517   1.357   3.607  0.4152 -0.0127  0.6022
 7688SOL    HW234698   4.399   1.390   3.523 -1.1298 -1.9922  3.5490
 7689SOL     OW34699   3.817   0.459   9.232 -0.3318 -0.3615  0.6509
 7689SOL    HW134700   3.843   0.524   9.297 -1.4095 -1.4880  2.2125
 7689SOL    HW234701   3.894   0.402   9.236  2.4931  3.4886  1.0337
 7690SOL     OW34702   3.787   3.660   3.269 -0.0657  0.0075 -0.3078
 7690SOL    HW134703   3.708   3.607   3.280 -0.4170  0.5660 -0.1513
 7690SOL    HW234704   3.844   3.610   3.327  1.5725  2.1009 -0.1128
 7691SOL     OW34705   1.681   1.280  14.924  0.4219 -0.8293 -0.2941
 7691SOL    HW134706   1.644   1.349  14.979  1.2048  0.1016 -0.9267
 7691SOL    HW234707   1.606   1.221  14.924  1.0132 -1.5847 -1.3212
 7692SOL     OW34708   0.124   2.503  11.163  0.2382 -0.3015  0.2518
 7692SOL    HW134709   0.215   2.492  11.135  0.2553  0.3563  0.0413
 7692SOL    HW234710   0.103   2.419  11.203 -0.8042  1.0937  2.6740
 7693SOL     OW34711   0.652   0.661   6.503  0.2131  0.1077 -0.0245
 7693SOL    HW134712   0.730   0.682   6.555 -1.5004 -0.1862  2.6429
 7693SOL    HW234713   0.701   0.647   6.422  0.0700  0.7546 -0.2217
 7694SOL     OW34714   0.512   0.313   5.531  0.5491  0.0606 -0.0302
 7694SOL    HW134715   0.569   0.288   5.603  0.5777  2.0043  0.6257
 7694SOL    HW234716   0.430   0.268   5.551  0.3782  0.1469 -0.5260
 7695SOL     OW34717   4.375   3.264   2.220  0.5057 -0.2316  0.7712
 7695SOL    HW134718   4.423   3.273   2.138 -0.2134 -2.6949  0.0924
 7695SOL    HW234719   4.286   3.288   2.192  0.7217 -0.4131 -0.0536
 7696SOL     OW34720   2.626   4.106   3.108 -0.4616  0.6181  0.5015
 7696SOL    HW134721   2.543   4.142   3.079 -0.7891 -1.6928 -1.4657
 7696SOL    HW234722   2.641   4.044   3.036 -0.1674 -1.5759  2.4492
 7697SOL     OW34723   0.150   1.933   2.405  0.6322  0.7602  0.0217
 7697SOL    HW134724   0.205   2.011   2.395  1.0734  0.2798 -1.3196
 7697SOL    HW234725   0.196   1.903   2.484 -0.5978 -0.1879  0.3708
 7698SOL     OW34726   3.884   3.126   2.648  0.0263  0.9706  0.1974
 7698SOL    HW134727   3.868   3.046   2.598  2.0800  0.6254  0.1105
 7698SOL    HW234728   3.857   3.105   2.737 -1.7113  1.7886 -0.1292
 7699SOL     OW34729   2.427   1.260   3.264  0.5832  0.6598 -0.2513
 7699SOL    HW134730   2.395   1.347   3.242  0.8952  0.5137 -1.2710
 7699SOL    HW234731   2.509   1.260   3.215 -0.3456 -0.5897 -1.7951
 7700SOL     OW34732   4.343   0.046   8.510 -0.4901  0.6713  0.0368
 7700SOL    HW134733   4.292   0.109   8.459  1.0963  0.7989 -1.3769
 7700SOL    HW234734   4.410   0.102   8.549 -1.3835  1.2338  0.7720
 7701SOL     OW34735   0.226   1.705   1.578 -0.3617 -0.4556 -0.1402
 7701SOL    HW134736   0.243   1.788   1.534  0.1417 -1.1460 -1.2302
 7701SOL    HW234737   0.289   1.654   1.528  0.1079 -0.5859  0.5937
 7702SOL     OW34738   1.290   4.388   6.658 -0.1271 -0.2022  0.0585
 7702SOL    HW134739   1.331   4.444   6.724 -0.6133  1.3834 -1.0098
 7702SOL    HW234740   1.356   4.394   6.589 -0.4228 -1.8525 -0.3817
 7703SOL     OW34741   0.451   2.292   3.249  0.4493  0.0285 -0.6330
 7703SOL    HW134742   0.521   2.340   3.204 -0.7957  1.9461 -0.5388
 7703SOL    HW234743   0.380   2.303   3.186  0.5371 -0.2946 -0.7882
 7704SOL     OW34744   0.719   4.016  12.449 -0.3782 -0.7531 -0.3888
 7704SOL    HW134745   0.680   3.930  12.460 -0.5934 -0.6445 -0.3050
 7704SOL    HW234746   0.638   4.063  12.467  1.0950  0.8251  2.0977
 7705SOL     OW34747   1.765   2.878   2.193 -0.3450 -0.1754 -0.6165
 7705SOL    HW134748   1.739   2.798   2.147 -0.8984  0.2590 -1.0568
 7705SOL    HW234749   1.815   2.833   2.262 -0.2302 -0.3551 -0.8175
 7706SOL     OW34750   2.077   1.224   4.434 -0.4291 -0.0612  0.0603
 7706SOL    HW134751   2.167   1.256   4.443  0.4710 -2.2636 -0.9476
 7706SOL    HW234752   2.047   1.221   4.525  3.2595  1.7789  1.3432
 7707SOL     OW34753   1.932   0.009   2.417  0.1468  0.0647 -0.4193
 7707SOL    HW134754   2.019   4.716   2.446 -1.1604 -1.5496  1.9067
 7707SOL    HW234755   1.956   0.101   2.413  1.6221 -0.3174 -0.4592
 7708SOL     OW34756   1.422   2.022  13.536 -0.0700 -0.4804  0.0140
 7708SOL    HW134757   1.401   2.043  13.445  0.6438  1.0776  0.2127
 7708SOL    HW234758   1.363   1.950  13.556  1.0828 -0.5600  3.2574
 7709SOL     OW34759   0.956   2.370   3.445  0.0538 -0.1271  0.3014
 7709SOL    HW134760   0.903   2.410   3.515  1.3022  0.2261  1.0411
 7709SOL    HW234761   1.029   2.335   3.495 -1.5719 -2.4923  1.0209
 7710SOL     OW34762   1.153   2.985  14.058  0.1093 -0.1472  0.2488
 7710SOL    HW134763   1.067   2.997  14.096  0.2456 -0.0647  0.5272
 7710SOL    HW234764   1.171   2.890  14.062 -0.4708 -0.2376  0.6188
 7711SOL     OW34765   3.906   4.677   9.404 -0.4718 -0.0871  0.0632
 7711SOL    HW134766   3.990   4.694   9.448 -0.2236 -2.3483  0.4448
 7711SOL    HW234767   3.887   4.594   9.448 -0.4704  0.3563  0.8968
 7712SOL     OW34768   3.341   1.362  12.421 -0.1918  0.2040  0.4821
 7712SOL    HW134769   3.406   1.346  12.352 -0.0547 -2.6347  1.2609
 7712SOL    HW234770   3.295   1.440  12.390 -1.5809 -0.4583  0.8769
 7713SOL     OW34771   1.765   1.937   6.362  0.4098 -0.2733  0.4202
 7713SOL    HW134772   1.795   1.849   6.340 -0.3216 -0.6483  0.9186
 7713SOL    HW234773   1.673   1.923   6.387 -0.5018  0.2628 -2.6466
 7714SOL     OW34774   1.974   2.483   7.472  0.0875  0.3308 -0.1190
 7714SOL    HW134775   1.920   2.413   7.435  1.5610  0.4035 -2.4066
 7714SOL    HW234776   2.060   2.453   7.443 -0.5078 -2.5729  1.1050
 7715SOL     OW34777   1.220   4.323   0.557  0.1130 -0.2480  0.2140
 7715SOL    HW134778   1.159   4.387   0.520  1.6169  1.7455  1.1830
 7715SOL    HW234779   1.194   4.237   0.524  2.2783 -0.5111 -0.8557
 7716SOL     OW34780   3.881   3.185   0.858 -0.4004  0.0355 -0.2915
 7716SOL    HW134781   3.812   3.214   0.799  0.5087  0.2743 -1.2576
 7716SOL    HW234782   3.941   3.141   0.798  1.7169  0.0909  1.7854
 7717SOL     OW34783   3.938   2.616   7.699  0.1808 -0.1051 -0.5281
 7717SOL    HW134784   3.941   2.521   7.708  0.8781  0.0058  0.3493
 7717SOL    HW234785   3.892   2.634   7.616 -0.6970  1.6215  0.3360
 7718SOL     OW34786   0.729   2.962   6.992 -0.0950  0.1285  0.4460
 7718SOL    HW134787   0.710   2.869   6.980  1.6756 -0.0899 -0.6196
 7718SOL    HW234788   0.670   3.005   6.930 -0.7994 -1.3536  0.0759
 7719SOL     OW34789   3.112   0.767   9.515 -0.1144 -0.1160  0.9035
 7719SOL    HW134790   3.111   0.845   9.460 -0.2133 -0.4727  0.4008
 7719SOL    HW234791   3.203   0.738   9.504 -0.4157 -0.6424 -0.1862
 7720SOL     OW34792   4.435   3.389   3.314 -0.0765 -0.1264 -0.2997
 7720SOL    HW134793   4.386   3.307   3.319  0.6013 -0.5281 -0.2921
 7720SOL    HW234794   4.388   3.435   3.244  1.1053  0.4757 -0.7151
 7721SOL     OW34795   0.451   1.227   9.975 -0.4742  0.3680 -0.2175
 7721SOL    HW134796   0.410   1.141   9.974 -3.2188  1.7127 -2.7283
 7721SOL    HW234797   0.538   1.195   9.951 -1.2127 -2.4720  0.9258
 7722SOL     OW34798   2.252   1.741   5.669 -0.1647 -0.5962 -0.0541
 7722SOL    HW134799   2.239   1.813   5.731  0.1284 -1.6139  1.1959
 7722SOL    HW234800   2.167   1.701   5.688  0.7969 -2.4267  0.4512
 7723SOL     OW34801   0.908   0.117   8.809 -0.3106  0.4658 -0.1504
 7723SOL    HW134802   0.825   0.071   8.797  0.8671 -1.9156  0.7744
 7723SOL    HW234803   0.908   0.190   8.747 -1.4755 -0.2704 -1.0079
 7724SOL     OW34804   1.709   3.665   7.337  0.6917 -0.4109 -0.5625
 7724SOL    HW134805   1.792   3.650   7.291  0.8601 -2.2442  0.3230
 7724SOL    HW234806   1.704   3.761   7.332 -0.0412 -0.4520 -0.5386
 7725SOL     OW34807   0.277   2.870   7.755 -0.1518 -0.3508  0.1814
 7725SOL    HW134808   0.206   2.807   7.765  0.6856 -1.1166  1.2743
 7725SOL    HW234809   0.312   2.842   7.670  1.3306 -1.3302  1.1095
 7726SOL     OW34810   0.127   2.215   9.086 -0.3094 -0.3335  0.2074
 7726SOL    HW134811   0.109   2.121   9.095  1.6930 -0.5866  1.7442
 7726SOL    HW234812   0.136   2.251   9.174  1.4712  2.0953 -0.9723
 7727SOL     OW34813   0.054   2.271  11.300  0.1823 -0.5855 -0.4269
 7727SOL    HW134814   4.712   2.233  11.339  0.9317 -0.8002  0.8869
 7727SOL    HW234815   0.087   2.202  11.243 -0.1147  0.1456 -1.4854
 7728SOL     OW34816   2.634   3.916   6.318 -0.1183 -0.1487 -0.1512
 7728SOL    HW134817   2.614   3.825   6.297  3.0012 -1.1548  1.2238
 7728SOL    HW234818   2.599   3.970   6.247 -1.5608 -1.0470 -0.1141
 7729SOL     OW34819   3.213   3.936   3.214 -0.2634  0.3317  0.2471
 7729SOL    HW134820   3.153   3.983   3.272 -0.8827 -1.6808  1.2474
 7729SOL    HW234821   3.187   3.846   3.231  0.2292  0.6162  2.5126
 7730SOL     OW34822   1.542   2.308   8.623 -0.0654 -0.5289  0.2013
 7730SOL    HW134823   1.523   2.401   8.610 -0.3692 -0.8825 -1.9357
 7730SOL    HW234824   1.620   2.300   8.567 -0.7087  1.7034 -1.0051
 7731SOL     OW34825   0.546   2.681   3.241 -0.1295 -0.0261  0.0347
 7731SOL    HW134826   0.510   2.754   3.191  1.1697 -0.1287 -1.0572
 7731SOL    HW234827   0.624   2.670   3.186  2.6168  1.1975  3.6281
 7732SOL     OW34828   1.853   3.704   2.117 -0.4347 -0.0695 -0.2753
 7732SOL    HW134829   1.941   3.675   2.140  0.8816  3.2984 -1.0664
 7732SOL    HW234830   1.814   3.714   2.204  1.5226  1.8146  0.3994
 7733SOL     OW34831   4.022   4.203   1.770 -0.1477  0.2598 -0.2427
 7733SOL    HW134832   4.063   4.212   1.856 -0.8276 -1.9677  0.3226
 7733SOL    HW234833   3.937   4.241   1.793  0.4346  0.7967  1.0238
 7734SOL     OW34834   3.501   2.783   7.572  0.1355 -0.4625  0.6693
 7734SOL    HW134835   3.426   2.825   7.530  0.2977  1.6208  2.4892
 7734SOL    HW234836   3.456   2.731   7.638 -1.5859 -0.6980 -0.7060
 7735SOL     OW34837   0.055   3.954   8.276 -0.0718  0.7708  0.3712
 7735SOL    HW134838   0.142   3.914   8.269  1.0642  3.2902  0.0490
 7735SOL    HW234839   0.071   4.044   8.304  1.0556  0.7953 -0.3691
 7736SOL     OW34840   3.992   0.070   0.766  0.6621 -0.2970 -0.2309
 7736SOL    HW134841   3.917   0.038   0.715  1.1215 -1.7613  0.0135
 7736SOL    HW234842   3.969   0.032   0.851  0.5156 -0.8303 -0.5069
 7737SOL     OW34843   3.762   1.650   6.858 -0.6181 -0.4292 -0.3856
 7737SOL    HW134844   3.792   1.566   6.824 -0.7023  0.2031 -2.0398
 7737SOL    HW234845   3.680   1.616   6.894  0.6424 -0.9819  1.9057
 7738SOL     OW34846   4.228   4.696  12.993  0.1173 -0.2613 -0.0120
 7738SOL    HW134847   4.280   4.721  12.917  0.1926  3.6953  1.3241
 7738SOL    HW234848   4.164   4.636  12.955 -2.0190  1.8550  0.2591
 7739SOL     OW34849   3.377   4.445   9.789 -0.8003  0.0682 -0.4486
 7739SOL    HW134850   3.382   4.413   9.699 -1.1954 -0.4609 -0.2834
 7739SOL    HW234851   3.381   4.361   9.835 -0.1279  0.2087 -0.2577
 7740SOL     OW34852   2.680   3.817   8.464 -0.4890  0.0054  0.3802
 7740SOL    HW134853   2.767   3.783   8.441 -0.7912 -0.2915 -0.3090
 7740SOL    HW234854   2.628   3.804   8.385 -0.1196  0.3245  0.0816
 7741SOL     OW34855   1.090   4.734   0.181  0.1423 -0.0521 -0.0720
 7741SOL    HW134856   1.003   4.735   0.141  0.4664  2.0764 -0.6955
 7741SOL    HW234857   1.117   0.087   0.165  0.8415 -0.1648  0.4934
 7742SOL     OW34858   4.101   2.883  13.690  0.1125  0.0224 -0.2028
 7742SOL    HW134859   4.137   2.938  13.621 -0.1347 -0.5806 -0.8022
 7742SOL    HW234860   4.155   2.901  13.767 -2.7478  1.5712  1.4500
 7743SOL     OW34861   0.892   3.422   3.907 -0.0228  0.4758 -0.0913
 7743SOL    HW134862   0.958   3.469   3.855  1.3159  0.6564  1.7986
 7743SOL    HW234863   0.925   3.332   3.903 -2.2979 -0.4403  1.4815
 7744SOL     OW34864   2.739   1.640   4.365  0.6747 -0.1525 -0.3709
 7744SOL    HW134865   2.734   1.730   4.333  0.2948  0.8502  2.5277
 7744SOL    HW234866   2.729   1.657   4.459 -0.7185  1.8067 -0.8579
 7745SOL     OW34867   3.901   1.613   7.452  0.0112 -0.0157  0.4355
 7745SOL    HW134868   3.927   1.674   7.383 -0.4978 -0.2748  0.0146
 7745SOL    HW234869   3.819   1.651   7.482  0.6336  1.8360 -0.2067
 7746SOL     OW34870   2.155   4.613  16.753  0.5290  0.1822 -0.1632
 7746SOL    HW134871   2.137   4.691  16.702 -0.7778 -0.6279 -0.9440
 7746SOL    HW234872   2.235   4.578  16.713 -0.0265 -0.4663 -0.7103
 7747SOL     OW34873   0.965   2.540   9.662  0.0474  0.2154 -0.3498
 7747SOL    HW134874   1.056   2.510   9.664  0.2088  0.5703 -2.8272
 7747SOL    HW234875   0.950   2.566   9.753 -2.2928 -0.3852 -0.5743
 7748SOL     OW34876   3.068   3.316   4.934  0.5631 -0.9268  0.4111
 7748SOL    HW134877   3.159   3.287   4.927  0.3749 -1.5775  0.6410
 7748SOL    HW234878   3.048   3.307   4.841  0.3012 -0.6824  0.4414
 7749SOL     OW34879   3.160   0.865   5.354  0.3052 -0.5963 -0.0946
 7749SOL    HW134880   3.245   0.906   5.337  0.3279 -0.9066 -0.7097
 7749SOL    HW234881   3.118   0.876   5.269  1.5326 -0.8358 -0.7325
 7750SOL     OW34882   0.473   0.802  16.369  0.7383 -0.1141  0.0051
 7750SOL    HW134883   0.393   0.750  16.364  0.2145  0.7604 -0.9318
 7750SOL    HW234884   0.533   0.748  16.420 -1.1199 -1.3929  0.7916
 7751SOL     OW34885   0.578   1.312   3.449  0.1376 -0.1103 -0.1386
 7751SOL    HW134886   0.660   1.349   3.418 -0.5388  0.2206 -1.5481
 7751SOL    HW234887   0.601   1.220   3.462 -0.2314 -0.3118 -0.9222
 7752SOL     OW34888   2.253   3.110   8.761  0.2430  0.2258 -0.1049
 7752SOL    HW134889   2.210   3.057   8.828  0.7072 -0.2815 -0.2123
 7752SOL    HW234890   2.192   3.099   8.687  1.2597  0.3923 -0.9694
 7753SOL     OW34891   2.720   0.135  14.535 -0.0479 -0.1672  0.0031
 7753SOL    HW134892   2.754   0.105  14.619  2.7581 -1.4467 -1.5875
 7753SOL    HW234893   2.743   0.228  14.534 -2.6004  0.4693  1.2924
 7754SOL     OW34894   1.478   1.285   2.932 -0.4998 -0.8436 -0.3743
 7754SOL    HW134895   1.423   1.247   2.863  1.5683 -0.4775 -2.2485
 7754SOL    HW234896   1.455   1.378   2.930  1.1992 -0.3770  2.7581
 7755SOL     OW34897   0.825   0.387   6.468  0.0447 -0.4505  0.2213
 7755SOL    HW134898   0.907   0.377   6.421 -0.8064 -0.0237 -1.3359
 7755SOL    HW234899   0.793   0.456   6.411  0.3715 -0.2320  0.3052
 7756SOL     OW34900   4.274   3.138   3.150 -0.1014  0.0571 -0.0850
 7756SOL    HW134901   4.218   3.215   3.153 -1.0000 -0.6039  0.0879
 7756SOL    HW234902   4.328   3.160   3.074  0.7656 -1.6419  0.0335
 7757SOL     OW34903   4.618   2.777   5.989  0.9298 -0.4656  0.3980
 7757SOL    HW134904   4.653   2.739   5.908  0.7464 -0.5310  0.3493
 7757SOL    HW234905   4.655   2.719   6.055 -1.1612 -0.5444  1.5140
 7758SOL     OW34906   2.420   1.316  16.129  0.3522 -0.2239  0.3926
 7758SOL    HW134907   2.427   1.412  16.122  2.0323 -0.3000  1.2496
 7758SOL    HW234908   2.483   1.286  16.064 -0.1484  0.5566 -0.4585
 7759SOL     OW34909   3.867   0.341   0.801  0.0233 -0.3547 -0.0204
 7759SOL    HW134910   3.934   0.305   0.743  1.9153 -0.3661  2.2112
 7759SOL    HW234911   3.856   0.432   0.772  1.7764  0.2889  1.3644
 7760SOL     OW34912   2.692   2.016   6.436 -0.2019  0.1906  0.2701
 7760SOL    HW134913   2.608   2.061   6.427 -0.7985 -0.8054  0.9676
 7760SOL    HW234914   2.742   2.093   6.467  1.4756 -1.2078  1.0343
 7761SOL     OW34915   4.130   0.487   3.374  0.0380  0.4516 -0.0427
 7761SOL    HW134916   4.045   0.479   3.330 -0.5726 -0.5998  1.3601
 7761SOL    HW234917   4.176   0.425   3.318  0.3617  1.8015 -1.2776
 7762SOL     OW34918   1.975   3.602   4.062 -0.3790  0.5223  0.1029
 7762SOL    HW134919   1.944   3.580   3.974 -1.4922  0.5127  0.4972
 7762SOL    HW234920   1.943   3.689   4.086 -1.7712  0.2670 -0.8050
 7763SOL     OW34921   4.309   4.061   5.989 -0.6536 -0.0121 -0.6163
 7763SOL    HW134922   4.352   3.984   6.027 -0.0179  0.2872 -0.7375
 7763SOL    HW234923   4.226   4.021   5.961 -0.9826 -0.3925  0.9156
 7764SOL     OW34924   1.501   3.145  16.386  0.3670 -0.5240  0.2566
 7764SOL    HW134925   1.482   3.190  16.303 -0.4681 -0.6936  0.3633
 7764SOL    HW234926   1.580   3.193  16.413  0.4654 -0.3029 -0.4204
 7765SOL     OW34927   2.619   0.735  17.342 -0.2791  0.3140 -0.2353
 7765SOL    HW134928   2.708   0.768  17.327 -0.7212  1.7055  0.2432
 7765SOL    HW234929   2.608   0.724  17.247  1.3627 -2.9813 -0.0563
 7766SOL     OW34930   4.040   0.076   6.809  0.0230  0.1072  0.1267
 7766SOL    HW134931   3.996   0.157   6.836 -3.1555 -1.9515  1.1208
 7766SOL    HW234932   3.978   0.043   6.744 -0.3683 -1.0040  1.0688
 7767SOL     OW34933   0.406   3.117   4.788  0.4628  0.3649 -0.0177
 7767SOL    HW134934   0.369   3.166   4.714 -0.1232 -1.1423 -0.7229
 7767SOL    HW234935   0.423   3.029   4.754 -1.1419  0.4051 -0.9045
 7768SOL     OW34936   2.371   3.041   2.685  0.2627  0.0449  0.4449
 7768SOL    HW134937   2.326   3.125   2.701 -0.8789 -0.2947 -0.9815
 7768SOL    HW234938   2.320   3.014   2.608 -1.5793  3.0038  0.5791
 7769SOL     OW34939   2.537   1.691  10.224 -0.0868 -0.4339 -0.4826
 7769SOL    HW134940   2.487   1.701  10.143  1.3024  3.5433 -0.8071
 7769SOL    HW234941   2.470   1.648  10.279  0.8942  1.3070  2.0635
 7770SOL     OW34942   4.661   1.105   2.729 -0.2682 -0.3994 -0.1979
 7770SOL    HW134943   4.580   1.150   2.753  0.1272 -1.3094  2.8085
 7770SOL    HW234944   4.682   1.056   2.809 -1.5549 -0.5442  0.0530
 7771SOL     OW34945   0.166   1.697   4.483  0.1039  0.3650 -0.0605
 7771SOL    HW134946   0.198   1.677   4.395 -0.3582 -2.2422  0.3431
 7771SOL    HW234947   0.126   1.611   4.497 -0.8651  0.5794 -1.4503
 7772SOL     OW34948   3.403   4.375   6.744  0.0604 -0.1420 -0.0631
 7772SOL    HW134949   3.355   4.362   6.663  0.7188  1.4086 -0.6968
 7772SOL    HW234950   3.383   4.294   6.790  1.3580  0.3152  1.3397
 7773SOL     OW34951   3.802   1.536   3.935  0.0781 -0.1060 -0.5756
 7773SOL    HW134952   3.708   1.549   3.945 -0.2462 -1.9696 -1.2322
 7773SOL    HW234953   3.812   1.578   3.850 -1.2056  1.6614  0.1499
 7774SOL     OW34954   3.693   3.322  16.333 -0.0791 -0.1596 -0.8078
 7774SOL    HW134955   3.737   3.378  16.269 -0.1010 -0.1334 -0.7998
 7774SOL    HW234956   3.669   3.383  16.402 -2.2046  0.2491 -1.9170
 7775SOL     OW34957   2.542   1.900   4.034 -0.0331 -0.0970  0.2839
 7775SOL    HW134958   2.585   1.929   3.953 -1.2198  0.9864  0.0431
 7775SOL    HW234959   2.621   1.906   4.087  1.2855 -0.3229 -1.6284
 7776SOL     OW34960   1.438   2.148   7.716  0.1805  0.3530 -0.1830
 7776SOL    HW134961   1.477   2.076   7.766 -0.5436 -0.0722 -0.2241
 7776SOL    HW234962   1.430   2.219   7.780  1.5849 -0.1524  0.5443
 7777SOL     OW34963   2.896   2.858   3.775  0.2431  0.1630 -0.6434
 7777SOL    HW134964   2.867   2.949   3.781 -1.0264 -0.1451 -2.2991
 7777SOL    HW234965   2.991   2.872   3.777  0.2029  0.3305  0.0736
 7778SOL     OW34966   3.915   1.003  13.973  0.5424 -0.5043  0.3213
 7778SOL    HW134967   3.891   1.091  14.004 -0.1723 -0.9901  1.1291
 7778SOL    HW234968   3.853   0.951  14.023 -0.7126  0.7994  0.1072
 7779SOL     OW34969   3.838   2.163   9.346 -0.4159 -0.4564 -0.4795
 7779SOL    HW134970   3.837   2.069   9.365 -0.4317 -0.3017  0.2786
 7779SOL    HW234971   3.930   2.168   9.317 -0.6153  1.0075 -0.8384
 7780SOL     OW34972   4.398   3.937   6.476  0.7129 -0.3986  0.4632
 7780SOL    HW134973   4.435   3.850   6.495  0.3532 -1.0242 -1.6455
 7780SOL    HW234974   4.313   3.907   6.446  0.6663 -2.1315  2.3408
 7781SOL     OW34975   2.855   0.313  16.759  0.4208 -0.5879 -0.0707
 7781SOL    HW134976   2.896   0.266  16.832  1.3974  2.5145  1.3489
 7781SOL    HW234977   2.934   0.331  16.708  1.0099  0.0951  1.1001
 7782SOL     OW34978   3.798   3.758   2.377 -0.2694  0.2052  0.7867
 7782SOL    HW134979   3.840   3.768   2.292 -1.1760 -1.0689  0.1777
 7782SOL    HW234980   3.869   3.724   2.431  1.6480  1.6670 -0.8448
 7783SOL     OW34981   0.970   2.653   2.650 -0.1855 -0.4851  0.2336
 7783SOL    HW134982   1.022   2.733   2.644 -0.6907 -0.1649  0.1461
 7783SOL    HW234983   1.010   2.602   2.580  1.0513 -1.3496  1.5795
 7784SOL     OW34984   3.721   2.060   4.793 -0.0080  0.2284 -0.5538
 7784SOL    HW134985   3.715   1.982   4.847  0.3562 -1.1560 -2.4965
 7784SOL    HW234986   3.630   2.062   4.762 -0.1936 -0.8907 -0.0774
 7785SOL     OW34987   2.606   2.494  13.477  0.3051  0.0119  0.4613
 7785SOL    HW134988   2.614   2.409  13.520  0.3674 -0.4365 -0.4187
 7785SOL    HW234989   2.525   2.519  13.521  0.1232  0.0398  0.1158
 7786SOL     OW34990   3.044   0.622   7.491 -0.0299  0.2693  0.3968
 7786SOL    HW134991   2.951   0.603   7.476  0.2325 -0.2187 -0.6251
 7786SOL    HW234992   3.034   0.617   7.586  0.1712 -1.4971  0.3146
 7787SOL     OW34993   0.524   0.278   1.716 -0.6341  0.5733  0.2162
 7787SOL    HW134994   0.575   0.311   1.790  0.3173 -0.8903  0.1900
 7787SOL    HW234995   0.511   0.185   1.732  0.4162  0.2157 -1.0482
 7788SOL     OW34996   2.623   2.920   6.247  0.0421 -0.4623 -0.2230
 7788SOL    HW134997   2.537   2.898   6.282 -0.3957 -0.2052 -1.1490
 7788SOL    HW234998   2.600   2.994   6.191  0.9428 -0.3294 -0.4336
 7789SOL     OW34999   3.760   1.524  11.685  0.7736 -0.3965 -0.3572
 7789SOL    HW135000   3.717   1.524  11.600  0.0796  0.6801 -0.0023
 7789SOL    HW235001   3.696   1.489  11.747  1.0082 -0.3868 -0.1074
 7790SOL     OW35002   3.493   2.817   6.377 -0.3459  0.2259 -0.1748
 7790SOL    HW135003   3.475   2.783   6.464 -3.2839 -2.7756 -1.9411
 7790SOL    HW235004   3.426   2.760   6.339  0.4382 -0.7987 -0.0042
 7791SOL     OW35005   1.848   1.437  15.565 -0.4240 -0.5121  0.2372
 7791SOL    HW135006   1.786   1.406  15.631 -1.2020  0.3534 -0.0771
 7791SOL    HW235007   1.924   1.469  15.614 -1.0436 -0.5620  1.2406
 7792SOL     OW35008   2.506   1.555  10.990  0.0741 -0.2231  0.3439
 7792SOL    HW135009   2.470   1.590  10.908  0.4467  2.3274  1.2629
 7792SOL    HW235010   2.467   1.617  11.052 -1.9667 -0.6139 -0.5505
 7793SOL     OW35011   1.576   1.539   5.513  0.4073 -0.2943 -0.1948
 7793SOL    HW135012   1.548   1.486   5.439 -1.1620  0.8323 -0.4053
 7793SOL    HW235013   1.643   1.595   5.475 -0.3698  0.7445 -0.0073
 7794SOL     OW35014   0.815   0.991   3.884  0.1488  0.3273  0.1272
 7794SOL    HW135015   0.721   0.975   3.889  0.2422  0.1990  1.6059
 7794SOL    HW235016   0.854   0.905   3.868  0.7495  0.8457 -1.2399
 7795SOL     OW35017   2.589   1.893   6.852  0.5755 -0.0209  0.0031
 7795SOL    HW135018   2.588   1.838   6.773 -1.1935 -0.1732  0.1437
 7795SOL    HW235019   2.682   1.917   6.846  0.5688 -0.1719 -0.8123
 7796SOL     OW35020   4.620   2.293   2.736  0.2252 -0.5293 -0.2109
 7796SOL    HW135021   4.572   2.374   2.721  0.7137 -0.0614  0.7498
 7796SOL    HW235022   4.573   2.225   2.688 -0.1004 -0.7326  0.3964
 7797SOL     OW35023   0.882   3.183   7.483 -0.2425  0.1109  1.1354
 7797SOL    HW135024   0.903   3.275   7.501 -0.7783  0.4942 -0.2409
 7797SOL    HW235025   0.960   3.161   7.433 -0.3629  0.6611  0.7006
 7798SOL     OW35026   4.290   4.354   0.673 -0.2263 -0.0036 -0.1813
 7798SOL    HW135027   4.205   4.323   0.641 -0.2609 -0.9118  0.7837
 7798SOL    HW235028   4.276   4.447   0.691  0.1071 -0.5296  2.8875
 7799SOL     OW35029   1.663   0.229  14.638 -0.3583  0.1542  0.1656
 7799SOL    HW135030   1.720   0.277  14.578  1.5890  0.4192  2.2129
 7799SOL    HW235031   1.624   0.169  14.574  0.1002  0.8367 -0.7572
 7800SOL     OW35032   3.213   1.290   8.147  0.3823 -0.0704  0.5612
 7800SOL    HW135033   3.191   1.370   8.195  1.5361 -0.1707  1.2417
 7800SOL    HW235034   3.209   1.220   8.212 -0.9187 -0.7927 -0.2713
 7801SOL     OW35035   0.841   2.824  15.305 -0.1239  0.4027  0.2702
 7801SOL    HW135036   0.886   2.752  15.260  2.1381  0.5633  2.3328
 7801SOL    HW235037   0.881   2.901  15.267  0.9148 -1.1708 -1.8257
 7802SOL     OW35038   0.044   3.230  15.674 -0.8758 -0.3686 -0.3435
 7802SOL    HW135039   4.714   3.161  15.673 -1.3552  0.0999 -0.7419
 7802SOL    HW235040   0.088   3.208  15.592  0.4330  0.9344  0.0093
 7803SOL     OW35041   3.764   3.606  11.793 -0.2875  0.1510 -0.1571
 7803SOL    HW135042   3.841   3.596  11.736  1.8282 -0.3437  2.7975
 7803SOL    HW235043   3.769   3.516  11.825  1.2956  0.8752  1.6186
 7804SOL     OW35044   0.930   1.062  11.147 -0.3893  0.1001  0.3495
 7804SOL    HW135045   0.992   1.040  11.078 -1.1159  0.3265 -0.3770
 7804SOL    HW235046   0.855   1.029  11.097 -0.1879 -1.2958  0.9645
 7805SOL     OW35047   2.016   1.480   6.294 -0.0077 -0.1581  0.3318
 7805SOL    HW135048   1.946   1.456   6.233 -0.1122  0.1166  0.3435
 7805SOL    HW235049   2.041   1.389   6.310  0.3735 -0.1158 -0.0229
 7806SOL     OW35050   0.117   0.848  14.514 -0.1405  0.3421  0.2716
 7806SOL    HW135051   0.041   0.851  14.455 -0.8989 -2.5930  1.1152
 7806SOL    HW235052   0.150   0.934  14.487 -1.6401  0.2743 -1.8071
 7807SOL     OW35053   3.809   1.976   5.457  0.0232 -0.3954  0.2904
 7807SOL    HW135054   3.777   1.983   5.367  0.1862  0.2353  0.2812
 7807SOL    HW235055   3.859   2.057   5.469 -1.3574  0.3624  0.9815
 7808SOL     OW35056   2.879   1.513   7.783  0.1109  0.2768 -0.4018
 7808SOL    HW135057   2.816   1.550   7.723 -0.6004  1.5606  1.1412
 7808SOL    HW235058   2.928   1.595   7.796 -0.1704  0.3311  0.3452
 7809SOL     OW35059   0.234   4.215   4.003  0.4691 -0.3800  0.1576
 7809SOL    HW135060   0.158   4.236   4.059  0.2580 -1.5273  0.2961
 7809SOL    HW235061   0.260   4.127   4.031  0.0889  0.0629  1.9336
 7810SOL     OW35062   3.040   2.699  15.892  0.0057 -0.1950  0.4608
 7810SOL    HW135063   2.994   2.766  15.843  0.6006 -0.4266 -0.4138
 7810SOL    HW235064   3.104   2.742  15.949  0.0258  1.3032 -0.7098
 7811SOL     OW35065   1.309   0.792   0.370 -0.7989 -0.2531 -0.0399
 7811SOL    HW135066   1.326   0.716   0.315  1.2721  0.6975 -0.7025
 7811SOL    HW235067   1.396   0.830   0.379 -1.8246  2.4297 -1.3162
 7812SOL     OW35068   1.996   3.240   7.969  0.0652  0.0973 -0.0822
 7812SOL    HW135069   1.966   3.151   7.948 -0.8852  0.1141  1.1959
 7812SOL    HW235070   1.949   3.268   8.048  0.1839  2.3584 -0.8126
 7813SOL     OW35071   0.219   0.732   7.961 -0.5821 -0.2758  0.1331
 7813SOL    HW135072   0.247   0.686   8.041 -1.7687  1.9277  1.8148
 7813SOL    HW235073   0.296   0.787   7.952  0.7917 -2.6765 -2.8326
 7814SOL     OW35074   4.539   3.719   7.649  0.0345 -0.1819 -0.1016
 7814SOL    HW135075   4.578   3.806   7.640  0.6934 -0.2938  1.6509
 7814SOL    HW235076   4.575   3.674   7.573 -0.1092  0.8757 -0.7917
 7815SOL     OW35077   2.893   0.855   5.600 -0.4816 -0.0628 -0.2657
 7815SOL    HW135078   2.958   0.840   5.668  0.8518  1.5551 -1.1656
 7815SOL    HW235079   2.932   0.803   5.530  0.9499  4.7433 -3.0975
 7816SOL     OW35080   1.756   4.432   3.998  0.5788  0.0569  0.1987
 7816SOL    HW135081   1.833   4.484   4.023  2.5887 -2.5660 -0.6168
 7816SOL    HW235082   1.795   4.370   3.937 -0.4148 -0.2669 -0.1134
 7817SOL     OW35083   3.849   4.415   4.493 -0.0112  0.2811  0.5517
 7817SOL    HW135084   3.910   4.478   4.453  1.8842 -2.4443 -0.8993
 7817SOL    HW235085   3.878   4.420   4.584  3.3993  1.6780 -0.5827
 7818SOL     OW35086   2.241   3.608   6.351 -0.0839  0.4526 -0.2755
 7818SOL    HW135087   2.295   3.589   6.274 -1.4920  2.3394 -1.7021
 7818SOL    HW235088   2.150   3.594   6.324  0.6012 -3.5119 -0.5886
 7819SOL     OW35089   3.221   4.732   3.950 -0.0331 -0.4750 -0.2995
 7819SOL    HW135090   3.146   4.700   4.001 -0.4304 -2.3043 -2.0231
 7819SOL    HW235091   3.293   4.674   3.972  0.6678  0.3751 -0.3396
 7820SOL     OW35092   0.343   3.420  10.135 -0.5081 -0.0113  0.0687
 7820SOL    HW135093   0.316   3.472  10.060  0.0103  0.8137  0.4525
 7820SOL    HW235094   0.270   3.402  10.195  0.4527 -1.9853  0.6733
 7821SOL     OW35095   1.113   1.723  16.920  0.4521  0.2192 -0.6238
 7821SOL    HW135096   1.028   1.684  16.900  0.6997 -1.6934  2.1124
 7821SOL    HW235097   1.161   1.730  16.837 -1.5350  0.0480 -1.7987
 7822SOL     OW35098   0.529   1.153   1.352 -0.4647 -0.0474 -0.7712
 7822SOL    HW135099   0.478   1.159   1.271 -1.6671  0.1936  0.0017
 7822SOL    HW235100   0.611   1.110   1.328 -0.4589 -0.3366 -0.2302
 7823SOL     OW35101   3.868   2.778   6.187 -0.2527 -0.1513  0.1105
 7823SOL    HW135102   3.839   2.687   6.195 -0.3550 -0.0670  0.6699
 7823SOL    HW235103   3.887   2.783   6.093 -2.4111  2.0794 -0.2048
 7824SOL     OW35104   3.853   1.333   2.288  0.1490 -0.3773  0.9427
 7824SOL    HW135105   3.834   1.282   2.209  0.8002  0.1431  0.4454
 7824SOL    HW235106   3.869   1.419   2.248  1.2843 -0.6050  0.9047
 7825SOL     OW35107   0.104   1.071  15.590 -0.3807  0.2763 -0.3957
 7825SOL    HW135108   0.040   1.119  15.643 -0.4008 -0.0153 -0.1561
 7825SOL    HW235109   0.048   1.063  15.513 -1.7472  0.1123  0.6144
 7826SOL     OW35110   3.755   1.484   8.774  0.0326 -0.0211  0.2753
 7826SOL    HW135111   3.699   1.461   8.848  1.0202 -1.5081  0.5627
 7826SOL    HW235112   3.685   1.470   8.710  0.7337 -0.4235 -0.3999
 7827SOL     OW35113   0.707   4.170  16.014  0.6493  0.1206 -0.2967
 7827SOL    HW135114   0.639   4.122  16.062  0.4698 -0.0448 -0.7157
 7827SOL    HW235115   0.762   4.092  16.026 -1.0624 -1.4036 -2.2866
 7828SOL     OW35116   0.881   2.279   4.951  0.1613 -0.0226  0.3161
 7828SOL    HW135117   0.792   2.245   4.957 -0.1088  0.8644  1.3361
 7828SOL    HW235118   0.934   2.203   4.974 -0.1778  0.1022  1.4805
 7829SOL     OW35119   0.738   4.428   4.865 -0.4054  0.1613 -0.0837
 7829SOL    HW135120   0.812   4.382   4.907 -0.2525 -2.3954 -3.1167
 7829SOL    HW235121   0.672   4.439   4.933 -0.0260 -2.1753  0.6657
 7830SOL     OW35122   2.372   0.253  17.353  0.6335  0.6821  0.5496
 7830SOL    HW135123   2.410   0.341  17.359 -0.0098  0.9272  1.0620
 7830SOL    HW235124   2.279   0.277  17.357  0.1081 -1.3322  0.7074
 7831SOL     OW35125   1.587   3.777  17.044 -0.4731  0.1655  0.0913
 7831SOL    HW135126   1.534   3.705  17.010  1.1781 -0.0144 -2.1020
 7831SOL    HW235127   1.591   3.825  16.961  0.2789  0.8427  0.5165
 7832SOL     OW35128   1.629   2.134  14.533 -0.4395  0.1874 -0.2367
 7832SOL    HW135129   1.674   2.057  14.500  0.9912  1.7599 -1.9878
 7832SOL    HW235130   1.536   2.116  14.520 -0.2527  0.0420 -1.3050
 7833SOL     OW35131   0.976   4.453   7.961  0.2505 -0.3462 -0.1683
 7833SOL    HW135132   1.043   4.397   7.999  0.2123 -0.8055 -0.7909
 7833SOL    HW235133   0.897   4.400   7.951 -0.1695  0.2007  0.1838
 7834SOL     OW35134   0.223   3.892   6.871  0.1080  0.2552  0.5986
 7834SOL    HW135135   0.190   3.912   6.959 -1.0045 -0.5560  0.3595
 7834SOL    HW235136   0.313   3.860   6.882  0.1091 -0.5269 -1.6253
 7835SOL     OW35137   2.864   4.095  13.082  0.2252  0.5339  0.3196
 7835SOL    HW135138   2.853   4.183  13.046 -1.8549  0.0562 -0.1855
 7835SOL    HW235139   2.820   4.046  13.013  3.0159  2.2278 -2.6386
 7836SOL     OW35140   2.012   3.614   4.438  0.5567  0.1287  0.1156
 7836SOL    HW135141   1.997   3.522   4.418  0.9994 -0.1850  1.2720
 7836SOL    HW235142   2.003   3.621   4.533  0.6515 -4.3537  0.4381
 7837SOL     OW35143   1.085   1.364  11.116 -0.4581 -0.6063  0.6107
 7837SOL    HW135144   1.128   1.283  11.144  2.5069  0.7439 -0.0593
 7837SOL    HW235145   1.160   1.421  11.131  0.3331 -1.4682 -0.0969
 7838SOL     OW35146   1.661   3.787   8.228  0.2270  0.1608 -0.5176
 7838SOL    HW135147   1.614   3.781   8.312  0.8012 -0.3370 -0.2361
 7838SOL    HW235148   1.622   3.865   8.189 -1.2392  0.5817  1.7727
 7839SOL     OW35149   1.057   2.456  10.174  0.1640 -0.2323 -0.2662
 7839SOL    HW135150   1.094   2.541  10.199 -0.1830  0.0046 -0.5681
 7839SOL    HW235151   1.120   2.392  10.207 -0.8356 -0.2193  1.6808
 7840SOL     OW35152   0.342   3.526   9.872  0.1585  0.2665 -0.5068
 7840SOL    HW135153   0.407   3.468   9.834  1.0623  0.0853  1.3078
 7840SOL    HW235154   0.292   3.554   9.795 -1.1677 -0.7369 -0.0012
 7841SOL     OW35155   1.133   1.987  14.201  0.1691  0.0072  0.5693
 7841SOL    HW135156   1.114   1.913  14.143  0.8942  1.8157 -1.9898
 7841SOL    HW235157   1.057   1.976  14.258 -1.4351 -0.7082 -1.6585
 7842SOL     OW35158   4.027   0.626   1.352  0.3133  0.4667 -0.4762
 7842SOL    HW135159   4.118   0.601   1.339  0.7405  1.3976  0.6636
 7842SOL    HW235160   4.025   0.706   1.299  0.4659  1.5574  1.1565
 7843SOL     OW35161   3.212   0.521   2.307 -0.5322  0.2027 -0.6989
 7843SOL    HW135162   3.173   0.466   2.374  1.0502 -0.3504 -0.2364
 7843SOL    HW235163   3.136   0.563   2.266 -1.1391 -0.8012 -0.5949
 7844SOL     OW35164   0.026   2.581   8.505 -0.0197  0.0168 -0.1120
 7844SOL    HW135165   0.108   2.531   8.498  0.1470  0.2605  0.1272
 7844SOL    HW235166   0.025   2.618   8.593 -1.5485  0.1057 -0.1648
 7845SOL     OW35167   2.225   1.494   7.688 -0.0272  0.1021  0.1566
 7845SOL    HW135168   2.316   1.518   7.670 -0.3140  0.7352 -0.4443
 7845SOL    HW235169   2.205   1.561   7.753 -0.7657 -0.5210  0.5768
 7846SOL     OW35170   4.260   1.302  11.847  0.0389  0.1169  0.0802
 7846SOL    HW135171   4.187   1.344  11.893 -0.4005 -0.7517  0.1783
 7846SOL    HW235172   4.339   1.344  11.882 -0.5060 -0.7928  2.3249
 7847SOL     OW35173   3.306   2.671   9.307 -0.0090  0.0339  0.2981
 7847SOL    HW135174   3.273   2.691   9.394 -2.0793  1.2342 -0.7536
 7847SOL    HW235175   3.251   2.720   9.245  0.1553 -1.3722 -0.9688
 7848SOL     OW35176   2.883   2.957   2.242 -0.3443 -0.2071 -0.1822
 7848SOL    HW135177   2.888   2.989   2.332 -1.1669  1.4522 -0.7406
 7848SOL    HW235178   2.885   2.864   2.264  0.4487 -0.0890  0.2742
 7849SOL     OW35179   3.336   1.067   8.317  0.1696  0.5960  0.4237
 7849SOL    HW135180   3.298   1.037   8.400  0.0809 -0.1132  0.1297
 7849SOL    HW235181   3.348   0.984   8.271  0.9834  1.1311 -0.3235
 7850SOL     OW35182   3.240   0.095   7.666 -0.0727  0.0394 -0.1144
 7850SOL    HW135183   3.250   0.000   7.675 -1.9061 -0.2937 -1.7311
 7850SOL    HW235184   3.267   0.123   7.754  0.7755 -0.3099 -0.2575
 7851SOL     OW35185   2.591   1.581  13.025  0.1343 -0.0247 -0.0915
 7851SOL    HW135186   2.624   1.563  12.937  3.5598 -1.0502  1.3881
 7851SOL    HW235187   2.635   1.501  13.054  0.7902  0.0463 -0.8742
 7852SOL     OW35188   3.932   0.059   8.485 -0.2839  0.0637  0.5071
 7852SOL    HW135189   3.905   4.713   8.524  2.0456 -1.5221 -1.3015
 7852SOL    HW235190   3.849   0.108   8.489 -0.1057  0.4322 -0.2704
 7853SOL     OW35191   0.607   2.424  16.715 -0.3298  0.2953  0.3158
 7853SOL    HW135192   0.694   2.431  16.676 -0.5503 -1.1144 -0.4463
 7853SOL    HW235193   0.629   2.361  16.783 -3.2897 -1.1567 -0.0559
 7854SOL     OW35194   3.634   4.296   1.171 -0.1262  0.0947  0.1130
 7854SOL    HW135195   3.648   4.249   1.253 -2.0453 -0.7583 -0.0547
 7854SOL    HW235196   3.700   4.248   1.121 -2.2559 -1.0108 -1.6566
 7855SOL     OW35197   3.190   3.327   9.977  0.7298  0.2159  0.1794
 7855SOL    HW135198   3.152   3.413   9.994 -2.4638 -0.8365 -1.8265
 7855SOL    HW235199   3.218   3.305  10.066  0.2964  2.7385  0.9285
 7856SOL     OW35200   3.573   1.937   2.021 -0.3680  0.4287 -0.0910
 7856SOL    HW135201   3.575   1.926   2.116 -0.3353  0.1363 -0.1252
 7856SOL    HW235202   3.666   1.917   2.010 -0.5729 -0.1158 -0.8285
 7857SOL     OW35203   2.080   1.646   5.080  0.3416  0.2682 -0.5679
 7857SOL    HW135204   2.105   1.647   5.172  2.9783 -0.1997 -1.2682
 7857SOL    HW235205   1.988   1.671   5.090  0.4790  0.0347  1.3109
 7858SOL     OW35206   0.548   1.610   8.137  0.1741  0.0114  0.0090
 7858SOL    HW135207   0.484   1.574   8.198  0.8992  1.5453  1.6865
 7858SOL    HW235208   0.492   1.637   8.065 -0.7089 -0.1130  0.6544
 7859SOL     OW35209   3.480   2.929   9.070 -0.3316 -0.1606 -0.0302
 7859SOL    HW135210   3.560   2.958   9.114  0.3489 -0.3536 -1.1483
 7859SOL    HW235211   3.474   2.834   9.080 -0.3919 -0.0492  1.0057
 7860SOL     OW35212   1.708   3.869  12.771 -0.1591  0.4282 -0.2973
 7860SOL    HW135213   1.713   3.898  12.863  1.2191 -1.1275  0.1287
 7860SOL    HW235214   1.667   3.945  12.730 -0.2572  1.6431  2.0160
 7861SOL     OW35215   2.524   4.450   2.490 -0.0757 -0.0128 -0.3739
 7861SOL    HW135216   2.486   4.489   2.411 -0.0181 -1.5622 -1.1514
 7861SOL    HW235217   2.493   4.361   2.501 -0.8784  0.3722  0.5319
 7862SOL     OW35218   0.756   0.881   5.037 -0.1700  0.4128 -0.1809
 7862SOL    HW135219   0.671   0.897   5.079  0.3263  3.0195 -0.1243
 7862SOL    HW235220   0.730   0.809   4.979  2.0716 -0.0468 -0.6059
 7863SOL     OW35221   0.362   2.519   7.406  0.0766 -0.1500  0.2741
 7863SOL    HW135222   0.397   2.607   7.395  2.4753 -1.2236 -0.5207
 7863SOL    HW235223   0.282   2.532   7.457 -0.2980  1.2101 -0.6891
 7864SOL     OW35224   2.605   2.103  12.568 -0.4380 -0.0719 -0.1958
 7864SOL    HW135225   2.555   2.173  12.610  0.0283  0.3986 -0.4211
 7864SOL    HW235226   2.689   2.147  12.561 -0.6776  0.6068  1.1129
 7865SOL     OW35227   1.953   2.950   2.524  0.5621  0.0993 -0.0826
 7865SOL    HW135228   1.905   3.033   2.534 -1.0541 -1.0642  1.7856
 7865SOL    HW235229   1.897   2.887   2.568  0.3594 -1.0876 -2.0959
 7866SOL     OW35230   0.203   4.357   2.276 -0.0516 -0.0261  0.2226
 7866SOL    HW135231   0.292   4.339   2.246  0.4635  0.5373  1.3937
 7866SOL    HW235232   0.183   4.427   2.213  2.5468 -0.1849 -0.8040
 7867SOL     OW35233   0.192   0.435   6.453  0.1978  0.2760 -0.2281
 7867SOL    HW135234   0.272   0.393   6.422  1.3173  2.2557 -0.0083
 7867SOL    HW235235   0.192   0.520   6.408 -0.2631  1.0834  1.3050
 7868SOL     OW35236   4.072   2.881   1.450  0.1921  0.1276  0.0427
 7868SOL    HW135237   4.015   2.957   1.440 -1.4949 -1.2998 -1.1407
 7868SOL    HW235238   4.025   2.826   1.513  0.6392 -0.5706 -0.2342
 7869SOL     OW35239   4.548   3.761   7.317 -0.5575 -0.2244  0.1534
 7869SOL    HW135240   4.487   3.833   7.334 -0.6430 -0.8954  2.6709
 7869SOL    HW235241   4.528   3.753   7.223  0.1551  0.3116 -0.0389
 7870SOL     OW35242   0.087   2.785  11.233 -0.1611 -0.3166 -0.2470
 7870SOL    HW135243   0.124   2.697  11.239 -0.3498 -0.4193 -0.5996
 7870SOL    HW235244   0.053   2.789  11.144 -0.9982  0.0290  0.0934
 7871SOL     OW35245   0.367   1.436   2.035  0.6835 -0.5762 -0.0544
 7871SOL    HW135246   0.430   1.376   2.075  1.9159  0.4788 -0.4106
 7871SOL    HW235247   0.424   1.482   1.973 -0.8210  1.0743 -0.2030
 7872SOL     OW35248   4.204   2.178   9.017  0.2308  0.4119  0.3357
 7872SOL    HW135249   4.285   2.130   9.035  1.2164  1.7456 -0.5765
 7872SOL    HW235250   4.162   2.182   9.103  1.9881  1.1933  1.1595
 7873SOL     OW35251   4.257   2.572   5.314  0.3799 -0.5477  0.5410
 7873SOL    HW135252   4.215   2.656   5.294  0.5785 -0.7419 -0.6801
 7873SOL    HW235253   4.234   2.521   5.236 -0.2724  1.5802 -0.6678
 7874SOL     OW35254   3.295   2.913   2.145  0.2141 -0.3265  0.0010
 7874SOL    HW135255   3.248   2.844   2.099 -3.8397  2.0729  0.5305
 7874SOL    HW235256   3.323   2.975   2.077  0.3282  0.9176  1.1776
 7875SOL     OW35257   1.955   3.349   3.043  0.4322  0.4080  0.0051
 7875SOL    HW135258   1.902   3.295   3.101 -0.5414 -0.6402 -1.8567
 7875SOL    HW235259   2.040   3.309   3.059 -0.3888 -0.5494  1.9014
 7876SOL     OW35260   1.370   1.728  13.990  0.4158 -0.7094  0.0951
 7876SOL    HW135261   1.282   1.765  13.992  0.0207 -1.6247 -0.6848
 7876SOL    HW235262   1.430   1.798  13.964 -0.7161 -0.1964 -1.1022
 7877SOL     OW35263   0.260   1.643   4.233 -0.3865 -0.1504 -0.9068
 7877SOL    HW135264   0.325   1.714   4.232  1.9261 -2.2425  0.5485
 7877SOL    HW235265   0.255   1.632   4.138 -0.0973  2.2085 -1.2035
 7878SOL     OW35266   2.352   1.786  12.549  0.4127  0.0017 -0.2514
 7878SOL    HW135267   2.416   1.827  12.492  2.3690 -2.8482 -0.1205
 7878SOL    HW235268   2.306   1.865  12.576 -0.1866 -0.5972  0.4815
 7879SOL     OW35269   4.407   1.089   3.173 -0.0201  0.4785 -0.4522
 7879SOL    HW135270   4.368   1.012   3.213  1.2243  1.1872  2.0831
 7879SOL    HW235271   4.391   1.060   3.083  0.3224 -0.5809 -0.1782
 7880SOL     OW35272   3.141   1.197   9.172  0.3607 -0.1548 -0.4525
 7880SOL    HW135273   3.089   1.119   9.192  0.1097  0.0354 -0.3601
 7880SOL    HW235274   3.208   1.158   9.115  0.8236 -1.3601  0.9142
 7881SOL     OW35275   0.950   1.850   3.828 -0.5937 -0.4438 -0.3305
 7881SOL    HW135276   0.885   1.910   3.863  0.3055  1.1122 -1.3219
 7881SOL    HW235277   0.906   1.810   3.753  1.8412 -1.6109 -1.1314
 7882SOL     OW35278   3.687   3.912   5.525 -0.3165 -0.1859 -0.0303
 7882SOL    HW135279   3.772   3.941   5.559 -0.9635  0.0084  1.4043
 7882SOL    HW235280   3.637   3.897   5.605  1.9222  0.3460  1.4664
 7883SOL     OW35281   4.388   2.224  10.743  0.3482  0.9590  0.0293
 7883SOL    HW135282   4.421   2.209  10.832  0.2575  0.0722 -0.0819
 7883SOL    HW235283   4.473   2.241  10.702  1.8855 -0.8852  2.4522
 7884SOL     OW35284   1.972   0.303  15.418 -0.7233 -0.2072 -0.0542
 7884SOL    HW135285   1.930   0.389  15.413 -0.2453 -0.0199 -0.7995
 7884SOL    HW235286   1.981   0.302  15.513 -0.8941  0.4504 -0.0308
 7885SOL     OW35287   2.814   3.973   4.577 -0.5933  0.3135  0.6548
 7885SOL    HW135288   2.758   3.901   4.546 -0.2138  0.1157  0.4300
 7885SOL    HW235289   2.808   3.958   4.671  0.4223 -1.7620  0.3972
 7886SOL     OW35290   0.935   2.656   8.805 -0.5016  0.6464 -0.1112
 7886SOL    HW135291   1.031   2.663   8.807 -0.3982 -0.4775 -0.5393
 7886SOL    HW235292   0.905   2.652   8.895  0.2211  0.8548  0.1343
 7887SOL     OW35293   3.151   0.099   2.060 -0.5417  0.3934  0.1579
 7887SOL    HW135294   3.137   0.083   1.967 -1.1661 -0.4643  0.3964
 7887SOL    HW235295   3.194   0.185   2.058 -1.5582  0.9039  0.1989
 7888SOL     OW35296   0.957   0.918   3.309 -0.3333 -0.0656 -0.0184
 7888SOL    HW135297   0.888   0.874   3.357 -1.7423 -0.1910 -2.1482
 7888SOL    HW235298   1.016   0.856   3.266  0.3318 -0.3738  1.3621
 7889SOL     OW35299   1.655   2.239   4.238  0.3930  0.2884 -0.1808
 7889SOL    HW135300   1.593   2.223   4.309 -0.6216 -0.7497 -1.3037
 7889SOL    HW235301   1.717   2.301   4.276  0.9736 -0.2965 -0.1772
 7890SOL     OW35302   1.208   1.089   2.999 -0.0453  0.7278  0.2223
 7890SOL    HW135303   1.228   1.108   2.907 -0.4906 -1.5551 -0.3544
 7890SOL    HW235304   1.295   1.058   3.026 -0.2557 -1.3598 -1.4611
 7891SOL     OW35305   1.922   2.566   4.544 -0.3123  0.0755  0.4404
 7891SOL    HW135306   1.966   2.575   4.460  1.3814 -1.1959  1.2086
 7891SOL    HW235307   1.995   2.570   4.606 -1.3516 -2.3155  1.8257
 7892SOL     OW35308   2.745   1.730   5.429 -0.2055  0.2721  0.2029
 7892SOL    HW135309   2.829   1.692   5.403  0.8125  0.9334  2.5049
 7892SOL    HW235310   2.698   1.706   5.350 -0.5200 -1.0587  0.7911
 7893SOL     OW35311   3.260   1.965   8.529 -0.0078 -0.0947  0.0227
 7893SOL    HW135312   3.233   1.886   8.576 -1.7623  0.6157  0.1896
 7893SOL    HW235313   3.290   1.927   8.446 -1.8719  1.3724 -1.3000
 7894SOL     OW35314   4.143   2.702   9.952  0.3132  0.6905  0.1289
 7894SOL    HW135315   4.228   2.674   9.989 -0.3420  0.6359  1.5890
 7894SOL    HW235316   4.171   2.791   9.931 -2.6577  1.4756 -0.3847
 7895SOL     OW35317   3.387   0.287   2.494  0.7005  0.1228  0.4740
 7895SOL    HW135318   3.367   0.321   2.408 -0.8603 -1.9662  0.0088
 7895SOL    HW235319   3.379   0.363   2.551 -1.2355 -0.6126  1.1591
 7896SOL     OW35320   0.659   1.895   2.645 -0.3562 -0.1167  0.1804
 7896SOL    HW135321   0.603   1.859   2.577  0.0482  1.1228 -0.8160
 7896SOL    HW235322   0.656   1.827   2.712 -0.4300 -0.5849 -0.3014
 7897SOL     OW35323   3.704   3.314   1.960  0.1027  0.4070  0.0847
 7897SOL    HW135324   3.756   3.378   1.910 -0.1311  0.0066 -0.6602
 7897SOL    HW235325   3.760   3.238   1.944 -0.3872 -0.1690  1.1269
 7898SOL     OW35326   0.786   2.500   1.229 -0.0595 -0.0951 -0.0328
 7898SOL    HW135327   0.710   2.484   1.174 -0.1169 -2.2777  0.6896
 7898SOL    HW235328   0.753   2.531   1.313 -1.1992  1.7087 -1.1719
 7899SOL     OW35329   2.049   0.427  13.434  0.8949  0.0511  0.0400
 7899SOL    HW135330   1.999   0.453  13.512  0.3518 -1.0904  0.0698
 7899SOL    HW235331   2.075   0.345  13.477  2.8527  0.8342  0.3411
 7900SOL     OW35332   0.215   3.579   5.991  0.4077  0.2654 -0.1490
 7900SOL    HW135333   0.215   3.613   5.901 -0.0201  0.2713 -0.1474
 7900SOL    HW235334   0.240   3.653   6.046  1.0480 -0.5916  0.7279
 7901SOL     OW35335   4.724   0.310   4.873 -0.2161  0.5380  0.5783
 7901SOL    HW135336   4.714   0.404   4.859  0.9899  0.4877 -0.6294
 7901SOL    HW235337   4.689   0.279   4.789  1.6587 -1.8789  0.6926
 7902SOL     OW35338   2.627   4.496   2.068 -0.1334  0.2600  0.7406
 7902SOL    HW135339   2.651   4.589   2.068 -0.4914  0.3547 -0.1412
 7902SOL    HW235340   2.567   4.489   2.142 -0.0992 -1.5826  0.5920
 7903SOL     OW35341   4.067   0.972  13.757  0.4117 -0.2308  0.1968
 7903SOL    HW135342   4.015   0.977  13.837 -0.4421  0.8428 -0.4261
 7903SOL    HW235343   4.138   1.030  13.785 -0.0237  0.5557 -0.3287
 7904SOL     OW35344   2.093   2.803   3.238  0.3260  0.3859  0.1870
 7904SOL    HW135345   2.189   2.795   3.238  0.1661 -1.2959  3.2561
 7904SOL    HW235346   2.084   2.787   3.331 -1.8959  3.0917  0.4151
 7905SOL     OW35347   3.752   2.445   6.304 -0.3288  0.1751  0.3976
 7905SOL    HW135348   3.806   2.467   6.228  0.3964  1.9058  1.4347
 7905SOL    HW235349   3.823   2.463   6.365 -0.1122 -0.9930  0.4913
 7906SOL     OW35350   2.074   0.303  15.084  0.0595 -0.7187  0.2093
 7906SOL    HW135351   2.064   0.213  15.053  2.3041  0.0413 -2.7293
 7906SOL    HW235352   1.985   0.334  15.103 -0.2329 -0.6584 -1.1871
 7907SOL     OW35353   2.030   0.024   3.646  0.4527 -0.1629 -0.1801
 7907SOL    HW135354   2.078   0.031   3.563 -1.1522 -0.2424 -1.1166
 7907SOL    HW235355   2.059   4.672   3.667 -1.0976 -0.7505 -0.5661
 7908SOL     OW35356   1.558   3.759  13.628 -0.1486  0.1663  0.6840
 7908SOL    HW135357   1.638   3.785  13.582  0.3992 -0.9943  0.9574
 7908SOL    HW235358   1.536   3.827  13.692 -0.2950  1.0121 -0.2720
 7909SOL     OW35359   3.292   3.219   2.998 -0.1238  0.0991 -0.0421
 7909SOL    HW135360   3.252   3.165   2.930  0.5348 -0.3518 -0.0649
 7909SOL    HW235361   3.235   3.185   3.067 -1.8787  2.3414 -0.3994
 7910SOL     OW35362   0.235   3.158   8.802  0.6562 -0.2715 -0.4897
 7910SOL    HW135363   0.196   3.163   8.889  0.8805 -0.6656 -0.3665
 7910SOL    HW235364   0.180   3.219   8.754 -1.4553 -1.1795  0.7884
 7911SOL     OW35365   3.708   1.896   1.339  0.3088 -0.2892  0.4808
 7911SOL    HW135366   3.648   1.930   1.406 -0.1004  0.7190 -0.3814
 7911SOL    HW235367   3.699   1.801   1.344 -2.4436 -0.1821 -2.1306
 7912SOL     OW35368   1.887   2.782  10.026 -0.5651  0.2943  0.2127
 7912SOL    HW135369   1.893   2.829   9.943  0.1411 -1.2517 -0.6313
 7912SOL    HW235370   1.914   2.698   9.987  1.9593  0.8977  0.6393
 7913SOL     OW35371   2.220   2.955  15.332 -0.3184 -0.2999  0.0481
 7913SOL    HW135372   2.223   2.919  15.243 -0.1031  1.9149 -0.8564
 7913SOL    HW235373   2.167   2.883  15.366  0.5158 -2.1468 -2.5765
 7914SOL     OW35374   0.947   3.551   3.451  0.1363 -0.6605 -0.1091
 7914SOL    HW135375   0.970   3.475   3.397 -3.4586 -1.6802 -0.2189
 7914SOL    HW235376   0.852   3.539   3.446 -0.0904 -0.3192  3.1305
 7915SOL     OW35377   3.537   3.456  11.261  0.7122  0.7378 -0.2435
 7915SOL    HW135378   3.445   3.460  11.237  0.6435 -1.4652 -0.3828
 7915SOL    HW235379   3.570   3.544  11.243  1.4822 -0.3449 -4.0869
 7916SOL     OW35380   2.516   1.210   3.688  0.1817 -0.0778 -0.1292
 7916SOL    HW135381   2.521   1.233   3.781  1.3175  1.5804 -0.5993
 7916SOL    HW235382   2.600   1.164   3.679  0.6469  1.0463 -1.4762
 7917SOL     OW35383   3.696   0.398   9.639  0.1885  0.0187 -0.4616
 7917SOL    HW135384   3.761   0.348   9.590 -0.1194 -0.5136 -0.3263
 7917SOL    HW235385   3.612   0.368   9.604 -0.7984 -1.7701  3.4130
 7918SOL     OW35386   0.996   0.080   4.497 -0.2691 -0.7036 -0.0302
 7918SOL    HW135387   0.922   0.046   4.446  2.1919  0.1365 -4.1162
 7918SOL    HW235388   0.976   0.173   4.495  0.8509 -0.4126  3.4212
 7919SOL     OW35389   4.338   0.158  14.643  0.3681 -0.2053 -0.2408
 7919SOL    HW135390   4.289   0.095  14.696 -1.1611  3.2593  2.3981
 7919SOL    HW235391   4.307   0.245  14.668 -0.0799 -0.4319  0.0070
 7920SOL     OW35392   3.995   2.434  13.973 -0.0393  0.4572 -0.4098
 7920SOL    HW135393   4.002   2.356  14.027 -3.0481  0.0778 -0.5945
 7920SOL    HW235394   3.907   2.427  13.936  0.1835 -1.3045 -0.5936
 7921SOL     OW35395   2.201   3.886   6.167  0.6849 -0.1041 -0.4073
 7921SOL    HW135396   2.154   3.848   6.241  1.6929  0.5067  0.5551
 7921SOL    HW235397   2.215   3.976   6.197  0.5183 -0.6232  1.2137
 7922SOL     OW35398   4.258   2.695   6.245  0.6205 -0.3654  0.1222
 7922SOL    HW135399   4.205   2.632   6.295 -1.3661  0.8565 -0.4642
 7922SOL    HW235400   4.347   2.683   6.280  0.0540 -1.2485  1.2902
 7923SOL     OW35401   4.121   2.879   6.391  1.0215  0.3375 -0.5194
 7923SOL    HW135402   4.180   2.835   6.330  1.6420 -0.2946  0.5313
 7923SOL    HW235403   4.037   2.855   6.351 -0.2811  2.5320  0.9062
 7924SOL     OW35404   1.629   4.598  13.578  0.4655  0.3443 -0.2807
 7924SOL    HW135405   1.700   4.546  13.541  0.1561  0.5052 -1.0983
 7924SOL    HW235406   1.580   4.537  13.634 -0.1831  0.6572 -0.4981
 7925SOL     OW35407   1.670   2.594  14.631 -0.5882 -0.5061  0.4026
 7925SOL    HW135408   1.708   2.506  14.633 -1.6256 -0.9416  0.9532
 7925SOL    HW235409   1.664   2.630  14.542 -3.7395 -2.4191 -0.1525
 7926SOL     OW35410   2.963   1.229   6.529  0.2123  0.3071 -0.4800
 7926SOL    HW135411   3.055   1.221   6.503  0.5389  0.2131  0.7261
 7926SOL    HW235412   2.971   1.292   6.601 -0.2833  0.2778 -0.3984
 7927SOL     OW35413   0.583   4.531   3.942  0.5996 -0.2294 -0.0667
 7927SOL    HW135414   0.564   4.451   3.893  0.6358 -0.9309  1.0571
 7927SOL    HW235415   0.515   4.511   4.005 -0.2574 -0.8431 -1.1834
 7928SOL     OW35416   4.516   2.536   9.239  0.1842  0.3102 -0.3012
 7928SOL    HW135417   4.593   2.570   9.195 -0.6966 -0.8605 -2.7070
 7928SOL    HW235418   4.565   2.535   9.321 -1.2013 -0.1847  0.5272
 7929SOL     OW35419   3.479   3.346   7.779 -0.1878 -0.7030 -0.1279
 7929SOL    HW135420   3.556   3.384   7.737  0.0662 -1.7976 -0.6692
 7929SOL    HW235421   3.492   3.252   7.762 -1.5214 -0.8791 -0.1893
 7930SOL     OW35422   4.118   1.903   7.424  0.1662 -0.0528 -0.1739
 7930SOL    HW135423   4.087   1.924   7.513  0.7701 -0.4365  0.1233
 7930SOL    HW235424   4.169   1.823   7.436 -2.2745 -1.3945  1.3994
 7931SOL     OW35425   2.270   1.752   3.163  0.5456  0.1831  0.0147
 7931SOL    HW135426   2.202   1.782   3.223  0.1305  0.7468 -0.7367
 7931SOL    HW235427   2.222   1.737   3.081 -0.7928  1.8977  0.4827
 7932SOL     OW35428   4.718   0.169   4.158 -0.3167 -0.9999 -0.3908
 7932SOL    HW135429   0.014   0.081   4.178  1.2637 -0.4172 -0.3550
 7932SOL    HW235430   4.623   0.162   4.166 -0.5908  1.7257 -1.2401
 7933SOL     OW35431   1.341   1.454  17.576  0.1354  0.2115  0.8972
 7933SOL    HW135432   1.326   1.368  17.537  1.4446  0.5797 -0.3898
 7933SOL    HW235433   1.430   1.435  17.606  1.4029  1.3857 -2.1618
 7934SOL     OW35434   0.560   0.185   2.696  0.0913 -0.2871 -0.1777
 7934SOL    HW135435   0.598   0.104   2.730 -0.4695 -0.8909 -0.9719
 7934SOL    HW235436   0.586   0.185   2.604  1.4249  0.7156  0.2005
 7935SOL     OW35437   2.347   0.697   6.368 -0.1967 -0.1025 -0.1337
 7935SOL    HW135438   2.345   0.692   6.464 -0.5721  0.5751 -0.1100
 7935SOL    HW235439   2.403   0.774   6.361 -0.6136  0.2843  0.6883
 7936SOL     OW35440   4.084   2.102   5.062 -0.7088 -0.4505 -0.2304
 7936SOL    HW135441   4.142   2.171   5.096 -0.5042 -1.2034  0.9440
 7936SOL    HW235442   4.003   2.152   5.058  0.3165  1.2247 -0.3116
 7937SOL     OW35443   3.953   1.324   5.653 -0.3727 -0.7254 -0.2496
 7937SOL    HW135444   3.916   1.409   5.631 -0.6966 -0.3181  1.7834
 7937SOL    HW235445   3.978   1.290   5.568 -0.9394  0.1301 -0.7549
 7938SOL     OW35446   4.449   1.902  13.990  0.2244  0.0164  0.1133
 7938SOL    HW135447   4.516   1.941  14.047 -1.2611  2.8488 -0.0668
 7938SOL    HW235448   4.428   1.820  14.035  1.7537  0.4688  1.6587
 7939SOL     OW35449   2.245   2.725   2.392 -0.3699  0.2002 -0.3202
 7939SOL    HW135450   2.232   2.655   2.328 -1.1653  0.3512 -0.3192
 7939SOL    HW235451   2.340   2.735   2.384 -0.2945  0.0185  0.3238
 7940SOL     OW35452   1.862   0.663  11.317 -0.1260  0.3320 -0.5439
 7940SOL    HW135453   1.872   0.701  11.404  2.3171  2.5277 -1.7758
 7940SOL    HW235454   1.916   0.585  11.322  0.6191  1.1786  4.6255
 7941SOL     OW35455   0.716   1.867   6.750  0.5671 -0.6507 -0.1627
 7941SOL    HW135456   0.777   1.870   6.677  1.8191  2.6747  1.0170
 7941SOL    HW235457   0.738   1.777   6.773  0.3208 -0.5608  0.4225
 7942SOL     OW35458   0.395   1.787   4.783 -0.0817 -0.0469  0.7931
 7942SOL    HW135459   0.395   1.764   4.876  1.5226  0.5331  0.9430
 7942SOL    HW235460   0.482   1.761   4.754 -0.0714  0.8407  0.0434
 7943SOL     OW35461   2.613   2.361   4.433 -0.0582  0.1526  0.3230
 7943SOL    HW135462   2.708   2.356   4.442 -0.3985 -1.7967  2.8250
 7943SOL    HW235463   2.601   2.404   4.348 -0.8562 -0.5805  0.0597
 7944SOL     OW35464   2.553   2.298  11.790  0.0847  0.1036  0.0050
 7944SOL    HW135465   2.616   2.324  11.858 -0.4352  1.0849  0.1137
 7944SOL    HW235466   2.605   2.240  11.734 -0.4173 -1.1900  0.8805
 7945SOL     OW35467   4.319   0.987   1.446  0.1141 -0.2362 -0.3006
 7945SOL    HW135468   4.265   1.052   1.492 -0.8562 -0.3407 -1.2777
 7945SOL    HW235469   4.345   0.927   1.516  1.8000 -0.6832 -1.3126
 7946SOL     OW35470   3.558   2.066   9.290  0.5840 -0.0481  0.4356
 7946SOL    HW135471   3.649   2.036   9.297  1.0263  1.1649 -0.0851
 7946SOL    HW235472   3.529   2.053   9.380  1.2315  1.3197  0.8431
 7947SOL     OW35473   3.955   0.066  12.759  0.1668  0.3148 -0.1582
 7947SOL    HW135474   3.989   4.715  12.745 -2.2130 -0.5253 -0.6112
 7947SOL    HW235475   3.901   0.079  12.681 -0.3734 -1.8636 -0.1517
 7948SOL     OW35476   0.071   3.489   3.178 -0.1531  0.2367 -0.0716
 7948SOL    HW135477   0.132   3.495   3.104  0.9954 -2.1459  0.6717
 7948SOL    HW235478   4.730   3.461   3.130 -1.2710 -1.2260  2.5245
 7949SOL     OW35479   2.604   0.054   6.348  0.0888 -0.1053  0.6897
 7949SOL    HW135480   2.681   0.081   6.398  1.3610 -2.3530 -0.0031
 7949SOL    HW235481   2.538   0.034   6.415 -0.9970 -1.4808 -0.7767
 7950SOL     OW35482   3.235   3.867   2.261 -0.0804 -0.3568  0.0189
 7950SOL    HW135483   3.187   3.826   2.333 -0.9710  1.6640  0.5567
 7950SOL    HW235484   3.192   3.821   2.189  0.8206  0.0047 -0.7458
 7951SOL     OW35485   3.915   1.876   8.645  0.1525 -0.4507  0.0370
 7951SOL    HW135486   3.959   1.799   8.681 -0.0881 -1.3357 -1.6092
 7951SOL    HW235487   3.945   1.954   8.692 -2.3255 -1.1891  2.8253
 7952SOL     OW35488   4.190   2.823   5.327 -0.5538 -0.4029  0.6839
 7952SOL    HW135489   4.225   2.819   5.416  3.0934 -0.5999 -0.7928
 7952SOL    HW235490   4.260   2.863   5.276 -0.3422 -0.3561  1.0124
 7953SOL     OW35491   2.491   0.368   9.978  0.2983  0.2356 -0.1743
 7953SOL    HW135492   2.485   0.387  10.072  1.2602  0.1960 -0.0998
 7953SOL    HW235493   2.433   0.293   9.972  0.3686  0.2394 -0.8535
 7954SOL     OW35494   0.152   4.713   4.331  0.1345 -0.2344 -0.2755
 7954SOL    HW135495   0.247   4.710   4.318  0.4335  0.1674  1.8195
 7954SOL    HW235496   0.143   0.013   4.418  1.1954  2.3664 -1.2664
 7955SOL     OW35497   2.570   4.585  13.545 -0.0435  0.6358  0.5751
 7955SOL    HW135498   2.508   4.559  13.613 -1.3144 -0.3767 -0.9770
 7955SOL    HW235499   2.604   4.499  13.518 -0.4221  0.2114  1.4655
 7956SOL     OW35500   0.711   0.450   7.085  0.0639 -0.4096 -0.1627
 7956SOL    HW135501   0.733   0.407   7.168  0.9055  1.1776  0.4396
 7956SOL    HW235502   0.621   0.421   7.071 -0.4589  1.2702 -0.2332
 7957SOL     OW35503   0.761   4.250   1.350  0.1977  0.1402  0.0912
 7957SOL    HW135504   0.782   4.340   1.375 -0.2658  0.3384 -0.2278
 7957SOL    HW235505   0.766   4.264   1.256 -0.7815 -1.2413 -0.1599
 7958SOL     OW35506   3.628   1.084  13.894  0.4923 -0.0646  0.2621
 7958SOL    HW135507   3.597   1.084  13.803  3.9447 -0.0162 -0.9318
 7958SOL    HW235508   3.591   1.010  13.940  2.7447 -3.1491 -2.8795
 7959SOL     OW35509   2.027   2.056   4.946  0.0035  0.4313  0.6394
 7959SOL    HW135510   1.980   2.139   4.938  1.4810  0.9621 -2.4282
 7959SOL    HW235511   1.986   2.013   5.021  0.8472  1.6268  1.7870
 7960SOL     OW35512   0.699   4.672   4.201 -0.1054 -0.1641 -0.4105
 7960SOL    HW135513   0.683   4.616   4.125 -3.0504  0.1288 -0.0023
 7960SOL    HW235514   0.698   4.604   4.268 -1.2753  1.2841  1.0385
 7961SOL     OW35515   2.062   2.825   8.256  0.3212  0.1167 -0.1301
 7961SOL    HW135516   2.123   2.786   8.319  1.1859  0.6816 -0.6160
 7961SOL    HW235517   2.059   2.916   8.287 -1.4166  0.0540 -0.0838
 7962SOL     OW35518   1.969   2.434   6.296  0.3492 -0.1217 -0.6776
 7962SOL    HW135519   2.024   2.503   6.259 -0.0742  0.4176 -0.2980
 7962SOL    HW235520   1.953   2.468   6.385  0.9269 -1.4823 -0.0537
 7963SOL     OW35521   3.647   2.419   7.690  0.5829  0.3512  0.0696
 7963SOL    HW135522   3.691   2.411   7.775  0.0966  1.1359  0.3933
 7963SOL    HW235523   3.562   2.380   7.712 -0.0947  2.0255  0.3639
 7964SOL     OW35524   2.240   4.610   3.962  0.3372  0.0964  0.1805
 7964SOL    HW135525   2.265   4.687   3.910  0.5092 -0.2110 -0.1887
 7964SOL    HW235526   2.321   4.600   4.012 -0.0384 -0.3919  0.6931
 7965SOL     OW35527   1.723   1.643   6.256  0.0795  0.0954 -0.2315
 7965SOL    HW135528   1.651   1.668   6.199 -0.4694 -1.7303 -0.3385
 7965SOL    HW235529   1.750   1.561   6.214  0.6017 -0.0626  0.4116
 7966SOL     OW35530   3.328   0.589   6.431  0.3676  0.1997  0.3560
 7966SOL    HW135531   3.383   0.597   6.353  0.4831 -0.3193  0.3862
 7966SOL    HW235532   3.240   0.593   6.395  0.5019 -2.9574 -0.3003
 7967SOL     OW35533   0.504   1.083   3.702 -0.9288  0.4723  0.3400
 7967SOL    HW135534   0.508   1.017   3.771 -2.3071  0.8131  0.7406
 7967SOL    HW235535   0.433   1.140   3.729 -0.5598  0.4920  1.2715
 7968SOL     OW35536   0.336   3.049   9.561  0.0003  0.6220 -0.3749
 7968SOL    HW135537   0.344   2.985   9.491  0.4201 -1.2947  1.4484
 7968SOL    HW235538   0.425   3.084   9.562 -0.2978  1.3835 -0.5221
 7969SOL     OW35539   1.349   3.489   5.708  0.4711 -0.2752 -0.1400
 7969SOL    HW135540   1.389   3.560   5.659 -1.9924  1.2818  0.0982
 7969SOL    HW235541   1.390   3.504   5.793 -2.4539  0.8830  1.0636
 7970SOL     OW35542   0.650   2.514   3.850  0.2212 -0.2711 -0.0396
 7970SOL    HW135543   0.580   2.459   3.816 -1.1014  1.1113  0.4363
 7970SOL    HW235544   0.615   2.601   3.830  0.5572 -0.0173  0.4649
 7971SOL     OW35545   2.583   1.264   8.221  0.5595 -0.4654  0.1495
 7971SOL    HW135546   2.617   1.333   8.164  2.6623 -1.4876  0.1203
 7971SOL    HW235547   2.550   1.316   8.294 -1.7629 -0.3821 -0.9899
 7972SOL     OW35548   1.483   2.626   7.270  1.0014 -0.3356 -0.3142
 7972SOL    HW135549   1.572   2.634   7.237  1.4953 -0.7421  0.9303
 7972SOL    HW235550   1.465   2.537   7.241  0.9256  0.2413 -2.0129
 7973SOL     OW35551   3.032   0.228  10.978  0.1547  0.7238 -0.5109
 7973SOL    HW135552   3.109   0.180  10.947 -0.0540 -0.5758  0.9910
 7973SOL    HW235553   2.999   0.243  10.889  1.7329  0.4310 -1.1499
 7974SOL     OW35554   0.123   3.505   7.793 -0.2820 -0.2007  0.0026
 7974SOL    HW135555   0.090   3.441   7.730 -2.0375  1.2358 -0.5316
 7974SOL    HW235556   0.038   3.532   7.829  0.4141  1.3946  0.4590
 7975SOL     OW35557   3.293   1.054  17.211  0.3158  0.2360  0.1172
 7975SOL    HW135558   3.340   0.996  17.151  0.3299  1.1232 -0.7241
 7975SOL    HW235559   3.355   1.069  17.282 -2.2268 -1.2733  2.6707
 7976SOL     OW35560   2.284   2.910   6.882  0.2306 -0.6225  0.5364
 7976SOL    HW135561   2.253   2.869   6.963 -2.8144  1.0543  0.2160
 7976SOL    HW235562   2.210   2.969   6.870  0.0171 -1.1054 -0.5649
 7977SOL     OW35563   4.722   4.190   6.386 -0.1376  0.1894  0.6603
 7977SOL    HW135564   0.020   4.270   6.346  1.8693 -0.3091  1.3808
 7977SOL    HW235565   4.634   4.222   6.403 -0.8019 -2.7233  2.5691
 7978SOL     OW35566   2.077   1.368   5.547 -0.4899  0.3719 -1.0251
 7978SOL    HW135567   1.986   1.381   5.574 -0.0208  2.1349 -0.2556
 7978SOL    HW235568   2.065   1.276   5.523  1.5816  0.4095 -2.1259
 7979SOL     OW35569   0.075   2.528   4.628  0.8198 -0.0883 -0.2626
 7979SOL    HW135570   4.720   2.556   4.621  0.2414 -1.4133  2.1356
 7979SOL    HW235571   0.064   2.433   4.626 -3.5761  0.4455 -2.5210
 7980SOL     OW35572   4.631   1.877   2.004 -0.3904  0.5940  0.5244
 7980SOL    HW135573   4.617   1.843   2.092  1.5120  0.1148  0.6340
 7980SOL    HW235574   4.705   1.932   2.029 -0.1932  0.1872  0.8261
 7981SOL     OW35575   1.625   4.359   7.927  0.2325  0.0907 -0.3152
 7981SOL    HW135576   1.693   4.317   7.874 -1.6626 -0.9148 -1.9387
 7981SOL    HW235577   1.671   4.414   7.991  0.0228 -0.9054  0.6939
 7982SOL     OW35578   2.457   1.681  16.862 -0.2890 -0.3425  0.6091
 7982SOL    HW135579   2.505   1.607  16.826  1.3681  0.8806  0.2822
 7982SOL    HW235580   2.410   1.724  16.790  0.4547 -0.7198 -0.1019
 7983SOL     OW35581   0.880   4.666   2.303  0.2796  0.0356  0.1644
 7983SOL    HW135582   0.831   4.601   2.253  1.4976  0.3437 -1.4269
 7983SOL    HW235583   0.953   4.609   2.327 -0.1698 -0.6614 -0.1598
 7984SOL     OW35584   0.505   2.876   4.711  0.2109 -0.2380 -0.0487
 7984SOL    HW135585   0.467   2.827   4.784 -2.2466  2.5152  0.4907
 7984SOL    HW235586   0.557   2.812   4.661  0.1687 -0.1081 -0.2604
 7985SOL     OW35587   2.348   3.616   4.703 -0.1472  0.4946  0.4028
 7985SOL    HW135588   2.253   3.612   4.689 -0.3813  0.4457  1.9220
 7985SOL    HW235589   2.353   3.533   4.749 -0.9272  0.7952  1.0475
 7986SOL     OW35590   1.301   4.628   5.846  0.0512 -0.3582 -0.3391
 7986SOL    HW135591   1.250   4.703   5.878  1.6875  0.8850 -0.6461
 7986SOL    HW235592   1.347   4.608   5.928  1.9555  2.2636 -0.7649
 7987SOL     OW35593   1.444   2.382   5.542 -0.0884  0.7497 -0.6363
 7987SOL    HW135594   1.351   2.362   5.553  0.0116  0.3397 -0.5198
 7987SOL    HW235595   1.481   2.348   5.624 -1.3292  1.6668  0.3066
 7988SOL     OW35596   2.761   4.295   5.469  0.1451 -0.2441  0.5740
 7988SOL    HW135597   2.701   4.305   5.395 -0.4658 -0.6627  1.0072
 7988SOL    HW235598   2.731   4.207   5.492 -0.1122  0.0497  1.3530
 7989SOL     OW35599   0.573   0.290   2.998  0.1909  0.0576  0.1426
 7989SOL    HW135600   0.513   0.236   3.050 -0.6505 -0.1408 -1.0385
 7989SOL    HW235601   0.553   0.249   2.914  0.2373 -1.4687  0.8704
 7990SOL     OW35602   2.010   4.646   2.812 -0.2456  0.4261 -0.3370
 7990SOL    HW135603   1.926   4.658   2.768 -0.9518  1.2436  1.2178
 7990SOL    HW235604   2.039   4.559   2.786  1.2198  0.4577  1.1746
 7991SOL     OW35605   2.787   1.799   7.401  0.3328 -0.1671 -0.6456
 7991SOL    HW135606   2.775   1.873   7.460  2.2737 -0.0833 -0.3329
 7991SOL    HW235607   2.876   1.817   7.370  1.0076 -2.4031 -0.0232
 7992SOL     OW35608   2.602   0.246   9.002 -0.2798 -0.4794  0.0200
 7992SOL    HW135609   2.637   0.173   8.952  0.2523 -1.0329  1.2205
 7992SOL    HW235610   2.604   0.312   8.933  2.1768 -0.7658 -0.1850
 7993SOL     OW35611   2.833   2.312   4.217  0.3578 -0.0670 -0.2542
 7993SOL    HW135612   2.867   2.243   4.160  0.4971 -1.3637  1.4225
 7993SOL    HW235613   2.783   2.355   4.147 -1.5081  0.9745  1.7069
 7994SOL     OW35614   1.048   2.413  15.103 -0.3914 -0.5349 -0.4755
 7994SOL    HW135615   1.084   2.338  15.150 -0.4116 -0.4430 -0.3144
 7994SOL    HW235616   1.044   2.381  15.013  0.4473 -0.4563 -0.5341
 7995SOL     OW35617   0.912   2.243   2.290  0.2540 -0.1872 -0.4892
 7995SOL    HW135618   0.907   2.157   2.331 -2.3094 -0.2791 -0.9659
 7995SOL    HW235619   0.938   2.234   2.198  0.1384  0.4480 -0.5864
 7996SOL     OW35620   2.759   3.776   1.467  0.1451  0.2719  0.0217
 7996SOL    HW135621   2.806   3.745   1.389  1.9093  1.4634  0.6092
 7996SOL    HW235622   2.685   3.806   1.415 -1.3900 -0.0664  2.0119
 7997SOL     OW35623   2.941   1.388  17.651  0.0010  0.4500  0.2557
 7997SOL    HW135624   2.876   1.341  17.598 -1.3581  2.1336  0.4422
 7997SOL    HW235625   3.001   1.314  17.660  0.6155  0.9214  0.0349
 7998SOL     OW35626   3.572   1.807   0.893 -0.0980  0.0769  0.2883
 7998SOL    HW135627   3.660   1.794   0.928  0.1941 -0.9496 -0.8388
 7998SOL    HW235628   3.564   1.720   0.854  2.5565  0.1335 -0.3685
 7999SOL     OW35629   0.428   1.319   9.083 -0.2146  0.2584  0.1694
 7999SOL    HW135630   0.498   1.330   9.019 -2.4288  3.3227 -1.7373
 7999SOL    HW235631   0.468   1.379   9.147  0.6041  0.2341 -0.3251
 8000SOL     OW35632   1.126   3.253   3.531 -0.1624  0.0695 -0.0457
 8000SOL    HW135633   1.056   3.213   3.480  0.8735 -1.9521  0.1098
 8000SOL    HW235634   1.179   3.272   3.454  1.1420 -0.3271  0.7533
 8001SOL     OW35635   1.048   0.998   1.326 -0.9043 -0.0647  0.0214
 8001SOL    HW135636   1.068   0.994   1.232  0.4266 -0.9260  0.3429
 8001SOL    HW235637   1.091   0.922   1.364  1.6536  1.2411 -0.2781
 8002SOL     OW35638   2.154   3.848   6.750  0.0410  0.1507 -0.3274
 8002SOL    HW135639   2.228   3.831   6.692 -0.1920  1.2933 -0.9519
 8002SOL    HW235640   2.110   3.763   6.758  1.0730 -0.5550 -2.1159
 8003SOL     OW35641   2.878   3.181   1.483  0.2652  0.1114 -0.3171
 8003SOL    HW135642   2.953   3.187   1.542  1.0410 -1.2937 -1.1535
 8003SOL    HW235643   2.805   3.211   1.537 -1.5589 -0.1895 -2.5860
 8004SOL     OW35644   4.013   3.303   6.074  0.8416 -0.0924 -0.9197
 8004SOL    HW135645   4.083   3.359   6.109  0.9402  0.0169 -1.2941
 8004SOL    HW235646   4.057   3.276   5.994 -1.8779 -2.4370 -1.6203
 8005SOL     OW35647   3.128   2.109   6.927  0.1343  0.1681  0.2169
 8005SOL    HW135648   3.066   2.045   6.892  1.0299 -1.0782  0.9185
 8005SOL    HW235649   3.198   2.054   6.961  1.7990  2.2385  0.1651
 8006SOL     OW35650   3.503   1.755   7.215  0.0601  0.2303  0.1457
 8006SOL    HW135651   3.421   1.714   7.241  0.2942  0.9233  1.9894
 8006SOL    HW235652   3.534   1.702   7.142  2.8107  1.9109  0.0797
 8007SOL     OW35653   1.537   1.847  12.064 -0.4091 -0.1500 -0.3860
 8007SOL    HW135654   1.477   1.906  12.110 -0.4906 -0.9563  0.5337
 8007SOL    HW235655   1.579   1.919  12.018 -0.3263  1.4272  2.1743
 8008SOL     OW35656   1.870   4.612   5.489 -0.4751  0.0750 -0.2020
 8008SOL    HW135657   1.833   4.645   5.571  0.5611  0.0861  0.2556
 8008SOL    HW235658   1.850   4.691   5.439 -1.9378 -0.2955 -0.2103
 8009SOL     OW35659   4.067   0.225   5.589  0.4293 -0.1081  0.0659
 8009SOL    HW135660   4.006   0.299   5.595 -0.5059 -1.0122  1.5428
 8009SOL    HW235661   4.039   0.175   5.665  1.4072  0.5390  0.8552
 8010SOL     OW35662   1.410   0.894  16.145  0.5852 -0.4612  0.1875
 8010SOL    HW135663   1.433   0.891  16.238  0.1796 -0.1214  0.2981
 8010SOL    HW235664   1.496   0.916  16.111 -0.1587 -0.3227 -1.6064
 8011SOL     OW35665   2.198   0.505  16.505 -0.2160  0.3963 -0.9825
 8011SOL    HW135666   2.150   0.483  16.425 -1.2755 -1.3393  0.1181
 8011SOL    HW235667   2.132   0.474  16.567  0.9471  2.7563  1.4886
 8012SOL     OW35668   1.675   2.596   6.137 -0.3909 -0.0127  0.4115
 8012SOL    HW135669   1.691   2.682   6.176 -2.4538  0.3783  0.4198
 8012SOL    HW235670   1.624   2.561   6.210  2.8457  0.3820  2.8692
 8013SOL     OW35671   3.346   3.904  14.068 -0.2610 -0.4127 -0.0998
 8013SOL    HW135672   3.278   3.941  14.123  0.6090  0.1887  0.5770
 8013SOL    HW235673   3.400   3.978  14.041  0.7303 -0.6636  1.1870
 8014SOL     OW35674   2.623   4.638  15.972  0.9988  0.9278 -0.0353
 8014SOL    HW135675   2.627   4.723  16.017  2.1036  0.8844 -0.0727
 8014SOL    HW235676   2.626   4.579  16.047 -1.8471  0.5614 -0.2135
 8015SOL     OW35677   2.653   0.508   2.550 -0.3254  0.4503  0.1493
 8015SOL    HW135678   2.740   0.546   2.534 -0.4290  0.8678  0.5695
 8015SOL    HW235679   2.610   0.497   2.466 -2.4577 -2.3362  1.6273
 8016SOL     OW35680   3.242   0.801   6.560  0.5846  0.3088 -0.4794
 8016SOL    HW135681   3.283   0.729   6.513 -0.4047  0.0231 -0.9109
 8016SOL    HW235682   3.308   0.870   6.557  0.8834  0.0110 -0.7249
 8017SOL     OW35683   1.287   1.582  11.148  0.5973  0.0216 -0.3304
 8017SOL    HW135684   1.374   1.541  11.149  0.5732 -0.0408 -0.8067
 8017SOL    HW235685   1.295   1.638  11.225  0.5689  0.2991 -0.5310
 8018SOL     OW35686   0.404   3.846  14.124 -0.0070 -0.2417 -0.1238
 8018SOL    HW135687   0.362   3.812  14.045  0.9496  1.6425 -1.4337
 8018SOL    HW235688   0.366   3.934  14.128 -1.3770 -0.7114 -2.5691
 8019SOL     OW35689   0.435   2.077   4.370 -0.2491 -0.5130 -0.4003
 8019SOL    HW135690   0.456   1.985   4.385 -2.1211 -1.2756 -2.4693
 8019SOL    HW235691   0.501   2.101   4.304  1.5126 -0.2400  1.4459
 8020SOL     OW35692   3.367   1.452  12.108  0.0824  0.0758 -0.2590
 8020SOL    HW135693   3.287   1.500  12.130 -1.8359 -3.5752  0.7501
 8020SOL    HW235694   3.393   1.491  12.025  1.7048 -2.5196 -0.9842
 8021SOL     OW35695   2.396   2.178   5.429 -0.2438  0.2340  0.3121
 8021SOL    HW135696   2.403   2.199   5.523 -0.4660 -0.3306  0.4551
 8021SOL    HW235697   2.385   2.267   5.396  1.8809  1.2413  2.2334
 8022SOL     OW35698   0.750   4.638   7.194 -0.0799  0.0495 -0.3997
 8022SOL    HW135699   0.710   4.566   7.243 -1.4582  0.9498 -0.2054
 8022SOL    HW235700   0.704   4.712   7.234 -3.3339 -0.6067 -2.9390
 8023SOL     OW35701   0.580   3.285   7.515  0.0440  0.1947  0.7838
 8023SOL    HW135702   0.523   3.249   7.447  0.6933 -0.5084  0.6055
 8023SOL    HW235703   0.643   3.215   7.533  0.5122  0.5821  0.6502
 8024SOL     OW35704   1.949   3.346   4.400  0.1275  0.0135  0.8826
 8024SOL    HW135705   1.857   3.322   4.392  0.5982 -0.6080 -2.7538
 8024SOL    HW235706   1.970   3.336   4.307  2.0689  1.2441  1.1753
 8025SOL     OW35707   2.573   1.505   9.628  0.6413  0.9797  0.6210
 8025SOL    HW135708   2.602   1.516   9.537 -0.9542 -3.7995 -0.4939
 8025SOL    HW235709   2.544   1.413   9.630 -0.8953  1.4194 -1.5196
 8026SOL     OW35710   3.099   3.092   3.472  0.5168 -0.2251 -0.2902
 8026SOL    HW135711   3.053   3.010   3.457  0.2153 -0.0782 -0.1599
 8026SOL    HW235712   3.055   3.141   3.541 -1.6628  0.9494 -2.4880
 8027SOL     OW35713   2.436   3.627   7.041 -0.1617  0.2198  0.6239
 8027SOL    HW135714   2.367   3.683   7.075 -0.4974 -0.3692  0.8952
 8027SOL    HW235715   2.506   3.689   7.021  0.8818 -1.2057 -0.1876
 8028SOL     OW35716   2.105   1.363   3.139  0.1818 -0.4737  0.0864
 8028SOL    HW135717   2.048   1.372   3.063 -0.9320 -0.7958  0.8856
 8028SOL    HW235718   2.118   1.454   3.166  0.0568  0.4712 -2.9973
 8029SOL     OW35719   3.610   2.593   6.939 -0.0447 -0.0872  0.1994
 8029SOL    HW135720   3.522   2.628   6.948 -1.1075 -2.4155 -0.9559
 8029SOL    HW235721   3.630   2.611   6.847  2.3416  0.0243  0.7440
 8030SOL     OW35722   1.311   1.152  16.182  0.2952  0.3371  0.1459
 8030SOL    HW135723   1.314   1.057  16.166 -0.3832  0.5898 -1.4707
 8030SOL    HW235724   1.295   1.175  16.091  0.4022 -0.2744 -0.0268
 8031SOL     OW35725   4.426   2.825   4.047  0.2634 -0.0786 -0.3811
 8031SOL    HW135726   4.495   2.759   4.048  0.0599 -0.2938 -0.5618
 8031SOL    HW235727   4.453   2.882   3.975 -1.5126 -0.1235 -1.0670
 8032SOL     OW35728   3.608   1.697   6.143 -0.3101 -0.5819 -0.1055
 8032SOL    HW135729   3.645   1.699   6.055  0.5544 -1.6194  0.2356
 8032SOL    HW235730   3.685   1.726   6.192 -0.9858 -1.6961  1.6168
 8033SOL     OW35731   1.712   3.398  10.490 -0.1101  0.0705  0.4727
 8033SOL    HW135732   1.716   3.321  10.433 -0.1976 -0.7583  1.5791
 8033SOL    HW235733   1.805   3.418  10.498  0.2130 -0.7888 -0.9698
 8034SOL     OW35734   1.671   0.667   7.690  0.0058 -0.0254 -0.2620
 8034SOL    HW135735   1.705   0.655   7.779 -3.0354  4.7583  1.5877
 8034SOL    HW235736   1.742   0.705   7.639  1.0411 -2.0545 -0.3182
 8035SOL     OW35737   2.499   1.980  12.831 -0.5954  0.2002  0.1350
 8035SOL    HW135738   2.577   1.957  12.782 -1.9541 -0.9710 -1.4574
 8035SOL    HW235739   2.529   1.967  12.921 -1.3363  1.4231  0.5625
 8036SOL     OW35740   0.403   0.124   3.135 -0.2600 -0.1257  0.1140
 8036SOL    HW135741   0.448   0.043   3.159  0.5500  0.1913 -0.3244
 8036SOL    HW235742   0.345   0.132   3.211 -0.2931  0.2659  0.0468
 8037SOL     OW35743   2.598   1.166   4.256 -0.1117 -0.7034  0.0794
 8037SOL    HW135744   2.573   1.258   4.252 -0.3640 -0.8627 -1.6950
 8037SOL    HW235745   2.600   1.150   4.351  1.3613  0.1421  0.1880
 8038SOL     OW35746   0.737   1.235   8.113  0.0164  0.4076  0.2443
 8038SOL    HW135747   0.816   1.192   8.148  1.1033  3.7960  1.9145
 8038SOL    HW235748   0.739   1.326   8.141 -0.7667 -0.1411  2.0603
 8039SOL     OW35749   2.721   0.992   2.282  0.3932 -0.3519  0.7688
 8039SOL    HW135750   2.699   0.936   2.357  3.9237 -2.3856  0.2990
 8039SOL    HW235751   2.734   0.924   2.216  1.0779  0.7690 -0.2639
 8040SOL     OW35752   2.499   1.505   3.728  0.9187  0.2671 -0.0118
 8040SOL    HW135753   2.462   1.468   3.808 -0.9170 -1.1370 -1.5042
 8040SOL    HW235754   2.590   1.498   3.755 -0.0997 -0.2835  3.3625
 8041SOL     OW35755   1.563   2.386  17.046  0.1456  0.0332 -0.1122
 8041SOL    HW135756   1.555   2.438  17.126  0.8692  0.5530 -0.3690
 8041SOL    HW235757   1.523   2.438  16.976  2.8224 -0.5660 -2.0719
 8042SOL     OW35758   3.945   0.776  15.427 -0.2921 -0.3751  0.3525
 8042SOL    HW135759   3.851   0.795  15.422  0.0377  1.5812  1.3954
 8042SOL    HW235760   3.984   0.827  15.498 -0.7418  0.4818 -0.0164
 8043SOL     OW35761   2.756   1.291   7.894 -0.3684  0.4374 -0.4622
 8043SOL    HW135762   2.729   1.349   7.965 -0.8127  0.5537 -0.7315
 8043SOL    HW235763   2.823   1.344   7.851  0.2024 -1.4774 -1.9119
 8044SOL     OW35764   0.627   2.221   0.318 -1.1599  0.3327  0.0677
 8044SOL    HW135765   0.639   2.177   0.233 -2.1135 -0.7937  0.5193
 8044SOL    HW235766   0.580   2.162   0.377 -0.5320 -0.3427 -0.1089
 8045SOL     OW35767   3.045   1.305   2.210 -0.5608  0.0258 -0.6840
 8045SOL    HW135768   2.950   1.315   2.208 -0.5077 -0.0943 -3.3651
 8045SOL    HW235769   3.068   1.390   2.174  0.0634  0.2826  0.3236
 8046SOL     OW35770   2.712   2.599   7.351  0.9715  0.5305 -0.2247
 8046SOL    HW135771   2.641   2.538   7.333  0.1552  1.4391 -0.0702
 8046SOL    HW235772   2.733   2.625   7.261  1.1979 -1.5219 -0.7558
 8047SOL     OW35773   1.169   0.155  14.209 -0.2125 -0.2280  0.1001
 8047SOL    HW135774   1.164   0.250  14.209 -1.1258 -0.2859  2.4260
 8047SOL    HW235775   1.245   0.148  14.151  0.9492  0.5967  1.5379
 8048SOL     OW35776   4.066   4.695   5.342  0.3628  0.1969 -0.1759
 8048SOL    HW135777   3.975   4.686   5.371  0.9593 -1.9584  1.0305
 8048SOL    HW235778   4.109   4.626   5.391  1.1005  0.2193 -0.7998
 8049SOL     OW35779   4.664   2.282   8.265  0.4969  0.4844  0.1937
 8049SOL    HW135780   4.708   2.331   8.334  1.8063 -0.4637  0.0288
 8049SOL    HW235781   4.635   2.356   8.211  0.5918 -0.2611 -0.8776
 8050SOL     OW35782   2.165   2.362  12.521  0.1790  0.1263 -0.0966
 8050SOL    HW135783   2.216   2.281  12.513  0.2287  0.2134 -0.6661
 8050SOL    HW235784   2.219   2.428  12.563  0.5909  0.2137 -0.7726
 8051SOL     OW35785   1.984   0.961  12.039 -0.6609 -0.2603  0.1106
 8051SOL    HW135786   1.900   0.998  12.011 -0.6397 -0.1436  0.1981
 8051SOL    HW235787   1.999   1.017  12.115 -0.2664 -0.5496  0.2460
 8052SOL     OW35788   1.297   0.784  17.142 -0.4661  0.1274  0.4381
 8052SOL    HW135789   1.236   0.856  17.128 -0.6628  0.1481  1.3596
 8052SOL    HW235790   1.321   0.791  17.235 -0.0848 -0.2750  0.3713
 8053SOL     OW35791   0.228   2.331   2.488 -0.0101 -0.1035 -0.3090
 8053SOL    HW135792   0.276   2.411   2.509  3.6304 -2.4581  0.2992
 8053SOL    HW235793   0.196   2.301   2.573 -1.5669  3.2300  0.3059
 8054SOL     OW35794   0.035   0.268   5.584 -0.7292  0.2580 -0.1546
 8054SOL    HW135795   4.688   0.223   5.587 -1.6164  1.8107 -1.8663
 8054SOL    HW235796   0.017   0.358   5.610 -2.7838 -0.6950  1.6312
 8055SOL     OW35797   4.260   0.935   7.804 -0.0495  0.5362 -0.3631
 8055SOL    HW135798   4.191   0.992   7.837 -0.4911  0.4175 -1.0933
 8055SOL    HW235799   4.240   0.855   7.853  0.9812 -0.6988 -1.9723
 8056SOL     OW35800   1.993   2.409   8.524  0.1716 -0.1290  0.3416
 8056SOL    HW135801   2.028   2.417   8.435  0.4969 -0.1098  0.4729
 8056SOL    HW235802   2.026   2.486   8.571  0.4034 -0.6011  0.9395
 8057SOL     OW35803   3.999   1.548   2.539 -0.6080 -0.6898  0.1767
 8057SOL    HW135804   3.942   1.615   2.501  0.1375  0.5070  1.1839
 8057SOL    HW235805   4.038   1.500   2.466  1.2560 -0.2348  0.8691
 8058SOL     OW35806   2.574   2.274  11.390  0.3825  0.2742 -0.1430
 8058SOL    HW135807   2.501   2.325  11.424 -1.1573 -1.6562 -0.5220
 8058SOL    HW235808   2.610   2.332  11.324  0.3242 -0.0731 -0.4791
 8059SOL     OW35809   2.357   3.863   0.926 -0.4115  0.4651 -0.0935
 8059SOL    HW135810   2.290   3.861   0.994  0.4362 -0.8438  0.7105
 8059SOL    HW235811   2.363   3.774   0.892 -1.4900  0.7623 -1.0534
 8060SOL     OW35812   2.418   1.375   7.913 -0.2496 -0.1317 -0.7648
 8060SOL    HW135813   2.391   1.432   7.985  0.9718  0.1053 -0.4935
 8060SOL    HW235814   2.378   1.292   7.938 -0.7031 -0.1462 -1.5444
 8061SOL     OW35815   2.259   0.076   5.793  0.6271 -0.4583 -0.5933
 8061SOL    HW135816   2.199   0.015   5.750 -0.3681 -0.4442  0.7962
 8061SOL    HW235817   2.343   0.066   5.747  1.7192 -0.0009  1.3170
 8062SOL     OW35818   4.042   2.470  11.506  0.4179  0.2549 -0.4449
 8062SOL    HW135819   4.111   2.416  11.467  0.5718  0.1117  0.0258
 8062SOL    HW235820   4.091   2.474  11.588 -1.8929 -0.2967  0.9727
 8063SOL     OW35821   1.570   3.715   6.076 -0.1361 -0.2561  0.3769
 8063SOL    HW135822   1.524   3.646   6.027 -0.6529 -0.2618  0.8646
 8063SOL    HW235823   1.547   3.676   6.160 -2.8137 -0.0986 -0.2667
 8064SOL     OW35824   0.802   1.702  10.899 -0.3837 -0.2952 -0.5961
 8064SOL    HW135825   0.822   1.795  10.896 -1.9387  0.0134 -1.0991
 8064SOL    HW235826   0.876   1.656  10.858 -1.4657 -2.1685 -0.4316
 8065SOL     OW35827   1.749   0.424  11.090 -0.3053 -0.7349 -0.4143
 8065SOL    HW135828   1.736   0.349  11.147 -0.2680 -1.1471 -0.9455
 8065SOL    HW235829   1.837   0.407  11.057  0.0310 -0.1932  0.2203
 8066SOL     OW35830   1.862   1.085   6.643  0.2023 -0.0424 -0.0646
 8066SOL    HW135831   1.917   1.069   6.566  0.4035  1.2868 -0.1994
 8066SOL    HW235832   1.822   0.999   6.637 -0.8752  0.4754 -0.3935
 8067SOL     OW35833   3.509   3.600  16.700 -0.1991 -0.4774  0.0636
 8067SOL    HW135834   3.437   3.660  16.720  0.2800 -0.5317  1.9291
 8067SOL    HW235835   3.585   3.657  16.690 -1.0304  0.6381  0.0751
 8068SOL     OW35836   3.677   3.926   6.419 -0.0240 -0.6541  0.1111
 8068SOL    HW135837   3.627   3.856   6.461  0.5196  0.6228  2.8451
 8068SOL    HW235838   3.715   3.864   6.357 -0.3877 -0.1117 -0.6566
 8069SOL     OW35839   0.498   0.288   1.422 -0.6219  0.0029 -0.2794
 8069SOL    HW135840   0.494   0.298   1.517 -1.9854 -0.6611 -0.2654
 8069SOL    HW235841   0.406   0.300   1.396 -1.0555  0.1313  1.3378
 8070SOL     OW35842   3.638   0.217   4.175  0.3035  0.7074 -0.0150
 8070SOL    HW135843   3.548   0.186   4.189 -0.6014  2.5711 -1.8135
 8070SOL    HW235844   3.647   0.278   4.248  0.7732  0.2734  0.2906
 8071SOL     OW35845   3.896   1.742   6.533  1.1372  0.1998 -0.3236
 8071SOL    HW135846   3.900   1.750   6.438  0.1210 -1.5730 -0.5083
 8071SOL    HW235847   3.944   1.661   6.544  1.1409  0.2990  0.4367
 8072SOL     OW35848   3.901   3.267   6.761 -0.2774 -0.0515 -0.6493
 8072SOL    HW135849   3.937   3.196   6.707  1.5593 -0.3161  0.9513
 8072SOL    HW235850   3.835   3.225   6.817  0.8757 -0.2097  0.5774
 8073SOL     OW35851   1.691   4.045   7.039 -0.4475 -0.0708 -0.9832
 8073SOL    HW135852   1.636   3.995   6.979 -0.7260  1.1283 -1.7367
 8073SOL    HW235853   1.654   4.132   7.023 -1.8387 -0.2648  1.2725
 8074SOL     OW35854   4.111   2.065   8.109  0.6020  0.0485  0.3212
 8074SOL    HW135855   4.161   1.996   8.066  3.1314  3.1935 -1.7547
 8074SOL    HW235856   4.178   2.114   8.156  1.6785 -0.5308 -0.6027
 8075SOL     OW35857   1.208   0.107   2.061 -0.6063  0.4345 -0.1690
 8075SOL    HW135858   1.262   0.059   2.123 -4.5265 -2.7340  0.8334
 8075SOL    HW235859   1.263   0.184   2.047  2.7447 -2.0503 -0.6931
 8076SOL     OW35860   1.768   4.242   4.684  0.0609 -0.2667 -0.1624
 8076SOL    HW135861   1.755   4.147   4.687 -0.7456 -0.1366  0.4138
 8076SOL    HW235862   1.678   4.268   4.703 -0.3158 -3.1293  1.8739
 8077SOL     OW35863   0.195   0.085   7.333 -0.1509 -0.0880 -1.3188
 8077SOL    HW135864   0.285   0.104   7.306  0.0234  0.3243 -0.4327
 8077SOL    HW235865   0.188   0.139   7.411  2.2432 -0.8627 -0.5654
 8078SOL     OW35866   4.050   0.628   2.550 -0.2528  0.0714  0.6445
 8078SOL    HW135867   4.047   0.543   2.505  0.2254  0.6312 -0.4243
 8078SOL    HW235868   4.140   0.633   2.582 -1.3411  1.8556  3.3746
 8079SOL     OW35869   2.953   1.354   4.500  0.6249 -0.6721 -0.1448
 8079SOL    HW135870   2.892   1.311   4.559 -0.5490 -1.3656 -1.8650
 8079SOL    HW235871   2.990   1.276   4.457  0.6819 -1.1925  0.8429
 8080SOL     OW35872   4.725   2.381   6.107  0.6699 -0.6176 -0.2506
 8080SOL    HW135873   4.679   2.312   6.154 -0.0462 -1.2284 -1.8483
 8080SOL    HW235874   4.683   2.370   6.021  0.4902 -0.8678 -0.1311
 8081SOL     OW35875   1.897   1.865   9.008  0.0920 -0.3542 -0.2709
 8081SOL    HW135876   1.805   1.842   9.003  0.1017 -0.4218 -0.1069
 8081SOL    HW235877   1.925   1.808   9.079  1.2197 -1.1369 -1.3349
 8082SOL     OW35878   3.792   0.374   3.913  0.0384  0.6611 -0.0915
 8082SOL    HW135879   3.760   0.285   3.898  0.4357  0.6765 -1.0302
 8082SOL    HW235880   3.717   0.434   3.910 -1.6229 -1.4484 -0.4856
 8083SOL     OW35881   2.305   0.451   7.570 -0.2300  0.7988 -0.2982
 8083SOL    HW135882   2.396   0.470   7.547 -0.6579  2.0402 -0.9179
 8083SOL    HW235883   2.281   0.517   7.635 -0.2473 -0.5549  1.0962
 8084SOL     OW35884   0.293   3.362   7.281  0.0494 -0.0483  0.2597
 8084SOL    HW135885   0.281   3.454   7.306 -3.4488 -0.3397 -0.3447
 8084SOL    HW235886   0.369   3.362   7.223 -0.8291 -1.3322 -0.8806
 8085SOL     OW35887   0.116   0.195   7.011 -0.6833  0.3130 -0.2980
 8085SOL    HW135888   0.037   0.241   7.039 -0.6869 -0.3789  0.8513
 8085SOL    HW235889   0.185   0.230   7.068 -1.1679 -0.9591  1.0691
 8086SOL     OW35890   0.306   2.021  10.294  0.3975  0.1093  0.0119
 8086SOL    HW135891   0.259   1.943  10.264  1.5589 -1.1159  1.3669
 8086SOL    HW235892   0.396   2.011  10.265 -0.4780 -0.8184 -2.3659
 8087SOL     OW35893   4.279   1.475   7.496 -0.4800  0.1593  0.2483
 8087SOL    HW135894   4.363   1.432   7.476 -0.2770  0.9725 -0.6491
 8087SOL    HW235895   4.223   1.439   7.427  0.8490 -2.6849  0.6388
 8088SOL     OW35896   4.195   3.514   9.148  0.1539 -0.0539 -0.0774
 8088SOL    HW135897   4.227   3.520   9.058  0.3346  0.7020  0.0351
 8088SOL    HW235898   4.102   3.536   9.144  0.6011  1.8056 -0.1400
 8089SOL     OW35899   2.550   1.007   5.021  0.0859  0.0700 -0.2204
 8089SOL    HW135900   2.629   1.061   5.022 -0.2910  0.6451 -1.7586
 8089SOL    HW235901   2.555   0.980   5.112  1.4675 -1.6082 -0.7930
 8090SOL     OW35902   2.544   4.280   8.177  0.1985  0.2774  0.2159
 8090SOL    HW135903   2.615   4.324   8.224  4.0614 -3.7966 -1.8098
 8090SOL    HW235904   2.579   4.191   8.180 -0.2612  0.0888  0.0431
 8091SOL     OW35905   0.644   0.191   5.737 -0.0598  0.1256  0.5672
 8091SOL    HW135906   0.653   0.140   5.817 -0.7751  0.1649  0.6682
 8091SOL    HW235907   0.679   0.130   5.672  1.3731  0.1774  1.2901
 8092SOL     OW35908   3.160   3.464  17.741  0.0250 -0.4417 -0.4300
 8092SOL    HW135909   3.110   3.534  17.699  1.0845  0.7629  0.3207
 8092SOL    HW235910   3.242   3.508   0.020 -0.4612  1.8631 -2.9964
 8093SOL     OW35911   3.017   2.997   8.562  0.3507  0.1439 -0.0915
 8093SOL    HW135912   3.027   2.911   8.522 -0.6357  0.2370 -0.5428
 8093SOL    HW235913   3.039   3.046   8.482 -0.4877  1.6640  0.6041
 8094SOL     OW35914   0.929   1.960  14.368  0.0695 -0.3159  0.4525
 8094SOL    HW135915   0.944   2.054  14.381 -1.4703  0.2561 -1.9314
 8094SOL    HW235916   0.864   1.969  14.299  3.1134 -0.2900 -2.4582
 8095SOL     OW35917   0.948   1.127   8.418 -0.1412 -0.0528 -0.2757
 8095SOL    HW135918   1.015   1.114   8.485  0.2127  2.5357 -0.1476
 8095SOL    HW235919   1.005   1.146   8.344 -1.9971 -1.3224 -2.0471
 8096SOL     OW35920   3.568   4.006   6.187 -0.2114  0.3332 -0.0004
 8096SOL    HW135921   3.598   4.018   6.277  0.2821  2.1357 -0.4113
 8096SOL    HW235922   3.617   4.079   6.149 -1.6447  1.0118 -0.5492
 8097SOL     OW35923   1.284   2.490   2.575 -0.2028  0.1788 -0.1748
 8097SOL    HW135924   1.221   2.488   2.503 -1.5340  0.5657  0.9731
 8097SOL    HW235925   1.352   2.426   2.551  0.4335  0.4224  1.0058
 8098SOL     OW35926   3.208   3.167   0.453  0.2846  0.5353 -0.2291
 8098SOL    HW135927   3.254   3.116   0.520 -0.4145 -1.6085 -1.3876
 8098SOL    HW235928   3.171   3.245   0.495 -0.8023 -1.2956  2.2162
 8099SOL     OW35929   2.208   1.928  15.042 -0.3771 -0.4750  0.0898
 8099SOL    HW135930   2.257   1.961  15.117 -0.3315  1.9186 -0.9707
 8099SOL    HW235931   2.148   2.000  15.020 -0.2476 -0.0301  1.1916
 8100SOL     OW35932   1.084   2.791   4.014  0.1361 -0.2760  0.3529
 8100SOL    HW135933   1.121   2.751   4.093 -0.1776  2.2311  1.7790
 8100SOL    HW235934   1.008   2.834   4.053  0.5484  0.7606 -0.0163
 8101SOL     OW35935   4.219   4.639   2.251 -0.0088  0.8369 -0.0451
 8101SOL    HW135936   4.259   4.688   2.179 -0.9750  0.8745 -0.5599
 8101SOL    HW235937   4.164   4.705   2.292  0.3128  1.2925 -0.3484
 8102SOL     OW35938   3.625   3.576   5.489  0.2153  0.0515  0.3630
 8102SOL    HW135939   3.666   3.620   5.414 -1.0344  1.3492  0.4522
 8102SOL    HW235940   3.555   3.629   5.526  0.2501  2.1199 -2.4868
 8103SOL     OW35941   1.849   1.300   7.087  0.0071  0.1970  0.5691
 8103SOL    HW135942   1.865   1.383   7.132  0.8234 -0.3714  1.3279
 8103SOL    HW235943   1.925   1.243   7.102 -0.3580 -1.2854 -3.3337
 8104SOL     OW35944   3.228   1.801   5.016 -0.2549 -0.0655  0.0684
 8104SOL    HW135945   3.181   1.742   5.076 -0.7155  1.3966  1.1394
 8104SOL    HW235946   3.243   1.876   5.073 -3.1420  1.5788 -1.3369
 8105SOL     OW35947   3.124   3.180  14.865 -0.1940 -0.1136  0.2384
 8105SOL    HW135948   3.184   3.158  14.936  0.3974  0.3380 -0.1274
 8105SOL    HW235949   3.179   3.218  14.797 -2.4548  0.1214 -1.4733
 8106SOL     OW35950   2.623   0.413   6.694 -0.1429 -0.2998 -0.3768
 8106SOL    HW135951   2.661   0.384   6.611 -0.3381  2.0325 -1.2687
 8106SOL    HW235952   2.692   0.465   6.735  0.7732 -1.8681  0.0869
 8107SOL     OW35953   3.697   1.629   2.269 -0.0619 -0.2198  0.2265
 8107SOL    HW135954   3.753   1.673   2.333 -2.8899 -0.4425  2.8212
 8107SOL    HW235955   3.752   1.632   2.190  2.6750  1.3521  2.1911
 8108SOL     OW35956   2.872   1.440  11.786 -0.2987 -0.2401  0.0237
 8108SOL    HW135957   2.892   1.512  11.726 -1.6128  0.1305  0.0240
 8108SOL    HW235958   2.900   1.467  11.873 -0.0988 -3.2170  0.8899
 8109SOL     OW35959   1.676   0.954  10.392 -0.0233  0.1647 -0.0698
 8109SOL    HW135960   1.583   0.958  10.368  0.0819  5.2893  0.3115
 8109SOL    HW235961   1.707   0.912  10.312 -0.1784 -0.6833  0.3149
 8110SOL     OW35962   4.289   0.213   4.587 -0.1594  0.3496  0.2698
 8110SOL    HW135963   4.308   0.145   4.522 -0.2387 -0.9231  1.5726
 8110SOL    HW235964   4.324   0.290   4.542  0.0058  0.2512  0.2278
 8111SOL     OW35965   2.470   4.278   7.029 -0.3577  0.1524 -0.4045
 8111SOL    HW135966   2.396   4.319   7.075 -1.6702 -1.1495 -1.3393
 8111SOL    HW235967   2.457   4.323   6.945  0.2601  0.7276 -0.1852
 8112SOL     OW35968   0.199   4.156   5.206 -0.0697  0.5969 -0.1327
 8112SOL    HW135969   0.121   4.101   5.191  0.6834 -0.8134  1.1517
 8112SOL    HW235970   0.165   4.232   5.252 -0.7207  0.5783 -0.5764
 8113SOL     OW35971   2.286   1.408   6.460 -0.0627  0.8675 -0.2264
 8113SOL    HW135972   2.323   1.348   6.396  2.2617 -0.0422  1.9718
 8113SOL    HW235973   2.275   1.490   6.411 -0.9343  0.9722  0.1442
 8114SOL     OW35974   1.659   3.885  17.303 -0.3091  0.1996  0.6903
 8114SOL    HW135975   1.650   3.845  17.216 -0.5565  1.6258  0.0618
 8114SOL    HW235976   1.599   3.959  17.304 -0.9668 -0.3251  0.1939
 8115SOL     OW35977   1.526   4.705   9.168 -0.3955  0.0029  0.2711
 8115SOL    HW135978   1.579   4.667   9.238  0.5511 -2.8087 -1.9613
 8115SOL    HW235979   1.575   4.673   9.091 -0.4449 -0.3476  0.3892
 8116SOL     OW35980   2.240   3.776   2.388  0.7580 -0.0083 -0.2138
 8116SOL    HW135981   2.223   3.731   2.306  1.1149  2.1780 -1.4819
 8116SOL    HW235982   2.273   3.862   2.361 -0.7940  0.9015  0.7541
 8117SOL     OW35983   0.292   0.173   5.568  0.2877 -0.2843 -0.2247
 8117SOL    HW135984   0.265   0.171   5.660  1.2470 -2.6940  0.0091
 8117SOL    HW235985   0.214   0.223   5.544 -0.9954 -1.1846  2.0623
 8118SOL     OW35986   0.461   3.649   6.259 -0.6011 -0.0067 -0.4847
 8118SOL    HW135987   0.459   3.743   6.241 -1.4087  0.5840  2.6538
 8118SOL    HW235988   0.553   3.623   6.256 -0.7465 -0.6044  0.1845
 8119SOL     OW35989   1.565   2.369   3.284 -0.1842  0.3886 -0.3980
 8119SOL    HW135990   1.587   2.277   3.296  2.4171  0.9563 -0.8854
 8119SOL    HW235991   1.638   2.419   3.248 -0.1224 -0.3623 -1.3181
 8120SOL     OW35992   4.107   2.658   8.842  0.1001  0.2321 -0.1551
 8120SOL    HW135993   4.136   2.723   8.906  0.9954 -1.5088  1.1937
 8120SOL    HW235994   4.020   2.635   8.876 -0.2870 -0.8102 -1.8802
 8121SOL     OW35995   1.187   4.385   2.716 -0.2213 -0.0236 -0.1369
 8121SOL    HW135996   1.165   4.476   2.730  1.0801  0.0398  1.4622
 8121SOL    HW235997   1.222   4.373   2.804  0.3983  0.5501 -0.3053
 8122SOL     OW35998   2.434   4.014   6.521  0.2201  0.5646 -0.3572
 8122SOL    HW135999   2.506   3.967   6.477  1.2188  1.3669  0.4096
 8122SOL    HW236000   2.384   4.058   6.453  0.5981 -0.0324 -1.0149
 8123SOL     OW36001   4.219   2.220  11.627  0.4514  0.9227  0.5058
 8123SOL    HW136002   4.242   2.288  11.690  0.5821 -0.1913  1.6688
 8123SOL    HW236003   4.143   2.181  11.671  0.0465  0.8107 -0.2968
 8124SOL     OW36004   2.942   0.481   6.807  0.0163 -0.4386 -0.2545
 8124SOL    HW136005   2.995   0.417   6.856  3.6786  1.0640 -2.2503
 8124SOL    HW236006   2.890   0.517   6.878  1.2974 -1.1944  1.0575
 8125SOL     OW36007   1.204   1.587   6.740  0.5037 -0.1624  0.8220
 8125SOL    HW136008   1.194   1.547   6.827  4.8266  1.1061  1.8851
 8125SOL    HW236009   1.275   1.539   6.698  0.5709 -1.2221  2.1463
 8126SOL     OW36010   4.657   1.578   7.391  0.1558 -0.3456 -0.2753
 8126SOL    HW136011   4.679   1.538   7.307 -0.1887 -1.5801  0.2199
 8126SOL    HW236012   4.604   1.514   7.438 -3.1301  1.7483 -1.1128
 8127SOL     OW36013   1.903   3.401   5.942  0.4175  0.6015  0.1145
 8127SOL    HW136014   1.976   3.459   5.924  0.5910 -0.2648 -1.8983
 8127SOL    HW236015   1.955   3.323   5.961  1.3000  1.1556 -0.0482
 8128SOL     OW36016   2.383   2.175   7.279 -0.4361 -0.0832  0.1264
 8128SOL    HW136017   2.334   2.227   7.215 -1.8321 -0.6058  0.7794
 8128SOL    HW236018   2.333   2.095   7.265 -1.4217  0.8273 -1.4863
 8129SOL     OW36019   1.002   3.824   7.049  0.3236 -0.3375 -0.2989
 8129SOL    HW136020   1.096   3.809   7.061  0.1247 -0.8764  0.6432
 8129SOL    HW236021   0.973   3.885   7.118  2.9064  1.0716 -0.4430
 8130SOL     OW36022   3.283   4.707   4.812 -0.3658  0.0093 -0.1702
 8130SOL    HW136023   3.374   4.720   4.786  0.2093  0.3998  2.0800
 8130SOL    HW236024   3.236   4.667   4.739  1.5165 -1.0053 -0.8199
 8131SOL     OW36025   4.120   3.382  10.782  0.7027  0.5071 -0.3451
 8131SOL    HW136026   4.025   3.393  10.791  0.6812  0.4899 -0.5696
 8131SOL    HW236027   4.144   3.385  10.875  1.2180 -1.2695 -0.4170
 8132SOL     OW36028   0.489   1.500   3.245  0.4351 -0.3356 -0.2415
 8132SOL    HW136029   0.508   1.425   3.301 -1.9273 -0.8629 -0.1468
 8132SOL    HW236030   0.394   1.511   3.250  0.3278 -0.3032 -2.4981
 8133SOL     OW36031   0.753   1.389   6.181  0.2927 -0.3626 -0.5423
 8133SOL    HW136032   0.686   1.424   6.122  1.5987  1.8029 -0.7181
 8133SOL    HW236033   0.707   1.317   6.225 -0.4270 -0.0533 -0.7848
 8134SOL     OW36034   0.242   4.150  15.906 -0.0286  0.0873  0.2137
 8134SOL    HW136035   0.245   4.227  15.849 -2.0274  1.2640  1.6603
 8134SOL    HW236036   0.326   4.158  15.951 -1.3664  0.1855  2.6929
 8135SOL     OW36037   1.079   3.691  13.971  0.1310 -0.4541 -0.2326
 8135SOL    HW136038   1.065   3.689  14.066 -4.6531  1.8117 -0.8836
 8135SOL    HW236039   1.029   3.771  13.956 -1.8707 -1.7151 -0.3719
 8136SOL     OW36040   3.285   4.650   4.297  0.0502  0.4702  0.0555
 8136SOL    HW136041   3.317   4.690   4.378 -0.5668  0.2180  0.4138
 8136SOL    HW236042   3.365   4.603   4.273 -1.0676 -1.3925 -0.0224
 8137SOL     OW36043   2.665   4.492   9.668  0.2015  0.2401  0.2637
 8137SOL    HW136044   2.580   4.464   9.703 -2.5516  4.7494 -2.8987
 8137SOL    HW236045   2.724   4.422   9.697 -0.7082  1.0028  3.9438
 8138SOL     OW36046   3.670   1.346   9.731  0.3699  0.2331  0.9376
 8138SOL    HW136047   3.733   1.397   9.681 -1.5452  1.1385 -0.5728
 8138SOL    HW236048   3.700   1.256   9.723 -0.0823  0.4317 -3.0331
 8139SOL     OW36049   4.267   2.712   2.783  0.1292  0.9414 -0.2458
 8139SOL    HW136050   4.181   2.750   2.801 -1.3911 -1.9497 -1.4056
 8139SOL    HW236051   4.325   2.777   2.823  1.0682  1.4362 -2.3837
 8140SOL     OW36052   3.344   0.861  11.782 -0.3040 -0.3764 -0.5539
 8140SOL    HW136053   3.359   0.767  11.789  0.1698 -0.2475  0.2589
 8140SOL    HW236054   3.412   0.887  11.720 -0.7902  0.9166 -0.5564
 8141SOL     OW36055   3.666   3.561   2.942 -0.5230 -0.7443 -0.1912
 8141SOL    HW136056   3.592   3.514   2.902  0.2842 -2.5900  0.5098
 8141SOL    HW236057   3.615   3.638   2.969 -0.6207 -0.4304 -1.2764
 8142SOL     OW36058   4.139   1.341  11.628 -0.4342 -0.0518  0.3336
 8142SOL    HW136059   4.189   1.325  11.708  0.3766  0.7167 -0.0086
 8142SOL    HW236060   4.116   1.434  11.627  1.1231  0.3441  1.3008
 8143SOL     OW36061   4.580   0.872   5.875 -0.0672 -0.3507  0.2455
 8143SOL    HW136062   4.618   0.785   5.887 -0.2358 -0.6870 -1.6435
 8143SOL    HW236063   4.651   0.903   5.819 -2.4952 -0.9879 -3.2196
 8144SOL     OW36064   4.370   3.152   6.064  0.1205  0.1066 -0.1726
 8144SOL    HW136065   4.362   3.185   6.154 -2.6266 -0.2644 -0.2863
 8144SOL    HW236066   4.336   3.063   6.075 -1.7429  0.9793  1.1168
 8145SOL     OW36067   2.885   0.434   7.279 -0.3535 -0.1317  0.6106
 8145SOL    HW136068   2.949   0.369   7.309 -0.1096 -0.0824  0.1966
 8145SOL    HW236069   2.802   0.405   7.316 -0.5458 -0.4979 -0.1310
 8146SOL     OW36070   4.170   1.369  14.839  0.6073  0.9058 -0.0579
 8146SOL    HW136071   4.124   1.401  14.762 -0.3041  0.0167  0.1084
 8146SOL    HW236072   4.231   1.436  14.868  0.3890 -0.3048  3.2979
 8147SOL     OW36073   3.173   4.458   3.316  0.2188  0.1442  0.1322
 8147SOL    HW136074   3.152   4.548   3.340 -1.7083 -0.2054 -0.2201
 8147SOL    HW236075   3.201   4.464   3.224 -0.5590 -0.5943 -0.1565
 8148SOL     OW36076   1.684   1.284   4.657  0.5062  0.3911 -0.9185
 8148SOL    HW136077   1.754   1.347   4.675  0.5235  0.1997 -0.3088
 8148SOL    HW236078   1.629   1.340   4.603  0.3398 -0.9282 -2.1386
 8149SOL     OW36079   0.665   4.109   7.753  0.0447  0.0006 -0.3682
 8149SOL    HW136080   0.588   4.053   7.740 -0.2550  0.2926  0.1660
 8149SOL    HW236081   0.722   4.076   7.684  1.4491  1.4272  0.1143
 8150SOL     OW36082   2.719   1.593   7.589 -0.7197  0.4478  0.2937
 8150SOL    HW136083   2.710   1.503   7.557 -2.0144 -0.0867  2.1644
 8150SOL    HW236084   2.754   1.637   7.512 -1.6900  1.9621  0.7086
 8151SOL     OW36085   1.004   2.015  15.370  0.5201  0.0509 -0.4448
 8151SOL    HW136086   0.908   2.010  15.372  0.4104  2.3731  0.2519
 8151SOL    HW236087   1.018   2.070  15.447 -1.0074  1.6309 -1.2727
 8152SOL     OW36088   3.803   0.681   8.333 -0.1315  0.2604  0.7578
 8152SOL    HW136089   3.851   0.725   8.403  1.7369  0.2392 -0.5089
 8152SOL    HW236090   3.801   0.751   8.268 -2.5562 -1.2130 -0.7432
 8153SOL     OW36091   1.821   0.316  17.369  0.1247  0.0349  0.1472
 8153SOL    HW136092   1.760   0.278  17.306  0.2660 -0.4859  0.3165
 8153SOL    HW236093   1.769   0.293  17.445  0.2811 -1.3042 -0.1338
 8154SOL     OW36094   2.043   0.795   9.746 -0.1955 -0.3202 -0.2286
 8154SOL    HW136095   2.058   0.700   9.747  0.9659 -0.1249  0.0320
 8154SOL    HW236096   2.004   0.810   9.832  0.8996 -1.3386  0.4483
 8155SOL     OW36097   4.109   1.627   3.491  0.0901 -0.2571 -0.2368
 8155SOL    HW136098   4.114   1.696   3.425  0.6540  0.0959  0.1619
 8155SOL    HW236099   4.100   1.548   3.438 -2.3184  0.5851 -1.0711
 8156SOL     OW36100   0.175   3.124   1.582  0.2525  0.0283  0.6913
 8156SOL    HW136101   0.086   3.159   1.572  1.1762  1.6304 -1.9916
 8156SOL    HW236102   0.182   3.060   1.511 -1.8730  2.1735 -1.4724
 8157SOL     OW36103   1.602   2.974   3.813 -0.3432  0.3068  0.2596
 8157SOL    HW136104   1.628   3.051   3.862  1.8195  0.0919 -0.5382
 8157SOL    HW236105   1.646   2.998   3.731 -0.2311 -2.8568 -0.6372
 8158SOL     OW36106   2.545   3.360   2.767 -0.4000 -0.3770  0.1916
 8158SOL    HW136107   2.463   3.397   2.799  0.3750  1.9824 -0.5398
 8158SOL    HW236108   2.612   3.418   2.805 -1.7228  0.5661  1.0696
 8159SOL     OW36109   0.048   0.833   9.023 -0.4257 -0.6447  0.4444
 8159SOL    HW136110   4.728   0.837   9.100  0.8997  0.5259  1.3769
 8159SOL    HW236111   0.010   0.911   8.982  0.5259  0.1884  1.1165
 8160SOL     OW36112   0.417   2.543   5.824  0.2920  0.3126 -0.4767
 8160SOL    HW136113   0.365   2.611   5.868 -0.4940 -0.3210 -0.4432
 8160SOL    HW236114   0.441   2.491   5.900 -1.2342 -0.7551 -0.7340
 8161SOL     OW36115   4.046   1.631   3.199 -0.3806 -0.0665 -0.1598
 8161SOL    HW136116   4.119   1.608   3.141 -2.1285 -2.1662 -1.5268
 8161SOL    HW236117   4.003   1.546   3.196  1.6711 -1.0483 -1.7391
 8162SOL     OW36118   0.125   2.032  11.104  1.0653 -0.1394  0.3750
 8162SOL    HW136119   0.193   1.981  11.150 -0.9546 -0.1606  3.3309
 8162SOL    HW236120   0.054   1.976  11.133  0.4047  1.3053  1.5481
 8163SOL     OW36121   2.387   1.950   9.297  0.1487  0.1749 -0.0898
 8163SOL    HW136122   2.401   1.855   9.298  0.2907  0.1510 -3.3831
 8163SOL    HW236123   2.380   1.959   9.392  1.7812 -0.1690  0.0642
 8164SOL     OW36124   3.948   4.021   8.005 -0.2052 -0.4025 -0.4227
 8164SOL    HW136125   3.989   4.004   7.921  0.9898 -0.2515  0.1301
 8164SOL    HW236126   3.890   3.945   8.015  0.1038 -0.8155 -1.8570
 8165SOL     OW36127   0.611   4.531   7.818  0.1140 -0.4492  0.0692
 8165SOL    HW136128   0.688   4.586   7.827  0.2816 -0.6832  0.0557
 8165SOL    HW236129   0.610   4.539   7.722  2.8937 -1.0989 -0.0069
 8166SOL     OW36130   0.730   3.294  13.691 -0.1790  0.6148  0.4079
 8166SOL    HW136131   0.679   3.237  13.748  0.1873  0.8476  0.9675
 8166SOL    HW236132   0.812   3.305  13.739  0.5163  1.1831 -0.9203
 8167SOL     OW36133   1.821   2.667   3.828 -0.4510  0.0460  0.1618
 8167SOL    HW136134   1.782   2.647   3.742 -0.4767  1.1967 -0.1041
 8167SOL    HW236135   1.827   2.581   3.870  1.4864  1.0089  1.8356
 8168SOL     OW36136   2.538   0.525   4.622  0.2911  0.3176  0.1473
 8168SOL    HW136137   2.629   0.503   4.600  0.2907  1.1376 -0.6802
 8168SOL    HW236138   2.527   0.600   4.563 -1.8110 -0.3073 -0.2498
 8169SOL     OW36139   3.136   3.132   2.803 -0.3597  0.3085  0.2342
 8169SOL    HW136140   3.174   3.160   2.720 -0.1162 -0.4670  0.0831
 8169SOL    HW236141   3.061   3.083   2.769  0.6326 -0.3929 -0.9257
 8170SOL     OW36142   4.276   4.578   4.643  0.0206  0.4236  0.5479
 8170SOL    HW136143   4.223   4.584   4.563 -0.5084 -0.6780  0.8211
 8170SOL    HW236144   4.242   4.648   4.697  1.7036  0.2439  1.8402
 8171SOL     OW36145   4.566   2.476  15.849  0.0127 -0.2258  0.8697
 8171SOL    HW136146   4.476   2.491  15.875  0.1618 -0.6753  1.6284
 8171SOL    HW236147   4.581   2.552  15.792  1.1966 -1.3806 -0.3673
 8172SOL     OW36148   4.281   0.073   8.822 -0.7162 -0.6120 -0.0608
 8172SOL    HW136149   4.345   0.118   8.876  0.1898 -0.0088 -1.6483
 8172SOL    HW236150   4.301   4.717   8.834 -0.7996 -0.8155 -1.5780
 8173SOL     OW36151   3.227   1.223   6.483 -0.0208 -0.4389 -0.7638
 8173SOL    HW136152   3.280   1.146   6.464  0.9465 -0.3129  1.4480
 8173SOL    HW236153   3.296   1.285   6.503  0.8713 -2.5342  2.5760
 8174SOL     OW36154   0.645   3.600   5.549 -0.3074  0.8093  0.0611
 8174SOL    HW136155   0.710   3.532   5.532 -1.5405  0.0818 -1.7851
 8174SOL    HW236156   0.579   3.575   5.484 -0.0568 -1.8390  0.8151
 8175SOL     OW36157   3.585   2.162   4.539 -0.8793  0.7963  0.8934
 8175SOL    HW136158   3.501   2.124   4.565 -1.9369  3.0897  0.8130
 8175SOL    HW236159   3.581   2.248   4.582 -1.6491 -0.4821  3.3309
 8176SOL     OW36160   2.571   4.334   5.302  0.1928  0.0622  0.6741
 8176SOL    HW136161   2.527   4.418   5.295  2.0103  0.8552 -1.5077
 8176SOL    HW236162   2.506   4.271   5.269  0.9256  0.4182 -1.4606
 8177SOL     OW36163   2.260   1.836   4.818 -0.4417 -0.2595  0.2173
 8177SOL    HW136164   2.194   1.837   4.748  1.3043 -1.0552 -1.4395
 8177SOL    HW236165   2.272   1.929   4.836 -1.0946 -0.6932  2.8320
 8178SOL     OW36166   3.130   4.314  13.040 -0.4340 -0.4757  1.0841
 8178SOL    HW136167   3.039   4.343  13.041  0.0340  1.0220 -1.1277
 8178SOL    HW236168   3.128   4.238  13.099 -0.7790 -2.9017 -2.0907
 8179SOL     OW36169   0.220   2.830   9.675 -0.0002 -1.0235  0.3913
 8179SOL    HW136170   0.153   2.835   9.743  1.3872 -1.0441  1.7549
 8179SOL    HW236171   0.252   2.921   9.673  0.5217 -1.2364 -0.8045
 8180SOL     OW36172   4.201   1.656   7.098 -0.2803 -0.2579 -0.5408
 8180SOL    HW136173   4.107   1.671   7.110 -0.4864 -1.4483 -0.7168
 8180SOL    HW236174   4.207   1.665   7.003 -1.2941  1.2673 -0.4679
 8181SOL     OW36175   3.000   0.785   6.686 -0.1206  0.4271  0.0976
 8181SOL    HW136176   3.094   0.771   6.676 -0.0549 -0.2167  1.5459
 8181SOL    HW236177   2.991   0.855   6.750 -0.6194  0.7580 -0.3408
 8182SOL     OW36178   4.315   1.682   5.670 -0.5284  0.2373  0.2495
 8182SOL    HW136179   4.238   1.739   5.668 -1.3180 -0.7602  2.2545
 8182SOL    HW236180   4.304   1.632   5.590 -0.3252 -0.7013  0.8070
 8183SOL     OW36181   1.477   0.893   5.189  0.1735 -0.0938 -0.0311
 8183SOL    HW136182   1.456   0.839   5.113  0.4390  1.9682 -1.5702
 8183SOL    HW236183   1.566   0.866   5.213  0.3793  0.8580  0.2609
 8184SOL     OW36184   3.615   3.014  14.755 -0.7004  0.2264  0.0468
 8184SOL    HW136185   3.626   3.105  14.785  0.9237 -0.0699  0.3611
 8184SOL    HW236186   3.667   3.024  14.675  0.1016 -0.1424  0.5235
 8185SOL     OW36187   1.920   0.228   2.604  0.9901  0.1700 -0.1658
 8185SOL    HW136188   1.904   0.192   2.692  0.5360  0.5658 -0.0851
 8185SOL    HW236189   1.831   0.231   2.571  1.0777 -1.3323 -0.5304
 8186SOL     OW36190   1.943   1.556  10.342 -0.7236 -0.2120 -0.4290
 8186SOL    HW136191   1.920   1.465  10.323  0.9375 -0.2757 -2.1389
 8186SOL    HW236192   1.862   1.605  10.351  0.4177  1.7892 -1.1784
 8187SOL     OW36193   3.000   3.832  14.608 -0.2213 -0.1666  0.0096
 8187SOL    HW136194   2.938   3.904  14.610 -0.6862 -0.5924  0.8267
 8187SOL    HW236195   3.036   3.840  14.697  0.5764 -0.7240 -0.2636
 8188SOL     OW36196   2.470   4.367   3.077 -0.0065  0.1423  0.1337
 8188SOL    HW136197   2.383   4.403   3.059 -0.5923  0.0463  2.7760
 8188SOL    HW236198   2.479   4.314   2.998 -0.1036  1.3201 -0.6665
 8189SOL     OW36199   4.079   4.170   4.542  0.9524 -0.2055  0.0901
 8189SOL    HW136200   4.103   4.147   4.632 -1.3661  1.9435  1.2450
 8189SOL    HW236201   4.141   4.234   4.508  0.0976 -0.7113 -2.4314
 8190SOL     OW36202   0.189   2.373  16.391  0.3535 -0.7734 -0.2212
 8190SOL    HW136203   0.165   2.344  16.479  1.7220  2.6848  1.2884
 8190SOL    HW236204   0.120   2.431  16.361  1.5465  0.5116 -0.4515
 8191SOL     OW36205   0.548   4.562   1.484  0.1623 -0.3607 -0.5426
 8191SOL    HW136206   0.453   4.568   1.473  0.4487  1.1112 -2.1949
 8191SOL    HW236207   0.585   4.633   1.433  1.7263 -1.0730 -0.3979
 8192SOL     OW36208   3.405   1.007   6.890  0.3900  0.0781 -0.0731
 8192SOL    HW136209   3.404   1.033   6.982  1.6406  1.2525 -0.3846
 8192SOL    HW236210   3.347   0.931   6.889  1.5055 -0.8099  1.6357
 8193SOL     OW36211   3.992   1.318   2.971  1.0201 -0.0667 -0.5251
 8193SOL    HW136212   3.935   1.350   3.041  0.4829  1.5602 -1.6932
 8193SOL    HW236213   3.954   1.233   2.951 -2.4010  1.2977  0.1548
 8194SOL     OW36214   3.857   2.146  14.420  0.5337  0.3537  0.3835
 8194SOL    HW136215   3.879   2.070  14.474  0.3706  1.4321  1.9609
 8194SOL    HW236216   3.880   2.124  14.330 -1.5244  1.0941 -0.3279
 8195SOL     OW36217   2.577   3.463   8.874  0.4698 -0.4278  0.1716
 8195SOL    HW136218   2.541   3.378   8.899 -0.2249 -1.0214 -2.8838
 8195SOL    HW236219   2.514   3.505   8.816  0.4222 -0.4452  0.2107
 8196SOL     OW36220   2.585   0.168  14.120 -0.5971 -0.1147  0.1393
 8196SOL    HW136221   2.518   0.189  14.184 -1.7318  0.6101 -1.2844
 8196SOL    HW236222   2.585   0.243  14.060 -1.9259  0.0032  0.2816
 8197SOL     OW36223   0.701   4.527  14.865  0.1161  0.1347  0.4262
 8197SOL    HW136224   0.748   4.530  14.781 -2.6382  0.2913 -1.1024
 8197SOL    HW236225   0.612   4.509  14.838  0.7320  0.6135 -1.9272
 8198SOL     OW36226   2.097   4.005   5.164  0.6196  0.3622 -0.4194
 8198SOL    HW136227   2.010   4.017   5.125 -0.4940  0.3320  2.0348
 8198SOL    HW236228   2.119   3.923   5.118  1.9573  0.2671  0.4106
 8199SOL     OW36229   2.257   1.178   1.973  0.0159 -0.4840  0.1745
 8199SOL    HW136230   2.170   1.194   2.009 -0.6512  0.9868 -2.1178
 8199SOL    HW236231   2.288   1.116   2.039 -1.4935 -1.4756 -0.0292
 8200SOL     OW36232   0.318   1.690   2.904  0.0719 -0.1555  0.1595
 8200SOL    HW136233   0.299   1.761   2.966  1.5736  0.1720  0.2413
 8200SOL    HW236234   0.412   1.692   2.888  0.1730 -1.8256  0.4956
 8201SOL     OW36235   3.897   0.220  12.964 -0.1768  0.2113 -0.3934
 8201SOL    HW136236   3.910   0.162  12.889  0.3547 -0.8751  0.5534
 8201SOL    HW236237   3.959   0.193  13.032 -2.2033  1.7364  2.0361
 8202SOL     OW36238   1.254   1.359   3.364  0.5682 -0.8263 -0.5106
 8202SOL    HW136239   1.314   1.428   3.334 -0.1842 -0.8580 -2.0565
 8202SOL    HW236240   1.220   1.401   3.443 -2.2459 -1.1892 -1.5248
 8203SOL     OW36241   4.510   2.157   2.202 -0.1025  0.3104  0.3954
 8203SOL    HW136242   4.552   2.173   2.287  1.3067  3.0535 -0.8211
 8203SOL    HW236243   4.578   2.104   2.162 -0.5046  0.0902  0.0119
 8204SOL     OW36244   0.320   0.479   3.133 -0.5897 -0.2326  0.1389
 8204SOL    HW136245   0.252   0.489   3.199 -0.8905 -1.1934 -0.0176
 8204SOL    HW236246   0.397   0.463   3.187 -0.8609 -0.7204  0.3821
 8205SOL     OW36247   4.105   0.045   9.039  0.4069  0.0366  0.4119
 8205SOL    HW136248   4.177   4.729   9.074  0.1027 -1.2390 -0.8782
 8205SOL    HW236249   4.138   0.072   8.954  0.8156 -1.4124  0.1177
 8206SOL     OW36250   2.311   4.454   4.888 -0.2658  0.8132  0.0611
 8206SOL    HW136251   2.261   4.497   4.957 -0.3061 -1.5939  1.5472
 8206SOL    HW236252   2.284   4.362   4.889  0.7643  0.5074 -0.0781
 8207SOL     OW36253   2.631   1.785   9.675 -0.2919  0.9032 -0.2117
 8207SOL    HW136254   2.716   1.757   9.709 -0.1367  2.3179  0.5620
 8207SOL    HW236255   2.584   1.706   9.647  1.9947 -0.3672 -0.4593
 8208SOL     OW36256   3.672   3.835   9.003  0.2058 -0.6897  0.2345
 8208SOL    HW136257   3.608   3.771   9.036  2.3719 -2.9258  0.0906
 8208SOL    HW236258   3.724   3.860   9.079  1.2857  0.6231 -0.9434
 8209SOL     OW36259   3.394   1.826   3.940  0.0332 -0.1025  0.2954
 8209SOL    HW136260   3.306   1.840   3.973 -1.2091 -1.9468 -2.2058
 8209SOL    HW236261   3.382   1.866   3.854 -0.7988  0.3681  0.6296
 8210SOL     OW36262   4.672   4.647   9.460 -0.1724  0.0415 -0.4878
 8210SOL    HW136263   0.023   4.669   9.491 -0.7597  3.1026 -0.9886
 8210SOL    HW236264   4.692   4.581   9.395 -1.0476 -1.0523  0.3496
 8211SOL     OW36265   3.794   3.483  15.708 -0.5068  0.2026 -0.0565
 8211SOL    HW136266   3.780   3.391  15.683  1.0410 -0.1482  0.3949
 8211SOL    HW236267   3.848   3.517  15.637  0.9832  1.5417  1.7249
 8212SOL     OW36268   4.180   3.234   5.860  0.0318 -0.0301  0.1766
 8212SOL    HW136269   4.249   3.217   5.924  0.5587  1.0611 -0.1002
 8212SOL    HW236270   4.144   3.148   5.839  1.3539 -0.1662 -1.5118
 8213SOL     OW36271   4.137   0.912   0.925 -0.2953 -0.2278 -0.3557
 8213SOL    HW136272   4.197   0.917   0.998 -0.3242 -0.0290 -0.3466
 8213SOL    HW236273   4.154   0.987   0.868 -0.2476 -0.4830 -0.6843
 8214SOL     OW36274   1.474   4.133   6.711  0.5157  0.3179 -0.1695
 8214SOL    HW136275   1.494   4.226   6.701 -0.9675  0.7260  0.4950
 8214SOL    HW236276   1.531   4.096   6.644 -3.4077 -1.4580 -2.5140
 8215SOL     OW36277   3.377   1.906  12.817 -0.1679  0.2553 -0.5506
 8215SOL    HW136278   3.312   1.841  12.792 -0.2240  0.7289 -1.6854
 8215SOL    HW236279   3.432   1.860  12.880 -0.5607  1.4981  0.7023
 8216SOL     OW36280   0.487   3.799  10.910 -0.4230  0.1172 -0.1830
 8216SOL    HW136281   0.529   3.885  10.907 -0.0336 -0.1031 -0.9900
 8216SOL    HW236282   0.540   3.755  10.977 -0.7562  0.3314  0.2245
 8217SOL     OW36283   0.706   2.358  16.058  0.2415 -0.5684 -0.2659
 8217SOL    HW136284   0.733   2.447  16.082 -0.7138 -0.6571  1.1585
 8217SOL    HW236285   0.769   2.337  15.989  1.4741 -0.4986  0.8295
 8218SOL     OW36286   3.478   3.201   9.192  0.1838  0.5312  0.0164
 8218SOL    HW136287   3.415   3.169   9.257  2.7507  0.0209  2.2791
 8218SOL    HW236288   3.542   3.130   9.200  0.0629  0.3262 -0.9032
 8219SOL     OW36289   1.454   3.651   2.159  0.4012 -0.0860 -0.0014
 8219SOL    HW136290   1.435   3.636   2.067 -0.2204  0.6422  0.0094
 8219SOL    HW236291   1.543   3.617   2.166  0.5167  0.3907  0.8352
 8220SOL     OW36292   2.771   2.983   8.929 -0.1694 -0.3070  0.1827
 8220SOL    HW136293   2.728   2.903   8.897  0.0030 -0.2549 -0.1859
 8220SOL    HW236294   2.779   2.964   9.022 -0.3713 -1.6255 -0.0632
 8221SOL     OW36295   1.647   4.338   0.571 -0.0721  0.1187  0.1472
 8221SOL    HW136296   1.721   4.364   0.517  1.0817  0.0298  1.6860
 8221SOL    HW236297   1.677   4.385   0.649  0.4147  0.3723 -0.1935
 8222SOL     OW36298   3.768   3.229  16.997  0.2828  0.1656  0.1624
 8222SOL    HW136299   3.850   3.179  16.994  0.0566 -0.1793 -0.2008
 8222SOL    HW236300   3.712   3.176  16.940 -0.2996  1.0423 -0.0818
 8223SOL     OW36301   2.892   1.600   3.076  0.0227 -0.8029 -0.2365
 8223SOL    HW136302   2.867   1.635   2.991 -1.4990 -0.3831  0.3970
 8223SOL    HW236303   2.961   1.662   3.101 -3.1658  2.6700 -0.1547
 8224SOL     OW36304   4.682   1.803   3.908 -0.1741  0.3763 -0.1692
 8224SOL    HW136305   4.691   1.866   3.980  2.2702 -0.0909 -0.0755
 8224SOL    HW236306   4.637   1.857   3.843 -2.8293 -1.4706  0.1259
 8225SOL     OW36307   3.545   2.722   8.729 -0.0288  0.4375  0.4390
 8225SOL    HW136308   3.577   2.646   8.777 -1.9823  0.8752  2.4630
 8225SOL    HW236309   3.535   2.790   8.797  0.7056  2.2787 -1.2890
 8226SOL     OW36310   3.317   2.380  15.811 -0.3733  0.4429  0.1731
 8226SOL    HW136311   3.250   2.375  15.880 -1.2108  1.6731 -0.5508
 8226SOL    HW236312   3.359   2.298  15.835 -0.9721  0.1192  0.1172
 8227SOL     OW36313   1.570   2.157   2.654 -0.5857  0.6727 -0.3696
 8227SOL    HW136314   1.511   2.192   2.588 -2.0948 -2.0927 -0.4962
 8227SOL    HW236315   1.574   2.232   2.714 -2.4309  0.0097  0.5717
 8228SOL     OW36316   2.312   0.604  16.768 -0.3233 -0.0831 -0.3416
 8228SOL    HW136317   2.402   0.611  16.797 -0.8399 -0.0642  1.2533
 8228SOL    HW236318   2.296   0.512  16.750 -0.0107 -0.0827 -0.6149
 8229SOL     OW36319   3.544   2.799   5.267  0.3341  0.8769  0.3067
 8229SOL    HW136320   3.612   2.768   5.326 -0.7119 -1.2346  0.4063
 8229SOL    HW236321   3.564   2.892   5.256  0.6326  0.8604  0.7521
 8230SOL     OW36322   3.489   0.708   6.240  0.3308 -0.4406 -0.0067
 8230SOL    HW136323   3.575   0.732   6.206 -0.0701  1.0156 -0.0079
 8230SOL    HW236324   3.445   0.704   6.155 -1.2929 -1.4649  0.8839
 8231SOL     OW36325   1.886   1.129  13.869 -0.4702 -0.5685 -0.1196
 8231SOL    HW136326   1.850   1.126  13.781 -1.9804 -0.7766  0.5075
 8231SOL    HW236327   1.896   1.223  13.885 -0.2894 -0.3815 -1.3530
 8232SOL     OW36328   3.168   1.083   8.861 -0.3720 -0.1782  0.0802
 8232SOL    HW136329   3.201   0.997   8.836  0.9919  0.0776  0.9800
 8232SOL    HW236330   3.224   1.106   8.935  0.3129 -0.1498 -0.4418
 8233SOL     OW36331   4.366   0.473   9.167 -0.6500 -0.6688  0.2768
 8233SOL    HW136332   4.455   0.492   9.196 -0.9740  0.2740  0.6702
 8233SOL    HW236333   4.327   0.439   9.248 -2.9013  2.0491  0.3650
 8234SOL     OW36334   1.096   1.686  14.998 -0.0048 -0.0607  0.9548
 8234SOL    HW136335   1.096   1.751  15.068  0.7616  1.0502 -0.0966
 8234SOL    HW236336   1.048   1.618  15.047 -0.5760  0.1205  0.6433
 8235SOL     OW36337   1.971   3.791   3.599 -0.2754 -0.3706 -0.5114
 8235SOL    HW136338   2.046   3.739   3.571 -1.1762 -1.6037 -0.6497
 8235SOL    HW236339   1.922   3.804   3.518 -1.5066  0.3953  0.3393
 8236SOL     OW36340   2.770   3.356   3.730  0.2839 -0.0963  0.5092
 8236SOL    HW136341   2.760   3.327   3.640 -1.0508 -1.2436  1.0202
 8236SOL    HW236342   2.757   3.451   3.724  4.0410  0.3926  0.1860
 8237SOL     OW36343   1.243   4.087  15.803 -0.1948  0.0492 -0.6530
 8237SOL    HW136344   1.211   4.133  15.726 -1.8326 -0.3229 -0.1907
 8237SOL    HW236345   1.172   4.023  15.812  0.4248 -0.5470  0.0475
 8238SOL     OW36346   3.607   3.043  12.431  0.0051 -0.6031 -0.1702
 8238SOL    HW136347   3.520   3.078  12.451  0.9997  1.6267  0.3101
 8238SOL    HW236348   3.658   3.123  12.418  1.7112 -1.3887  1.6817
 8239SOL     OW36349   0.199   1.740   9.261 -0.4783 -0.2759 -0.2519
 8239SOL    HW136350   0.144   1.697   9.325  0.8132  0.1362  1.1333
 8239SOL    HW236351   0.249   1.795   9.321  3.7739 -1.6031 -2.5211
 8240SOL     OW36352   3.610   4.546  16.640  0.1546 -0.1261  0.0402
 8240SOL    HW136353   3.583   4.618  16.696 -4.0384  0.5116 -2.7758
 8240SOL    HW236354   3.531   4.548  16.584  0.0991 -0.3940  0.1084
 8241SOL     OW36355   3.299   0.116  16.930 -0.0796 -0.5938  0.3216
 8241SOL    HW136356   3.347   0.038  16.957 -2.1454 -1.5287  1.2547
 8241SOL    HW236357   3.210   0.084  16.921 -0.7560  0.5349  2.9928
 8242SOL     OW36358   2.271   2.457   7.601 -0.0210  0.5269 -0.5981
 8242SOL    HW136359   2.346   2.397   7.591 -1.3138 -1.3450  0.8537
 8242SOL    HW236360   2.276   2.478   7.694 -0.7196 -0.8583 -0.2404
 8243SOL     OW36361   3.175   0.265   7.473 -0.2145 -0.2699 -0.1895
 8243SOL    HW136362   3.202   0.195   7.532 -0.0325 -0.5452 -0.5993
 8243SOL    HW236363   3.079   0.257   7.478 -0.0850  0.0941  2.8026
 8244SOL     OW36364   0.013   1.439   5.399  0.1670  0.8900  0.9560
 8244SOL    HW136365   0.041   1.530   5.390  2.2407  0.0928 -0.9222
 8244SOL    HW236366   4.669   1.440   5.348  2.0230  0.6688 -2.0409
 8245SOL     OW36367   1.415   1.350   2.372 -0.1297 -0.5091  0.4456
 8245SOL    HW136368   1.500   1.373   2.334 -0.5449 -0.3415 -0.3888
 8245SOL    HW236369   1.438   1.257   2.383 -1.0059 -0.8396 -0.4831
 8246SOL     OW36370   0.262   2.500  16.780 -0.2330 -0.1958  0.1103
 8246SOL    HW136371   0.251   2.463  16.868  1.4652 -2.2993 -0.5709
 8246SOL    HW236372   0.267   2.592  16.809 -1.9938  0.1243 -0.6078
 8247SOL     OW36373   3.677   3.724   4.565 -0.6898  0.2279 -0.4353
 8247SOL    HW136374   3.618   3.795   4.539 -3.5435 -1.5411  1.2964
 8247SOL    HW236375   3.674   3.669   4.487  2.2835  0.0196 -0.3937
 8248SOL     OW36376   0.069   3.373   0.672 -0.8743 -0.4880 -0.4156
 8248SOL    HW136377   0.123   3.376   0.751 -0.7756  1.0033 -0.5448
 8248SOL    HW236378   0.138   3.395   0.609  0.9623 -0.1745  1.6790
 8249SOL     OW36379   3.757   1.220   7.770 -0.0716 -0.5689  0.2778
 8249SOL    HW136380   3.829   1.276   7.797 -1.2863  0.2905  1.7198
 8249SOL    HW236381   3.800   1.135   7.758  1.0033 -0.0918  0.7743
 8250SOL     OW36382   0.491   2.259   2.184 -0.2131  0.2971 -0.1170
 8250SOL    HW136383   0.550   2.196   2.141 -2.1771 -2.0542  0.6243
 8250SOL    HW236384   0.503   2.329   2.119 -1.1128  0.4482 -0.1175
 8251SOL     OW36385   1.525   4.696  16.964 -0.7694  0.1940  0.6011
 8251SOL    HW136386   1.583   4.619  16.969 -0.6421  0.2918  0.6350
 8251SOL    HW236387   1.501   4.688  16.871 -0.4477  0.7529  0.4688
 8252SOL     OW36388   0.775   0.622  11.577  0.9017 -0.1038  0.4047
 8252SOL    HW136389   0.793   0.597  11.668  2.3457 -0.2473  0.0816
 8252SOL    HW236390   0.790   0.542  11.526 -1.9789  0.6806 -1.5936
 8253SOL     OW36391   4.317   0.471   4.405 -0.2888 -0.0225  0.6838
 8253SOL    HW136392   4.317   0.501   4.314  0.3191 -0.4399  0.5504
 8253SOL    HW236393   4.292   0.553   4.449  1.1254 -0.1821  1.7857
 8254SOL     OW36394   4.483   3.153   4.890 -0.4223 -0.1538 -0.0443
 8254SOL    HW136395   4.512   3.077   4.839  2.2032  1.0623 -0.3944
 8254SOL    HW236396   4.391   3.129   4.899 -0.3107 -1.1364 -1.4761
 8255SOL     OW36397   2.078   2.062   8.790  0.2599 -0.0952 -0.3460
 8255SOL    HW136398   2.125   1.998   8.844 -2.0353 -0.5496  1.1311
 8255SOL    HW236399   2.130   2.140   8.809  1.1581 -0.4695 -1.2771
 8256SOL     OW36400   3.885   4.113  15.553  0.2018 -0.1045  0.2954
 8256SOL    HW136401   3.885   4.166  15.474  1.8040  0.2677  0.5458
 8256SOL    HW236402   3.875   4.179  15.622 -1.4300  0.5209 -0.5386
 8257SOL     OW36403   1.374   1.235   7.748 -0.4907  0.2932 -0.4947
 8257SOL    HW136404   1.365   1.318   7.794  1.7041 -1.0706  2.3666
 8257SOL    HW236405   1.450   1.252   7.693  1.1921  2.2204  2.3843
 8258SOL     OW36406   2.536   2.709   3.017 -0.3519  0.2624  0.2486
 8258SOL    HW136407   2.496   2.643   2.961 -0.2941  1.1472 -0.8241
 8258SOL    HW236408   2.475   2.783   3.024 -0.2894  0.5904 -2.7074
 8259SOL     OW36409   2.554   1.685   0.626 -0.1731 -0.3337  0.5278
 8259SOL    HW136410   2.570   1.705   0.718  0.4990  0.2122  0.2941
 8259SOL    HW236411   2.610   1.747   0.578 -2.0743  1.3005  0.4206
 8260SOL     OW36412   1.928   3.344   5.615  0.1971  1.1948 -0.0298
 8260SOL    HW136413   1.991   3.280   5.585 -1.9125 -0.5661 -0.7273
 8260SOL    HW236414   1.971   3.383   5.690 -3.8710  0.2043  2.8356
 8261SOL     OW36415   2.789   0.746   5.866 -0.1888  0.8476 -0.0577
 8261SOL    HW136416   2.840   0.808   5.919 -1.0096 -0.4314  2.2456
 8261SOL    HW236417   2.827   0.743   5.778  1.2059  1.9692  0.5130
 8262SOL     OW36418   4.024   2.314   3.571 -0.3923 -0.4418  0.2470
 8262SOL    HW136419   4.040   2.246   3.505  2.1207 -0.6742  1.0919
 8262SOL    HW236420   3.966   2.258   3.622  0.3782 -1.6091 -0.1463
 8263SOL     OW36421   2.937   3.199   9.197  0.3037  0.0560 -0.4415
 8263SOL    HW136422   2.931   3.128   9.133  0.4246  1.7382 -2.3154
 8263SOL    HW236423   2.980   3.265   9.142 -0.3474  0.8365 -0.0061
 8264SOL     OW36424   4.396   0.369   5.117  0.1673 -0.1718 -0.1450
 8264SOL    HW136425   4.454   0.330   5.182 -0.3588 -0.0799  0.3863
 8264SOL    HW236426   4.384   0.299   5.052 -1.6336 -0.8642  0.9270
 8265SOL     OW36427   4.372   3.343   7.188  0.4602 -0.6672  0.9379
 8265SOL    HW136428   4.450   3.307   7.146  0.3032  0.0612  0.0286
 8265SOL    HW236429   4.307   3.274   7.173 -0.2661  0.0946  0.5232
 8266SOL     OW36430   3.273   3.296   6.901  0.0544 -0.1006 -0.4629
 8266SOL    HW136431   3.303   3.294   6.811  0.0289 -4.9324 -0.3508
 8266SOL    HW236432   3.351   3.304   6.956  0.7857 -2.0019 -1.2329
 8267SOL     OW36433   2.802   0.987   7.865  0.1073  0.3632 -0.2765
 8267SOL    HW136434   2.895   0.988   7.846  0.3584  1.3444  1.0038
 8267SOL    HW236435   2.787   1.082   7.866  0.8189  0.4561  1.3504
 8268SOL     OW36436   2.352   3.556   1.025  0.3266  0.7312  0.6627
 8268SOL    HW136437   2.323   3.541   0.935 -0.4536 -0.9962  1.1851
 8268SOL    HW236438   2.285   3.610   1.067 -0.7359  1.5699 -2.1164
 8269SOL     OW36439   1.636   0.199  15.082 -0.0876  0.2708  0.0598
 8269SOL    HW136440   1.698   0.153  15.138 -2.0937 -1.6472  0.7229
 8269SOL    HW236441   1.552   0.172  15.120  0.8665 -2.0480  0.5110
 8270SOL     OW36442   3.602   0.410  17.436  0.6328  0.2002  0.1728
 8270SOL    HW136443   3.561   0.361  17.365  2.2493  0.6472 -1.0678
 8270SOL    HW236444   3.527   0.442  17.486  0.3778  0.7513 -0.5514
 8271SOL     OW36445   2.579   3.130   7.766  0.0147  0.3163  0.0306
 8271SOL    HW136446   2.531   3.185   7.705  2.1126  2.5765  0.4271
 8271SOL    HW236447   2.597   3.043   7.731  1.8017 -0.6694  3.3374
 8272SOL     OW36448   3.156   4.117   6.933  0.0613 -0.0250 -0.1099
 8272SOL    HW136449   3.242   4.153   6.952  0.8657 -1.9100 -0.1317
 8272SOL    HW236450   3.165   4.023   6.952 -1.2980  0.1620  1.4288
 8273SOL     OW36451   3.888   1.487  10.170 -0.0103 -0.4653  0.2114
 8273SOL    HW136452   3.840   1.558  10.127  0.3510  0.5132  1.4263
 8273SOL    HW236453   3.836   1.412  10.139 -1.7019  2.9226 -5.1328
 8274SOL     OW36454   0.874   3.118   3.970  0.1719  0.1898 -0.1863
 8274SOL    HW136455   0.960   3.150   3.996 -0.3054  1.1698  0.2114
 8274SOL    HW236456   0.862   3.042   4.028  2.6109  2.4990  3.3413
 8275SOL     OW36457   2.972   0.471  16.318  0.7457 -0.6310 -0.0906
 8275SOL    HW136458   3.046   0.496  16.373 -0.6025  0.6793  1.1228
 8275SOL    HW236459   2.946   0.388  16.357  0.8925 -1.8484 -2.5930
 8276SOL     OW36460   2.282   0.693   8.064 -0.2217  0.1159 -0.7200
 8276SOL    HW136461   2.252   0.751   7.994 -1.5989 -0.4437 -0.6017
 8276SOL    HW236462   2.302   0.754   8.135  0.4533 -0.5415 -0.3471
 8277SOL     OW36463   4.616   1.427  14.166 -0.4853  0.1318 -0.1796
 8277SOL    HW136464   4.599   1.353  14.108  0.2018 -0.1141 -0.0672
 8277SOL    HW236465   4.628   1.491  14.096  0.2629  1.2001  0.9264
 8278SOL     OW36466   3.527   0.582  15.576 -0.6151  0.1213 -0.0989
 8278SOL    HW136467   3.622   0.590  15.581 -0.8114  0.9596  2.1828
 8278SOL    HW236468   3.517   0.523  15.501 -1.5400  3.1971 -2.3720
 8279SOL     OW36469   4.327   3.841  12.792  0.0965  0.1716  0.1038
 8279SOL    HW136470   4.383   3.779  12.837 -0.5566  0.3360  1.1437
 8279SOL    HW236471   4.380   3.891  12.730 -0.8520  2.1736  0.9154
 8280SOL     OW36472   1.831   0.798   4.262  0.0368 -0.2701 -0.8072
 8280SOL    HW136473   1.863   0.751   4.339 -0.4252  0.9040  0.1017
 8280SOL    HW236474   1.877   0.881   4.274 -1.7691  1.0364 -2.7497
 8281SOL     OW36475   3.102   2.905   6.317  0.5896  0.1949  0.0894
 8281SOL    HW136476   3.028   2.964   6.305 -0.6628 -1.0025  2.0012
 8281SOL    HW236477   3.113   2.888   6.411  0.8319  0.7174  0.1530
 8282SOL     OW36478   1.817   0.908  13.418 -0.0662 -0.1114  0.4499
 8282SOL    HW136479   1.837   0.815  13.407 -0.3571 -0.1670  0.3748
 8282SOL    HW236480   1.747   0.919  13.353  1.6472  3.8176 -0.7608
 8283SOL     OW36481   4.407   0.740   9.762  0.2146  0.1854 -0.0882
 8283SOL    HW136482   4.445   0.813   9.713  0.6503  0.3555  0.4978
 8283SOL    HW236483   4.490   0.701   9.789  1.3811  0.6899 -2.9910
 8284SOL     OW36484   3.348   1.991   2.506  0.9563  0.3378  0.2321
 8284SOL    HW136485   3.417   1.926   2.494  0.6430  0.4162 -2.0048
 8284SOL    HW236486   3.272   1.959   2.457 -1.6375  1.7565  3.2925
 8285SOL     OW36487   3.238   1.615   2.542 -0.0269  0.9588  0.6052
 8285SOL    HW136488   3.288   1.608   2.460  0.9863 -0.2342  1.3274
 8285SOL    HW236489   3.298   1.648   2.610  0.4381 -1.7826  1.5116
 8286SOL     OW36490   0.232   3.876   1.704  0.0847  0.0164 -0.0117
 8286SOL    HW136491   0.289   3.823   1.759 -0.8373 -2.2846 -1.2413
 8286SOL    HW236492   0.147   3.855   1.743 -0.9400  0.0379 -2.2129
 8287SOL     OW36493   4.043   1.077   9.556 -0.3809 -0.2130  0.5004
 8287SOL    HW136494   4.113   1.142   9.563 -0.1361 -0.4871  0.5986
 8287SOL    HW236495   3.984   1.091   9.630 -0.6415 -0.3260  0.3172
 8288SOL     OW36496   0.471   2.309   4.062 -0.0605 -0.2343 -0.3188
 8288SOL    HW136497   0.559   2.299   4.100 -0.1341  0.4566  0.0161
 8288SOL    HW236498   0.478   2.249   3.987  1.8232  0.2853 -0.5699
 8289SOL     OW36499   1.146   0.802   3.727 -0.7986  0.3699 -0.2208
 8289SOL    HW136500   1.169   0.737   3.793  0.6570  0.3295 -0.7621
 8289SOL    HW236501   1.217   0.865   3.735  0.0346 -0.3936 -1.5107
 8290SOL     OW36502   0.181   1.140   8.799 -0.1528 -0.3418 -0.1443
 8290SOL    HW136503   0.203   1.205   8.732  0.3655 -0.9055 -0.5131
 8290SOL    HW236504   0.170   1.054   8.759  0.1430 -0.3822 -0.1393
 8291SOL     OW36505   2.923   4.549   5.723 -0.8062 -0.1691 -0.3127
 8291SOL    HW136506   2.937   4.620   5.785 -1.5736  1.8559 -2.4735
 8291SOL    HW236507   2.905   4.595   5.641 -0.4439 -0.3626 -0.5043
 8292SOL     OW36508   1.815   3.149   7.063  0.4393 -0.4594 -0.7279
 8292SOL    HW136509   1.724   3.172   7.043 -0.4374 -3.3415 -0.0253
 8292SOL    HW236510   1.810   3.134   7.157  1.4305  0.1278 -0.5855
 8293SOL     OW36511   4.160   1.007   3.007  0.3752 -0.4454 -0.1847
 8293SOL    HW136512   4.223   1.004   2.934 -1.5535  0.1353 -1.8711
 8293SOL    HW236513   4.113   0.928   2.982  0.7441 -1.4485  2.3025
 8294SOL     OW36514   4.714   0.717   5.187  0.4324 -0.2457 -0.1856
 8294SOL    HW136515   4.643   0.654   5.199  1.2460 -1.2799 -0.7999
 8294SOL    HW236516   0.055   0.685   5.233  1.4125  1.1585 -0.8768
 8295SOL     OW36517   2.469   0.542  15.833  0.4863  0.2467  0.4093
 8295SOL    HW136518   2.457   0.542  15.738 -3.0979 -0.2973  0.8410
 8295SOL    HW236519   2.546   0.598  15.842  0.8622  0.0915 -1.9221
 8296SOL     OW36520   1.547   0.541  13.379  0.1013  0.0785 -0.2882
 8296SOL    HW136521   1.606   0.522  13.452 -0.2824 -2.1894 -0.5666
 8296SOL    HW236522   1.560   0.468  13.319  0.3235  0.2179 -0.4090
 8297SOL     OW36523   3.719   2.647   3.053 -0.0024 -0.5292 -0.4394
 8297SOL    HW136524   3.800   2.678   3.011  0.3515  1.5416  1.8392
 8297SOL    HW236525   3.695   2.581   2.987 -4.1382 -0.5885  1.1447
 8298SOL     OW36526   2.450   4.095  14.381 -0.1004 -0.8540  0.5500
 8298SOL    HW136527   2.518   4.138  14.328 -2.3426  3.1918  0.9365
 8298SOL    HW236528   2.404   4.169  14.422  0.5900 -1.0985  1.7672
 8299SOL     OW36529   3.935   2.379   6.685 -0.1625  0.0368  0.1326
 8299SOL    HW136530   3.852   2.353   6.724 -0.2317  1.7339  1.1280
 8299SOL    HW236531   3.994   2.344   6.752 -0.2454  3.2853  1.9114
 8300SOL     OW36532   3.759   1.197   2.075 -0.3159  0.2286 -0.2779
 8300SOL    HW136533   3.795   1.132   2.014  0.0882 -1.4807  1.7875
 8300SOL    HW236534   3.709   1.137   2.130  2.2650  0.2074  2.0252
 8301SOL     OW36535   3.397   2.632   5.443  0.4446 -0.8921  0.1606
 8301SOL    HW136536   3.457   2.669   5.507 -0.0488 -0.7029  0.5161
 8301SOL    HW236537   3.434   2.655   5.358 -1.1955  3.2805  0.5767
 8302SOL     OW36538   1.866   0.617   8.986  0.7946  0.1696 -0.5958
 8302SOL    HW136539   1.878   0.548   9.051  2.6895  1.7835  0.7456
 8302SOL    HW236540   1.915   0.580   8.912  0.3325 -1.3687 -0.1405
 8303SOL     OW36541   2.430   4.700  12.884 -0.3141  0.5663  0.2709
 8303SOL    HW136542   2.497   4.693  12.815 -1.5202 -0.0865 -0.8329
 8303SOL    HW236543   2.374   0.027  12.841  1.7702  0.4017 -2.7059
 8304SOL     OW36544   2.406   1.832   2.592  0.1129  0.2441 -0.1666
 8304SOL    HW136545   2.472   1.813   2.659 -0.4572  1.0113  0.6035
 8304SOL    HW236546   2.462   1.835   2.514 -0.1587 -1.7047 -0.4385
 8305SOL     OW36547   4.192   2.647  14.289  0.3720 -0.2003  0.2197
 8305SOL    HW136548   4.137   2.635  14.366  2.4083  1.0626  1.8609
 8305SOL    HW236549   4.219   2.739  14.294  0.3925 -0.2473  0.8916
 8306SOL     OW36550   4.408   3.040   6.491  0.2674 -0.3922  0.8918
 8306SOL    HW136551   4.322   2.997   6.493 -0.1369  0.4084  1.1651
 8306SOL    HW236552   4.465   2.978   6.447 -1.8030 -0.3439 -1.8668
 8307SOL     OW36553   2.383   2.204  15.013 -0.1562 -0.3716  0.4781
 8307SOL    HW136554   2.443   2.274  15.038  1.0098 -0.9185 -0.7672
 8307SOL    HW236555   2.438   2.155  14.952 -3.0222 -0.6747 -1.8891
 8308SOL     OW36556   0.446   0.452  16.221 -0.2844 -0.6760  0.5006
 8308SOL    HW136557   0.497   0.522  16.181 -1.9232  1.0749  1.4857
 8308SOL    HW236558   0.513   0.419  16.281 -0.3111 -0.7407  0.4948
 8309SOL     OW36559   0.571   0.490   0.737 -0.0776  0.5643  0.1820
 8309SOL    HW136560   0.632   0.544   0.788 -0.6662  0.6233  0.8321
 8309SOL    HW236561   0.547   0.555   0.671  0.2225  0.5986  0.1094
 8310SOL     OW36562   1.588   3.957   6.479  0.1734 -0.0434 -0.1814
 8310SOL    HW136563   1.540   3.965   6.397 -0.0420  0.9071  0.0407
 8310SOL    HW236564   1.677   3.980   6.453  0.0601  0.0575 -0.4700
 8311SOL     OW36565   0.026   4.229   8.370  0.4404 -0.1926  0.4910
 8311SOL    HW136566   4.670   4.221   8.347  0.0968 -1.8663  2.4328
 8311SOL    HW236567   0.024   4.298   8.437  0.3298 -0.2168  0.5137
 8312SOL     OW36568   1.930   3.055  15.718 -0.3859  0.3307 -0.1360
 8312SOL    HW136569   1.966   3.141  15.697 -1.9306  1.0140 -0.0017
 8312SOL    HW236570   1.858   3.074  15.778  0.6187 -1.1206  1.4984
 8313SOL     OW36571   2.783   2.281   9.378  0.3294 -0.0297 -0.0750
 8313SOL    HW136572   2.727   2.359   9.378 -0.3038 -0.5090 -1.8782
 8313SOL    HW236573   2.735   2.224   9.438  0.3844 -0.6698 -0.6517
 8314SOL     OW36574   2.618   4.185   0.269 -0.1330  0.6964 -0.4132
 8314SOL    HW136575   2.553   4.123   0.302 -0.1480  0.9869  0.1119
 8314SOL    HW236576   2.645   4.241   0.342 -1.4700 -0.4594  0.9754
 8315SOL     OW36577   0.379   4.518   9.393  0.0694 -0.4808 -0.4060
 8315SOL    HW136578   0.293   4.532   9.355 -0.2910  1.1865  0.9792
 8315SOL    HW236579   0.434   4.499   9.317  1.9138 -0.8614  1.0302
 8316SOL     OW36580   0.233   2.982  11.363 -0.5443  0.0071  0.5007
 8316SOL    HW136581   0.175   2.930  11.307 -2.1979  1.9758  0.3799
 8316SOL    HW236582   0.182   3.062  11.376 -0.5889 -0.1298  1.1706
 8317SOL     OW36583   4.212   0.986   6.795  0.4007 -0.9744  0.7202
 8317SOL    HW136584   4.169   0.902   6.811  3.0425 -2.9534 -2.4159
 8317SOL    HW236585   4.272   0.995   6.869 -1.1550 -0.0695  1.8576
 8318SOL     OW36586   4.393   2.215   6.120  0.2854 -0.1959  0.1372
 8318SOL    HW136587   4.453   2.256   6.183  0.3361 -0.8495  0.5208
 8318SOL    HW236588   4.437   2.132   6.098  1.3631 -0.2820  2.5875
 8319SOL     OW36589   1.027   3.064   1.351  0.1960 -0.2015  0.2821
 8319SOL    HW136590   1.037   3.022   1.436  1.7700 -1.3509 -0.4756
 8319SOL    HW236591   1.061   3.153   1.359 -0.9603  0.1029  1.7684
 8320SOL     OW36592   1.911   4.695  10.295  0.3644 -0.1756  0.0526
 8320SOL    HW136593   1.982   4.735  10.345  1.7686 -2.2333 -0.2945
 8320SOL    HW236594   1.836   0.016  10.310 -0.3346 -1.3584  1.1305
 8321SOL     OW36595   3.323   0.063  16.169 -0.1612 -0.5284 -0.0824
 8321SOL    HW136596   3.337   0.050  16.263  0.6369 -0.7252 -0.2240
 8321SOL    HW236597   3.282   0.149  16.176  1.6495  0.2295  1.4601
 8322SOL     OW36598   0.202   3.052   5.152  0.1108  0.4216 -0.1666
 8322SOL    HW136599   0.166   2.989   5.089 -1.3004 -0.4016  1.4588
 8322SOL    HW236600   0.151   3.127   5.121  3.0381  2.5980  0.3190
 8323SOL     OW36601   4.553   1.264   4.362 -0.0070 -0.0005  0.1345
 8323SOL    HW136602   4.611   1.190   4.346 -0.7294 -0.3790 -0.7249
 8323SOL    HW236603   4.489   1.264   4.291  1.6890  0.0474 -1.3888
 8324SOL     OW36604   4.152   3.426   2.117 -0.2035  0.2901 -0.3859
 8324SOL    HW136605   4.059   3.441   2.101 -0.3579  0.7868  0.9442
 8324SOL    HW236606   4.169   3.510   2.074  1.9235 -0.7146 -1.4799
 8325SOL     OW36607   4.552   4.073  15.436 -0.6603  0.2354 -0.5626
 8325SOL    HW136608   4.473   4.091  15.487 -0.3213 -0.4591  0.2073
 8325SOL    HW236609   4.623   4.111  15.488 -1.0889  1.1143 -0.6246
 8326SOL     OW36610   0.457   2.785   0.010 -0.2467  0.0245  0.4613
 8326SOL    HW136611   0.419   2.792  17.667 -1.9788  0.9288  1.2669
 8326SOL    HW236612   0.546   2.811  17.733 -0.8741  0.8837 -1.0088
 8327SOL     OW36613   0.014   1.094   5.281 -0.1611 -0.5490  0.8996
 8327SOL    HW136614   4.679   1.117   5.224 -1.3682 -3.6227  1.1525
 8327SOL    HW236615   4.715   1.037   5.349  1.0875 -0.1383  1.8972
 8328SOL     OW36616   0.216   3.530   6.304  0.1743 -0.9527  0.1871
 8328SOL    HW136617   0.306   3.560   6.315 -0.2406  0.7458 -1.1732
 8328SOL    HW236618   0.181   3.612   6.270 -0.5344  0.1296  3.4690
 8329SOL     OW36619   3.062   1.895   5.400 -0.5419  0.1153  0.2329
 8329SOL    HW136620   3.019   1.905   5.485 -0.1407  0.3495  0.4099
 8329SOL    HW236621   2.999   1.939   5.343 -0.1955 -0.6983 -0.7910
 8330SOL     OW36622   0.541   0.694   7.018  0.2174 -0.3050 -0.1174
 8330SOL    HW136623   0.549   0.772   7.074  2.7764 -0.1291 -0.7278
 8330SOL    HW236624   0.631   0.660   7.018  0.1759 -0.4134  0.1280
 8331SOL     OW36625   0.586   1.964   5.137  0.1355  0.0109 -0.3239
 8331SOL    HW136626   0.520   1.896   5.123 -0.5522 -0.4002  4.7831
 8331SOL    HW236627   0.612   1.978   5.046 -0.0217  1.7744 -0.1014
 8332SOL     OW36628   2.578   0.483  16.850 -0.2591  0.1000  0.5022
 8332SOL    HW136629   2.601   0.502  16.759 -2.0939  0.8333  0.2005
 8332SOL    HW236630   2.670   0.483  16.878 -0.2566 -1.0789  0.4911
 8333SOL     OW36631   2.538   3.295  14.122 -0.3853  0.2305 -1.2972
 8333SOL    HW136632   2.485   3.295  14.043 -3.8086  0.5519  0.9825
 8333SOL    HW236633   2.526   3.204  14.152  0.3816  0.4850 -0.2046
 8334SOL     OW36634   1.592   0.307   8.399 -0.2044  0.5214  0.0110
 8334SOL    HW136635   1.653   0.251   8.447 -1.0777 -0.6083 -0.1995
 8334SOL    HW236636   1.591   0.278   8.308  2.8112  3.2704 -0.9058
 8335SOL     OW36637   2.794   4.647  17.278 -0.7165 -0.0042 -0.7411
 8335SOL    HW136638   2.734   4.586  17.237 -0.4920 -0.3119 -0.6122
 8335SOL    HW236639   2.749   4.728  17.256 -0.4990 -0.2461 -2.0352
 8336SOL     OW36640   3.081   0.657   9.763 -0.5784 -0.4082  0.1350
 8336SOL    HW136641   3.165   0.614   9.750  0.9631  1.5584  3.5600
 8336SOL    HW236642   3.081   0.716   9.688  0.3650  0.0030  0.4550
 8337SOL     OW36643   3.248   4.340   7.300 -0.2095 -0.4433  0.1467
 8337SOL    HW136644   3.259   4.426   7.340 -0.9742  1.0117 -2.7879
 8337SOL    HW236645   3.332   4.305   7.328  0.3965  0.2107 -0.8484
 8338SOL     OW36646   2.180   3.830   7.625  0.0374 -0.6292 -0.3479
 8338SOL    HW136647   2.224   3.833   7.540  1.8427  0.0623  0.6365
 8338SOL    HW236648   2.128   3.910   7.617 -0.1594 -0.9784 -2.6354
 8339SOL     OW36649   0.558   3.143   2.487 -0.3701 -0.2664  0.2347
 8339SOL    HW136650   0.610   3.105   2.417  0.9022 -0.0147  1.0384
 8339SOL    HW236651   0.540   3.073   2.550 -1.1094  0.1868  0.5232
 8340SOL     OW36652   0.539   3.049   2.919 -0.0984  0.1987 -0.5128
 8340SOL    HW136653   0.575   3.026   3.005  1.2519 -0.2857 -1.2166
 8340SOL    HW236654   0.449   3.077   2.939  0.2056  0.9839 -0.2304
 8341SOL     OW36655   3.054   2.765   8.421  0.7487  0.1325 -0.4448
 8341SOL    HW136656   3.053   2.738   8.329 -0.4776  0.0785 -0.4088
 8341SOL    HW236657   3.054   2.677   8.458  1.9724 -0.3451 -1.5520
 8342SOL     OW36658   0.714   0.485   2.433  0.3520 -0.2748  0.9880
 8342SOL    HW136659   0.756   0.557   2.481 -1.1681  1.1565  0.1350
 8342SOL    HW236660   0.782   0.421   2.452  0.2688 -0.9854 -1.1792
 8343SOL     OW36661   1.051   3.472   7.212  0.0995 -0.0344 -0.2693
 8343SOL    HW136662   1.105   3.425   7.276 -1.7113 -0.8930  0.6282
 8343SOL    HW236663   1.006   3.533   7.270  0.8286  0.1366  0.1094
 8344SOL     OW36664   2.308   3.406  10.823 -0.3309  0.0022  0.4016
 8344SOL    HW136665   2.303   3.491  10.779 -1.9375  1.5907  3.6761
 8344SOL    HW236666   2.335   3.355  10.747 -1.2561 -2.3086  1.6135
 8345SOL     OW36667   1.666   2.057  14.181 -0.2240 -0.0219  0.6635
 8345SOL    HW136668   1.728   2.080  14.113  0.0722 -1.9107  0.2914
 8345SOL    HW236669   1.684   1.963  14.193 -2.2398 -0.4926 -0.0131
 8346SOL     OW36670   3.169   4.538   8.495 -0.4079  0.1743 -0.3647
 8346SOL    HW136671   3.196   4.586   8.574  3.0460 -1.7245 -0.3871
 8346SOL    HW236672   3.089   4.500   8.531 -1.6296  2.5704 -0.5202
 8347SOL     OW36673   3.293   4.018   3.634  0.1388 -0.2338 -0.2917
 8347SOL    HW136674   3.268   4.071   3.709 -0.6451 -0.5554 -0.3221
 8347SOL    HW236675   3.293   4.085   3.566  2.0115  1.2932  1.2518
 8348SOL     OW36676   4.393   0.828  15.324 -0.5262  0.1746  0.8841
 8348SOL    HW136677   4.437   0.912  15.323 -1.0880  0.4316 -3.1040
 8348SOL    HW236678   4.459   0.762  15.302 -0.1693  1.5160 -2.0775
 8349SOL     OW36679   0.188   4.284  11.811 -0.0102  0.3909 -0.2505
 8349SOL    HW136680   0.248   4.317  11.744  1.7249  0.6801  1.4481
 8349SOL    HW236681   0.118   4.235  11.768 -0.0655  2.0373 -2.0599
 8350SOL     OW36682   3.488   2.004   5.434 -0.3571  0.0211  0.1797
 8350SOL    HW136683   3.544   2.079   5.417  1.7193 -1.4003  0.6712
 8350SOL    HW236684   3.474   2.011   5.529 -1.2754  3.0949 -0.1964
 8351SOL     OW36685   3.839   1.910   6.721  0.2870 -0.3913  0.4545
 8351SOL    HW136686   3.856   1.842   6.655  0.0525  0.3422 -0.3609
 8351SOL    HW236687   3.836   1.854   6.799  0.9920 -0.9681  0.0670
 8352SOL     OW36688   0.267   3.976  10.044 -0.1203  0.2155  0.2246
 8352SOL    HW136689   0.287   3.916  10.116 -0.9887  0.7969  0.9572
 8352SOL    HW236690   0.356   4.001  10.019 -0.2743 -0.5929 -1.1175
 8353SOL     OW36691   4.629   3.060   7.345  0.3119  0.5133  0.4705
 8353SOL    HW136692   4.668   2.977   7.373  0.1654  0.1096 -0.5395
 8353SOL    HW236693   4.539   3.029   7.331 -0.1505  1.6773  0.8899
 8354SOL     OW36694   0.699   3.157  15.985  0.5821 -0.4303 -0.6152
 8354SOL    HW136695   0.664   3.138  16.072 -1.4689 -1.1139 -1.5913
 8354SOL    HW236696   0.774   3.099  15.971  0.8387  0.3603 -2.5223
 8355SOL     OW36697   2.425   2.450   8.928  0.0058  0.3802 -0.3663
 8355SOL    HW136698   2.421   2.546   8.928 -1.7251  0.3240 -1.1685
 8355SOL    HW236699   2.515   2.436   8.954 -0.7847 -0.2150  2.0665
 8356SOL     OW36700   3.487   2.614   8.482 -0.1257  0.3692 -0.2179
 8356SOL    HW136701   3.509   2.653   8.567 -1.3374 -0.4401  0.4612
 8356SOL    HW236702   3.418   2.677   8.458  1.7431  1.8658 -1.6689
 8357SOL     OW36703   0.638   0.558   5.723 -1.4674 -0.4585 -1.2758
 8357SOL    HW136704   0.666   0.534   5.811 -1.7538 -0.3082 -1.1436
 8357SOL    HW236705   0.601   0.646   5.729 -0.0700  0.0168  0.2364
 8358SOL     OW36706   3.983   2.887  16.235 -0.3085 -1.0358  0.3741
 8358SOL    HW136707   4.033   2.867  16.314  1.3512  0.7781 -0.2097
 8358SOL    HW236708   3.999   2.981  16.236 -0.1140 -1.0439 -2.1214
 8359SOL     OW36709   1.198   2.227  17.352 -0.0230  0.4012  0.8178
 8359SOL    HW136710   1.103   2.226  17.336  0.0617  1.7151  0.2277
 8359SOL    HW236711   1.219   2.256  17.263  2.4582 -1.6875  0.7342
 8360SOL     OW36712   1.625   1.565   2.517  0.1102 -0.3046 -0.4245
 8360SOL    HW136713   1.630   1.523   2.431 -0.6022  3.4765 -2.3142
 8360SOL    HW236714   1.611   1.655   2.488  1.2396 -0.0210 -0.0998
 8361SOL     OW36715   4.715   0.687   8.082  0.0690  0.0697 -0.0936
 8361SOL    HW136716   0.043   0.747   8.044  0.0475  1.0857  1.4896
 8361SOL    HW236717   0.035   0.651   8.150  0.2337  0.5512  0.0204
 8362SOL     OW36718   0.618   2.908  14.455 -0.0631 -0.9148  0.2500
 8362SOL    HW136719   0.531   2.902  14.416 -0.1038  1.0150  0.0253
 8362SOL    HW236720   0.618   2.999  14.486 -0.3099 -0.6314 -0.5648
 8363SOL     OW36721   2.018   0.008   6.137  0.3511 -0.5881 -0.3848
 8363SOL    HW136722   2.001   4.668   6.082  0.2857 -0.1845 -0.9296
 8363SOL    HW236723   2.104   4.718   6.170  0.4053 -1.6423 -1.3551
 8364SOL     OW36724   1.878   1.527   8.185  0.1689 -0.0802 -0.2867
 8364SOL    HW136725   1.835   1.609   8.206 -0.0708 -0.1524 -0.4985
 8364SOL    HW236726   1.967   1.557   8.204  0.2681 -1.1274  0.9016
 8365SOL     OW36727   0.182   1.785   6.887  0.0444 -0.2807 -0.0084
 8365SOL    HW136728   0.133   1.855   6.931  2.1024 -0.0187  1.8620
 8365SOL    HW236729   0.272   1.814   6.904 -0.1493 -0.9072  2.0826
 8366SOL     OW36730   3.206   4.568   0.335  0.3932 -0.4604 -0.2884
 8366SOL    HW136731   3.139   4.500   0.346 -2.5746  2.8118  1.7754
 8366SOL    HW236732   3.267   4.553   0.407  0.1425  0.3221  0.0833
 8367SOL     OW36733   0.333   2.998   9.181 -0.0383  0.1848  0.5995
 8367SOL    HW136734   0.335   3.088   9.215  1.3554  0.0048  0.9754
 8367SOL    HW236735   0.426   2.990   9.162  0.0750 -0.8044  1.5876
 8368SOL     OW36736   3.394   3.710  10.050  0.2443  0.0331  0.5632
 8368SOL    HW136737   3.299   3.713  10.064  0.2307  3.6429 -0.3141
 8368SOL    HW236738   3.387   3.642   9.983 -0.6732  1.2833 -0.5978
 8369SOL     OW36739   3.133   1.252   2.923  0.0612 -0.4466  0.5739
 8369SOL    HW136740   3.111   1.295   2.840  1.3922  2.4896  1.7379
 8369SOL    HW236741   3.181   1.316   2.975 -1.0239  0.4938  0.3980
 8370SOL     OW36742   4.132   0.690   6.545 -0.3448  0.5953  0.2119
 8370SOL    HW136743   4.215   0.643   6.534 -0.0253  0.7771  1.8218
 8370SOL    HW236744   4.080   0.664   6.468 -0.0516  0.9115 -0.0916
 8371SOL     OW36745   0.859   3.760   5.434  0.3103  0.0415 -0.2726
 8371SOL    HW136746   0.868   3.721   5.521  0.9208 -1.1679 -0.8796
 8371SOL    HW236747   0.858   3.851   5.463  0.4434  0.2977 -1.0742
 8372SOL     OW36748   4.246   2.749  11.656  0.2862  0.4393 -0.1483
 8372SOL    HW136749   4.218   2.745  11.565  1.1490 -1.1124 -0.3458
 8372SOL    HW236750   4.209   2.666  11.688  0.9860 -0.2971 -1.2361
 8373SOL     OW36751   4.143   2.235  12.259 -0.1874 -0.0539 -0.1136
 8373SOL    HW136752   4.092   2.162  12.224  1.9075 -0.9403 -1.2830
 8373SOL    HW236753   4.229   2.194  12.275 -0.2057  0.1526  0.5390
 8374SOL     OW36754   3.776   1.854   7.254  0.9582 -0.1291  0.2219
 8374SOL    HW136755   3.687   1.819   7.250  0.9057  0.0776 -0.4784
 8374SOL    HW236756   3.821   1.790   7.199  0.8591 -1.5348  1.7952
 8375SOL     OW36757   2.591   4.476   3.797 -0.3160  0.6064 -0.3677
 8375SOL    HW136758   2.497   4.481   3.780 -0.4815 -1.1616  0.0460
 8375SOL    HW236759   2.612   4.392   3.757 -0.9357 -0.3190  1.2439
 8376SOL     OW36760   0.037   0.367  17.719  0.3054 -0.6633 -0.6964
 8376SOL    HW136761   0.076   0.281  17.735 -2.8178 -1.6388  1.8288
 8376SOL    HW236762   0.101   0.431   0.004  0.4079 -0.1920 -1.9446
 8377SOL     OW36763   3.403   0.830   2.408 -0.0709  0.5700  0.0331
 8377SOL    HW136764   3.354   0.911   2.418 -0.6270  0.2712 -0.2874
 8377SOL    HW236765   3.358   0.764   2.355  4.6006 -0.7411 -2.3768
 8378SOL     OW36766   3.882   2.912   4.349 -0.1185 -0.1128 -0.2695
 8378SOL    HW136767   3.794   2.890   4.378  0.2831 -2.0113 -0.4858
 8378SOL    HW236768   3.861   2.963   4.271 -2.5194  0.2876  0.6440
 8379SOL     OW36769   2.632   1.486  12.144 -0.3645  0.3288 -0.0771
 8379SOL    HW136770   2.695   1.481  12.216 -5.1339  0.3961  4.1246
 8379SOL    HW236771   2.567   1.545  12.183  0.5461  0.6789  0.9037
 8380SOL     OW36772   1.184   3.717   6.191 -0.3073  0.3922  0.2687
 8380SOL    HW136773   1.249   3.782   6.167  0.5737 -0.0038  1.6026
 8380SOL    HW236774   1.213   3.698   6.280  4.2950 -0.1324 -1.3297
 8381SOL     OW36775   3.686   1.925  12.853 -0.3792 -0.3625  0.1135
 8381SOL    HW136776   3.776   1.906  12.828  0.2634 -0.5705  2.5760
 8381SOL    HW236777   3.661   1.849  12.906 -0.0731  1.1030  2.3432
 8382SOL     OW36778   3.116   1.546  12.964  0.4978 -0.7831  0.7453
 8382SOL    HW136779   3.148   1.456  12.962  1.2658 -0.5391  2.0543
 8382SOL    HW236780   3.189   1.588  13.011  0.0304  0.2435  0.5679
 8383SOL     OW36781   2.600   4.599  15.544  0.1055  0.1922  0.3138
 8383SOL    HW136782   2.587   4.512  15.507  3.3191  0.4681 -1.4614
 8383SOL    HW236783   2.554   4.661  15.487  2.2114  1.9274  0.5084
 8384SOL     OW36784   2.132   1.810   7.468 -0.6442  0.3846  0.2883
 8384SOL    HW136785   2.083   1.765   7.399 -1.2031 -0.4489  1.2382
 8384SOL    HW236786   2.090   1.775   7.546  0.2671 -1.5913 -0.1235
 8385SOL     OW36787   0.922   0.101  13.105  0.1480  0.4993 -0.0301
 8385SOL    HW136788   0.911   0.175  13.165 -0.8040  0.5261 -0.2448
 8385SOL    HW236789   0.859   0.039  13.141 -1.6684  0.7190 -2.8013
 8386SOL     OW36790   0.767   0.752  15.436  0.5042 -0.0471  0.5366
 8386SOL    HW136791   0.808   0.729  15.519  1.2934  1.5854  0.5972
 8386SOL    HW236792   0.741   0.665  15.406 -1.3095  1.0933 -1.2035
 8387SOL     OW36793   4.215   4.428  12.017  0.2876  0.5343  0.4402
 8387SOL    HW136794   4.220   4.523  12.015 -0.6448  0.5240 -2.3260
 8387SOL    HW236795   4.304   4.405  12.043 -0.6301 -3.0156  0.5469
 8388SOL     OW36796   1.275   0.679   4.219  0.2020 -0.2913  0.3640
 8388SOL    HW136797   1.276   0.613   4.289 -0.7845 -2.1664 -1.3802
 8388SOL    HW236798   1.352   0.732   4.235  0.3326  0.1051 -1.6818
 8389SOL     OW36799   1.880   0.139   8.951 -0.5745 -0.1676 -0.1947
 8389SOL    HW136800   1.960   0.088   8.935  0.8969  1.6242  1.4400
 8389SOL    HW236801   1.900   0.216   8.896 -0.9112 -1.3265 -1.9392
 8390SOL     OW36802   0.562   3.103  17.711 -0.4613 -0.1518 -0.0595
 8390SOL    HW136803   0.583   3.093  17.618  0.7168  1.4819  0.0344
 8390SOL    HW236804   0.473   3.138  17.707 -0.3818 -0.0236 -0.6957
 8391SOL     OW36805   1.135   1.256   6.711  0.3738  0.7185 -0.6900
 8391SOL    HW136806   1.224   1.285   6.728  0.8373  0.0242 -1.9449
 8391SOL    HW236807   1.139   1.264   6.616 -0.1877  0.1574 -0.7658
 8392SOL     OW36808   2.483   1.816   8.554 -0.4051 -0.1544 -0.3824
 8392SOL    HW136809   2.516   1.735   8.591  1.4245  1.2504  1.0659
 8392SOL    HW236810   2.411   1.820   8.615  0.1848  0.3980  0.2775
 8393SOL     OW36811   1.290   0.027  17.029 -0.0982 -0.6226 -1.0514
 8393SOL    HW136812   1.303   0.101  17.090  0.0182 -1.7316  0.2735
 8393SOL    HW236813   1.379   4.729  17.033  0.1158 -0.0024 -0.1722
 8394SOL     OW36814   0.279   2.220  15.086  0.0176 -0.6807 -0.0434
 8394SOL    HW136815   0.341   2.261  15.147 -0.2529 -0.0581 -0.1810
 8394SOL    HW236816   0.282   2.128  15.112  0.9254 -0.4178  0.7651
 8395SOL     OW36817   4.659   4.480   6.656 -0.0925  0.4506 -0.0808
 8395SOL    HW136818   4.573   4.467   6.618  0.5072 -2.0537 -0.5718
 8395SOL    HW236819   4.714   4.508   6.583  0.1776  0.3181  0.0698
 8396SOL     OW36820   3.281   3.628  13.539  0.4054  0.8131 -0.2620
 8396SOL    HW136821   3.342   3.565  13.501 -0.5249 -1.2341  1.5937
 8396SOL    HW236822   3.297   3.629  13.634 -0.2470 -4.1924 -0.0927
 8397SOL     OW36823   4.714   4.431   8.536  0.4071  0.3199 -0.0051
 8397SOL    HW136824   0.021   4.496   8.591  0.2805  1.1737 -0.9085
 8397SOL    HW236825   4.658   4.487   8.481 -1.2954 -2.0486 -0.6751
 8398SOL     OW36826   3.040   0.811   2.557  0.1716 -0.3880  0.1185
 8398SOL    HW136827   3.101   0.784   2.626 -0.4865 -0.9378  0.4879
 8398SOL    HW236828   3.085   0.887   2.520  0.3833  0.0018  1.1916
 8399SOL     OW36829   0.356   4.123   7.186 -0.1436  0.5241  0.1569
 8399SOL    HW136830   0.403   4.150   7.264  0.4996 -0.0143 -0.0434
 8399SOL    HW236831   0.337   4.208   7.145  3.5401  1.4703  0.4382
 8400SOL     OW36832   4.352   2.501   3.930 -0.1160 -0.2498  0.7177
 8400SOL    HW136833   4.434   2.543   3.902 -1.0727  1.0630 -0.0741
 8400SOL    HW236834   4.285   2.532   3.869  0.9497 -0.1500 -0.4023
 8401SOL     OW36835   2.223   0.179  15.811 -0.1030 -0.4477 -0.1711
 8401SOL    HW136836   2.275   0.100  15.822  0.5004 -0.0476 -0.1756
 8401SOL    HW236837   2.285   0.229  15.758 -1.4671 -0.0265 -1.3848
 8402SOL     OW36838   2.531   1.301   2.162  0.1447 -0.0238 -0.1549
 8402SOL    HW136839   2.493   1.329   2.079 -0.7903  0.4098  0.4133
 8402SOL    HW236840   2.451   1.321   2.211 -0.5916 -1.8727 -0.6234
 8403SOL     OW36841   0.267   3.690  13.518  0.1487  0.0503 -0.0672
 8403SOL    HW136842   0.199   3.623  13.511 -0.5170  0.6875  0.3286
 8403SOL    HW236843   0.324   3.646  13.582 -0.7103 -0.8204  0.1133
 8404SOL     OW36844   1.553   4.146   7.376 -0.7023 -0.3383 -0.2095
 8404SOL    HW136845   1.503   4.165   7.297  0.4451  3.8277  0.0688
 8404SOL    HW236846   1.485   4.107   7.430 -0.7696 -2.2868 -1.7107
 8405SOL     OW36847   3.317   0.387  16.948 -0.3217 -0.9653  0.5530
 8405SOL    HW136848   3.246   0.406  17.009 -0.9830  1.1069 -0.8568
 8405SOL    HW236849   3.309   0.292  16.956  2.4552 -1.2276  0.1683
 8406SOL     OW36850   3.423   2.422   4.501 -0.0182  0.1356  0.0310
 8406SOL    HW136851   3.506   2.454   4.466  0.3520 -1.3930 -0.4785
 8406SOL    HW236852   3.386   2.393   4.417  5.7395  0.5624 -2.6445
 8407SOL     OW36853   3.604   3.032   6.611  0.2927  0.4343  0.2491
 8407SOL    HW136854   3.644   3.103   6.561  0.5446 -0.4172 -0.7682
 8407SOL    HW236855   3.642   2.956   6.566 -2.2308  0.3154 -1.6477
 8408SOL     OW36856   2.882   1.709   5.679  0.4609 -0.1294  0.0014
 8408SOL    HW136857   2.867   1.734   5.588 -0.3582  1.5294  0.5819
 8408SOL    HW236858   2.814   1.757   5.726  1.4901  0.8081  0.5449
 8409SOL     OW36859   1.828   0.597   5.007  0.0903 -0.5053 -0.6383
 8409SOL    HW136860   1.832   0.683   4.964 -0.5672 -1.0955 -1.9112
 8409SOL    HW236861   1.913   0.572   5.042  0.8186  1.0268 -1.3092
 8410SOL     OW36862   0.570   1.489   9.347 -0.3531 -0.5421 -0.2891
 8410SOL    HW136863   0.543   1.547   9.276  1.2224 -0.4963 -0.8685
 8410SOL    HW236864   0.485   1.489   9.391 -1.2518  1.0716 -2.0051
 8411SOL     OW36865   3.681   3.022   5.023 -0.0348  0.2382 -0.7043
 8411SOL    HW136866   3.627   2.947   4.997  1.0221 -0.6345 -0.3560
 8411SOL    HW236867   3.627   3.053   5.096 -0.1023  1.1661 -1.1442
 8412SOL     OW36868   4.224   3.446   6.179  0.1053 -0.4974 -0.0498
 8412SOL    HW136869   4.291   3.461   6.113 -0.1009 -0.7719 -0.3207
 8412SOL    HW236870   4.271   3.394   6.244  1.4917  3.0356  1.7718
 8413SOL     OW36871   4.519   3.443   8.413 -0.5805 -0.1329 -0.2978
 8413SOL    HW136872   4.548   3.418   8.500  1.5986  0.9558 -0.7030
 8413SOL    HW236873   4.578   3.518   8.405  1.9758 -1.9469  1.8164
 8414SOL     OW36874   2.262   2.401  10.076  0.4713  0.3289  0.2088
 8414SOL    HW136875   2.314   2.479  10.060  0.5648  0.5888  1.7836
 8414SOL    HW236876   2.326   2.332  10.055  0.5685  1.2951 -2.7502
 8415SOL     OW36877   4.006   4.593   7.314  0.2816 -0.1680  0.2915
 8415SOL    HW136878   3.944   4.662   7.288 -0.2890 -1.5703 -2.0446
 8415SOL    HW236879   4.039   4.584   7.225  1.1726  2.0484  0.3752
 8416SOL     OW36880   2.051   2.973  17.170 -0.2226 -0.5204  0.0677
 8416SOL    HW136881   2.140   2.981  17.203  0.8481 -0.9597 -2.7716
 8416SOL    HW236882   2.063   3.044  17.107  2.5932  0.6296  1.9251
 8417SOL     OW36883   0.946   2.375   0.086 -0.2513  0.4948  0.6181
 8417SOL    HW136884   0.951   2.305   0.020  1.3041  1.0230  0.1704
 8417SOL    HW236885   0.915   2.451   0.038 -0.4524 -1.2583 -2.0726
 8418SOL     OW36886   1.912   0.260   3.151 -0.3518  0.7010  0.0335
 8418SOL    HW136887   1.956   0.341   3.127  2.5089 -0.7964  0.2007
 8418SOL    HW236888   1.996   0.229   3.184 -0.3253  0.4847 -0.2383
 8419SOL     OW36889   3.604   3.833   9.760 -0.3507 -0.1763 -0.1467
 8419SOL    HW136890   3.671   3.842   9.691 -0.8365  0.3591 -0.5510
 8419SOL    HW236891   3.541   3.903   9.743 -0.5645 -0.1819  0.6149
 8420SOL     OW36892   0.325   2.322   8.892 -0.0398  0.1557 -0.5271
 8420SOL    HW136893   0.280   2.353   8.814 -3.1115 -1.2199  0.6824
 8420SOL    HW236894   0.251   2.298   8.948 -0.5307  1.3715 -0.6809
 8421SOL     OW36895   3.653   2.028   8.656  0.0013 -0.3704 -0.0054
 8421SOL    HW136896   3.745   2.000   8.653  0.3207  0.6418  0.3006
 8421SOL    HW236897   3.631   2.046   8.747  1.9398  1.3312  0.1189
 8422SOL     OW36898   1.352   2.102  14.565 -0.1674 -0.4268  0.4254
 8422SOL    HW136899   1.275   2.053  14.595 -3.0966  2.5460 -2.2277
 8422SOL    HW236900   1.317   2.185  14.532 -2.6989 -0.9120  1.9052
 8423SOL     OW36901   0.780   4.096   7.064  0.0857 -0.0260  0.2311
 8423SOL    HW136902   0.710   4.037   7.092 -0.5529 -0.1798 -1.6754
 8423SOL    HW236903   0.833   4.086   7.143  0.4346  1.7090  0.2142
 8424SOL     OW36904   0.077   1.233  15.308 -0.4584 -0.7216  0.3242
 8424SOL    HW136905   0.013   1.304  15.310 -0.0819 -0.4232  2.0336
 8424SOL    HW236906   0.150   1.261  15.363 -0.9036  0.2706  0.3958
 8425SOL     OW36907   3.832   4.624   5.983 -0.2751 -0.3920  0.2699
 8425SOL    HW136908   3.914   4.669   6.001 -0.4429 -0.1861  0.5265
 8425SOL    HW236909   3.810   4.594   6.071  1.1809  0.9328  1.0865
 8426SOL     OW36910   2.667   2.236  14.758  0.2357  0.3028 -0.8070
 8426SOL    HW136911   2.615   2.156  14.754  1.2922 -0.3573 -1.2641
 8426SOL    HW236912   2.737   2.218  14.820  1.7916  1.5454 -2.2177
 8427SOL     OW36913   2.303   4.662   7.055  0.7646  0.7129  0.3935
 8427SOL    HW136914   2.374   4.726   7.066 -0.7569  2.6475 -1.0987
 8427SOL    HW236915   2.240   4.690   7.122 -0.9453 -0.2675 -0.8285
 8428SOL     OW36916   2.579   0.942   9.728  0.2414  0.0697 -1.0482
 8428SOL    HW136917   2.494   0.963   9.689 -0.5906  0.1723  0.8170
 8428SOL    HW236918   2.602   0.864   9.677  0.8831 -0.6407  0.3397
 8429SOL     OW36919   3.982   2.727  11.293 -0.0284 -1.1574  0.3220
 8429SOL    HW136920   4.030   2.800  11.333  2.4282 -3.0075  0.7676
 8429SOL    HW236921   4.055   2.693  11.241  1.3648 -0.5049  1.8694
 8430SOL     OW36922   0.246   0.807   8.362  0.4072  0.0916 -0.7074
 8430SOL    HW136923   0.307   0.736   8.342 -3.1009 -2.8166 -1.0836
 8430SOL    HW236924   0.212   0.786   8.449  0.5208 -2.4301 -1.2632
 8431SOL     OW36925   4.391   4.078   4.183  0.0798  0.2488 -0.2036
 8431SOL    HW136926   4.305   4.077   4.141  0.1868  2.0554 -0.4269
 8431SOL    HW236927   4.446   4.130   4.126 -3.3453 -0.0023 -3.7544
 8432SOL     OW36928   0.369   3.304   6.628  0.0122 -0.0680 -0.6488
 8432SOL    HW136929   0.406   3.389   6.650  0.5940 -1.5266  3.9167
 8432SOL    HW236930   0.294   3.302   6.687 -0.4098  0.7804 -1.1496
 8433SOL     OW36931   1.306   2.977   3.553  0.4310  0.8469  0.4788
 8433SOL    HW136932   1.248   2.917   3.601 -1.0653  1.0158 -1.1054
 8433SOL    HW236933   1.253   3.000   3.477 -0.0564  2.8682  1.4271
 8434SOL     OW36934   4.443   2.677   6.821  0.0743 -0.0068  0.4775
 8434SOL    HW136935   4.462   2.645   6.733 -2.0416 -0.5876  0.2238
 8434SOL    HW236936   4.380   2.746   6.800  0.1533 -0.3461 -0.8652
 8435SOL     OW36937   2.869   1.126  15.940  0.3630 -0.0002  0.0013
 8435SOL    HW136938   2.861   1.171  16.025 -2.2379 -0.6354  0.0959
 8435SOL    HW236939   2.855   1.035  15.965  0.7025 -0.3051 -0.9519
 8436SOL     OW36940   0.857   1.972   0.633  0.3590  0.6404  0.8102
 8436SOL    HW136941   0.797   2.012   0.570  0.8405 -1.9650 -1.2810
 8436SOL    HW236942   0.894   1.898   0.584 -0.6147  1.3276 -0.9669
 8437SOL     OW36943   4.032   2.671   3.969 -0.7314  0.4401  0.2679
 8437SOL    HW136944   4.076   2.648   3.887 -1.3683  1.6326 -0.4033
 8437SOL    HW236945   4.033   2.584   4.008 -0.3525 -0.1713 -1.1203
 8438SOL     OW36946   3.687   1.449   7.310 -0.3088  0.2798  0.4754
 8438SOL    HW136947   3.775   1.486   7.319 -0.4831  1.2463 -1.7931
 8438SOL    HW236948   3.676   1.409   7.396  0.7195 -1.4930 -0.2039
 8439SOL     OW36949   2.272   2.975   7.459 -0.0219  0.1952 -0.2122
 8439SOL    HW136950   2.364   2.951   7.448 -0.4661 -0.8878 -1.5623
 8439SOL    HW236951   2.272   3.071   7.449 -2.6712  0.1188 -1.1772
 8440SOL     OW36952   0.297   0.685   5.243  0.0730 -0.3028 -0.3967
 8440SOL    HW136953   0.363   0.623   5.271 -0.7213 -0.9524  0.0393
 8440SOL    HW236954   0.301   0.691   5.147  1.0808  2.1890 -0.1992
 8441SOL     OW36955   2.581   4.575   0.685 -0.2603 -0.0156 -0.5153
 8441SOL    HW136956   2.659   4.619   0.651 -0.5419 -0.5031 -1.7994
 8441SOL    HW236957   2.507   4.600   0.630 -0.8464 -0.0345  0.2560
 8442SOL     OW36958   4.243   4.540   3.682  0.1227  0.2136  0.5086
 8442SOL    HW136959   4.269   4.514   3.594  1.7080  0.9340  0.7624
 8442SOL    HW236960   4.150   4.527   3.667 -0.0686  0.9884  1.0166
 8443SOL     OW36961   1.300   1.916   3.418 -0.1696  0.1991  0.4712
 8443SOL    HW136962   1.227   1.930   3.358  0.7619  0.8612 -0.5106
 8443SOL    HW236963   1.263   1.841   3.465  0.5042 -1.5360 -1.7625
 8444SOL     OW36964   4.407   2.072   1.961  0.3659  0.5162  0.1235
 8444SOL    HW136965   4.485   2.017   1.958 -1.5401 -2.2147  0.3986
 8444SOL    HW236966   4.422   2.118   2.043 -2.2239  1.2647  0.1647
 8445SOL     OW36967   0.126   2.172   4.671 -0.0289  0.0794 -0.2619
 8445SOL    HW136968   0.064   2.188   4.601 -1.9670  0.4505  1.5480
 8445SOL    HW236969   0.148   2.079   4.666 -0.9029 -0.2033  1.1188
 8446SOL     OW36970   0.543   1.073  11.086 -0.3883 -0.0192  0.4177
 8446SOL    HW136971   0.587   1.027  11.015 -0.2969  0.8112 -0.0657
 8446SOL    HW236972   0.599   1.142  11.121  0.3117 -0.1836 -0.3717
 8447SOL     OW36973   0.126   2.567   7.935 -0.3366  0.6361 -0.4793
 8447SOL    HW136974   0.132   2.607   7.848 -0.9343  1.5957 -0.0830
 8447SOL    HW236975   0.181   2.629   7.984 -0.4690  0.8502 -0.6025
 8448SOL     OW36976   3.213   3.598   2.025  0.0373 -0.8334  0.0329
 8448SOL    HW136977   3.206   3.539   2.100  0.4545  2.6463  2.8028
 8448SOL    HW236978   3.167   3.554   1.953  1.5501 -0.5892 -1.1106
 8449SOL     OW36979   2.866   2.964   2.745 -0.7627  0.0196 -0.0177
 8449SOL    HW136980   2.778   2.992   2.721 -0.4256  0.8347 -0.3337
 8449SOL    HW236981   2.854   2.951   2.839  1.2957 -2.3651 -0.0984
 8450SOL     OW36982   3.934   4.655   4.830 -0.2852  0.2425 -0.4099
 8450SOL    HW136983   3.938   4.573   4.781 -1.1863  1.5207 -2.6376
 8450SOL    HW236984   4.025   4.683   4.843  0.0213 -0.4460 -1.0767
 8451SOL     OW36985   3.510   4.626  13.883 -0.0866  0.3970 -0.1910
 8451SOL    HW136986   3.540   4.552  13.936 -2.5039  0.8467  1.7923
 8451SOL    HW236987   3.421   4.637  13.916 -0.3220 -0.2790 -0.6097
 8452SOL     OW36988   1.879   3.357   8.618 -0.1078  0.0496 -0.1019
 8452SOL    HW136989   1.885   3.444   8.579 -0.3329  0.6900  1.3015
 8452SOL    HW236990   1.941   3.360   8.691  0.7547 -1.0192 -0.7905
 8453SOL     OW36991   2.059   1.603   5.359 -0.0885  0.0828 -0.6097
 8453SOL    HW136992   2.142   1.649   5.370  0.5615 -1.6392  1.4976
 8453SOL    HW236993   2.075   1.521   5.404  0.1953 -0.6812 -2.1131
 8454SOL     OW36994   0.285   3.569   9.586  0.2636  0.2565 -0.0123
 8454SOL    HW136995   0.268   3.480   9.555  1.7671 -0.0147 -0.0737
 8454SOL    HW236996   0.376   3.571   9.555  0.1341  1.0147 -0.3542
 8455SOL     OW36997   3.880   0.075   4.113  0.0310  0.3253 -0.6187
 8455SOL    HW136998   3.832   4.729   4.116  0.4939  0.1740  2.2277
 8455SOL    HW236999   3.834   0.131   4.176  2.0516  0.7669  0.4656
 8456SOL     OW37000   4.278   3.673   5.118  0.4535  0.7041  0.0303
 8456SOL    HW137001   4.241   3.686   5.206 -0.6808  1.3893 -0.5529
 8456SOL    HW237002   4.297   3.579   5.114  0.8082  0.7981 -0.4268
 8457SOL     OW37003   3.608   3.427   9.081 -1.0012 -0.5268  0.4116
 8457SOL    HW137004   3.570   3.355   9.130 -2.8310  0.2489  0.1317
 8457SOL    HW237005   3.542   3.496   9.082 -2.0946 -1.6033  1.1386
 8458SOL     OW37006   4.105   0.989  14.696  0.3646 -0.5314  0.6393
 8458SOL    HW137007   4.153   0.919  14.652 -1.2303 -0.8568 -0.6114
 8458SOL    HW237008   4.069   1.037  14.621  0.6383 -1.5338 -0.1391
 8459SOL     OW37009   1.816   1.876   1.987 -0.1503 -0.7700  0.7086
 8459SOL    HW137010   1.739   1.819   1.979 -1.1953  1.1205 -2.5683
 8459SOL    HW237011   1.837   1.879   1.894 -1.7116  1.6496  0.4305
 8460SOL     OW37012   1.693   1.115  10.865 -0.1296 -0.4457 -0.9831
 8460SOL    HW137013   1.728   1.118  10.776 -0.7034  1.7689 -1.1373
 8460SOL    HW237014   1.650   1.199  10.879 -3.0946 -1.9070 -1.3621
 8461SOL     OW37015   3.550   2.853   4.021 -0.1217 -0.1826 -0.2644
 8461SOL    HW137016   3.540   2.782   4.084  2.1795  1.0514  1.5098
 8461SOL    HW237017   3.632   2.825   3.981  0.5274  2.2244 -0.6359
 8462SOL     OW37018   1.247   0.421   2.287  0.1449  0.2360  0.3448
 8462SOL    HW137019   1.253   0.516   2.295 -0.9651  0.2788  0.6842
 8462SOL    HW237020   1.155   0.408   2.312  0.6552  0.5540  2.4366
 8463SOL     OW37021   3.171   3.713   3.837  0.0070  0.0150 -0.0430
 8463SOL    HW137022   3.172   3.703   3.932  1.2744  0.0588 -0.0485
 8463SOL    HW237023   3.096   3.769   3.818  0.2040 -0.1189 -1.2452
 8464SOL     OW37024   1.883   3.037   4.207 -0.0166  0.4769 -0.4258
 8464SOL    HW137025   1.883   3.132   4.201  0.0777  0.3869 -1.8287
 8464SOL    HW237026   1.798   3.010   4.241  1.2092 -1.3260  1.2656
 8465SOL     OW37027   3.550   1.379   2.023  0.4751 -0.1620 -0.0631
 8465SOL    HW137028   3.604   1.303   2.045 -1.3244 -1.7267 -1.0433
 8465SOL    HW237029   3.613   1.438   1.982 -0.1607 -0.0666 -0.9033
 8466SOL     OW37030   3.811   2.315   4.516 -0.9268 -0.5222  0.1061
 8466SOL    HW137031   3.772   2.228   4.517  0.0821 -0.9661  0.3394
 8466SOL    HW237032   3.893   2.288   4.474 -0.4519  0.5351  0.3532
 8467SOL     OW37033   4.376   2.585   0.665 -0.1343 -0.2835  0.5061
 8467SOL    HW137034   4.438   2.646   0.705  0.5201 -0.7805  0.2340
 8467SOL    HW237035   4.392   2.505   0.714  2.1761 -1.8282 -2.7954
 8468SOL     OW37036   2.820   1.377  13.901 -0.0502  0.1708 -0.4215
 8468SOL    HW137037   2.738   1.334  13.924 -0.9193  0.5919 -2.7203
 8468SOL    HW237038   2.791   1.445  13.840 -0.1711  0.0615 -0.4856
 8469SOL     OW37039   4.600   2.508   9.483 -0.7062  0.0522  0.2152
 8469SOL    HW137040   4.517   2.503   9.531 -0.0003 -4.5327  0.9425
 8469SOL    HW237041   4.645   2.460   9.553 -2.5564  1.3995  2.3562
 8470SOL     OW37042   1.561   0.025   6.518  0.6484 -0.0480  0.3714
 8470SOL    HW137043   1.643   0.057   6.479 -0.2874  0.4792 -1.1434
 8470SOL    HW237044   1.503   0.099   6.537 -0.2315 -0.0029 -2.4494
 8471SOL     OW37045   3.947   4.003   6.600  0.3353 -0.2557 -0.1922
 8471SOL    HW137046   3.874   4.034   6.545 -0.8705  0.0420  1.5846
 8471SOL    HW237047   4.005   3.967   6.533 -2.1025  0.9038 -2.9305
 8472SOL     OW37048   0.493   0.052   3.579  0.2332 -0.0533 -0.3652
 8472SOL    HW137049   0.432   0.117   3.544 -0.2309  1.4606  3.3188
 8472SOL    HW237050   0.444   4.708   3.591 -2.5095  1.7192  0.4355
 8473SOL     OW37051   1.398   2.656   2.771  0.3868  0.3181  0.4196
 8473SOL    HW137052   1.325   2.641   2.831 -1.0873  0.5138 -1.3094
 8473SOL    HW237053   1.373   2.595   2.702  0.6639  0.5076  0.1519
 8474SOL     OW37054   3.880   0.376   4.763  0.3229  0.1576 -0.9696
 8474SOL    HW137055   3.974   0.370   4.780  0.1161  1.9748  0.7958
 8474SOL    HW237056   3.839   0.311   4.820  0.3524 -0.0907 -1.2327
 8475SOL     OW37057   2.201   2.998   1.615 -0.0269 -0.0193  0.3920
 8475SOL    HW137058   2.174   2.908   1.597 -1.5320  0.4961  0.0693
 8475SOL    HW237059   2.202   3.041   1.529 -0.3082 -0.4623  0.1656
 8476SOL     OW37060   1.395   2.343   2.956 -0.0127 -0.2675  0.3871
 8476SOL    HW137061   1.443   2.267   2.991  0.4357 -0.8895 -1.5689
 8476SOL    HW237062   1.464   2.381   2.902 -0.5109 -2.4409 -1.8248
 8477SOL     OW37063   0.282   0.973   5.020 -0.1461  0.0268  0.1819
 8477SOL    HW137064   0.260   1.021   5.100  1.5809 -0.9945  1.2631
 8477SOL    HW237065   0.202   0.956   4.970 -1.8369  0.6244  2.6874
 8478SOL     OW37066   4.102   2.778   6.874  0.2193  0.3672  0.7909
 8478SOL    HW137067   4.183   2.824   6.852 -2.2505  3.7904 -1.1356
 8478SOL    HW237068   4.138   2.691   6.894  0.3662  0.0802 -0.7131
 8479SOL     OW37069   4.657   4.017   1.705 -0.1711  0.4247 -0.2319
 8479SOL    HW137070   4.681   3.934   1.745  1.5439  1.7628  1.5578
 8479SOL    HW237071   4.588   4.054   1.762  0.0619  1.4191 -0.5916
 8480SOL     OW37072   2.502   3.402   6.528  0.4013 -0.3180  0.8776
 8480SOL    HW137073   2.545   3.318   6.511 -1.1182 -0.8421 -0.4064
 8480SOL    HW237074   2.410   3.382   6.543  0.6831 -0.1889  2.7094
 8481SOL     OW37075   2.179   3.337   5.327 -0.0512  0.5216  0.6058
 8481SOL    HW137076   2.238   3.262   5.330 -0.8325 -0.1286 -0.0073
 8481SOL    HW237077   2.224   3.392   5.390 -1.3976 -0.3964  2.3939
 8482SOL     OW37078   3.449   0.757   3.035  0.5701  0.2889 -0.2538
 8482SOL    HW137079   3.458   0.849   3.010  0.5969  0.5699  0.8098
 8482SOL    HW237080   3.518   0.718   2.981  1.9122  1.3944  0.6601
 8483SOL     OW37081   1.162   3.067   7.614  0.2411  0.3019 -0.1714
 8483SOL    HW137082   1.129   3.109   7.694 -3.3855 -0.2908 -1.3578
 8483SOL    HW237083   1.122   3.120   7.544 -0.4028  0.1843  0.1083
 8484SOL     OW37084   2.114   2.349   6.612 -0.4731 -0.3221 -0.1577
 8484SOL    HW137085   2.091   2.293   6.538  0.6197 -3.2033  1.6623
 8484SOL    HW237086   2.199   2.316   6.643 -0.4653 -1.3695 -1.2894
 8485SOL     OW37087   2.481   1.604   5.660 -0.4623 -0.0301 -0.4288
 8485SOL    HW137088   2.395   1.645   5.650 -0.3902  0.3142  0.3158
 8485SOL    HW237089   2.530   1.685   5.675 -1.8833  0.8796 -0.6830
 8486SOL     OW37090   0.162   3.569  17.091  0.2525 -0.4710  0.4345
 8486SOL    HW137091   0.113   3.487  17.084  0.4909 -0.4697 -1.2424
 8486SOL    HW237092   0.088   3.629  17.102  0.6918  0.2142 -0.3208
 8487SOL     OW37093   0.726   0.340   7.894 -0.0915  0.2890 -0.0053
 8487SOL    HW137094   0.664   0.391   7.842  0.0634  0.2543 -0.2208
 8487SOL    HW237095   0.676   0.265   7.926 -0.8889  1.1662  0.8179
 8488SOL     OW37096   0.011   1.058   3.174  0.0344  0.2571  0.2262
 8488SOL    HW137097   4.669   1.110   3.160  0.1808  0.0574 -1.4111
 8488SOL    HW237098   0.039   1.082   3.262  1.4757 -1.3559  0.2122
 8489SOL     OW37099   4.337   0.035   4.374 -0.4906  0.4862 -0.6399
 8489SOL    HW137100   4.390   4.694   4.358  1.2253  1.5312  0.0092
 8489SOL    HW237101   4.392   0.110   4.351  0.8525 -0.2447  0.1721
 8490SOL     OW37102   1.075   1.045  11.382 -0.2136  0.7170 -0.3319
 8490SOL    HW137103   1.143   1.101  11.346  0.0838  0.1020 -0.7224
 8490SOL    HW237104   1.020   1.019  11.307 -0.8562 -1.6348  0.9507
 8491SOL     OW37105   1.504   1.861  10.087  1.0783  0.4800  0.1949
 8491SOL    HW137106   1.585   1.810  10.078 -0.7023 -2.5970  1.5829
 8491SOL    HW237107   1.457   1.823  10.161  0.6488 -0.5947 -0.6250
 8492SOL     OW37108   0.205   0.288   8.771  0.4035  0.1968 -0.0485
 8492SOL    HW137109   0.250   0.341   8.706 -0.0960  1.6394  0.7796
 8492SOL    HW237110   0.208   0.349   8.845 -0.0967 -0.1907  0.2836
 8493SOL     OW37111   0.735   2.800   2.562  0.2341 -0.2130 -0.5068
 8493SOL    HW137112   0.815   2.751   2.581  1.0467  1.7766  1.1365
 8493SOL    HW237113   0.685   2.730   2.519 -0.2955  1.4918 -2.7117
 8494SOL     OW37114   2.665   1.487   8.082  0.0168 -0.3861 -0.5980
 8494SOL    HW137115   2.613   1.566   8.075 -0.3333 -0.8228 -2.8486
 8494SOL    HW237116   2.748   1.520   8.116  0.0205  0.7535 -1.7406
 8495SOL     OW37117   1.533   0.688   8.753 -0.6153  0.2840 -0.7130
 8495SOL    HW137118   1.536   0.637   8.672  0.8990 -0.4850 -0.1575
 8495SOL    HW237119   1.491   0.627   8.813  0.1786  0.4936  0.0518
 8496SOL     OW37120   2.823   4.601   7.337 -0.4233 -0.2224 -0.8562
 8496SOL    HW137121   2.824   4.523   7.392 -2.0279 -0.3480 -0.9990
 8496SOL    HW237122   2.915   4.622   7.325 -0.6018 -0.7873 -3.2127
 8497SOL     OW37123   1.416   4.539   9.861 -0.2774  0.1040 -0.4221
 8497SOL    HW137124   1.478   4.492   9.917  0.2749 -1.0763 -2.0228
 8497SOL    HW237125   1.382   4.474   9.800 -2.0647  0.1215  0.5513
 8498SOL     OW37126   1.339   4.316  14.663  0.4665 -0.8133 -0.0597
 8498SOL    HW137127   1.269   4.254  14.642  1.2451 -1.5672 -0.4269
 8498SOL    HW237128   1.409   4.297  14.600  1.1717 -0.1915  0.5338
 8499SOL     OW37129   2.927   1.230   8.325 -0.3680  0.2262  0.0916
 8499SOL    HW137130   2.897   1.179   8.249  1.9251 -1.3149  0.2126
 8499SOL    HW237131   2.855   1.293   8.323  2.1661  3.0679 -1.0230
 8500SOL     OW37132   4.667   0.237   4.610 -0.0822 -0.4833 -0.3861
 8500SOL    HW137133   4.641   0.273   4.525 -1.6324 -0.5170  0.0892
 8500SOL    HW237134   4.689   0.147   4.586 -1.9756 -0.9354 -0.3851
 8501SOL     OW37135   3.286   2.597   4.058  0.5955 -0.4942 -0.4612
 8501SOL    HW137136   3.314   2.579   3.968 -0.4023 -0.0013 -0.8705
 8501SOL    HW237137   3.214   2.537   4.075 -0.6723  0.5968 -1.9555
 8502SOL     OW37138   4.164   3.694  12.609  0.2580 -0.1376 -0.4750
 8502SOL    HW137139   4.135   3.621  12.664  0.6835 -0.9671 -1.3320
 8502SOL    HW237140   4.241   3.728  12.655 -0.2372 -1.7183  1.5188
 8503SOL     OW37141   2.724   4.284  12.485  0.0532  0.5139  0.3715
 8503SOL    HW137142   2.734   4.231  12.406 -0.3932 -0.2268  0.8144
 8503SOL    HW237143   2.773   4.365  12.471  3.6898 -1.9309 -0.9473
 8504SOL     OW37144   0.501   2.895   2.668  0.1127  0.2418 -0.0160
 8504SOL    HW137145   0.592   2.868   2.659 -0.0387 -1.1900  3.0531
 8504SOL    HW237146   0.509   2.932   2.756 -0.9232  1.2013 -0.3297
 8505SOL     OW37147   3.140   3.876  12.035  0.3380 -0.0247 -0.3532
 8505SOL    HW137148   3.195   3.828  11.972  1.4328 -0.4951  0.9816
 8505SOL    HW237149   3.142   3.816  12.109  1.9429  0.3591 -0.0813
 8506SOL     OW37150   3.294   0.463  11.126 -0.5896  0.2107 -0.2821
 8506SOL    HW137151   3.296   0.456  11.222  0.5881  1.5509 -0.2110
 8506SOL    HW237152   3.349   0.540  11.114 -0.1305 -0.0156  0.3236
 8507SOL     OW37153   3.660   1.340   8.101 -0.3989 -0.6913 -0.2881
 8507SOL    HW137154   3.685   1.410   8.040 -1.2645  0.8042  1.0877
 8507SOL    HW237155   3.569   1.363   8.120  0.2363  0.4318  1.3937
 8508SOL     OW37156   3.684   3.584  17.714  0.0344  0.6623  0.4519
 8508SOL    HW137157   3.755   3.618   0.023 -0.5295 -1.0003  2.2314
 8508SOL    HW237158   3.668   3.498   0.008 -1.5432  1.4938  1.6274
 8509SOL     OW37159   2.745   3.522   6.196 -0.0038 -0.2503 -0.2464
 8509SOL    HW137160   2.672   3.517   6.135 -2.5043  1.8683  2.6125
 8509SOL    HW237161   2.823   3.529   6.140 -1.3483 -3.0742 -2.4810
 8510SOL     OW37162   3.060   3.049   1.943 -0.2154  0.1947 -0.4155
 8510SOL    HW137163   3.141   3.059   1.894  0.7846  0.8307  1.3619
 8510SOL    HW237164   3.032   3.141   1.950  0.3279  0.5418 -2.6758
 8511SOL     OW37165   2.189   3.039   9.187  0.4384  0.4016  1.1332
 8511SOL    HW137166   2.110   3.044   9.133  2.1045 -0.0728 -1.3041
 8511SOL    HW237167   2.211   3.132   9.187  1.9803  0.0193 -1.5710
 8512SOL     OW37168   2.579   3.638   6.364 -0.0320 -0.5373  0.0825
 8512SOL    HW137169   2.552   3.577   6.433  0.7383  0.9615  1.7062
 8512SOL    HW237170   2.635   3.592   6.302 -0.2613 -2.2874  1.1792
 8513SOL     OW37171   4.216   0.069   3.604  0.0826  0.0378  0.1816
 8513SOL    HW137172   4.261   4.732   3.646 -1.3616 -1.4713 -0.8830
 8513SOL    HW237173   4.284   0.136   3.605 -0.2773  0.4242 -2.0778
 8514SOL     OW37174   0.806   0.933  17.542 -0.3535 -0.0982 -0.3969
 8514SOL    HW137175   0.824   0.964  17.453  1.5679 -2.6222 -0.8874
 8514SOL    HW237176   0.762   1.007  17.584 -0.9808 -1.2452  0.9832
 8515SOL     OW37177   4.727   1.429   3.945  0.0937  0.3460  0.1290
 8515SOL    HW137178   4.704   1.355   3.889  1.6795 -0.2149  0.2277
 8515SOL    HW237179   0.011   1.373   4.020 -3.0443 -2.4987 -1.1210
 8516SOL     OW37180   2.541   4.517  14.763  0.4529 -0.4049 -0.0718
 8516SOL    HW137181   2.621   4.481  14.801  0.5338  0.8056  0.9090
 8516SOL    HW237182   2.563   4.517  14.670  0.4015 -0.3863 -0.0844
 8517SOL     OW37183   0.211   1.951  17.050  0.0137  0.3779  0.3539
 8517SOL    HW137184   0.267   1.898  17.107  0.8764 -0.0972 -0.9427
 8517SOL    HW237185   0.152   1.890  17.006 -0.0416 -0.1451  1.1456
 8518SOL     OW37186   3.326   4.315   6.473  0.5520 -0.1796  0.4452
 8518SOL    HW137187   3.243   4.352   6.443  0.8576  0.7313  0.7150
 8518SOL    HW237188   3.337   4.244   6.410  4.1900  0.1988  0.6096
 8519SOL     OW37189   2.245   1.638   8.473 -0.5619  0.1089  0.2544
 8519SOL    HW137190   2.161   1.672   8.441 -0.9139  0.4982  1.5712
 8519SOL    HW237191   2.279   1.715   8.519 -1.3489 -0.8938  2.5318
 8520SOL     OW37192   0.144   2.575   6.424  0.7027 -0.4217  0.4158
 8520SOL    HW137193   0.139   2.483   6.450  0.6943 -0.2690  0.9565
 8520SOL    HW237194   0.235   2.582   6.396  0.2695  0.7110 -0.6987
 8521SOL     OW37195   2.453   2.817   4.994  0.7343 -0.4848 -0.1644
 8521SOL    HW137196   2.453   2.910   4.972 -2.7187 -0.0870  1.4370
 8521SOL    HW237197   2.488   2.779   4.913  0.8818  0.6976 -0.6473
 8522SOL     OW37198   4.150   1.969   2.271  0.4506 -0.2442  0.6528
 8522SOL    HW137199   4.160   2.002   2.360 -1.0965 -0.3188  0.8395
 8522SOL    HW237200   4.197   1.886   2.261 -0.1008 -0.2704 -1.7968
 8523SOL     OW37201   2.261   2.343   9.368 -0.4696 -0.6410  0.1771
 8523SOL    HW137202   2.166   2.333   9.369 -0.5785  0.3968  0.6589
 8523SOL    HW237203   2.276   2.339   9.273 -1.7169  0.1960 -0.0611
 8524SOL     OW37204   1.512   3.517   3.511 -0.1449  0.2410 -0.2484
 8524SOL    HW137205   1.443   3.529   3.446  1.1736  1.8987 -1.3461
 8524SOL    HW237206   1.477   3.432   3.538 -1.0041 -0.3430 -3.1424
 8525SOL     OW37207   0.814   4.143  12.135 -0.1984 -0.4547  0.1041
 8525SOL    HW137208   0.824   4.107  12.223  0.6190  1.3471  0.7424
 8525SOL    HW237209   0.726   4.178  12.136  0.1072  0.3686 -1.7913
 8526SOL     OW37210   0.482   2.374   6.961  0.0896 -0.0847  0.2335
 8526SOL    HW137211   0.496   2.451   6.905  0.9651 -0.8985 -0.6559
 8526SOL    HW237212   0.516   2.411   7.042 -0.0035  0.3728  0.0633
 8527SOL     OW37213   2.843   4.419   7.578 -0.1150  0.0720 -0.2518
 8527SOL    HW137214   2.793   4.383   7.651  0.6024  1.8494  1.1332
 8527SOL    HW237215   2.844   4.345   7.518 -0.2682 -0.5968  0.5698
 8528SOL     OW37216   1.582   2.602   9.113  0.2964  0.3490 -0.4534
 8528SOL    HW137217   1.538   2.583   9.030 -1.6527 -0.0704  0.6942
 8528SOL    HW237218   1.665   2.563   9.084  0.4684 -0.1731  0.7298
 8529SOL     OW37219   1.435   3.901   6.243  0.8673 -0.1042 -0.3687
 8529SOL    HW137220   1.498   3.879   6.173 -0.5067  0.2969 -1.7307
 8529SOL    HW237221   1.375   3.952   6.188  0.0084 -0.2336  0.4600
 8530SOL     OW37222   4.125   0.243   1.106 -0.4578  0.6869  0.3295
 8530SOL    HW137223   4.085   0.330   1.111 -1.4527  0.2133  0.3810
 8530SOL    HW237224   4.060   0.193   1.154 -0.1937  0.6350  0.6284
 8531SOL     OW37225   1.918   2.627   8.820  0.3275 -0.0846 -0.3110
 8531SOL    HW137226   1.917   2.566   8.894  0.5384 -0.5072 -0.6536
 8531SOL    HW237227   1.991   2.588   8.772 -0.4962 -1.2808 -0.6203
 8532SOL     OW37228   3.234   4.709   9.084 -0.5273 -0.5066  0.4181
 8532SOL    HW137229   3.173   4.647   9.045 -0.0466  0.8093 -2.4378
 8532SOL    HW237230   3.311   4.684   9.032 -0.2159 -1.6099  1.4003
 8533SOL     OW37231   0.245   0.381   7.208 -0.1628  0.0692  0.2393
 8533SOL    HW137232   0.292   0.430   7.276 -1.1188 -2.3121  2.5801
 8533SOL    HW237233   0.164   0.362   7.254  0.2186 -0.5631  0.6485
 8534SOL     OW37234   3.586   1.891   6.939  0.4005 -0.5659  0.5468
 8534SOL    HW137235   3.605   1.797   6.938  0.2151 -0.5950 -0.6564
 8534SOL    HW237236   3.521   1.880   6.870  0.9435  1.0567 -0.2261
 8535SOL     OW37237   0.618   1.863   8.646 -0.2295 -0.2051  0.6020
 8535SOL    HW137238   0.632   1.957   8.642  0.4400 -0.2600  1.5033
 8535SOL    HW237239   0.557   1.858   8.573 -0.5364  0.4921  0.8182
 8536SOL     OW37240   3.446   1.278   5.600  0.1488 -0.2661 -0.3264
 8536SOL    HW137241   3.429   1.371   5.589  1.8944 -0.0048 -0.7065
 8536SOL    HW237242   3.499   1.266   5.521 -0.2444  3.7004 -1.1960
 8537SOL     OW37243   1.273   4.720   4.498 -0.1300  0.1041  0.1964
 8537SOL    HW137244   1.198   0.026   4.539 -0.5356 -0.6310  0.2360
 8537SOL    HW237245   1.290   0.042   4.425  1.6727 -0.8822 -0.1697
 8538SOL     OW37246   2.227   2.597   4.741  0.8154  0.1890 -0.4127
 8538SOL    HW137247   2.302   2.565   4.790 -1.7977 -1.3079  2.5806
 8538SOL    HW237248   2.201   2.526   4.682  0.8754 -1.4294  1.5269
 8539SOL     OW37249   2.768   2.940   8.211 -0.4515  0.5098 -0.0482
 8539SOL    HW137250   2.855   2.904   8.194 -0.8438 -0.9463  0.9960
 8539SOL    HW237251   2.721   2.939   8.128 -2.0239 -0.0491  0.8477
 8540SOL     OW37252   0.624   0.709   5.365 -0.5479 -0.1469 -0.7259
 8540SOL    HW137253   0.577   0.637   5.323  2.5932 -1.8650 -1.2338
 8540SOL    HW237254   0.581   0.784   5.324  0.4466  1.1979  0.6846
 8541SOL     OW37255   2.574   3.923   3.788  0.1868  0.4193 -0.3050
 8541SOL    HW137256   2.483   3.949   3.779  0.1903 -0.2371 -2.2777
 8541SOL    HW237257   2.573   3.950   3.880  0.0431  0.8498 -0.4338
 8542SOL     OW37258   1.278   0.954   2.574  0.0254 -0.0996 -0.2676
 8542SOL    HW137259   1.206   0.971   2.635 -0.2470  0.8134 -0.8429
 8542SOL    HW237260   1.308   0.878   2.624 -0.9306 -0.2900  0.0098
 8543SOL     OW37261   2.229   4.203   5.876 -0.4690  0.5930 -0.5774
 8543SOL    HW137262   2.186   4.120   5.855  0.4561  0.3075 -1.3965
 8543SOL    HW237263   2.297   4.201   5.808 -1.7874 -1.5613 -1.8437
 8544SOL     OW37264   2.783   0.497   9.062  0.2847  0.0402  0.6288
 8544SOL    HW137265   2.858   0.537   9.018  0.3724 -0.3783  0.3961
 8544SOL    HW237266   2.827   0.420   9.098  1.2172 -0.6832 -2.0639
 8545SOL     OW37267   1.196   2.965   2.204  0.0086 -0.0961 -0.4328
 8545SOL    HW137268   1.232   3.051   2.228  2.4618 -1.9973  2.7463
 8545SOL    HW237269   1.102   2.980   2.197  0.4168  1.5338 -2.4469
 8546SOL     OW37270   2.519   2.392  16.153 -0.0067 -0.2861  0.4194
 8546SOL    HW137271   2.487   2.482  16.147 -2.3214 -1.0874  0.7895
 8546SOL    HW237272   2.520   2.365  16.244 -0.7209 -1.3053  0.1253
 8547SOL     OW37273   1.825   2.016   8.050 -0.1915 -0.1498 -0.0890
 8547SOL    HW137274   1.811   1.926   8.079 -0.7778 -0.0334 -0.0035
 8547SOL    HW237275   1.865   2.047   8.132  0.0648  2.0636 -1.0501
 8548SOL     OW37276   1.933   2.755  17.351  0.6231  0.4005  0.5463
 8548SOL    HW137277   2.003   2.807  17.313  1.6445 -0.6385  1.0175
 8548SOL    HW237278   1.991   2.692  17.393 -2.2869 -0.9674  2.5698
 8549SOL     OW37279   3.331   4.029  16.710  0.1069 -0.3847 -0.2259
 8549SOL    HW137280   3.292   4.104  16.756  0.1861 -0.1446 -0.5550
 8549SOL    HW237281   3.275   3.962  16.749  1.9586 -1.7901 -0.0111
 8550SOL     OW37282   3.424   3.354   3.231 -0.7160  0.2096 -0.4698
 8550SOL    HW137283   3.336   3.380   3.201 -0.0592  0.4811 -2.1309
 8550SOL    HW237284   3.445   3.286   3.168 -0.3542  0.1617 -0.2992
 8551SOL     OW37285   4.156   3.424  12.594 -0.0733  0.5249 -0.2926
 8551SOL    HW137286   4.170   3.330  12.609  0.5874  0.6622 -0.0570
 8551SOL    HW237287   4.175   3.422  12.501 -0.5482 -1.2802 -0.3594
 8552SOL     OW37288   3.038   3.198   6.718  0.1706  0.0288 -0.1620
 8552SOL    HW137289   2.953   3.190   6.762  0.1374 -2.8212 -0.7428
 8552SOL    HW237290   3.012   3.255   6.645 -0.7920 -0.8970 -0.5376
 8553SOL     OW37291   2.472   1.550   7.718 -0.5899 -0.1238  0.8905
 8553SOL    HW137292   2.477   1.478   7.781 -0.1206 -1.3341 -0.5440
 8553SOL    HW237293   2.561   1.584   7.728  0.4803 -2.8178  0.3627
 8554SOL     OW37294   0.028   0.063   5.912 -0.3759  0.3457  1.1429
 8554SOL    HW137295   0.056   0.154   5.924  2.3901 -0.1208 -1.8895
 8554SOL    HW237296   0.088   0.020   5.972  0.2754 -1.1837 -0.6266
 8555SOL     OW37297   3.937   3.493  13.798  0.5603  0.0109 -0.2734
 8555SOL    HW137298   3.968   3.549  13.726 -0.8234 -1.5117 -2.0643
 8555SOL    HW237299   3.847   3.477  13.769  0.5766  1.0749 -0.9361
 8556SOL     OW37300   3.990   2.732   4.537  0.5160  0.4219  0.0062
 8556SOL    HW137301   3.947   2.781   4.467  0.4010  1.0057  0.4796
 8556SOL    HW237302   4.033   2.800   4.590  2.5843 -0.8606  0.0021
 8557SOL     OW37303   2.761   1.479   0.097 -0.5067  0.5079 -0.6375
 8557SOL    HW137304   2.826   1.470   0.027  0.8688  0.5273  0.6339
 8557SOL    HW237305   2.813   1.443   0.169 -1.1258 -2.3989 -1.6402
 8558SOL     OW37306   1.743   2.497   8.157 -0.0469  0.4681 -0.0114
 8558SOL    HW137307   1.801   2.573   8.172 -1.3877  1.1359  1.7232
 8558SOL    HW237308   1.691   2.520   8.080  1.4179 -0.8020 -1.3822
 8559SOL     OW37309   2.476   0.020  14.547 -1.0320 -0.1944 -0.0102
 8559SOL    HW137310   2.560   0.065  14.559 -2.8407  2.5527  2.4477
 8559SOL    HW237311   2.517   4.681  14.506 -2.1482 -2.2738  2.7205
 8560SOL     OW37312   0.454   4.324   4.497  0.3122 -0.4093 -0.7449
 8560SOL    HW137313   0.398   4.247   4.493  0.3334 -0.4103 -1.0560
 8560SOL    HW237314   0.519   4.290   4.559 -0.5807 -0.7722 -0.0154
 8561SOL     OW37315   1.557   3.415  11.047 -0.2147 -0.1525 -0.2537
 8561SOL    HW137316   1.494   3.348  11.070 -1.8374  0.7137 -2.1876
 8561SOL    HW237317   1.607   3.387  10.970  1.3970 -0.3039  0.8551
 8562SOL     OW37318   3.486   3.926   1.771  0.1536  0.3685  0.8770
 8562SOL    HW137319   3.487   4.013   1.812  1.0728  0.6563  0.2391
 8562SOL    HW237320   3.451   3.949   1.685  2.2359 -3.4481 -0.9820
 8563SOL     OW37321   1.822   4.022   0.631 -0.3016  0.4325 -0.1797
 8563SOL    HW137322   1.760   3.963   0.589  1.0840 -0.6186 -0.7390
 8563SOL    HW237323   1.848   4.084   0.562 -0.1607 -1.7161 -2.0609
 8564SOL     OW37324   4.469   0.488   3.444 -0.2813 -0.0829  0.1900
 8564SOL    HW137325   4.437   0.522   3.361 -0.5292 -0.7050  0.0298
 8564SOL    HW237326   4.492   0.399   3.418 -1.4340 -0.4278  0.3215
 8565SOL     OW37327   3.427   1.908  17.373 -0.5908 -0.0250  0.4111
 8565SOL    HW137328   3.371   1.961  17.317 -0.6001  0.7497  1.1624
 8565SOL    HW237329   3.430   1.830  17.317 -0.5273  0.1857  0.1214
 8566SOL     OW37330   1.201   2.710   3.349  0.3310  0.0826 -0.0314
 8566SOL    HW137331   1.249   2.630   3.329  2.0093  1.3287 -0.9917
 8566SOL    HW237332   1.114   2.678   3.325  0.1497  0.3153  0.3266
 8567SOL     OW37333   2.129   3.614  12.081  0.0961 -0.4088 -0.0953
 8567SOL    HW137334   2.177   3.669  12.143  1.1287  0.2278 -1.4669
 8567SOL    HW237335   2.051   3.589  12.131  0.3033  2.2930  1.5692
 8568SOL     OW37336   1.356   4.491   4.605  0.2655 -0.3305 -0.2766
 8568SOL    HW137337   1.281   4.486   4.665 -0.1800  0.2217 -0.7834
 8568SOL    HW237338   1.335   4.569   4.554  0.3387  0.2250  0.5480
 8569SOL     OW37339   1.732   1.364  10.213 -0.4031 -0.0922  0.1085
 8569SOL    HW137340   1.665   1.342  10.278  0.7225 -1.3726  0.8415
 8569SOL    HW237341   1.699   1.449  10.186 -0.0914 -0.1169 -0.3353
 8570SOL     OW37342   1.459   0.781   8.304 -0.1782  0.0190  0.4964
 8570SOL    HW137343   1.513   0.809   8.378 -2.9440  1.9182  1.7874
 8570SOL    HW237344   1.483   0.689   8.294  1.7073  0.4206  1.2704
 8571SOL     OW37345   2.370   0.067  16.932  0.5399 -0.5487  0.5888
 8571SOL    HW137346   2.390   0.159  16.948 -0.3404 -0.4570  1.1313
 8571SOL    HW237347   2.306   0.050  17.001 -1.9685  2.5639 -0.9576
 8572SOL     OW37348   2.614   4.011   2.426 -0.1925 -0.1741 -0.0888
 8572SOL    HW137349   2.600   4.011   2.331 -2.6770 -0.3478  0.2795
 8572SOL    HW237350   2.699   4.050   2.445 -0.6012 -0.5555  2.5033
 8573SOL     OW37351   4.588   2.629  11.457 -0.3182  0.7499 -0.4852
 8573SOL    HW137352   4.600   2.542  11.495 -1.3792 -0.3011 -2.5330
 8573SOL    HW237353   4.670   2.670  11.485  0.2798 -0.2374 -0.7898
 8574SOL     OW37354   3.116   3.446   7.909  1.0545  0.7793  0.2187
 8574SOL    HW137355   3.155   3.435   7.823 -3.2820 -1.4808 -1.4643
 8574SOL    HW237356   3.051   3.516   7.894  2.7056  1.9442 -1.4455
 8575SOL     OW37357   4.605   4.161   4.018  0.0943  0.3928  0.1756
 8575SOL    HW137358   4.580   4.187   3.929 -0.9381  0.1106  0.3867
 8575SOL    HW237359   4.566   4.074   4.011  0.8918  0.1014 -0.7659
 8576SOL     OW37360   3.204   1.136  12.035 -0.3738 -0.2923 -0.1168
 8576SOL    HW137361   3.114   1.105  12.045  0.1313 -1.5146  0.5854
 8576SOL    HW237362   3.229   1.170  12.121 -0.5519  0.1036 -0.2228
 8577SOL     OW37363   2.198   0.484   3.532 -0.0746  0.0853  0.8216
 8577SOL    HW137364   2.258   0.551   3.500 -1.5584  0.4456 -1.2604
 8577SOL    HW237365   2.250   0.426   3.587  1.6857 -0.6805 -1.7052
 8578SOL     OW37366   3.621   4.201  15.224  0.2484  0.1414  0.0312
 8578SOL    HW137367   3.646   4.293  15.211 -2.1844  0.4278 -2.6698
 8578SOL    HW237368   3.695   4.157  15.183  1.8449  1.8661  1.0605
 8579SOL     OW37369   0.868   0.263  13.656 -0.1413 -0.1037  0.0086
 8579SOL    HW137370   0.945   0.278  13.711 -0.2641  1.6373 -0.2775
 8579SOL    HW237371   0.795   0.296  13.709  0.3168 -1.8186  1.7042
 8580SOL     OW37372   1.174   4.476   0.173 -0.0930 -0.0460  0.1268
 8580SOL    HW137373   1.143   4.455   0.261 -0.1762 -2.3241 -0.4257
 8580SOL    HW237374   1.162   4.571   0.178 -1.8005 -0.2091 -0.8157
 8581SOL     OW37375   4.419   0.101   1.562 -0.1462 -0.4870 -0.1782
 8581SOL    HW137376   4.431   0.006   1.569 -2.0126 -0.7088  0.1446
 8581SOL    HW237377   4.368   0.116   1.482 -1.3797 -3.6018  0.0112
 8582SOL     OW37378   4.372   3.532   1.542 -0.2317 -0.6043  1.0418
 8582SOL    HW137379   4.449   3.589   1.544  0.0147 -0.8520 -0.8844
 8582SOL    HW237380   4.400   3.457   1.488 -1.0077  0.2022 -0.4959
 8583SOL     OW37381   3.529   1.484  16.444 -0.3135  0.4468  1.1589
 8583SOL    HW137382   3.550   1.486  16.351  1.1302 -1.4626  1.4544
 8583SOL    HW237383   3.582   1.556  16.478  3.4313 -0.8317 -1.9299
 8584SOL     OW37384   2.003   4.556   4.088 -0.4249 -0.6484  0.3610
 8584SOL    HW137385   2.093   4.568   4.058 -1.1269  0.5543 -1.2462
 8584SOL    HW237386   1.979   4.648   4.103  1.1718 -0.3875  1.2657
 8585SOL     OW37387   1.976   0.957   8.253  0.4890  0.2661  0.4284
 8585SOL    HW137388   2.006   1.012   8.326  0.6045  3.0889 -1.7356
 8585SOL    HW237389   1.945   1.029   8.198  2.3095  1.1964  0.5962
 8586SOL     OW37390   0.599   2.557  14.163 -0.1016  0.7002  0.4533
 8586SOL    HW137391   0.523   2.616  14.163 -0.3991  0.3187  2.1055
 8586SOL    HW237392   0.636   2.581  14.078 -0.0082  1.8564  0.8232
 8587SOL     OW37393   1.639   0.315   6.618  0.5632 -0.3833  0.3474
 8587SOL    HW137394   1.595   0.313   6.703  0.1979  2.6217  0.2416
 8587SOL    HW237395   1.712   0.260   6.646 -0.2107 -0.1824  2.7279
 8588SOL     OW37396   1.321   0.037   0.431 -0.0199 -0.0591  0.4525
 8588SOL    HW137397   1.279   0.100   0.490 -0.0811  1.6233 -1.4145
 8588SOL    HW237398   1.242   0.000   0.390  0.6066 -0.3097 -0.5200
 8589SOL     OW37399   3.907   2.501   6.096  0.0168 -0.4320  0.1146
 8589SOL    HW137400   3.915   2.416   6.052 -3.4905 -0.1323 -1.0670
 8589SOL    HW237401   3.943   2.552   6.023 -0.5024  1.5038  1.2052
 8590SOL     OW37402   1.807   2.603   6.594 -0.1758  0.1595 -0.8892
 8590SOL    HW137403   1.778   2.686   6.558 -0.7681 -1.1629 -3.4643
 8590SOL    HW237404   1.751   2.535   6.556 -0.7223 -1.6212  3.1061
 8591SOL     OW37405   4.065   3.318  14.222  0.1988 -0.0444 -0.3016
 8591SOL    HW137406   4.063   3.273  14.138 -1.7017 -0.7624  0.1261
 8591SOL    HW237407   4.159   3.317  14.240  0.6026 -1.6461 -2.5920
 8592SOL     OW37408   2.540   2.392   9.452 -0.1222 -0.3747  0.0714
 8592SOL    HW137409   2.449   2.364   9.443 -0.0621 -0.0763 -1.4498
 8592SOL    HW237410   2.529   2.481   9.417  0.2683 -0.2176  0.3516
 8593SOL     OW37411   2.654   2.325   2.068  0.1451 -0.0960 -0.3501
 8593SOL    HW137412   2.596   2.318   1.992  1.1398  0.7748 -1.1988
 8593SOL    HW237413   2.600   2.357   2.140 -0.5200 -0.5306 -0.6589
 8594SOL     OW37414   2.930   2.446   6.682  0.7576 -1.5106  0.0103
 8594SOL    HW137415   2.936   2.488   6.595  2.0026  0.4159  1.0314
 8594SOL    HW237416   2.940   2.524   6.737  2.2790 -1.3685 -0.4804
 8595SOL     OW37417   4.494   1.284   4.615  0.2032 -0.7250 -0.2916
 8595SOL    HW137418   4.497   1.295   4.520  0.6101  1.2660 -0.0509
 8595SOL    HW237419   4.409   1.239   4.617 -0.0793 -0.1722  0.2450
 8596SOL     OW37420   4.225   4.146   5.310  0.7468  0.0292 -0.1727
 8596SOL    HW137421   4.269   4.230   5.299  0.6107  0.2372  0.9032
 8596SOL    HW237422   4.247   4.114   5.398  0.6786 -2.3026 -0.9946
 8597SOL     OW37423   0.700   3.794   8.253 -0.2901  0.1411 -0.5567
 8597SOL    HW137424   0.658   3.749   8.180 -0.1520 -0.8899 -0.0040
 8597SOL    HW237425   0.773   3.737   8.280  0.9593  2.6989  1.4082
 8598SOL     OW37426   4.001   4.002   7.718  0.2813  0.2174 -0.5003
 8598SOL    HW137427   3.914   3.968   7.739  0.5091 -0.2374 -0.2963
 8598SOL    HW237428   3.988   4.026   7.626 -0.2655  1.0145 -0.2183
 8599SOL     OW37429   2.654   2.819   4.043  0.0324 -0.1470  0.2596
 8599SOL    HW137430   2.733   2.836   4.095  0.1268 -0.4124  0.2055
 8599SOL    HW237431   2.629   2.909   4.022  0.9323  0.0138 -0.1244
 8600SOL     OW37432   3.810   4.370  13.778  0.2453  0.0234  0.3827
 8600SOL    HW137433   3.865   4.319  13.839 -2.2431 -3.4133 -0.2299
 8600SOL    HW237434   3.730   4.380  13.829 -0.6417  1.3270 -1.2857
 8601SOL     OW37435   1.196   3.287   3.808 -0.3341  0.4789 -0.2025
 8601SOL    HW137436   1.234   3.372   3.783 -0.0040  0.2271 -0.5584
 8601SOL    HW237437   1.172   3.253   3.722 -0.7240 -0.5532  0.3211
 8602SOL     OW37438   2.331   3.822   8.129  0.3273  0.2116  0.2862
 8602SOL    HW137439   2.327   3.890   8.062 -0.1190 -1.5727 -1.4856
 8602SOL    HW237440   2.289   3.748   8.087 -0.5712  0.3417  0.9522
 8603SOL     OW37441   3.764   4.587   4.088 -0.1061  0.3825 -0.2520
 8603SOL    HW137442   3.801   4.557   4.171 -0.0860 -0.2863 -0.5058
 8603SOL    HW237443   3.703   4.515   4.074  0.3506  0.1802 -1.2232
 8604SOL     OW37444   4.486   1.857   9.374  0.5660  0.3077  0.3797
 8604SOL    HW137445   4.573   1.826   9.397  1.3772  2.5113  0.3038
 8604SOL    HW237446   4.496   1.950   9.354  0.8431  0.0696 -0.5903
 8605SOL     OW37447   3.216   0.379   3.168  0.1096 -0.0108 -0.0281
 8605SOL    HW137448   3.163   0.318   3.219  0.4191  2.1604  2.8389
 8605SOL    HW237449   3.304   0.377   3.206 -0.0519 -2.0086  0.2640
 8606SOL     OW37450   3.323   3.532   9.831 -0.5409  0.0816  0.7276
 8606SOL    HW137451   3.363   3.463   9.883 -2.4228 -1.2575  0.3906
 8606SOL    HW237452   3.282   3.482   9.760 -1.5340  1.6537  0.1971
 8607SOL     OW37453   3.377   2.703   6.922 -0.1612 -0.1851 -0.2031
 8607SOL    HW137454   3.301   2.674   6.973  1.0452  0.5616  2.0432
 8607SOL    HW237455   3.347   2.695   6.832 -1.1299 -1.3705  0.2299
 8608SOL     OW37456   1.588   0.524   4.157  0.0398  0.2330 -0.2435
 8608SOL    HW137457   1.588   0.613   4.192 -4.0816  0.9362 -2.0686
 8608SOL    HW237458   1.598   0.532   4.062 -0.9988  0.2900 -0.3439
 8609SOL     OW37459   0.344   2.242   6.724  0.5849 -0.2692 -0.0790
 8609SOL    HW137460   0.381   2.282   6.803  0.8556  0.7484 -0.7122
 8609SOL    HW237461   0.399   2.167   6.704  0.3205  0.2082 -2.6569
 8610SOL     OW37462   0.248   2.851   7.467  0.0090 -0.4229 -0.5202
 8610SOL    HW137463   0.271   2.936   7.427  1.3244 -0.2372  0.6210
 8610SOL    HW237464   0.162   2.839   7.428  0.5737 -1.2038 -1.5183
 8611SOL     OW37465   1.664   2.764  17.373  0.1885 -0.3132 -0.8176
 8611SOL    HW137466   1.758   2.771  17.360  0.3298 -0.8819 -0.1337
 8611SOL    HW237467   1.678   2.709  17.450 -3.1662  0.4193  0.3105
 8612SOL     OW37468   0.594   4.222   3.892  0.2848  0.5284  0.1229
 8612SOL    HW137469   0.526   4.155   3.888 -0.3757  1.2307 -0.4786
 8612SOL    HW237470   0.591   4.250   3.800 -1.3545 -1.2598 -0.3777
 8613SOL     OW37471   1.465   2.719   3.529 -0.0879  0.9081 -0.3711
 8613SOL    HW137472   1.418   2.799   3.554 -0.1896  1.1663 -1.3996
 8613SOL    HW237473   1.523   2.767   3.470  1.2754 -1.7332 -1.1740
 8614SOL     OW37474   2.894   1.437   4.197 -0.4718  0.3375 -0.4056
 8614SOL    HW137475   2.893   1.423   4.292 -0.0025 -0.0487 -0.4561
 8614SOL    HW237476   2.832   1.509   4.189 -0.3164  0.7672  2.1681
 8615SOL     OW37477   4.401   3.702   6.732  0.0564 -0.1198  0.1071
 8615SOL    HW137478   4.313   3.738   6.725  0.0125 -0.0693  0.9573
 8615SOL    HW237479   4.452   3.783   6.736 -1.1396  0.7932 -2.8634
 8616SOL     OW37480   0.287   3.501   5.566 -0.0334  0.7425  0.1277
 8616SOL    HW137481   0.238   3.420   5.549 -0.6515  0.6041  2.5539
 8616SOL    HW237482   0.368   3.475   5.522 -0.1946 -1.2641  1.0281
 8617SOL     OW37483   0.549   4.272   9.399 -0.3413 -0.1205 -0.5169
 8617SOL    HW137484   0.461   4.287   9.435  0.8160  6.9541 -0.5499
 8617SOL    HW237485   0.538   4.178   9.390 -1.2026 -0.1987  1.3276
 8618SOL     OW37486   2.232   1.638  11.861  0.0482 -0.2593  0.5458
 8618SOL    HW137487   2.140   1.651  11.840 -0.1814  0.6046  2.1203
 8618SOL    HW237488   2.269   1.718  11.823 -1.8449 -0.3264 -1.3914
 8619SOL     OW37489   3.886   4.554   6.936  0.4612 -0.7532  0.0885
 8619SOL    HW137490   3.938   4.595   6.866 -0.6676 -0.0102 -0.3205
 8619SOL    HW237491   3.822   4.624   6.947  1.6208  0.1236  1.3015
 8620SOL     OW37492   3.885   3.603   4.721 -0.2394  0.4964 -0.4734
 8620SOL    HW137493   3.865   3.653   4.642 -0.5945 -0.1448 -0.7859
 8620SOL    HW237494   3.971   3.572   4.693 -0.9559 -0.8684 -1.1503
 8621SOL     OW37495   3.861   3.879  16.337 -0.1443 -0.7393  1.0180
 8621SOL    HW137496   3.850   3.890  16.242  1.4214 -0.1454  0.9109
 8621SOL    HW237497   3.791   3.940  16.360 -0.1347 -0.4490  0.2797
 8622SOL     OW37498   2.354   4.231   3.970 -0.3509 -0.0742 -0.2479
 8622SOL    HW137499   2.353   4.320   3.935 -0.7030 -0.0061 -0.0593
 8622SOL    HW237500   2.271   4.241   4.016  0.3767 -0.9800  1.2432
 8623SOL     OW37501   4.136   3.280   1.196 -0.1952  0.0475 -0.1795
 8623SOL    HW137502   4.187   3.325   1.130 -0.7262 -2.0520 -2.0387
 8623SOL    HW237503   4.148   3.340   1.269  0.4563 -1.0198  0.5923
 8624SOL     OW37504   3.374   4.182   5.664 -0.1127  0.0087 -0.1817
 8624SOL    HW137505   3.442   4.165   5.729  0.5834  1.8061 -0.4378
 8624SOL    HW237506   3.291   4.163   5.709  0.3773 -1.2741  0.1778
 8625SOL     OW37507   0.488   2.554   6.743  0.3778  0.0190  0.0331
 8625SOL    HW137508   0.492   2.580   6.651  1.4489 -1.4041 -0.3207
 8625SOL    HW237509   0.392   2.553   6.751  0.4602 -1.7549  0.8120
 8626SOL     OW37510   0.774   4.456   2.844 -0.5573 -0.4654 -0.3753
 8626SOL    HW137511   0.773   4.369   2.884  1.7241 -0.8803 -1.2759
 8626SOL    HW237512   0.821   4.439   2.763 -1.5153  1.3726 -1.3423
 8627SOL     OW37513   4.088   4.231   9.843  0.2558  0.1224 -0.1178
 8627SOL    HW137514   4.024   4.161   9.828 -0.1187  0.1633  1.2883
 8627SOL    HW237515   4.047   4.312   9.812  3.3594  0.5578 -3.0933
 8628SOL     OW37516   3.199   0.934  16.201  0.5106  0.4677  0.3071
 8628SOL    HW137517   3.188   0.854  16.150 -2.1569 -0.8599  3.0102
 8628SOL    HW237518   3.234   0.997  16.138  1.6506  1.4769  1.9324
 8629SOL     OW37519   3.485   4.452   7.417  0.6021  0.5889 -0.0258
 8629SOL    HW137520   3.516   4.395   7.488 -1.0023 -0.2499  0.0032
 8629SOL    HW237521   3.488   4.531   7.470  1.2484  1.7994 -1.8486
 8630SOL     OW37522   1.942   1.241   5.148 -0.0749  0.1839 -0.1904
 8630SOL    HW137523   2.003   1.290   5.093  1.2984  0.3608  1.5059
 8630SOL    HW237524   1.855   1.256   5.111 -0.9611  1.8297  2.5893
 8631SOL     OW37525   1.533   3.104  16.734 -0.4696  0.0412 -0.4115
 8631SOL    HW137526   1.609   3.157  16.757  0.2063 -0.3772 -1.7010
 8631SOL    HW237527   1.463   3.169  16.748 -0.7811 -0.3022 -0.3623
 8632SOL     OW37528   1.816   0.539   6.507 -0.1789  0.2593 -0.0852
 8632SOL    HW137529   1.746   0.499   6.559  1.0438 -1.1236  0.4941
 8632SOL    HW237530   1.898   0.523   6.554 -0.1621 -0.9812 -0.5433
 8633SOL     OW37531   3.338   2.818  11.790  0.1200 -0.3943  0.2823
 8633SOL    HW137532   3.330   2.913  11.796  0.1426 -0.3844  0.1608
 8633SOL    HW237533   3.273   2.805  11.720  0.5737  0.0609 -0.2209
 8634SOL     OW37534   4.481   1.581   3.884 -0.5719  1.0347 -0.0474
 8634SOL    HW137535   4.553   1.522   3.904 -1.3781  0.2434  0.5106
 8634SOL    HW237536   4.527   1.665   3.885 -0.0096  0.7300 -0.0215
 8635SOL     OW37537   4.705   4.688  17.546 -0.2034  0.6740 -0.1766
 8635SOL    HW137538   4.725   4.720  17.634 -1.8333  1.4799 -0.0953
 8635SOL    HW237539   4.659   4.608  17.575 -0.9752  0.6281 -1.5356
 8636SOL     OW37540   0.567   0.710   1.540  0.5037  0.8740  0.4006
 8636SOL    HW137541   0.657   0.683   1.560  0.3717  0.2372  0.1524
 8636SOL    HW237542   0.552   0.696   1.447 -2.3410 -2.0846  1.2937
 8637SOL     OW37543   3.789   4.057   4.241 -0.2169  0.2288 -0.0253
 8637SOL    HW137544   3.860   4.121   4.240  1.3284 -1.4914  0.3895
 8637SOL    HW237545   3.736   4.108   4.302 -0.3757 -0.0849  0.0957
 8638SOL     OW37546   4.447   4.611   1.808  0.4616  0.1575  0.1091
 8638SOL    HW137547   4.454   4.516   1.794 -2.1337  0.0730 -0.5698
 8638SOL    HW237548   4.507   4.644   1.742  1.9098 -0.9923  0.8262
 8639SOL     OW37549   1.826   1.422   6.110  0.3896  0.4821  0.6366
 8639SOL    HW137550   1.831   1.426   6.014  0.0027 -1.7038  0.5186
 8639SOL    HW237551   1.815   1.327   6.120 -3.6752  0.8610 -0.1288
 8640SOL     OW37552   3.847   1.359  15.296  0.2475 -0.0961  0.0805
 8640SOL    HW137553   3.764   1.318  15.271  0.5341 -1.5835  1.5931
 8640SOL    HW237554   3.894   1.371  15.213 -0.3352  0.0115 -0.2332
 8641SOL     OW37555   2.615   0.766   6.777  0.2014  0.0832  0.0629
 8641SOL    HW137556   2.593   0.859   6.774 -2.4600 -0.6385 -3.4773
 8641SOL    HW237557   2.697   0.761   6.728  0.2688  0.6634  0.1201
 8642SOL     OW37558   0.698   0.112   7.350  0.4103  0.5574  0.1702
 8642SOL    HW137559   0.752   0.092   7.427  0.9291 -1.5822 -0.7541
 8642SOL    HW237560   0.706   0.204   7.328  3.2777  0.1025 -0.6616
 8643SOL     OW37561   1.642   0.794   8.975 -0.5562  0.6160 -0.0896
 8643SOL    HW137562   1.726   0.750   8.990 -0.7055  1.1940  2.5161
 8643SOL    HW237563   1.600   0.748   8.903 -0.8609 -0.0813  0.5407
 8644SOL     OW37564   3.226   3.504   8.583 -0.2349  0.0019  0.2696
 8644SOL    HW137565   3.264   3.585   8.549 -3.1778  1.5132  0.5502
 8644SOL    HW237566   3.182   3.475   8.503 -0.5342  0.9190  0.1061
 8645SOL     OW37567   4.210   3.510   5.828 -0.1114 -0.1916  0.5567
 8645SOL    HW137568   4.185   3.419   5.844  0.6554 -0.4643  0.1568
 8645SOL    HW237569   4.290   3.519   5.880  0.2039  0.3530 -0.0300
 8646SOL     OW37570   0.322   3.852   8.094  0.1640  0.1920  0.2447
 8646SOL    HW137571   0.324   3.862   8.189 -0.6500  0.6305  0.2085
 8646SOL    HW237572   0.410   3.879   8.065 -0.0757 -1.0353 -1.6485
 8647SOL     OW37573   0.584   3.213   8.094  0.1726  0.2212  0.0658
 8647SOL    HW137574   0.579   3.219   7.999  0.0577  0.7829  0.1082
 8647SOL    HW237575   0.532   3.134   8.112  1.5263 -1.1618 -2.1419
 8648SOL     OW37576   1.254   3.913   8.572 -0.7701  0.5378  0.1073
 8648SOL    HW137577   1.194   3.917   8.647  2.0081  1.4930  2.3201
 8648SOL    HW237578   1.318   3.982   8.592  0.6137 -1.0670  1.1313
 8649SOL     OW37579   3.538   1.330   6.837  0.1634 -0.1992  0.8425
 8649SOL    HW137580   3.513   1.237   6.838  0.0554 -0.1997 -2.5632
 8649SOL    HW237581   3.540   1.349   6.931  0.7390  1.6149  0.4596
 8650SOL     OW37582   0.884   1.996   2.406  0.1979  0.0554 -0.0148
 8650SOL    HW137583   0.946   1.952   2.464  1.6408  1.8578 -0.1650
 8650SOL    HW237584   0.841   1.923   2.362 -0.0542 -0.5592  1.2409
 8651SOL     OW37585   0.073   2.773   9.440 -0.3792  0.7623  0.0649
 8651SOL    HW137586   0.127   2.809   9.510 -2.6023  0.9840  1.6504
 8651SOL    HW237587   0.021   2.701   9.475 -0.5742  1.7929  1.8568
 8652SOL     OW37588   0.222   3.688   8.892 -0.8512  0.7681 -0.0908
 8652SOL    HW137589   0.236   3.766   8.946  0.4229  0.7403 -0.3723
 8652SOL    HW237590   0.292   3.693   8.827 -0.2576 -1.3983  0.3891
 8653SOL     OW37591   4.218   1.174   3.853 -0.0540  0.0673  0.1279
 8653SOL    HW137592   4.199   1.165   3.946 -1.3676 -2.0477 -0.3440
 8653SOL    HW237593   4.176   1.093   3.823 -0.5192  0.5164 -0.4492
 8654SOL     OW37594   3.618   2.012   9.743 -0.3290 -0.3738 -0.1330
 8654SOL    HW137595   3.694   2.067   9.720  0.6399 -0.6092  2.5055
 8654SOL    HW237596   3.553   2.034   9.676  0.7798  1.9388 -0.4872
 8655SOL     OW37597   3.625   0.634   4.390 -0.0008 -0.6623  0.0016
 8655SOL    HW137598   3.675   0.577   4.332  0.6133  1.6823 -1.8064
 8655SOL    HW237599   3.628   0.592   4.476  0.5770  1.1052  0.8425
 8656SOL     OW37600   3.667   1.114   8.580  0.9341 -0.2625  0.0779
 8656SOL    HW137601   3.574   1.107   8.602  0.4846  1.3698 -1.2936
 8656SOL    HW237602   3.655   1.148   8.491 -0.4203 -0.5665  0.1534
 8657SOL     OW37603   0.372   3.133   5.749 -0.0148  0.4400 -0.0235
 8657SOL    HW137604   0.282   3.128   5.783  1.0992 -0.2607  2.8383
 8657SOL    HW237605   0.365   3.188   5.671 -2.5109 -0.1928 -0.2349
 8658SOL     OW37606   1.220   2.422   4.378 -0.0980  0.0235  0.0958
 8658SOL    HW137607   1.268   2.342   4.358  0.7249  0.1693  1.5473
 8658SOL    HW237608   1.283   2.470   4.431 -0.2663 -0.0250  0.3428
 8659SOL     OW37609   0.376   4.165   1.390 -1.1800 -0.5376  0.1213
 8659SOL    HW137610   0.455   4.167   1.442 -0.7995  1.3781 -0.5448
 8659SOL    HW237611   0.393   4.233   1.325  0.0164 -0.3034  0.6897
 8660SOL     OW37612   3.997   2.486   8.380 -0.1455 -0.5198  0.1810
 8660SOL    HW137613   4.014   2.520   8.468 -0.5536  0.5987 -0.1676
 8660SOL    HW237614   3.957   2.401   8.401  0.5131 -0.7289  0.5714
 8661SOL     OW37615   0.819   3.437   8.455 -0.2383 -0.8324 -0.0043
 8661SOL    HW137616   0.832   3.495   8.380  0.9333 -0.7219  0.2920
 8661SOL    HW237617   0.800   3.504   8.520  0.8689  0.5917 -1.1510
 8662SOL     OW37618   1.088   4.466  15.048 -0.4033 -0.1561 -0.1245
 8662SOL    HW137619   1.001   4.442  15.079 -0.0786 -0.7403  0.3369
 8662SOL    HW237620   1.122   4.377  15.040 -3.1193 -1.2442  0.4903
 8663SOL     OW37621   1.876   0.758   2.962  0.4393 -0.0146 -0.0071
 8663SOL    HW137622   1.835   0.729   2.880  0.7677 -0.8709  0.1273
 8663SOL    HW237623   1.934   0.827   2.931  0.3118  0.1940  0.2241
 8664SOL     OW37624   0.328   3.848   2.482  0.0615 -0.1478  0.4324
 8664SOL    HW137625   0.423   3.863   2.476 -0.1097  0.2137 -1.2722
 8664SOL    HW237626   0.300   3.905   2.411  2.6891 -0.0155 -0.5268
 8665SOL     OW37627   1.936   2.361  12.368  0.3587 -0.1564  0.6375
 8665SOL    HW137628   1.913   2.452  12.388 -0.1698 -0.3373  0.8538
 8665SOL    HW237629   2.013   2.358  12.425 -0.0383  0.9037  1.2374
 8666SOL     OW37630   2.487   3.828  16.574  0.1565 -0.0261 -0.2219
 8666SOL    HW137631   2.501   3.785  16.658 -0.8234  1.5652  0.7529
 8666SOL    HW237632   2.471   3.921  16.592  1.2933 -0.1063  1.1695
 8667SOL     OW37633   2.644   0.044   3.295  0.5125  0.5706  0.3954
 8667SOL    HW137634   2.570   0.041   3.234 -0.2664 -0.3760  1.3767
 8667SOL    HW237635   2.676   0.132   3.276 -1.0509  0.7351 -1.5506
 8668SOL     OW37636   1.083   1.465  16.509  0.1655 -0.5748 -0.5476
 8668SOL    HW137637   1.022   1.498  16.443 -0.9990 -1.2744  0.1847
 8668SOL    HW237638   1.151   1.420  16.458  1.6908  0.8401  0.2029
 8669SOL     OW37639   1.399   0.997  10.614 -0.3796 -0.7384  0.4244
 8669SOL    HW137640   1.351   0.944  10.550 -1.4295 -0.7230  1.1991
 8669SOL    HW237641   1.325   1.050  10.644 -1.9676 -1.3507 -2.4253
 8670SOL     OW37642   0.360   3.198   0.933  0.2125  0.2124 -0.6499
 8670SOL    HW137643   0.296   3.258   0.894 -1.5202 -1.9395 -1.1437
 8670SOL    HW237644   0.421   3.263   0.968  0.8175  1.1420 -3.4086
 8671SOL     OW37645   4.423   1.275   2.794  0.2894  0.1011  0.5743
 8671SOL    HW137646   4.463   1.356   2.825  1.1631 -0.2132  0.2757
 8671SOL    HW237647   4.329   1.292   2.799 -0.1199 -1.5261 -1.4279
 8672SOL     OW37648   2.242   4.059   8.871 -0.5679  0.0049 -0.2964
 8672SOL    HW137649   2.252   3.973   8.912  3.4369  0.4910 -0.2198
 8672SOL    HW237650   2.217   4.017   8.788 -0.8205  0.4725 -0.4566
 8673SOL     OW37651   4.199   2.294   3.318  0.3037 -0.0013  0.3530
 8673SOL    HW137652   4.114   2.252   3.305  0.8711 -1.4169  1.1189
 8673SOL    HW237653   4.212   2.361   3.252  1.7171 -1.9237 -1.3272
 8674SOL     OW37654   1.389   1.971   5.212  0.7829 -0.7847  0.3374
 8674SOL    HW137655   1.441   1.998   5.288 -1.4279  1.0233  1.1939
 8674SOL    HW237656   1.389   1.876   5.205 -1.7275 -0.7970  0.6670
 8675SOL     OW37657   1.884   2.573  12.527 -0.6976 -0.8059  0.3443
 8675SOL    HW137658   1.938   2.538  12.598  0.1264 -2.9448 -1.3695
 8675SOL    HW237659   1.933   2.653  12.506  1.0956 -1.6792  1.1567
 8676SOL     OW37660   1.579   2.034   3.317 -0.4826 -0.1817 -0.8306
 8676SOL    HW137661   1.650   2.015   3.378  0.4001 -2.3896 -2.5624
 8676SOL    HW237662   1.509   1.981   3.355 -0.6003  1.5547  1.4264
 8677SOL     OW37663   4.191   1.849   0.143 -0.0763 -0.0876 -0.3182
 8677SOL    HW137664   4.119   1.909   0.165 -0.3243 -1.6018  3.0695
 8677SOL    HW237665   4.154   1.779   0.090 -1.4595 -0.4684  1.1587
 8678SOL     OW37666   3.793   3.037   7.444 -0.0112 -0.2250  0.7150
 8678SOL    HW137667   3.848   3.107   7.480  0.1376  0.6074 -1.1475
 8678SOL    HW237668   3.786   2.985   7.524  1.0593 -0.9048  0.3677
 8679SOL     OW37669   0.078   1.762  15.235 -0.2286 -0.1181 -0.4693
 8679SOL    HW137670   0.062   1.683  15.183 -0.6586 -0.8260  0.7280
 8679SOL    HW237671   4.725   1.778  15.264  0.3847 -1.7157  2.3669
 8680SOL     OW37672   4.634   3.670   1.509 -0.1064 -0.5064 -0.0506
 8680SOL    HW137673   4.711   3.619   1.534 -1.5141 -3.2353 -1.2251
 8680SOL    HW237674   4.638   3.683   1.414  3.0858 -0.2820  0.1312
 8681SOL     OW37675   2.667   1.491   3.145  0.0448  0.0409 -0.6445
 8681SOL    HW137676   2.761   1.504   3.132  0.5861 -3.2575 -0.0812
 8681SOL    HW237677   2.659   1.492   3.240 -0.0519 -1.7271 -0.6391
 8682SOL     OW37678   4.192   4.445   6.526 -0.0024 -0.1573 -0.3953
 8682SOL    HW137679   4.175   4.351   6.518 -1.0401  0.0272 -0.3976
 8682SOL    HW237680   4.154   4.472   6.443 -2.3335 -2.7699 -0.1821
 8683SOL     OW37681   1.367   3.126   7.908 -0.6546  0.0559 -0.2180
 8683SOL    HW137682   1.397   3.068   7.979  0.0608  0.1837 -0.4140
 8683SOL    HW237683   1.275   3.106   7.891 -1.0496 -1.0478  3.0540
 8684SOL     OW37684   3.350   3.477  15.098 -0.1336  0.2100  0.5267
 8684SOL    HW137685   3.293   3.407  15.130  0.2212 -0.5924 -0.5908
 8684SOL    HW237686   3.329   3.479  15.005  1.9397  2.6178  0.1337
 8685SOL     OW37687   0.281   3.306   9.467 -0.0362  0.2237 -0.5727
 8685SOL    HW137688   0.296   3.218   9.500 -0.1854 -0.7329 -3.0606
 8685SOL    HW237689   0.356   3.319   9.409  0.6244  3.1451  0.9483
 8686SOL     OW37690   0.204   0.105   2.521 -0.1943 -0.2787  0.5647
 8686SOL    HW137691   0.246   0.019   2.530  1.2675  0.5101  1.3505
 8686SOL    HW237692   0.196   0.119   2.427 -0.8363 -0.2959  0.6181
 8687SOL     OW37693   3.456   2.163   8.544 -0.3024 -0.0231  0.2343
 8687SOL    HW137694   3.404   2.084   8.532 -1.8691  0.5648  2.8785
 8687SOL    HW237695   3.541   2.123   8.563 -0.4262 -0.6526 -0.5626
 8688SOL     OW37696   2.802   2.432   7.913  0.4020 -0.0652 -0.1562
 8688SOL    HW137697   2.886   2.468   7.884  0.0053 -1.1779 -2.7174
 8688SOL    HW237698   2.751   2.511   7.930  0.9955  0.6130 -1.5237
 8689SOL     OW37699   2.172   0.985  16.937  0.0296 -0.1564 -0.0523
 8689SOL    HW137700   2.260   0.982  16.973 -0.1977  1.7572  0.6521
 8689SOL    HW237701   2.110   0.946  16.999  1.3496  0.6189  1.7198
 8690SOL     OW37702   1.592   1.205  10.560  0.2192  0.5716 -0.1423
 8690SOL    HW137703   1.620   1.175  10.474  1.7047 -1.7254  1.1191
 8690SOL    HW237704   1.532   1.138  10.593  1.5316 -0.5677 -0.0599
 8691SOL     OW37705   1.100   2.184  15.550  0.7607 -0.3259 -0.5235
 8691SOL    HW137706   1.186   2.222  15.530  0.9312 -0.5236 -0.1759
 8691SOL    HW237707   1.046   2.263  15.549  1.6936  0.3063 -1.7887
 8692SOL     OW37708   2.867   0.994   8.145  0.0852  0.0114 -0.2214
 8692SOL    HW137709   2.772   0.990   8.136  0.1197 -0.7431 -0.3234
 8692SOL    HW237710   2.898   0.972   8.057 -2.5769 -0.6848 -0.9827
 8693SOL     OW37711   0.730   2.249   5.574  0.1182  0.1408  0.5885
 8693SOL    HW137712   0.723   2.213   5.485 -1.8423 -0.1449  0.8577
 8693SOL    HW237713   0.646   2.290   5.593  0.8017  0.6510  2.4423
 8694SOL     OW37714   3.025   2.119  13.808  0.1007  0.1448 -0.5480
 8694SOL    HW137715   2.991   2.030  13.820  1.2824 -0.2473 -0.1530
 8694SOL    HW237716   3.110   2.106  13.768  1.1367  1.2659  1.2580
 8695SOL     OW37717   2.858   2.241  14.524 -0.3949  0.3527 -0.0635
 8695SOL    HW137718   2.902   2.271  14.445  0.9494  0.7449  0.8300
 8695SOL    HW237719   2.772   2.273  14.497 -0.7339  0.9629  1.7019
 8696SOL     OW37720   0.940   4.603   8.363 -0.0803  0.5198  0.1779
 8696SOL    HW137721   0.990   4.660   8.422 -1.4160  1.3177  0.5381
 8696SOL    HW237722   0.988   4.592   8.281  2.7569 -0.4369  1.9698
 8697SOL     OW37723   1.569   1.089   3.523 -0.7114  0.0916 -0.4876
 8697SOL    HW137724   1.555   1.146   3.447  2.5085  1.4187 -0.0544
 8697SOL    HW237725   1.664   1.090   3.529 -0.8511 -0.3067  1.7284
 8698SOL     OW37726   0.631   2.031  16.882 -0.1548 -0.1381  0.4576
 8698SOL    HW137727   0.592   1.948  16.852  0.4914 -0.9188  1.7639
 8698SOL    HW237728   0.567   2.046  16.950  0.0457 -0.5543  0.7435
 8699SOL     OW37729   0.694   4.084   3.292 -0.2260  0.6554 -0.3300
 8699SOL    HW137730   0.711   4.123   3.378  0.3685 -1.8823  0.6837
 8699SOL    HW237731   0.740   4.148   3.237  1.0751 -0.5414 -0.6238
 8700SOL     OW37732   3.937   3.728  12.883 -0.0800  0.0360 -0.1808
 8700SOL    HW137733   3.908   3.807  12.929 -0.0246  0.8018 -1.4375
 8700SOL    HW237734   4.015   3.758  12.836  1.3547 -0.0762  2.1337
 8701SOL     OW37735   3.352   1.074   9.056  0.1844 -0.3923 -0.3394
 8701SOL    HW137736   3.439   1.113   9.052  0.3002 -0.8343 -2.1572
 8701SOL    HW237737   3.364   0.982   9.077 -1.3142 -0.3148  0.8405
 8702SOL     OW37738   3.150   4.183   5.813  0.2767  0.0742  0.2497
 8702SOL    HW137739   3.116   4.188   5.902 -0.7542 -0.6891 -0.1105
 8702SOL    HW237740   3.074   4.205   5.759 -0.1681 -0.8737  0.5038
 8703SOL     OW37741   3.710   1.833   5.671 -0.3516  0.2257  0.7568
 8703SOL    HW137742   3.770   1.871   5.607 -0.5673 -1.4541 -0.4271
 8703SOL    HW237743   3.635   1.893   5.678  0.4317  1.3168 -0.2083
 8704SOL     OW37744   2.433   4.223   5.691  0.2163  0.8568  0.6538
 8704SOL    HW137745   2.524   4.196   5.675 -0.3249 -0.2759 -0.4732
 8704SOL    HW237746   2.438   4.314   5.661 -1.1907  0.2518 -1.3384
 8705SOL     OW37747   3.702   2.153  15.103  0.3246 -0.2520 -0.0477
 8705SOL    HW137748   3.752   2.091  15.051 -0.9077  1.7112 -3.5508
 8705SOL    HW237749   3.781   2.197  15.135  1.8800 -1.2698 -2.4838
 8706SOL     OW37750   4.553   3.766   9.713 -0.1022 -0.3672 -0.3692
 8706SOL    HW137751   4.642   3.791   9.688 -0.3600  1.2269  0.2788
 8706SOL    HW237752   4.565   3.671   9.722  2.1085 -0.0934 -0.4374
 8707SOL     OW37753   2.070   1.895   3.307  0.2079 -0.0110  0.3693
 8707SOL    HW137754   2.073   1.986   3.335  2.7765  0.0225 -0.0115
 8707SOL    HW237755   1.987   1.871   3.267  0.0329  1.4156 -0.0986
 8708SOL     OW37756   2.288   4.348  13.500 -0.1407  0.8102 -0.1915
 8708SOL    HW137757   2.240   4.284  13.449 -0.5408 -0.6512  2.0544
 8708SOL    HW237758   2.269   4.430  13.453  0.1267  2.2750  2.2305
 8709SOL     OW37759   3.620   3.601   8.366  0.0666  0.2308  0.4304
 8709SOL    HW137760   3.600   3.514   8.330 -1.1564  0.4052  0.6741
 8709SOL    HW237761   3.674   3.574   8.441  3.1580 -0.7394 -2.1188
 8710SOL     OW37762   0.089   4.367   7.794 -0.4581 -0.1154 -0.0163
 8710SOL    HW137763   0.175   4.364   7.835  0.6474  1.3201 -2.2020
 8710SOL    HW237764   0.081   4.279   7.757 -1.1086  0.6930 -1.7916
 8711SOL     OW37765   4.015   0.566   6.317  0.1478 -0.1866 -0.1233
 8711SOL    HW137766   3.925   0.549   6.343  0.1998  1.4922  1.1640
 8711SOL    HW237767   4.011   0.629   6.244 -1.7102 -0.9720 -0.7084
 8712SOL     OW37768   3.598   0.472  14.266  0.0934 -0.1674  0.8684
 8712SOL    HW137769   3.544   0.511  14.197 -1.4328 -1.0367  1.5632
 8712SOL    HW237770   3.680   0.503  14.229 -0.1126 -1.3154 -0.5382
 8713SOL     OW37771   2.595   3.788   3.204 -0.1666 -0.5551  0.2772
 8713SOL    HW137772   2.537   3.834   3.265  0.6659  0.1450  0.5274
 8713SOL    HW237773   2.638   3.859   3.157 -1.7154  0.5897  0.6062
 8714SOL     OW37774   3.643   3.806  10.051  0.3264  0.2827  0.8092
 8714SOL    HW137775   3.561   3.758  10.037  1.4838 -1.7436  0.8907
 8714SOL    HW237776   3.655   3.841   9.963 -0.5506  0.7219  0.8648
 8715SOL     OW37777   1.191   3.568   1.963  0.0225 -0.0382 -0.1640
 8715SOL    HW137778   1.252   3.614   1.906 -3.2737 -0.0708 -3.7256
 8715SOL    HW237779   1.153   3.496   1.913 -0.3948  0.0955 -0.0412
 8716SOL     OW37780   0.214   2.490   1.913 -0.0866  0.9919 -0.2902
 8716SOL    HW137781   0.138   2.511   1.859 -0.7774 -1.0302 -0.1283
 8716SOL    HW237782   0.183   2.457   1.997  0.8022  0.4827 -0.1541
 8717SOL     OW37783   0.851   3.461   9.182 -0.3470 -0.3371  0.0024
 8717SOL    HW137784   0.864   3.545   9.227 -1.3945  1.7579 -3.6526
 8717SOL    HW237785   0.797   3.418   9.248  0.0085  0.2889  0.7023
 8718SOL     OW37786   0.774   0.022   3.523  0.0689  0.5009 -0.4012
 8718SOL    HW137787   0.694   0.067   3.550  2.3130  2.1883  3.2795
 8718SOL    HW237788   0.739   4.696   3.459 -0.8073 -0.2026  0.7850
 8719SOL     OW37789   0.670   3.266   4.159  0.2713  0.2594 -0.1009
 8719SOL    HW137790   0.583   3.245   4.125  0.9505 -1.4955 -0.7556
 8719SOL    HW237791   0.731   3.227   4.097 -0.0488 -0.0974 -0.1944
 8720SOL     OW37792   2.443   3.477   4.205  0.3632  0.2780 -0.2269
 8720SOL    HW137793   2.368   3.535   4.190 -0.8132 -0.8136  1.4030
 8720SOL    HW237794   2.503   3.529   4.258 -0.6600 -1.8004  3.0045
 8721SOL     OW37795   1.194   1.893   4.703 -0.2656  0.2302  0.4442
 8721SOL    HW137796   1.185   1.876   4.797 -0.3358 -1.1111  0.1933
 8721SOL    HW237797   1.108   1.931   4.687  0.5662  0.2384 -3.8190
 8722SOL     OW37798   1.039   3.555   3.728  0.1822  0.5300  0.2893
 8722SOL    HW137799   1.035   3.648   3.751  2.9046  1.1188 -1.5608
 8722SOL    HW237800   1.055   3.564   3.634 -2.3507  0.8550 -0.0959
 8723SOL     OW37801   2.221   0.203   7.438 -0.9440  0.0028  0.7568
 8723SOL    HW137802   2.135   0.205   7.481 -0.4983  0.1218  1.6516
 8723SOL    HW237803   2.270   0.266   7.491  0.4678  0.7822 -1.4813
 8724SOL     OW37804   1.716   4.692  13.201 -0.3812  0.5792 -0.3173
 8724SOL    HW137805   1.638   0.005  13.225  0.2255  1.6743 -0.5883
 8724SOL    HW237806   1.737   0.006  13.122  0.4973 -0.3310 -0.6660
 8725SOL     OW37807   2.249   0.947  11.856  0.3560 -0.1233  0.7918
 8725SOL    HW137808   2.300   0.995  11.921  2.6883 -1.4322 -0.0751
 8725SOL    HW237809   2.160   0.949  11.892 -0.3507 -0.5958 -0.9007
 8726SOL     OW37810   3.984   0.518   8.051 -0.2031  0.6242 -0.4087
 8726SOL    HW137811   4.005   0.461   7.977  0.0146  0.0333  0.1049
 8726SOL    HW237812   4.059   0.500   8.108 -0.9079 -0.6736  0.0949
 8727SOL     OW37813   4.599   3.547   3.466  0.1564 -0.0634  0.0798
 8727SOL    HW137814   4.529   3.595   3.509 -0.9962 -0.8165 -0.9322
 8727SOL    HW237815   4.546   3.494   3.406 -1.3732 -0.3324  1.6852
 8728SOL     OW37816   4.018   2.796  13.299 -0.2205  0.4947 -0.5485
 8728SOL    HW137817   3.954   2.820  13.231  2.5804 -2.4554 -4.1705
 8728SOL    HW237818   3.950   2.772  13.362 -0.1373  0.2087 -0.5698
 8729SOL     OW37819   1.036   2.328  14.841 -0.3626  0.4002  0.4577
 8729SOL    HW137820   1.054   2.310  14.748  0.1568  0.3196  0.5752
 8729SOL    HW237821   1.030   2.238  14.873 -2.0071 -0.3204 -1.8902
 8730SOL     OW37822   2.785   2.850   2.974  0.4559 -0.2194 -0.0674
 8730SOL    HW137823   2.774   2.913   3.045  2.9624 -2.1102  1.9984
 8730SOL    HW237824   2.696   2.816   2.977  0.7693 -0.9201  1.0748
 8731SOL     OW37825   3.714   0.202   2.424  0.0895  0.1599 -0.1389
 8731SOL    HW137826   3.637   0.150   2.400  0.1227 -0.7646  1.7695
 8731SOL    HW237827   3.778   0.175   2.358  1.6095 -3.3682  2.7877
 8732SOL     OW37828   3.518   2.131   8.178 -0.0866 -0.0214 -0.2167
 8732SOL    HW137829   3.522   2.205   8.238  1.4889 -0.0223 -0.3192
 8732SOL    HW237830   3.605   2.095   8.195  0.1326 -0.1912 -1.6674
 8733SOL     OW37831   2.170   1.394  14.020  0.0027 -0.2998 -0.1799
 8733SOL    HW137832   2.240   1.332  14.041  0.5781  0.3887 -0.0650
 8733SOL    HW237833   2.185   1.470  14.076 -1.2455  1.7205 -2.5929
 8734SOL     OW37834   2.050   4.417   4.313  0.3334 -0.3647  0.6369
 8734SOL    HW137835   1.972   4.382   4.356 -0.1476  0.7524  0.6789
 8734SOL    HW237836   2.013   4.488   4.261  0.8119 -1.1256 -0.7363
 8735SOL     OW37837   3.900   1.322   5.130  0.6312  0.5711  0.7135
 8735SOL    HW137838   3.902   1.414   5.158 -1.8701  0.8637 -0.0648
 8735SOL    HW237839   3.890   1.328   5.035 -0.1669  0.1204  0.7653
 8736SOL     OW37840   2.066   1.768   9.739  0.4906 -0.4792  0.3046
 8736SOL    HW137841   1.998   1.775   9.671 -0.7763  0.9894  1.7261
 8736SOL    HW237842   2.148   1.777   9.691  1.2512  0.5428  1.8218
 8737SOL     OW37843   2.169   3.781   5.031 -0.1795  0.2316  0.2502
 8737SOL    HW137844   2.174   3.686   5.017  2.7551  0.3176  0.7807
 8737SOL    HW237845   2.250   3.783   5.082 -0.2440  3.3216  0.2120
 8738SOL     OW37846   0.929   3.350   2.774 -0.3470  0.0548  0.0510
 8738SOL    HW137847   0.887   3.436   2.772  0.4064  0.4748  2.1772
 8738SOL    HW237848   0.893   3.317   2.692 -2.4348 -0.5809  1.2307
 8739SOL     OW37849   0.818   1.471   0.655 -0.4988  0.1909  1.1542
 8739SOL    HW137850   0.855   1.485   0.568  0.4127  1.6852  1.7849
 8739SOL    HW237851   0.899   1.499   0.698 -0.6668  0.6129  1.1958
 8740SOL     OW37852   0.751   4.530   3.325 -0.2238  0.2174 -0.0560
 8740SOL    HW137853   0.746   4.586   3.247 -0.4129  0.4270  0.1079
 8740SOL    HW237854   0.834   4.483   3.311 -0.1365  0.2964  0.1933
 8741SOL     OW37855   0.208   1.477   2.818 -0.1696  0.1705  0.0097
 8741SOL    HW137856   0.182   1.550   2.762 -0.5774  1.3493  1.7252
 8741SOL    HW237857   0.248   1.532   2.886 -1.6252  0.3660  0.7288
 8742SOL     OW37858   0.508   4.633  10.753 -0.1455  0.3677  0.3528
 8742SOL    HW137859   0.490   4.702  10.688  0.1472 -1.5468 -1.7526
 8742SOL    HW237860   0.595   4.659  10.783  0.5237 -0.0786 -1.1928
 8743SOL     OW37861   3.429   3.101  10.072 -0.0628 -0.6480 -0.2062
 8743SOL    HW137862   3.335   3.085  10.081 -0.4823  3.0284  1.8957
 8743SOL    HW237863   3.472   3.060  10.146 -1.4872 -0.0311  0.9669
 8744SOL     OW37864   0.210   2.482  14.025  0.6643 -0.4701  0.1624
 8744SOL    HW137865   0.160   2.481  13.944 -0.7313  0.6424  1.0061
 8744SOL    HW237866   0.294   2.491  13.981  0.1089  0.3615 -0.7377
 8745SOL     OW37867   0.549   3.376   0.132 -0.7567  0.4703 -0.3274
 8745SOL    HW137868   0.564   3.298   0.078 -0.2634  0.5980 -0.3736
 8745SOL    HW237869   0.594   3.445   0.083  2.2445 -1.1851  0.1004
 8746SOL     OW37870   3.904   1.692   3.686 -0.7250  0.0535  0.3500
 8746SOL    HW137871   3.979   1.747   3.708 -1.5016  0.9657  0.7218
 8746SOL    HW237872   3.955   1.637   3.626  1.0148 -1.1100  2.8623
 8747SOL     OW37873   4.661   4.702   2.895 -0.4705 -0.0500  0.0866
 8747SOL    HW137874   0.010   4.718   2.854  0.3028 -2.8740  0.5757
 8747SOL    HW237875   4.657   4.615   2.856 -3.5586  0.0815  0.0972
 8748SOL     OW37876   1.111   4.471   4.317  0.1069 -0.2657  0.2139
 8748SOL    HW137877   1.135   4.490   4.226  3.9852  0.7150  1.4609
 8748SOL    HW237878   1.177   4.406   4.341  1.3610  0.8675 -0.1682
 8749SOL     OW37879   2.040   3.312   9.161  0.4269 -0.0287 -0.5486
 8749SOL    HW137880   2.023   3.382   9.224 -1.8952 -0.1955 -0.9855
 8749SOL    HW237881   1.963   3.256   9.167 -0.1023  0.6598 -0.8849
 8750SOL     OW37882   3.329   1.609   2.088  0.1894  0.1674 -0.1078
 8750SOL    HW137883   3.348   1.660   2.009 -0.2740  0.1245 -0.2466
 8750SOL    HW237884   3.384   1.534   2.067  1.3479  0.2625  2.6486
 8751SOL     OW37885   1.691   2.074  17.396  0.3589 -0.0809  0.1529
 8751SOL    HW137886   1.718   2.166  17.392  0.0380 -0.0288 -1.0181
 8751SOL    HW237887   1.653   2.063  17.309  1.4717  2.1104 -0.6343
 8752SOL     OW37888   2.423   3.317   7.610  0.5356  0.3104  0.0850
 8752SOL    HW137889   2.408   3.412   7.613  0.5625  0.3169  0.0263
 8752SOL    HW237890   2.347   3.298   7.555  1.3369 -1.0955 -0.5482
 8753SOL     OW37891   3.932   2.544  14.395 -0.1963  0.5418  0.4348
 8753SOL    HW137892   3.910   2.609  14.462 -0.6007  0.3723  0.4654
 8753SOL    HW237893   3.883   2.593  14.329 -0.2268  0.4605  0.3966
 8754SOL     OW37894   1.283   2.232   5.095 -0.5622  0.3536  0.0108
 8754SOL    HW137895   1.215   2.179   5.054  1.7170 -1.6008 -1.2018
 8754SOL    HW237896   1.341   2.166   5.132 -0.4542  0.2692 -0.3104
 8755SOL     OW37897   3.787   0.356   4.381 -0.1631 -0.3232  0.8463
 8755SOL    HW137898   3.879   0.373   4.401 -0.1068  1.9568 -1.2935
 8755SOL    HW237899   3.760   0.429   4.437 -1.1667  1.1014 -1.5084
 8756SOL     OW37900   4.294   4.211   9.567  0.5453 -0.1456  0.0253
 8756SOL    HW137901   4.291   4.275   9.637  2.1090 -0.1508  0.1088
 8756SOL    HW237902   4.346   4.140   9.605  0.9404  1.0355  1.6532
 8757SOL     OW37903   2.563   0.589   7.029 -0.3409 -0.0408  0.6292
 8757SOL    HW137904   2.562   0.644   6.951  0.3261 -2.0533 -0.8006
 8757SOL    HW237905   2.600   0.655   7.087  0.5168  0.2253 -0.2409
 8758SOL     OW37906   3.583   2.250   5.349  0.0543 -0.6058  0.2218
 8758SOL    HW137907   3.491   2.272   5.334 -0.0542 -1.5031 -0.4600
 8758SOL    HW237908   3.615   2.241   5.260 -0.5929 -0.1080 -0.0629
 8759SOL     OW37909   4.395   1.698   3.575  0.3246 -0.1020  0.2239
 8759SOL    HW137910   4.441   1.701   3.659 -0.5269 -0.7523  0.7083
 8759SOL    HW237911   4.378   1.607   3.552  0.1804  0.0100 -0.1159
 8760SOL     OW37912   1.668   2.600   2.989  0.5348  0.3687  0.0399
 8760SOL    HW137913   1.615   2.678   2.975 -1.1027 -0.8403 -0.4343
 8760SOL    HW237914   1.741   2.644   3.033  1.2099  1.4622 -2.1619
 8761SOL     OW37915   4.038   0.608  16.528 -0.5312  0.1866  0.0746
 8761SOL    HW137916   4.012   0.519  16.552 -0.5387 -0.2611 -1.6056
 8761SOL    HW237917   4.132   0.594  16.516 -0.7135  0.8557 -2.0221
 8762SOL     OW37918   1.167   0.017   3.358 -0.2614  0.0573  0.2038
 8762SOL    HW137919   1.097   0.076   3.385 -1.3124 -0.0242 -2.3128
 8762SOL    HW237920   1.237   0.047   3.415  0.2551 -0.5522 -0.1042
 8763SOL     OW37921   2.843   4.540  11.554 -1.0725 -0.3917 -0.1982
 8763SOL    HW137922   2.801   4.464  11.593 -1.1519  0.1344  0.7593
 8763SOL    HW237923   2.793   4.555  11.474  1.2640 -1.5030 -1.8822
 8764SOL     OW37924   1.189   1.695   5.769  0.0216  0.2156 -0.0960
 8764SOL    HW137925   1.255   1.626   5.764 -0.8438 -0.5250 -1.0422
 8764SOL    HW237926   1.142   1.676   5.850  1.4431 -1.7776  0.2662
 8765SOL     OW37927   3.239   4.608   6.833 -0.4405  0.1548 -0.4005
 8765SOL    HW137928   3.220   4.570   6.919 -0.9634  1.3838  0.0257
 8765SOL    HW237929   3.293   4.535   6.803  1.8036  2.0102 -0.7618
 8766SOL     OW37930   2.004   4.275  13.187  0.0519  0.0425 -0.1414
 8766SOL    HW137931   1.957   4.356  13.206  0.9437 -0.0827  2.6235
 8766SOL    HW237932   2.089   4.309  13.161 -0.0777 -0.3162 -1.0351
 8767SOL     OW37933   0.093   3.236   9.034 -0.1019 -0.1704  0.1025
 8767SOL    HW137934   0.085   3.217   9.128 -1.0601  0.9786  0.2420
 8767SOL    HW237935   0.047   3.318   9.017 -0.8647 -0.0466  2.7513
 8768SOL     OW37936   2.705   2.200   7.070  0.1225  0.3066 -0.5683
 8768SOL    HW137937   2.627   2.146   7.057  0.7329 -0.6553 -0.1783
 8768SOL    HW237938   2.726   2.221   6.979  2.2542 -0.4199 -0.2357
 8769SOL     OW37939   3.719   2.358   9.043 -0.3162 -0.2344  0.2032
 8769SOL    HW137940   3.742   2.265   9.048  1.2561  0.2563  2.2526
 8769SOL    HW237941   3.805   2.392   9.067 -0.1634 -0.5845  0.1486
 8770SOL     OW37942   4.567   3.805  10.003  0.1267  0.6922 -0.1635
 8770SOL    HW137943   4.604   3.775   9.920  0.1422  0.1265  0.0510
 8770SOL    HW237944   4.573   3.901   9.997 -3.5623  0.8499 -1.2294
 8771SOL     OW37945   2.808   2.504   4.842  0.1076  0.1923  0.0283
 8771SOL    HW137946   2.798   2.536   4.932 -0.9897 -1.0078  0.3349
 8771SOL    HW237947   2.789   2.586   4.797  3.8357  1.0025 -0.0060
 8772SOL     OW37948   2.185   2.984   6.140 -0.5760 -0.4575  0.3916
 8772SOL    HW137949   2.109   2.928   6.133 -1.3673  0.6839 -0.2460
 8772SOL    HW237950   2.255   2.925   6.112 -0.7298 -0.5912  0.2912
 8773SOL     OW37951   0.394   2.821  14.332  0.6867 -0.6041  0.3407
 8773SOL    HW137952   0.398   2.832  14.237  0.2473 -0.0741  0.3802
 8773SOL    HW237953   0.329   2.751  14.342 -0.0107  0.2411  1.7389
 8774SOL     OW37954   2.031   4.428   6.286  0.0709  0.1109  0.0366
 8774SOL    HW137955   2.065   4.451   6.372  1.1627 -2.1389  0.1942
 8774SOL    HW237956   2.106   4.434   6.227  0.1347 -3.0970 -0.2178
 8775SOL     OW37957   3.313   0.003   6.506  0.3856  0.4698 -0.2184
 8775SOL    HW137958   3.344   0.088   6.539  0.8867  1.6350 -3.6522
 8775SOL    HW237959   3.241   0.036   6.452 -1.2841 -2.0639  0.4553
 8776SOL     OW37960   1.872   0.434   7.511 -0.8336  0.3290 -0.1679
 8776SOL    HW137961   1.882   0.463   7.421 -0.1067  0.7738  0.0547
 8776SOL    HW237962   1.906   0.505   7.565 -1.1163 -1.1242  1.9478
 8777SOL     OW37963   1.014   1.355   7.115 -0.7761 -0.1231 -0.1790
 8777SOL    HW137964   1.024   1.267   7.079  1.6968  0.5247 -1.0436
 8777SOL    HW237965   1.031   1.346   7.209 -0.0618  1.1280 -0.1996
 8778SOL     OW37966   3.309   0.447   8.251  0.3082 -0.3204 -0.4676
 8778SOL    HW137967   3.345   0.462   8.163 -1.2205 -1.5634 -1.3074
 8778SOL    HW237968   3.382   0.465   8.309 -1.4349 -0.6945  1.8315
 8779SOL     OW37969   0.052   0.062   5.267 -0.0092  0.4324  0.4129
 8779SOL    HW137970   0.072   0.037   5.177  1.1111 -0.4753  0.9048
 8779SOL    HW237971   0.138   0.050   5.309 -0.3064  1.6301  1.3304
 8780SOL     OW37972   2.649   4.650  10.458  0.6531 -0.0538  0.1979
 8780SOL    HW137973   2.735   4.608  10.452  1.2231  1.5037 -2.4207
 8780SOL    HW237974   2.645   4.688  10.371  0.6025 -2.1896 -0.7318
 8781SOL     OW37975   3.953   0.064  13.508 -0.1918  0.0855  0.0172
 8781SOL    HW137976   3.977   0.090  13.597 -1.8814 -1.2763  0.8697
 8781SOL    HW237977   3.861   0.088  13.498  0.0222 -0.1545 -2.3677
 8782SOL     OW37978   2.224   4.242   9.438 -0.5814  0.0781 -0.1842
 8782SOL    HW137979   2.221   4.336   9.455 -1.5174  0.0404 -0.1288
 8782SOL    HW237980   2.286   4.238   9.365  0.2042 -2.1534  0.5817
 8783SOL     OW37981   0.671   3.504   3.410 -0.0596 -0.5251  0.1162
 8783SOL    HW137982   0.599   3.491   3.347 -1.4050 -0.7181  1.6853
 8783SOL    HW237983   0.632   3.482   3.494 -0.6583  1.8487  0.4601
 8784SOL     OW37984   0.275   1.594   5.506 -0.4699  0.2811  0.0161
 8784SOL    HW137985   0.264   1.586   5.411 -0.8198  1.9215 -0.0722
 8784SOL    HW237986   0.367   1.572   5.518 -0.5402  1.0965  1.9370
 8785SOL     OW37987   3.993   1.479   1.914  0.2300  0.2708 -0.2162
 8785SOL    HW137988   4.064   1.495   1.851  1.4463  0.7185  1.2741
 8785SOL    HW237989   4.018   1.395   1.951  1.4794  0.1597 -1.3366
 8786SOL     OW37990   3.531   3.072   5.255  0.0637  0.2330 -0.2982
 8786SOL    HW137991   3.585   3.139   5.298  0.1725  0.9726 -1.5926
 8786SOL    HW237992   3.453   3.117   5.223  0.7306 -0.0713 -2.3842
 8787SOL     OW37993   4.454   3.028  11.968  0.3873 -0.8049 -0.1009
 8787SOL    HW137994   4.509   2.980  11.906  0.7671 -0.5367  0.0278
 8787SOL    HW237995   4.506   3.094  12.013  0.1153 -0.7219  0.0936
 8788SOL     OW37996   4.677   2.518   1.212  0.4332  0.2691 -0.0436
 8788SOL    HW137997   4.693   2.492   1.122 -1.2051  0.3044 -0.3364
 8788SOL    HW237998   4.694   2.438   1.262  2.9195  2.8900  3.3799
 8789SOL     OW37999   4.434   4.484   4.375  0.1659  0.5411  0.4965
 8789SOL    HW138000   4.445   4.389   4.380 -1.2708  0.1824 -3.1829
 8789SOL    HW238001   4.522   4.509   4.404  0.4722  1.1237 -0.9763
 8790SOL     OW38002   3.349   1.208   4.204 -0.3347 -0.2985  0.4274
 8790SOL    HW138003   3.334   1.271   4.133  0.7218 -0.7411 -0.1837
 8790SOL    HW238004   3.388   1.262   4.272  0.6447  0.5270 -0.7809
 8791SOL     OW38005   2.929   3.743   2.613 -0.3416  0.2112 -0.4380
 8791SOL    HW138006   2.978   3.692   2.549 -0.7046 -0.4151 -0.2217
 8791SOL    HW238007   2.989   3.817   2.627  1.1161 -0.7667 -1.5647
 8792SOL     OW38008   4.726   0.925   4.962 -0.1564  0.1546  0.1332
 8792SOL    HW138009   4.661   0.983   5.003 -1.2376 -1.4319  0.6362
 8792SOL    HW238010   4.731   0.853   5.025  0.2846  1.9912  2.2023
 8793SOL     OW38011   0.674   3.584   3.865  0.0410  0.4233 -0.3627
 8793SOL    HW138012   0.744   3.519   3.862  1.0111  1.4364  0.8348
 8793SOL    HW238013   0.725   3.656   3.900 -0.9400  1.9855 -2.1592
 8794SOL     OW38014   4.422   1.055   0.489 -0.2552 -0.2042 -0.0164
 8794SOL    HW138015   4.417   1.061   0.394  0.1923 -0.3563 -0.0462
 8794SOL    HW238016   4.511   1.079   0.512 -0.4707  1.3742 -0.8329
 8795SOL     OW38017   0.579   1.992   1.518  0.0892  0.3109  0.3523
 8795SOL    HW138018   0.627   2.041   1.451  0.2849 -0.3530  0.0028
 8795SOL    HW238019   0.609   1.901   1.515 -1.9280 -0.3650  0.8901
 8796SOL     OW38020   4.556   2.888   5.714 -0.2985 -0.3126 -0.0666
 8796SOL    HW138021   4.495   2.816   5.696  0.3354 -0.5918 -1.1323
 8796SOL    HW238022   4.555   2.886   5.809  1.0697 -0.4962 -0.0531
 8797SOL     OW38023   0.721   0.935  14.551 -0.6023 -0.0527 -0.6244
 8797SOL    HW138024   0.803   0.981  14.533  0.1207 -0.5284  1.4375
 8797SOL    HW238025   0.665   0.947  14.474  0.7494  1.1767 -1.4231
 8798SOL     OW38026   2.056   2.380  10.238  0.3277  0.1864 -0.1577
 8798SOL    HW138027   2.126   2.381  10.172  1.0936  2.8418  0.6895
 8798SOL    HW238028   2.065   2.468  10.275 -1.1827  0.4369 -0.4077
 8799SOL     OW38029   2.523   1.045   1.998  0.1825 -0.5903 -0.2671
 8799SOL    HW138030   2.476   0.968   1.966 -1.1638 -0.0411  0.3830
 8799SOL    HW238031   2.490   1.071   2.084  0.5408 -3.7465  0.8249
 8800SOL     OW38032   0.614   0.104   7.958  0.2793 -0.1420 -0.0695
 8800SOL    HW138033   0.568   0.076   8.037  1.6177  2.1044  1.5010
 8800SOL    HW238034   0.699   0.064   7.975  0.2676 -0.6548 -1.2074
 8801SOL     OW38035   1.661   1.092   2.029  0.5472  0.1914  0.0250
 8801SOL    HW138036   1.624   1.180   2.023  0.8336  0.1913 -1.9070
 8801SOL    HW238037   1.610   1.044   1.964 -2.3075  0.0764  2.3563
 8802SOL     OW38038   0.998   0.551   5.726 -0.0512  0.5541  0.3104
 8802SOL    HW138039   0.927   0.497   5.692  0.5993  0.2007 -0.5013
 8802SOL    HW238040   1.070   0.544   5.663  2.2876 -0.9621  3.1309
 8803SOL     OW38041   2.444   0.981   3.315 -0.0642  0.3563 -0.2549
 8803SOL    HW138042   2.455   0.965   3.221 -0.2337  2.7134 -0.6905
 8803SOL    HW238043   2.473   1.072   3.326 -0.5800  0.3744  0.8925
 8804SOL     OW38044   0.481   1.546  17.192  0.1036  0.4081  0.0114
 8804SOL    HW138045   0.559   1.492  17.179 -0.4206 -0.3313 -0.0789
 8804SOL    HW238046   0.449   1.517  17.277  0.8090 -2.3481 -0.6526
 8805SOL     OW38047   0.392   0.960   9.991 -0.1750  0.3188  0.4479
 8805SOL    HW138048   0.331   0.900   9.949  1.6051  0.2014 -1.8989
 8805SOL    HW238049   0.443   0.911  10.055  0.6177  0.6611  0.0747
 8806SOL     OW38050   2.509   3.059   6.816 -0.2998 -0.0977  0.5901
 8806SOL    HW138051   2.477   3.123   6.879  0.0747 -0.4795  1.1798
 8806SOL    HW238052   2.431   3.005   6.818  0.0023 -0.6997 -3.2727
 8807SOL     OW38053   2.767   1.528   2.569 -0.1915 -0.1128  0.0345
 8807SOL    HW138054   2.699   1.572   2.518  0.2314  2.0620  1.3415
 8807SOL    HW238055   2.845   1.543   2.515 -0.2919  2.6578  0.6609
 8808SOL     OW38056   2.201   0.051  12.736 -0.0368 -0.2050  0.1688
 8808SOL    HW138057   2.134   0.018  12.674  0.8824 -0.7308 -0.5444
 8808SOL    HW238058   2.179   0.144  12.733  0.3408 -0.0515  2.0471
 8809SOL     OW38059   0.647   0.063   1.387  0.5805 -0.1335  0.1859
 8809SOL    HW138060   0.733   0.103   1.376 -0.0736  1.2941  0.2342
 8809SOL    HW238061   0.587   0.131   1.418 -0.2907 -0.7428 -0.1533
 8810SOL     OW38062   4.674   4.441   4.914 -0.2942  0.1650  0.8118
 8810SOL    HW138063   4.659   4.530   4.946 -1.8247 -0.0778  0.7872
 8810SOL    HW238064   0.005   4.446   4.846  0.3432  1.6843  1.5731
 8811SOL     OW38065   0.242   2.458  11.580 -0.2057  0.7245 -0.1166
 8811SOL    HW138066   0.195   2.487  11.501 -0.8345 -0.0007 -0.0119
 8811SOL    HW238067   0.236   2.362  11.579  0.6082  0.6789 -0.4536
 8812SOL     OW38068   3.070   1.040   3.403  0.0022 -0.6418 -0.5903
 8812SOL    HW138069   3.066   1.025   3.309 -0.7762  1.6779 -0.9237
 8812SOL    HW238070   3.163   1.031   3.426 -0.2931  0.1707  0.9289
 8813SOL     OW38071   2.903   3.214   2.093  0.0468 -0.1093  0.2623
 8813SOL    HW138072   2.927   3.122   2.104 -0.7703 -0.4342 -0.6600
 8813SOL    HW238073   2.826   3.218   2.150 -0.2975  3.5865 -0.4021
 8814SOL     OW38074   0.647   3.570  13.874  0.1314  0.2359  0.8468
 8814SOL    HW138075   0.717   3.561  13.809  1.9239  1.3355  2.6229
 8814SOL    HW238076   0.660   3.663  13.896 -3.7338  0.6702  1.3073
 8815SOL     OW38077   2.831   1.647   4.898 -0.3689  0.1652 -0.3081
 8815SOL    HW138078   2.771   1.587   4.942 -1.3698  1.7566  0.4778
 8815SOL    HW238079   2.871   1.670   4.981  1.2105  1.5782 -1.4487
 8816SOL     OW38080   3.189   2.680  14.317  0.9539 -0.2110  0.1876
 8816SOL    HW138081   3.233   2.605  14.277  1.2059 -0.5577  1.1144
 8816SOL    HW238082   3.176   2.742  14.245  2.2027  1.7082  1.6286
 8817SOL     OW38083   1.202   0.539  12.036 -0.1525 -0.2647 -0.4397
 8817SOL    HW138084   1.163   0.625  12.051  0.2659  0.6004 -4.4320
 8817SOL    HW238085   1.206   0.534  11.941  2.0227  1.0998 -0.4009
 8818SOL     OW38086   0.037   0.611   4.098  0.4731  0.1752  0.5739
 8818SOL    HW138087   0.089   0.530   4.099  0.3023  0.0507 -0.0515
 8818SOL    HW238088   0.099   0.684   4.091  0.3093  0.0952 -1.8841
 8819SOL     OW38089   1.732   0.599   6.023  0.5220  0.5145 -0.2768
 8819SOL    HW138090   1.642   0.598   6.056  1.4052 -2.2646  2.0076
 8819SOL    HW238091   1.775   0.579   6.106  0.1934 -1.3381 -0.5560
 8820SOL     OW38092   3.053   3.535   8.807  0.4724 -0.1936  0.0701
 8820SOL    HW138093   3.099   3.517   8.725  1.6895 -0.7790  0.8888
 8820SOL    HW238094   3.002   3.612   8.780  1.4856  0.9594  1.4560
 8821SOL     OW38095   4.351   4.404   9.344  0.4488  0.8529  0.3474
 8821SOL    HW138096   4.384   4.317   9.369  0.9359  1.5007  1.9555
 8821SOL    HW238097   4.267   4.379   9.383  0.0565  0.6357 -0.6213
 8822SOL     OW38098   2.699   4.317  11.589 -0.2571 -0.2783  0.3482
 8822SOL    HW138099   2.745   4.234  11.603 -0.1108 -0.6534 -2.4556
 8822SOL    HW238100   2.612   4.278  11.594  0.2037 -1.3951 -0.5388
 8823SOL     OW38101   0.797   4.676   9.474 -0.0321 -0.5729  0.5094
 8823SOL    HW138102   0.768   4.602   9.421  1.7848 -0.6745 -0.3388
 8823SOL    HW238103   0.880   4.645   9.511 -0.5055 -0.9110  1.3033
 8824SOL     OW38104   0.114   3.955   6.369 -0.1648  0.2576  0.4476
 8824SOL    HW138105   0.069   4.037   6.389  0.2527  0.1315  1.9022
 8824SOL    HW238106   0.131   3.917   6.455 -2.6513 -0.1292  0.7719
 8825SOL     OW38107   1.080   3.644   2.876 -0.0064 -0.4450 -0.2554
 8825SOL    HW138108   1.016   3.643   2.805  0.3118 -1.4341 -0.5272
 8825SOL    HW238109   1.126   3.726   2.855 -0.2634 -0.3083 -0.2866
 8826SOL     OW38110   0.704   0.057  13.983 -0.5265  0.0034 -0.0723
 8826SOL    HW138111   0.632   0.009  13.943  0.3482 -2.7826  1.6843
 8826SOL    HW238112   0.694   0.143  13.944  1.3227 -0.7140 -2.0780
 8827SOL     OW38113   3.096   0.730   8.628  0.3015  0.1163 -0.6690
 8827SOL    HW138114   3.112   0.641   8.595 -0.2323 -0.1546 -0.2032
 8827SOL    HW238115   3.016   0.743   8.576  1.2781 -0.1457 -2.2515
 8828SOL     OW38116   2.068   3.651   9.231 -0.3946 -0.3136 -0.1768
 8828SOL    HW138117   2.036   3.635   9.143 -3.0980  0.4122  0.6824
 8828SOL    HW238118   2.119   3.572   9.248 -0.1980  0.2724  1.9690
 8829SOL     OW38119   3.119   2.503   8.521 -0.3461  0.1417  0.2854
 8829SOL    HW138120   3.124   2.413   8.554  2.0633 -0.1066 -0.7843
 8829SOL    HW238121   3.153   2.550   8.597 -1.2262  2.2812 -0.6342
 8830SOL     OW38122   3.205   2.896   9.169 -0.6645  0.0104  0.4339
 8830SOL    HW138123   3.278   2.943   9.209  0.6860 -1.6371 -0.1418
 8830SOL    HW238124   3.186   2.939   9.086 -0.7050  0.9585  0.9288
 8831SOL     OW38125   3.440   3.920   2.595  0.4557 -0.0732  0.1482
 8831SOL    HW138126   3.374   3.884   2.654 -0.7629 -0.6752 -1.5903
 8831SOL    HW238127   3.482   3.990   2.646  0.2597  0.1958 -0.0589
 8832SOL     OW38128   3.788   3.795   7.755  0.1901 -0.0141  0.3297
 8832SOL    HW138129   3.823   3.749   7.832 -0.3652 -0.3187  0.3999
 8832SOL    HW238130   3.709   3.834   7.791  0.4166 -0.0667  0.8840
 8833SOL     OW38131   2.703   1.631   4.641  0.4133 -0.0961  0.4395
 8833SOL    HW138132   2.685   1.543   4.674 -0.8461 -0.4948 -1.3174
 8833SOL    HW238133   2.774   1.642   4.704  0.4139 -2.0877  0.7900
 8834SOL     OW38134   0.064   1.538  17.126  0.1882  0.6543 -0.3134
 8834SOL    HW138135   0.084   1.561  17.217  0.9659  1.3415 -0.6544
 8834SOL    HW238136   0.151   1.546  17.087  0.3654  1.7603  0.2860
 8835SOL     OW38137   4.483   0.731   6.630 -0.2495  0.1688 -0.2112
 8835SOL    HW138138   4.505   0.782   6.708  0.8815 -0.7470  0.0686
 8835SOL    HW238139   4.531   0.795   6.576 -2.3308  2.1950  0.3112
 8836SOL     OW38140   0.491   3.967  12.847  0.4102 -0.1392 -0.0804
 8836SOL    HW138141   0.444   3.884  12.845 -1.4581  0.9298 -1.0174
 8836SOL    HW238142   0.547   3.956  12.924  0.4755  1.5504  0.1217
 8837SOL     OW38143   3.535   1.984  12.608 -0.0041  0.4645 -0.1898
 8837SOL    HW138144   3.615   2.011  12.652  0.5097  1.9270 -2.0289
 8837SOL    HW238145   3.493   1.944  12.684  0.1216  1.1152  0.2167
 8838SOL     OW38146   1.521   0.130   5.327  0.1142  0.3983  0.4520
 8838SOL    HW138147   1.487   0.040   5.324  0.3154  0.2889  1.3682
 8838SOL    HW238148   1.443   0.179   5.302  0.1748  0.1740 -0.1718
 8839SOL     OW38149   1.914   2.158  12.634  0.0004 -0.3190  0.5090
 8839SOL    HW138150   1.847   2.223  12.655  0.5100  0.9077 -1.7042
 8839SOL    HW238151   1.885   2.131  12.547  3.8453 -1.1893 -0.5267
 8840SOL     OW38152   0.687   3.991  14.115  0.1846  0.2082  0.2953
 8840SOL    HW138153   0.606   4.027  14.152  0.1572  0.1137  0.3281
 8840SOL    HW238154   0.724   3.949  14.193  0.6685  1.4262  0.7210
 8841SOL     OW38155   0.829   1.741   4.580  0.3861  0.8897 -0.0539
 8841SOL    HW138156   0.896   1.765   4.516 -1.2674  1.0551 -1.7324
 8841SOL    HW238157   0.761   1.700   4.526  1.0825  0.5679 -0.6912
 8842SOL     OW38158   3.074   3.176   7.080 -0.0098 -0.1112  0.3498
 8842SOL    HW138159   3.116   3.126   7.151  2.2259  0.5123 -0.5437
 8842SOL    HW238160   3.142   3.196   7.016 -0.5020 -1.1286 -0.4915
 8843SOL     OW38161   4.405   0.733   7.488 -0.2136  0.2963  0.1998
 8843SOL    HW138162   4.313   0.710   7.500  0.3401 -2.3892 -0.6901
 8843SOL    HW238163   4.401   0.829   7.498 -2.0899  0.1719  0.6319
 8844SOL     OW38164   1.553   4.429  17.209 -0.1701  0.4258 -0.4988
 8844SOL    HW138165   1.462   4.442  17.181 -0.9775 -2.7128  0.6185
 8844SOL    HW238166   1.604   4.449  17.131  0.1591 -1.0295 -0.6662
 8845SOL     OW38167   3.431   1.493   3.732 -0.2792 -0.3259  0.5929
 8845SOL    HW138168   3.511   1.545   3.726  1.1930 -2.5285  1.3189
 8845SOL    HW238169   3.379   1.573   3.722 -0.6653 -0.6855 -0.2085
 8846SOL     OW38170   1.755   2.186   2.085  0.1282  0.2801 -0.8311
 8846SOL    HW138171   1.670   2.205   2.045  0.7033  0.8120 -1.7934
 8846SOL    HW238172   1.737   2.095   2.109 -0.5671  0.9877  1.3371
 8847SOL     OW38173   2.664   0.471  15.585 -0.0175 -0.4350 -1.0662
 8847SOL    HW138174   2.734   0.517  15.631 -0.1988 -0.5484 -0.6730
 8847SOL    HW238175   2.642   0.545  15.529  2.0428  0.8996 -0.1107
 8848SOL     OW38176   2.284   0.973   2.802  0.0404 -0.2532 -0.2425
 8848SOL    HW138177   2.328   1.004   2.881  0.3722  0.4454 -0.7001
 8848SOL    HW238178   2.341   0.998   2.729  0.0489 -0.5686 -0.3433
 8849SOL     OW38179   3.062   3.637   2.989 -0.2751 -0.0146  0.6852
 8849SOL    HW138180   3.062   3.647   3.084 -1.4257 -2.1274  0.8992
 8849SOL    HW238181   3.025   3.722   2.964 -0.2372  0.7638  3.2584
 8850SOL     OW38182   3.055   1.092   4.001  0.0423 -0.6531  0.1518
 8850SOL    HW138183   3.112   1.028   3.959  1.5600  0.1062  1.0635
 8850SOL    HW238184   3.116   1.115   4.071  0.9927 -2.8429  0.0374
 8851SOL     OW38185   4.297   4.591   9.106 -0.2086  0.1274 -0.2044
 8851SOL    HW138186   4.357   4.536   9.156  1.3473  0.4461 -1.7553
 8851SOL    HW238187   4.294   4.543   9.023 -0.0373  1.3481 -0.9146
 8852SOL     OW38188   0.925   2.780   2.160  0.1818  0.0737 -0.3760
 8852SOL    HW138189   0.856   2.773   2.094  0.2316 -0.3206 -0.3869
 8852SOL    HW238190   0.945   2.687   2.174 -1.7423 -0.5142 -1.5060
 8853SOL     OW38191   0.087   1.319   7.616 -0.0996 -0.6303  0.4735
 8853SOL    HW138192   0.174   1.317   7.655  0.8378 -1.1343 -1.6526
 8853SOL    HW238193   0.085   1.229   7.584  0.2357 -0.7232  0.7161
 8854SOL     OW38194   0.797   3.147   5.896 -0.4483  0.8250 -0.3170
 8854SOL    HW138195   0.745   3.141   5.976 -0.8085 -0.1620 -0.6244
 8854SOL    HW238196   0.777   3.060   5.859 -1.5463  0.6442  0.7096
 8855SOL     OW38197   2.681   0.343  11.593 -0.1261 -0.6897 -0.2486
 8855SOL    HW138198   2.674   0.268  11.534  1.1565 -1.2751  0.3565
 8855SOL    HW238199   2.715   0.409  11.532  1.8441 -0.6829  0.8873
 8856SOL     OW38200   1.928   4.295   3.046 -0.3380 -0.2530  0.0317
 8856SOL    HW138201   1.967   4.251   2.971  3.8431 -0.8603  2.5372
 8856SOL    HW238202   1.997   4.286   3.112  0.3193  0.4240 -0.5577
 8857SOL     OW38203   0.167   4.596   9.238  0.1983 -0.2719 -0.2645
 8857SOL    HW138204   0.096   4.555   9.189 -0.2575  0.4436 -0.2109
 8857SOL    HW238205   0.174   4.676   9.185 -0.7848 -1.6489 -2.4676
 8858SOL     OW38206   4.212   3.404  15.701  0.3467 -0.4824 -0.1262
 8858SOL    HW138207   4.152   3.377  15.631 -0.3062 -2.8467  1.3197
 8858SOL    HW238208   4.238   3.321  15.743  3.1025 -0.2658 -1.4564
 8859SOL     OW38209   0.825   1.557   4.953 -0.2092  0.3320  0.9303
 8859SOL    HW138210   0.877   1.622   5.001 -1.5650  3.2990 -1.6165
 8859SOL    HW238211   0.888   1.486   4.956 -0.5892 -0.0379 -0.0254
 8860SOL     OW38212   0.899   1.422   1.548 -0.0632  0.2108 -0.7131
 8860SOL    HW138213   0.876   1.511   1.575 -0.4848  0.5234 -2.1307
 8860SOL    HW238214   0.967   1.403   1.613  0.5015  1.8949 -0.8121
 8861SOL     OW38215   3.570   3.526   3.350  0.5052 -0.6380  0.4407
 8861SOL    HW138216   3.494   3.583   3.365 -0.0492 -0.9242 -1.1943
 8861SOL    HW238217   3.512   3.461   3.310  0.9138 -3.2675  4.1321
 8862SOL     OW38218   3.730   2.064   3.236 -0.1269 -0.1054 -1.2458
 8862SOL    HW138219   3.725   2.004   3.309  2.9599 -1.2976 -1.9841
 8862SOL    HW238220   3.723   2.153   3.271  0.4712 -1.5141  2.4179
 8863SOL     OW38221   3.584   1.570  12.182  0.1797 -0.2857  0.2293
 8863SOL    HW138222   3.608   1.579  12.274 -4.1228 -0.5098  1.3470
 8863SOL    HW238223   3.521   1.498  12.179  1.0930 -1.0881 -0.0200
 8864SOL     OW38224   1.473   4.736   5.613  0.7677  0.6916  0.2717
 8864SOL    HW138225   1.505   4.647   5.622  0.2618  0.6521  1.7621
 8864SOL    HW238226   1.403   4.730   5.679 -0.4363  0.7087 -0.9996
 8865SOL     OW38227   1.553   4.258   6.244 -0.5213  0.5597 -0.4113
 8865SOL    HW138228   1.525   4.205   6.170  0.0243 -0.2112 -0.0602
 8865SOL    HW238229   1.644   4.277   6.220  0.5218  0.2341  3.1806
 8866SOL     OW38230   2.815   4.660   2.667  0.5823 -0.2342  0.5813
 8866SOL    HW138231   2.786   4.648   2.576  1.2686 -0.7381  0.4283
 8866SOL    HW238232   2.896   4.609   2.664  1.2299  0.8993 -1.3575
 8867SOL     OW38233   0.839   0.304   3.797  0.1351 -0.5746  0.6281
 8867SOL    HW138234   0.847   0.232   3.860 -0.7354  0.8021  2.3221
 8867SOL    HW238235   0.897   0.370   3.835 -0.4785  0.6838 -0.6375
 8868SOL     OW38236   1.138   1.268   1.395 -0.2956 -0.1612 -0.1967
 8868SOL    HW138237   1.086   1.192   1.421 -0.2880 -0.0220  0.2251
 8868SOL    HW238238   1.192   1.230   1.327  0.2175 -0.6746  0.5053
 8869SOL     OW38239   2.744   4.607   2.429 -0.0538 -0.1170  0.4416
 8869SOL    HW138240   2.659   4.564   2.432 -0.8639  1.2984 -3.0377
 8869SOL    HW238241   2.738   4.655   2.347 -2.0606  0.2539  0.8157
 8870SOL     OW38242   1.075   4.587  15.416 -0.1940  0.1259 -0.1550
 8870SOL    HW138243   1.062   4.632  15.499 -3.8198 -0.8453 -0.1885
 8870SOL    HW238244   0.983   4.595  15.389  0.2652  1.3422 -1.3755
 8871SOL     OW38245   1.431   1.807  17.197  0.4001 -0.2665 -0.6694
 8871SOL    HW138246   1.442   1.836  17.287  0.3652  0.2113 -0.8165
 8871SOL    HW238247   1.384   1.724  17.202 -1.2671  0.5442 -2.7258
 8872SOL     OW38248   0.958   2.273  17.080  0.6774  0.5542 -0.1069
 8872SOL    HW138249   1.026   2.318  17.029  1.6027 -1.2428 -0.4949
 8872SOL    HW238250   0.891   2.341  17.088 -0.1493 -0.1415 -1.0579
 8873SOL     OW38251   3.073   4.143   7.249 -0.4153 -0.1416  0.5087
 8873SOL    HW138252   3.092   4.133   7.156  0.5232  0.5846  0.6214
 8873SOL    HW238253   3.130   4.214   7.279  1.3338 -1.2409 -0.2511
 8874SOL     OW38254   1.773   1.197   6.293  0.5471 -0.2076 -0.0167
 8874SOL    HW138255   1.682   1.196   6.263  1.0598 -1.6758 -1.5414
 8874SOL    HW238256   1.787   1.102   6.286 -1.6764 -0.6799  2.0837
 8875SOL     OW38257   1.902   2.798  13.524 -0.1625  0.2420 -0.2899
 8875SOL    HW138258   1.843   2.872  13.536 -0.2628 -0.1840  1.7371
 8875SOL    HW238259   1.862   2.735  13.583 -0.7818 -0.4665 -1.4769
 8876SOL     OW38260   2.230   4.341  13.037 -0.1662 -0.2415  0.1538
 8876SOL    HW138261   2.320   4.348  13.070  0.3644  1.8929 -1.7474
 8876SOL    HW238262   2.236   4.378  12.949  0.7735  0.8620  0.6846
 8877SOL     OW38263   0.889   0.046   3.911  0.0811  0.1724 -0.8832
 8877SOL    HW138264   0.805   0.028   3.869  1.3328 -3.7161 -1.7879
 8877SOL    HW238265   0.922   4.698   3.880 -0.3717 -0.5261  0.5289
 8878SOL     OW38266   4.356   1.647  14.102  0.4334  0.1503  0.3931
 8878SOL    HW138267   4.369   1.651  14.197  0.3715 -0.4129  0.4242
 8878SOL    HW238268   4.335   1.554  14.100  2.7610 -0.3646 -0.8682
 8879SOL     OW38269   1.329   1.700   3.040 -0.1437 -0.6253 -0.1687
 8879SOL    HW138270   1.246   1.749   3.037 -1.1080 -2.2339 -0.0297
 8879SOL    HW238271   1.313   1.627   2.980 -2.2025 -0.4493  0.1427
 8880SOL     OW38272   1.889   0.891   7.634  0.4698  0.0482  0.4868
 8880SOL    HW138273   1.812   0.914   7.686 -0.0005 -3.0838  1.1807
 8880SOL    HW238274   1.915   0.967   7.582 -0.7828  0.9544  1.2003
 8881SOL     OW38275   3.040   1.517   3.909 -0.3926 -0.7104 -0.2142
 8881SOL    HW138276   2.983   1.463   3.964 -0.0542 -2.1402 -1.2493
 8881SOL    HW238277   3.034   1.468   3.827  0.4150 -0.3724 -0.4789
 8882SOL     OW38278   4.594   3.808   2.948 -0.6517  0.2797  0.1554
 8882SOL    HW138279   4.606   3.858   3.028 -0.3951  1.9323 -0.9050
 8882SOL    HW238280   4.544   3.870   2.895  0.1495  0.3010 -0.5875
 8883SOL     OW38281   1.940   0.398   9.166  0.7577 -0.0157  0.1827
 8883SOL    HW138282   2.023   0.351   9.153  0.5006 -0.6842  1.0032
 8883SOL    HW238283   1.951   0.436   9.253 -2.0135 -1.1686  1.0312
 8884SOL     OW38284   3.256   2.255  16.258  0.4798  0.0756 -0.2086
 8884SOL    HW138285   3.177   2.203  16.248  0.9295 -0.4307 -1.1896
 8884SOL    HW238286   3.317   2.214  16.196  0.0513  2.7499 -2.4472
 8885SOL     OW38287   1.598   3.648  10.459  0.1074 -0.1639 -0.1493
 8885SOL    HW138288   1.507   3.643  10.428 -0.2780  0.1435  0.9213
 8885SOL    HW238289   1.611   3.559  10.492  1.1114  0.3128  0.7184
 8886SOL     OW38290   1.270   2.396   6.918  0.0769 -0.1332 -0.8514
 8886SOL    HW138291   1.267   2.356   6.831  1.3095  0.5431 -1.2029
 8886SOL    HW238292   1.284   2.490   6.910  1.4265 -0.1310  1.6333
 8887SOL     OW38293   2.709   4.538   4.286  0.3493  0.7311 -0.2971
 8887SOL    HW138294   2.757   4.460   4.259  1.2709  0.5129  1.9312
 8887SOL    HW238295   2.716   4.527   4.381 -0.4116  3.2549  0.0348
 8888SOL     OW38296   3.736   0.747   7.532 -0.2869 -0.4203  0.4877
 8888SOL    HW138297   3.724   0.838   7.506 -0.8808 -0.3211  1.1244
 8888SOL    HW238298   3.770   0.710   7.451  0.5590 -0.3958  0.8305
 8889SOL     OW38299   0.489   4.192   6.026  0.2188 -0.0644 -0.0971
 8889SOL    HW138300   0.472   4.103   5.994  0.0899 -0.3044  0.6452
 8889SOL    HW238301   0.429   4.191   6.101  0.1775 -0.1734 -0.1314
 8890SOL     OW38302   1.027   0.222   4.095 -0.1648 -0.2546  1.6982
 8890SOL    HW138303   1.095   0.212   4.028 -0.1176 -1.6269  1.9386
 8890SOL    HW238304   0.968   0.154   4.064  1.2467  0.0262 -1.5911
 8891SOL     OW38305   2.930   1.157   9.952 -0.2252 -0.6045 -0.2722
 8891SOL    HW138306   3.025   1.146   9.957 -0.3590 -1.3636  0.5248
 8891SOL    HW238307   2.914   1.108   9.872  1.8756 -1.8458  0.0615
 8892SOL     OW38308   2.223   4.500   9.525  0.3991  0.1821 -0.2391
 8892SOL    HW138309   2.250   4.460   9.608 -1.4504 -1.2333 -0.3424
 8892SOL    HW238310   2.157   4.567   9.546  1.4780  0.2898  2.8605
 8893SOL     OW38311   1.069   4.020  15.183 -0.2985  0.1520  0.5588
 8893SOL    HW138312   0.986   3.974  15.171 -1.2576  1.0874  3.6060
 8893SOL    HW238313   1.059   4.055  15.272 -0.4070 -2.6503  1.6479
 8894SOL     OW38314   0.480   2.241   0.056  0.9206 -0.2767 -0.0787
 8894SOL    HW138315   0.550   2.307   0.056  0.1013  0.6034  0.7153
 8894SOL    HW238316   0.469   2.242  17.706  1.2900 -3.1652 -0.1575
 8895SOL     OW38317   3.874   0.084  12.291  0.7791  0.0450 -0.3363
 8895SOL    HW138318   3.930   0.140  12.237  0.5400  0.3806 -0.2323
 8895SOL    HW238319   3.797   0.093  12.236  1.0260 -2.4453 -1.1226
 8896SOL     OW38320   1.856   3.413   5.174  0.4816 -0.8684  0.3257
 8896SOL    HW138321   1.815   3.425   5.089  0.8015 -2.3468 -0.0427
 8896SOL    HW238322   1.857   3.317   5.176 -0.2944 -0.8909 -0.7373
 8897SOL     OW38323   1.755   0.191   7.871 -0.6274  0.5546 -0.4404
 8897SOL    HW138324   1.812   0.262   7.903  1.2143 -0.6335 -1.0516
 8897SOL    HW238325   1.812   0.159   7.800 -0.6380 -0.5642  0.0641
 8898SOL     OW38326   1.869   1.464   3.960 -0.2930  0.0355  0.1468
 8898SOL    HW138327   1.953   1.462   3.914  0.1195 -1.9392  0.9917
 8898SOL    HW238328   1.852   1.558   3.958 -0.6416 -0.0157  0.6721
 8899SOL     OW38329   1.430   1.419  17.173  1.0720  0.1137 -0.6185
 8899SOL    HW138330   1.376   1.474  17.231  1.0215 -0.5209 -0.0619
 8899SOL    HW238331   1.441   1.471  17.094  2.5384  1.1647  0.2667
 8900SOL     OW38332   1.931   0.102   9.717  0.1163 -0.2943  0.8078
 8900SOL    HW138333   1.903   0.090   9.808  0.2351 -3.9170  0.3470
 8900SOL    HW238334   1.869   0.169   9.686  0.9420 -0.8005 -1.9315
 8901SOL     OW38335   0.802   4.528  13.632  0.0313  0.4596 -0.8940
 8901SOL    HW138336   0.709   4.518  13.652  0.5345  0.8681  1.6258
 8901SOL    HW238337   0.799   4.480  13.549  2.1495 -1.4911  0.1582
 8902SOL     OW38338   1.714   1.696   9.195 -0.0542  0.3310  0.2108
 8902SOL    HW138339   1.687   1.744   9.117  2.7850  1.4065 -0.1314
 8902SOL    HW238340   1.664   1.748   9.257 -2.3787  0.4592 -1.7653
 8903SOL     OW38341   0.204   3.425   0.908  0.4626 -0.4787  0.1688
 8903SOL    HW138342   0.252   3.500   0.943 -1.4002  0.9795 -0.4181
 8903SOL    HW238343   0.150   3.412   0.985  0.4264 -1.1536  0.0323
 8904SOL     OW38344   1.380   3.883   3.096 -0.2776 -0.4854  0.7097
 8904SOL    HW138345   1.463   3.842   3.074  1.0263  2.6845 -0.3164
 8904SOL    HW238346   1.329   3.802   3.096  1.2650 -1.4623  1.0572
 8905SOL     OW38347   3.828   1.783   2.445 -0.4888 -0.1840  0.0834
 8905SOL    HW138348   3.740   1.818   2.457 -0.8727 -0.3041 -2.4575
 8905SOL    HW238349   3.870   1.867   2.426  1.0119 -0.6813  1.2002
 8906SOL     OW38350   2.162   4.206   2.466  0.3986 -0.3237  0.3410
 8906SOL    HW138351   2.135   4.118   2.494 -3.9882  1.5604  1.9658
 8906SOL    HW238352   2.081   4.244   2.432  1.5305  2.1592  0.4157
 8907SOL     OW38353   1.391   4.371   2.513 -0.2830 -0.4967 -0.5599
 8907SOL    HW138354   1.331   4.348   2.584  0.3596  2.1767  0.8370
 8907SOL    HW238355   1.353   4.455   2.487  1.5637  0.7935  0.9125
 8908SOL     OW38356   2.856   1.652   2.801 -0.1721 -0.0851 -0.0495
 8908SOL    HW138357   2.823   1.611   2.721 -0.5955  2.2921 -1.1272
 8908SOL    HW238358   2.922   1.586   2.820  2.3371  2.1562 -0.9575
 8909SOL     OW38359   1.088   3.059  15.935 -0.4453 -0.3363  0.3844
 8909SOL    HW138360   1.075   3.128  15.869  1.1026 -1.1604 -0.7669
 8909SOL    HW238361   1.146   2.990  15.903 -0.7506 -1.8921  3.1967
 8910SOL     OW38362   1.461   0.490   2.902  0.2301  0.1973  0.1125
 8910SOL    HW138363   1.479   0.577   2.937  0.2608  0.0452  0.4723
 8910SOL    HW238364   1.426   0.446   2.979 -0.0818 -1.2694 -0.8581
 8911SOL     OW38365   1.769   1.742   4.282 -0.0698  0.1815  0.4209
 8911SOL    HW138366   1.811   1.677   4.339 -1.0974 -1.1508 -0.3475
 8911SOL    HW238367   1.760   1.817   4.340 -1.3919  2.1695 -2.3823
 8912SOL     OW38368   4.587   3.254   2.645  0.4276 -0.2509  0.4643
 8912SOL    HW138369   4.679   3.247   2.672  0.4170  1.0312  0.8472
 8912SOL    HW238370   4.561   3.166   2.671 -1.2414  0.2270  0.3974
 8913SOL     OW38371   3.322   3.803  10.566 -0.6292 -0.2309 -0.4659
 8913SOL    HW138372   3.293   3.816  10.476  0.7334  0.0073 -0.8650
 8913SOL    HW238373   3.239   3.809  10.613 -1.0997 -2.7799 -0.9759
 8914SOL     OW38374   4.633   2.448   7.996 -0.0313 -0.4978  0.0687
 8914SOL    HW138375   4.720   2.484   7.977  0.0986 -0.1899  1.2310
 8914SOL    HW238376   4.584   2.529   8.010  0.4906 -0.1467 -0.1260
 8915SOL     OW38377   2.285   0.294   9.515  0.5552 -0.3391 -0.0413
 8915SOL    HW138378   2.356   0.321   9.573 -0.0965 -0.8391  0.9873
 8915SOL    HW238379   2.213   0.295   9.579  0.8528  0.8049  0.2721
 8916SOL     OW38380   3.261   0.269   2.892 -0.5178 -0.0095  0.0511
 8916SOL    HW138381   3.275   0.342   2.832  0.4747  0.2760  0.6338
 8916SOL    HW238382   3.207   0.301   2.964 -2.1198 -1.9380 -0.2964
 8917SOL     OW38383   0.036   4.280  13.653  0.2109  0.2238  0.4128
 8917SOL    HW138384   4.677   4.283  13.647  0.1897  1.7106  1.5807
 8917SOL    HW238385   0.060   4.237  13.571 -1.5306  1.5823 -0.8072
 8918SOL     OW38386   0.742   4.325   5.372 -0.0125 -0.1963  0.0857
 8918SOL    HW138387   0.714   4.295   5.458  0.3356 -2.8008 -0.7057
 8918SOL    HW238388   0.722   4.418   5.376 -1.4739 -0.5254  0.2608
 8919SOL     OW38389   2.312   3.618  10.673 -0.4859 -0.7498  0.2049
 8919SOL    HW138390   2.325   3.697  10.726 -2.8565  1.6973 -2.8640
 8919SOL    HW238391   2.360   3.631  10.591 -0.3339  0.9694  0.5548
 8920SOL     OW38392   0.662   1.190  11.547 -0.1299  0.4346 -0.3560
 8920SOL    HW138393   0.726   1.150  11.605  0.8983  1.5609 -0.7075
 8920SOL    HW238394   0.726   1.227  11.485  0.3187 -0.3299 -0.3426
 8921SOL     OW38395   1.224   4.005  14.744 -0.2670  0.6220  0.0704
 8921SOL    HW138396   1.183   4.044  14.667  0.8127  1.4854 -0.0660
 8921SOL    HW238397   1.311   3.977  14.716  0.2897  1.4849  0.9311
 8922SOL     OW38398   1.403   2.839   5.907 -0.1106 -0.3515 -0.0170
 8922SOL    HW138399   1.327   2.839   5.849  1.3660 -0.0137 -1.9236
 8922SOL    HW238400   1.382   2.872   5.994 -0.1530  0.5936 -0.3928
 8923SOL     OW38401   1.058   1.359  16.777 -0.0719  0.2807  0.0989
 8923SOL    HW138402   1.153   1.375  16.774  0.2807 -1.9276 -0.4320
 8923SOL    HW238403   1.040   1.381  16.686  0.1322 -2.1876 -0.5385
 8924SOL     OW38404   2.265   0.334   8.872 -0.5262 -0.4758 -0.6654
 8924SOL    HW138405   2.341   0.307   8.820 -0.9877 -0.9559 -1.0775
 8924SOL    HW238406   2.253   0.261   8.933 -1.6886  1.6365  1.6306
 8925SOL     OW38407   3.291   0.343   6.545  0.1726 -0.1626 -0.0227
 8925SOL    HW138408   3.281   0.437   6.527 -0.9688 -0.2883 -0.0548
 8925SOL    HW238409   3.347   0.321   6.471 -3.3500 -1.5271 -2.2725
 8926SOL     OW38410   2.407   1.816   7.785  0.4471  0.5051  0.5288
 8926SOL    HW138411   2.318   1.792   7.811  0.9951  0.3652  2.2590
 8926SOL    HW238412   2.438   1.733   7.749  2.7489  0.8747  1.6303
 8927SOL     OW38413   3.570   2.637  12.255 -0.0127  0.1867 -0.0668
 8927SOL    HW138414   3.585   2.571  12.323  0.7659  0.1376 -0.2836
 8927SOL    HW238415   3.500   2.689  12.294  2.7364  1.3636  3.3907
 8928SOL     OW38416   3.148   2.603   2.614  0.6043 -0.1624 -0.8514
 8928SOL    HW138417   3.143   2.697   2.628  1.1907 -0.3594  0.7471
 8928SOL    HW238418   3.096   2.583   2.536  0.2399 -1.6276 -0.2367
 8929SOL     OW38419   1.867   2.014   7.524  0.4220  0.5791  0.2639
 8929SOL    HW138420   1.861   2.091   7.580  0.1382  0.5042  0.3355
 8929SOL    HW238421   1.889   2.055   7.440 -4.3471  0.1462 -1.2064
 8930SOL     OW38422   2.824   3.348  11.217  0.5973 -0.0463 -1.1426
 8930SOL    HW138423   2.806   3.439  11.193  1.6667  0.0624 -1.5446
 8930SOL    HW238424   2.752   3.316  11.270  0.6895 -0.1269 -1.0657
 8931SOL     OW38425   0.581   3.725   4.407 -0.5374  0.1352  0.1829
 8931SOL    HW138426   0.584   3.666   4.332  0.3369 -1.3158  1.3455
 8931SOL    HW238427   0.498   3.694   4.443 -0.5903 -0.2422 -0.2607
 8932SOL     OW38428   3.613   3.172   0.665 -0.7509  0.0710 -0.5374
 8932SOL    HW138429   3.610   3.079   0.688 -0.5960  0.0425 -0.6369
 8932SOL    HW238430   3.697   3.178   0.621 -0.4463 -0.1330  0.0167
 8933SOL     OW38431   4.452   2.808   1.909 -0.0350  0.0868  0.0530
 8933SOL    HW138432   4.364   2.772   1.901 -0.1880  0.7051 -1.0932
 8933SOL    HW238433   4.454   2.809   2.004  2.0839 -0.0072  0.0148
 8934SOL     OW38434   0.092   4.379  14.703 -0.0601 -0.1370 -0.2853
 8934SOL    HW138435   0.141   4.344  14.777  0.1646  0.7180 -0.0317
 8934SOL    HW238436   0.125   4.468  14.686  0.9708 -0.4087  0.3189
 8935SOL     OW38437   3.081   4.163   3.080  0.8887 -0.0900  0.0110
 8935SOL    HW138438   3.126   4.130   3.158  0.0700  0.0478  0.5426
 8935SOL    HW238439   3.008   4.207   3.124  0.6397 -0.9493  0.4627
 8936SOL     OW38440   4.386   3.687   6.337 -0.0767 -0.4024  0.2459
 8936SOL    HW138441   4.476   3.660   6.350 -0.3253 -1.1017  0.5080
 8936SOL    HW238442   4.350   3.615   6.388  1.3255 -1.2465  0.0359
 8937SOL     OW38443   2.026   0.464   7.028  0.2725  0.2724 -0.1591
 8937SOL    HW138444   2.107   0.442   7.074  0.6227 -0.7109 -1.2430
 8937SOL    HW238445   2.003   0.381   6.986  0.8474  0.4344 -0.8093
 8938SOL     OW38446   4.425   2.870   9.530 -0.3766 -0.2851  0.9923
 8938SOL    HW138447   4.369   2.947   9.519 -0.9943 -1.0066 -0.8335
 8938SOL    HW238448   4.505   2.923   9.522 -1.6112  1.5922  0.9488
 8939SOL     OW38449   1.649   1.866   7.030 -0.1486 -0.2894 -0.3655
 8939SOL    HW138450   1.592   1.839   7.101  0.2600  1.4333  0.6200
 8939SOL    HW238451   1.589   1.878   6.956 -0.8712 -0.9551  0.1087
 8940SOL     OW38452   0.669   4.378   6.102  0.4391 -0.5038  0.1292
 8940SOL    HW138453   0.630   4.297   6.071  0.0965 -0.6445  0.9188
 8940SOL    HW238454   0.711   4.393   6.017  1.0573 -2.5287  0.0879
 8941SOL     OW38455   3.303   3.016  11.272 -0.4879  0.1663 -0.6785
 8941SOL    HW138456   3.345   2.977  11.349 -2.8095  0.6030  0.7951
 8941SOL    HW238457   3.235   2.951  11.257 -0.2554  0.0496 -1.2312
 8942SOL     OW38458   3.860   2.926   2.469  0.4828  0.3663 -0.7265
 8942SOL    HW138459   3.922   2.875   2.520  0.0580  0.4031 -0.1752
 8942SOL    HW238460   3.779   2.877   2.487  2.4514 -2.3186  0.7343
 8943SOL     OW38461   1.829   3.304   0.533  0.0197  0.0256  0.2914
 8943SOL    HW138462   1.771   3.266   0.467  0.7879  1.0123 -0.9431
 8943SOL    HW238463   1.906   3.253   0.505 -1.7149 -0.3441 -3.7271
 8944SOL     OW38464   3.830   3.904   6.060  0.0111 -0.2417 -0.6197
 8944SOL    HW138465   3.839   3.849   5.983 -0.5496 -1.0256 -0.1284
 8944SOL    HW238466   3.811   3.838   6.127 -2.2134  0.3413 -0.6894
 8945SOL     OW38467   3.775   0.922  16.995  0.3475 -0.5142 -0.4893
 8945SOL    HW138468   3.703   0.957  16.943  0.4232  0.8647  0.3390
 8945SOL    HW238469   3.812   0.859  16.934 -3.8931 -1.4035 -2.1651
 8946SOL     OW38470   3.633   3.537  16.472 -0.5158  0.3272 -0.2080
 8946SOL    HW138471   3.594   3.622  16.449  1.6111  0.7456 -2.2736
 8946SOL    HW238472   3.599   3.538  16.561  0.2089 -0.3935  0.0765
 8947SOL     OW38473   2.779   1.660   1.842 -0.6044 -0.1447  0.1751
 8947SOL    HW138474   2.823   1.720   1.903  1.8176 -0.5403 -1.1652
 8947SOL    HW238475   2.775   1.580   1.894 -0.9605 -0.9047 -1.0267
 8948SOL     OW38476   1.130   3.175   7.363 -0.0380  0.1543 -0.3435
 8948SOL    HW138477   1.092   3.155   7.277  0.7720 -2.3118 -0.1293
 8948SOL    HW238478   1.216   3.210   7.338 -0.2733  2.4336  2.0866
 8949SOL     OW38479   1.846   4.170  14.543 -0.9410 -0.1811 -0.1376
 8949SOL    HW138480   1.805   4.088  14.569  0.9148 -0.5479  1.6284
 8949SOL    HW238481   1.770   4.222  14.515 -1.3764  0.9053  3.0697
 8950SOL     OW38482   4.483   3.616   1.843  0.3976 -0.4295 -0.5493
 8950SOL    HW138483   4.500   3.523   1.855  1.4570 -0.3888 -1.8026
 8950SOL    HW238484   4.388   3.619   1.854  0.4728 -0.5776  0.1448
 8951SOL     OW38485   3.809   2.531  17.285  0.4522 -0.1429 -0.7265
 8951SOL    HW138486   3.793   2.527  17.379  0.4341  0.0152 -0.7234
 8951SOL    HW238487   3.801   2.624  17.264  0.1874  0.3979  1.7981
 8952SOL     OW38488   0.140   0.759   5.785 -0.0633 -0.1881 -0.6130
 8952SOL    HW138489   0.228   0.727   5.768  1.4570  3.2092  0.8276
 8952SOL    HW238490   0.124   0.817   5.710 -1.8658 -0.2851 -0.3182
 8953SOL     OW38491   2.134   2.317  16.683 -0.1327  0.9296 -0.6138
 8953SOL    HW138492   2.141   2.379  16.756  0.8928 -1.1984  1.0780
 8953SOL    HW238493   2.044   2.289  16.701  0.0685 -1.7524 -3.7084
 8954SOL     OW38494   1.285   1.892   0.559 -0.5003  0.4325  0.2431
 8954SOL    HW138495   1.222   1.904   0.488 -0.9967 -0.7033  0.5012
 8954SOL    HW238496   1.225   1.872   0.631  0.6603 -3.5282  0.0812
 8955SOL     OW38497   4.051   3.471   7.025  0.1135 -0.7480 -0.3298
 8955SOL    HW138498   4.026   3.549   7.075  2.4126  0.3309 -0.8500
 8955SOL    HW238499   3.988   3.407   7.057 -1.3579  0.3986 -0.8916
 8956SOL     OW38500   2.551   3.577   9.556  0.1656 -0.5319 -0.7417
 8956SOL    HW138501   2.601   3.553   9.634 -0.7981  1.2596  0.4383
 8956SOL    HW238502   2.609   3.647   9.525  0.4336 -1.1110 -1.5226
 8957SOL     OW38503   1.331   1.996   5.878 -0.1060 -0.4756  0.1379
 8957SOL    HW138504   1.408   1.940   5.880  0.1654 -0.0160  3.1613
 8957SOL    HW238505   1.319   2.027   5.788  0.2970 -2.0525 -0.4459
 8958SOL     OW38506   4.706   3.590   2.260  0.1309  0.3876  0.0272
 8958SOL    HW138507   4.717   3.653   2.332 -1.6688 -0.8942  1.3879
 8958SOL    HW238508   4.689   3.508   2.305  1.9736 -0.4125 -0.7451
 8959SOL     OW38509   1.059   2.955   3.370 -0.1230  0.1210  0.0425
 8959SOL    HW138510   1.011   2.903   3.434 -1.7432  0.0973 -1.1845
 8959SOL    HW238511   1.111   2.886   3.327 -0.5651 -0.9651  1.2558
 8960SOL     OW38512   1.253   1.639   3.608  0.1239 -0.6343  0.4346
 8960SOL    HW138513   1.169   1.683   3.599 -0.7293 -2.6137 -1.1104
 8960SOL    HW238514   1.235   1.549   3.635  0.1700 -0.6515  0.4095
 8961SOL     OW38515   1.982   1.725   8.381  0.1864  0.4959 -0.4443
 8961SOL    HW138516   1.908   1.697   8.434  1.0390 -2.3589 -0.7622
 8961SOL    HW238517   1.960   1.818   8.384 -0.8675  0.2234  0.2020
 8962SOL     OW38518   1.928   1.094  10.372  0.2902  0.0731  0.1132
 8962SOL    HW138519   1.969   1.009  10.357  1.8579  0.7800  0.4035
 8962SOL    HW238520   1.845   1.064  10.408 -0.1267  2.5093  1.2199
 8963SOL     OW38521   1.587   0.945  14.768 -0.2413  0.3830 -0.5076
 8963SOL    HW138522   1.553   1.007  14.833 -0.6122  1.9841 -2.2384
 8963SOL    HW238523   1.513   0.910  14.718  0.1530 -0.8171 -0.2642
 8964SOL     OW38524   2.208   2.470   7.325 -0.2397 -0.6687 -0.4926
 8964SOL    HW138525   2.207   2.560   7.294  2.8210 -0.6814 -0.5702
 8964SOL    HW238526   2.242   2.476   7.414  0.6596 -2.2366 -0.7170
 8965SOL     OW38527   4.525   3.895   3.968  0.3630  0.3118  0.0595
 8965SOL    HW138528   4.557   3.867   3.883 -1.5629  0.4044 -0.6908
 8965SOL    HW238529   4.429   3.894   3.961  0.2056 -0.5965  2.2672
 8966SOL     OW38530   0.866   2.991  14.180 -0.3888 -0.3482 -0.3215
 8966SOL    HW138531   0.872   3.027  14.269  2.9578 -2.2706  0.2240
 8966SOL    HW238532   0.881   2.899  14.202  0.4912  0.0532  0.7874
 8967SOL     OW38533   0.585   1.396   8.604 -0.7270 -0.3568 -0.5919
 8967SOL    HW138534   0.632   1.464   8.556 -0.3055  1.3436  2.1852
 8967SOL    HW238535   0.622   1.316   8.567  1.2776 -0.6392  1.9844
 8968SOL     OW38536   1.280   1.113   6.123  0.0857  0.8054 -0.1182
 8968SOL    HW138537   1.345   1.153   6.180  0.0550 -0.9489  1.1639
 8968SOL    HW238538   1.322   1.031   6.097 -0.4034  0.2827  0.7295
 8969SOL     OW38539   4.728   4.470   3.668 -0.2854 -0.2137  0.0336
 8969SOL    HW138540   4.723   4.497   3.760  0.6658 -0.5793  0.1890
 8969SOL    HW238541   0.072   4.419   3.665  0.1787  0.5488 -0.3416
 8970SOL     OW38542   2.382   1.583   6.983  0.0475  0.5060  0.7292
 8970SOL    HW138543   2.399   1.616   7.071  0.0050  0.4821  0.7459
 8970SOL    HW238544   2.474   1.560   6.970  1.0016  2.0863  4.6161
 8971SOL     OW38545   0.420   0.750   4.929  0.2945  0.6622 -0.3586
 8971SOL    HW138546   0.336   0.704   4.923  2.0204 -2.4013 -1.3616
 8971SOL    HW238547   0.384   0.829   4.968 -0.7622 -0.0910  0.1986
 8972SOL     OW38548   0.710   4.504   6.776 -0.3451 -0.3467 -0.0942
 8972SOL    HW138549   0.796   4.545   6.777 -0.9577  0.9934 -2.1893
 8972SOL    HW238550   0.675   4.542   6.696  0.2255  0.4989  0.0571
 8973SOL     OW38551   0.844   1.288  11.305  0.0589  0.3443 -0.5074
 8973SOL    HW138552   0.929   1.328  11.324  0.9724 -0.2304 -3.4773
 8973SOL    HW238553   0.877   1.215  11.254 -0.5608 -0.0066 -0.4074
 8974SOL     OW38554   0.631   2.098  16.582 -0.4261 -0.3679 -0.5216
 8974SOL    HW138555   0.699   2.084  16.647 -1.8278 -0.8709  0.8453
 8974SOL    HW238556   0.547   2.095  16.629  0.0544 -4.4415  0.1091
 8975SOL     OW38557   3.769   2.110  16.185  0.7374  0.4275 -0.0916
 8975SOL    HW138558   3.677   2.133  16.170  0.6253 -0.9956 -1.7169
 8975SOL    HW238559   3.765   2.017  16.207 -1.0467 -0.2448 -3.2434
 8976SOL     OW38560   4.260   3.684   7.390 -0.0804  0.7358 -0.3203
 8976SOL    HW138561   4.355   3.674   7.385 -0.0357  1.2200 -0.3850
 8976SOL    HW238562   4.236   3.698   7.299 -2.4349  2.1044  0.5211
 8977SOL     OW38563   3.014   1.299   0.727 -0.3554 -0.4813  0.3921
 8977SOL    HW138564   2.920   1.292   0.708 -0.6198  3.4317  0.2584
 8977SOL    HW238565   3.019   1.248   0.807  1.2176 -1.0123 -0.0523
 8978SOL     OW38566   3.286   2.744   0.221  0.0522 -0.0280 -0.0989
 8978SOL    HW138567   3.284   2.810   0.152 -0.5211  0.7253  0.6413
 8978SOL    HW238568   3.378   2.724   0.242 -0.0251 -1.1882 -0.8926
 8979SOL     OW38569   0.847   0.714  10.377 -0.1760 -0.5235  0.0232
 8979SOL    HW138570   0.873   0.622  10.383 -0.2584 -0.5403  0.1141
 8979SOL    HW238571   0.752   0.703  10.384 -0.1610 -1.7737 -1.8164
 8980SOL     OW38572   1.725   3.175   3.927 -0.4169  0.0226  0.1431
 8980SOL    HW138573   1.819   3.156   3.935 -0.6511 -0.8925  0.7144
 8980SOL    HW238574   1.730   3.254   3.873  0.8277  0.1414  0.4171
 8981SOL     OW38575   3.241   2.074   8.157  0.0174  0.8048  0.1645
 8981SOL    HW138576   3.333   2.096   8.170 -0.0451  0.5295  1.1363
 8981SOL    HW238577   3.239   1.982   8.185 -3.4588  0.7216 -0.4124
 8982SOL     OW38578   3.490   2.674   4.230  1.0014 -0.1180 -0.1346
 8982SOL    HW138579   3.512   2.594   4.278  1.9144  0.4404  0.3923
 8982SOL    HW238580   3.416   2.644   4.178  2.8765 -2.8204 -1.2384
 8983SOL     OW38581   4.401   4.679   9.412  0.2737 -0.2086  0.3106
 8983SOL    HW138582   4.489   4.662   9.447  0.3896 -2.9966 -1.3903
 8983SOL    HW238583   4.382   4.595   9.371  0.7091  0.0111 -0.3496
 8984SOL     OW38584   4.026   2.367   7.581  0.3162 -0.1139 -0.0402
 8984SOL    HW138585   4.081   2.425   7.527 -0.2156  1.0796  0.7051
 8984SOL    HW238586   3.966   2.333   7.515  0.3410  1.1942 -0.7520
 8985SOL     OW38587   0.802   3.745   4.036  0.0374 -0.4412  0.5264
 8985SOL    HW138588   0.774   3.836   4.027  2.1908  0.0644 -1.1304
 8985SOL    HW238589   0.860   3.755   4.112  1.3464 -2.3148 -0.2066
 8986SOL     OW38590   4.069   0.815   9.457  0.2048  0.0232  0.2856
 8986SOL    HW138591   4.139   0.833   9.394  0.6837  1.5926  1.2757
 8986SOL    HW238592   4.059   0.899   9.503 -1.5481 -0.3853  0.6419
 8987SOL     OW38593   3.064   3.697   3.255 -0.4708 -0.1785 -0.1230
 8987SOL    HW138594   2.981   3.671   3.294 -0.4615 -0.2823 -0.1711
 8987SOL    HW238595   3.120   3.625   3.285  0.1506  0.8759  1.2177
 8988SOL     OW38596   2.450   3.651   9.259  0.2454  0.3294 -0.0602
 8988SOL    HW138597   2.425   3.743   9.265  0.5748  0.5433 -1.9711
 8988SOL    HW238598   2.472   3.622   9.348  0.9395 -0.0603 -0.3601
 8989SOL     OW38599   1.431   2.294   7.996  0.1047  0.2344  0.3849
 8989SOL    HW138600   1.365   2.350   7.955 -1.1514 -0.4567  1.4558
 8989SOL    HW238601   1.406   2.290   8.088  3.3035 -0.8941  1.2233
 8990SOL     OW38602   1.079   4.094   7.772  0.2211 -0.5006  0.4101
 8990SOL    HW138603   1.103   4.004   7.748  2.4781  0.2541 -0.1411
 8990SOL    HW238604   0.984   4.096   7.784  0.5910  0.3721  2.9677
 8991SOL     OW38605   0.278   3.415   2.599  0.4069  0.5930  0.3027
 8991SOL    HW138606   0.297   3.392   2.509  2.1402  1.7446  0.3851
 8991SOL    HW238607   0.242   3.504   2.597  3.0559  1.6779  1.4827
 8992SOL     OW38608   0.644   1.094   6.493  0.1934 -0.3252 -0.2833
 8992SOL    HW138609   0.630   1.105   6.399  1.7475  0.7103 -0.3896
 8992SOL    HW238610   0.707   1.165   6.506 -1.1088  1.0867 -1.6986
 8993SOL     OW38611   2.718   1.521  13.651  0.0268  0.1564 -0.3407
 8993SOL    HW138612   2.639   1.525  13.705 -0.0149 -2.4946 -0.2143
 8993SOL    HW238613   2.678   1.517  13.564  0.3530 -1.2996 -0.4307
 8994SOL     OW38614   3.474   4.277  14.220 -0.0536 -0.3180  0.6922
 8994SOL    HW138615   3.491   4.187  14.248  1.8727 -0.5384 -1.1959
 8994SOL    HW238616   3.386   4.300  14.249 -0.1000 -0.0712  0.3548
 8995SOL     OW38617   0.029   3.792   0.043  0.3711 -0.3187  0.2803
 8995SOL    HW138618   0.025   3.822   0.134 -0.3902 -0.9526  0.4540
 8995SOL    HW238619   4.674   3.775   0.021 -0.5231  2.5423  1.8188
 8996SOL     OW38620   0.662   1.691   3.830  0.2151  0.4848 -0.7265
 8996SOL    HW138621   0.635   1.689   3.739  2.9396 -1.1231 -1.5030
 8996SOL    HW238622   0.618   1.615   3.869  2.3361 -0.2344  0.2922
 8997SOL     OW38623   0.190   2.444  10.843  0.4492  0.1231  0.0736
 8997SOL    HW138624   0.255   2.442  10.913  1.3538 -0.3788 -0.7981
 8997SOL    HW238625   0.133   2.375  10.878  1.6202  0.5489  2.8555
 8998SOL     OW38626   3.066   0.695   4.758  0.2210 -0.1102 -0.2839
 8998SOL    HW138627   3.156   0.669   4.737  0.7020  1.0651  0.2935
 8998SOL    HW238628   3.089   0.738   4.840  1.5869 -0.4755 -0.4806
 8999SOL     OW38629   2.552   0.795   3.730  0.4966 -0.0151 -0.3116
 8999SOL    HW138630   2.535   0.794   3.635  0.3934 -1.2488 -0.2730
 8999SOL    HW238631   2.638   0.837   3.735  0.3435  0.1283  1.0074
 9000SOL     OW38632   3.199   3.051   5.085  0.3270 -0.1379  0.0072
 9000SOL    HW138633   3.214   3.091   4.999 -2.3243 -0.0607 -0.4030
 9000SOL    HW238634   3.249   3.114   5.136  0.2665 -0.6264  0.6587
 9001SOL     OW38635   3.898   3.309   8.417 -0.2132 -0.0684  0.1265
 9001SOL    HW138636   3.845   3.296   8.496  0.3745  0.1705  0.5565
 9001SOL    HW238637   3.901   3.405   8.422  0.5575 -0.1359  0.8763
 9002SOL     OW38638   0.352   3.084   6.181 -0.1039 -0.3981  0.6184
 9002SOL    HW138639   0.327   3.114   6.094 -1.1253 -0.0908  1.0169
 9002SOL    HW238640   0.278   3.121   6.229 -2.3840 -0.3307 -2.9597
 9003SOL     OW38641   2.284   3.537   9.023 -0.0500  0.5123  0.3747
 9003SOL    HW138642   2.216   3.472   9.005  0.2041  0.5299 -0.6262
 9003SOL    HW238643   2.325   3.504   9.104 -0.4218 -0.5442  0.1355
 9004SOL     OW38644   2.232   4.331  12.028 -0.1812  0.5028  0.2332
 9004SOL    HW138645   2.212   4.349  11.936  1.6494  0.1478 -0.2520
 9004SOL    HW238646   2.144   4.326  12.065  0.2422  3.1188  1.5274
 9005SOL     OW38647   2.144   1.972   4.560 -0.2026  0.2537 -0.2144
 9005SOL    HW138648   2.206   2.029   4.605 -0.4471 -0.1929  0.7049
 9005SOL    HW238649   2.068   2.030   4.565 -0.9409 -0.8529  1.5069
 9006SOL     OW38650   3.121   0.431   5.028  0.2017  0.3649  0.4648
 9006SOL    HW138651   3.085   0.370   5.092  2.0028  1.5918  2.6663
 9006SOL    HW238652   3.130   0.506   5.087 -2.9204 -0.9020  2.5222
 9007SOL     OW38653   1.063   2.675   4.302  0.1211  0.8409  0.9075
 9007SOL    HW138654   1.145   2.626   4.301 -0.9840 -1.0234  1.8328
 9007SOL    HW238655   1.097   2.760   4.330  2.0561 -0.3851  2.2432
 9008SOL     OW38656   0.007   2.842   9.884  0.2376 -0.1121 -0.3381
 9008SOL    HW138657   0.007   2.817   9.977 -2.0335  4.7561  0.9803
 9008SOL    HW238658   4.687   2.920   9.882  0.2161 -0.1192 -0.0803
 9009SOL     OW38659   4.440   1.926   6.916  0.1645 -0.1109  0.3166
 9009SOL    HW138660   4.484   1.871   6.851  1.6290  1.4539 -0.0230
 9009SOL    HW238661   4.505   1.996   6.926 -1.3787  1.3132  0.3567
 9010SOL     OW38662   0.663   0.893   1.293 -0.4530 -0.0732 -0.1405
 9010SOL    HW138663   0.728   0.838   1.338 -1.4745 -0.5736  0.7285
 9010SOL    HW238664   0.709   0.972   1.267  1.3245 -0.7069  1.0992
 9011SOL     OW38665   3.107   1.973   4.848 -0.2578  0.0231 -0.7948
 9011SOL    HW138666   3.120   2.043   4.912  2.6116 -0.9501 -0.2962
 9011SOL    HW238667   3.140   1.896   4.894  2.1696  1.6224  0.1763
 9012SOL     OW38668   0.211   1.325  11.717  0.2263  0.0190 -0.6649
 9012SOL    HW138669   0.244   1.414  11.703  0.3937 -0.3433 -2.6027
 9012SOL    HW238670   0.209   1.316  11.812 -2.3141  0.6135 -0.6585
 9013SOL     OW38671   4.091   2.382   4.025  0.3173  0.1282  0.1368
 9013SOL    HW138672   4.174   2.383   3.977  0.2906  2.8838  0.1406
 9013SOL    HW238673   4.096   2.287   4.034  1.8929  0.3463  1.6917
 9014SOL     OW38674   1.273   0.128  14.736 -0.1763  0.0557  0.1242
 9014SOL    HW138675   1.353   0.152  14.783  1.6510 -0.3592 -2.7680
 9014SOL    HW238676   1.252   0.054  14.792  0.1774  0.5234  0.8735
 9015SOL     OW38677   1.594   2.273   9.422  0.0823  0.3339  1.2178
 9015SOL    HW138678   1.507   2.301   9.394 -0.8061 -0.8641  2.7602
 9015SOL    HW238679   1.633   2.232   9.345  0.7555  2.5115  0.3932
 9016SOL     OW38680   2.609   1.158   8.589  0.3717 -0.2114 -0.4212
 9016SOL    HW138681   2.666   1.234   8.599 -0.6537  0.2217  2.1598
 9016SOL    HW238682   2.524   1.201   8.586 -0.2656 -1.4210  0.2050
 9017SOL     OW38683   3.284   2.270   6.088 -0.3623 -0.2738 -0.2519
 9017SOL    HW138684   3.209   2.329   6.078 -0.6026 -0.4076  0.7201
 9017SOL    HW238685   3.343   2.328   6.137 -0.1268 -0.3555 -0.4398
 9018SOL     OW38686   0.903   3.128   6.179 -0.3610 -0.4656  0.5418
 9018SOL    HW138687   0.912   3.076   6.259 -3.0766  0.8481  1.6938
 9018SOL    HW238688   0.808   3.130   6.178 -0.3382  0.9685  1.6541
 9019SOL     OW38689   2.350   1.043   4.810 -0.3910 -0.0799  0.1980
 9019SOL    HW138690   2.385   0.978   4.749 -1.0447  1.5197 -1.8875
 9019SOL    HW238691   2.421   1.044   4.874  0.3293  2.3091 -0.6703
 9020SOL     OW38692   3.232   2.271  12.234 -0.5232 -0.1556 -0.1777
 9020SOL    HW138693   3.237   2.281  12.139 -2.3813  1.7482 -0.0826
 9020SOL    HW238694   3.172   2.343  12.255  0.8073  0.8734  0.0752
 9021SOL     OW38695   4.276   0.452   7.775 -0.3684  0.0528  0.1746
 9021SOL    HW138696   4.203   0.468   7.715 -0.6413 -1.5169  0.0732
 9021SOL    HW238697   4.225   0.390   7.828  0.6200  0.5380  1.6787
 9022SOL     OW38698   2.708   0.681   2.771 -0.0749  0.1953  0.2191
 9022SOL    HW138699   2.647   0.619   2.730 -0.0865  1.5159 -1.7710
 9022SOL    HW238700   2.650   0.726   2.832 -1.1421 -0.4848 -0.2705
 9023SOL     OW38701   2.054   3.948   2.905 -0.1740 -0.1864 -0.5419
 9023SOL    HW138702   1.987   3.981   2.964  0.3980  0.0322 -0.0186
 9023SOL    HW238703   2.079   4.021   2.848  1.6939  0.0280  0.5502
 9024SOL     OW38704   4.436   0.836   1.940 -0.3464  0.7813  0.3849
 9024SOL    HW138705   4.430   0.745   1.910  0.7468  0.6657  0.5190
 9024SOL    HW238706   4.387   0.835   2.022  1.0488  1.3379  1.2335
 9025SOL     OW38707   2.042   0.506   5.138  0.3282 -0.3041 -0.4157
 9025SOL    HW138708   2.086   0.545   5.062  0.2847 -1.5562 -1.0829
 9025SOL    HW238709   2.115   0.501   5.200  2.0521 -2.3188 -2.5860
 9026SOL     OW38710   3.670   2.443   3.624  0.0396 -0.3185 -0.5023
 9026SOL    HW138711   3.755   2.489   3.618 -1.0916  1.8444 -0.1160
 9026SOL    HW238712   3.626   2.461   3.541  0.0407 -0.6232 -0.5686
 9027SOL     OW38713   4.258   4.026   1.456 -0.4363  0.1424 -0.1711
 9027SOL    HW138714   4.203   3.992   1.527 -0.1503  1.6212  0.7394
 9027SOL    HW238715   4.340   3.987   1.485 -0.6692  0.3157  0.7135
 9028SOL     OW38716   3.695   1.857  12.423  0.2578 -0.1965 -0.7739
 9028SOL    HW138717   3.642   1.778  12.420 -1.3860  0.9333 -1.2125
 9028SOL    HW238718   3.635   1.910  12.474 -0.8051 -0.9980 -1.1982
 9029SOL     OW38719   4.254   1.384  15.736 -0.2370 -0.3363  0.8709
 9029SOL    HW138720   4.242   1.306  15.789  1.7977 -0.8507  0.5882
 9029SOL    HW238721   4.254   1.447  15.808  0.9720 -1.8898  2.2268
 9030SOL     OW38722   3.437   3.107  16.728  0.3452  0.1103 -0.0656
 9030SOL    HW138723   3.426   3.198  16.756 -0.4006  0.1451 -0.4918
 9030SOL    HW238724   3.410   3.112  16.637 -0.2427  0.0391  0.1022
 9031SOL     OW38725   0.454   4.347   1.222  0.0901 -0.3147 -0.3713
 9031SOL    HW138726   0.535   4.391   1.199  0.2979 -2.0640 -2.9491
 9031SOL    HW238727   0.394   4.418   1.200  1.8305  1.7132  1.4150
 9032SOL     OW38728   3.622   4.648  12.475  0.0821  1.1738 -0.4285
 9032SOL    HW138729   3.677   4.571  12.461  1.6256  1.7428  2.3449
 9032SOL    HW238730   3.589   4.670  12.388  1.1083  1.3903 -0.7672
 9033SOL     OW38731   4.531   1.066  13.522  0.0622  0.3825 -0.5504
 9033SOL    HW138732   4.600   1.019  13.474  1.5055  1.1375  0.7600
 9033SOL    HW238733   4.452   1.051  13.471 -0.4873 -1.2309  0.7604
 9034SOL     OW38734   3.428   4.372   5.439  0.5145  0.1591  0.0542
 9034SOL    HW138735   3.397   4.324   5.516  1.6870  0.5283  0.7489
 9034SOL    HW238736   3.520   4.349   5.450  0.5480 -0.6497 -1.8923
 9035SOL     OW38737   2.579   1.760  14.598 -0.5452 -0.1561  0.4389
 9035SOL    HW138738   2.603   1.783  14.687 -1.1135 -0.7208  0.7365
 9035SOL    HW238739   2.668   1.748  14.566 -0.7046 -1.1908  0.3653
 9036SOL     OW38740   4.096   3.772  12.353 -0.0641 -0.0715 -0.7898
 9036SOL    HW138741   4.035   3.829  12.399  2.8948  3.4092 -1.1848
 9036SOL    HW238742   4.135   3.725  12.427 -2.5621  0.6582  0.9671
 9037SOL     OW38743   3.341   4.634   9.981 -0.0001 -0.6320 -0.2013
 9037SOL    HW138744   3.315   4.566  10.043  1.3596 -0.5157  0.5061
 9037SOL    HW238745   3.357   4.582   9.903  1.4579  0.4441 -0.6251
 9038SOL     OW38746   0.452   4.445   7.300  0.2456 -0.5040 -0.1620
 9038SOL    HW138747   0.420   4.530   7.329  0.3918  0.0379 -1.6199
 9038SOL    HW238748   0.375   4.404   7.261 -0.3337 -1.4944  1.9831
 9039SOL     OW38749   3.054   2.391   5.195  0.1183 -0.5379 -0.0054
 9039SOL    HW138750   3.053   2.343   5.278  0.5016 -2.4305 -1.0983
 9039SOL    HW238751   3.103   2.332   5.138  0.4347  0.3757 -0.6726
 9040SOL     OW38752   0.173   2.214  12.093  0.2080  0.7375 -0.0058
 9040SOL    HW138753   0.143   2.231  12.004 -3.5408 -1.8336  0.7714
 9040SOL    HW238754   0.202   2.304  12.112 -1.5788  1.4264 -0.5326
 9041SOL     OW38755   3.549   2.299  16.150  0.2495  0.4884  0.0308
 9041SOL    HW138756   3.608   2.372  16.129 -0.3731  0.5128 -1.6837
 9041SOL    HW238757   3.567   2.298  16.244  2.5225 -0.6415 -0.4047
 9042SOL     OW38758   2.813   1.263  16.204 -1.0018 -0.1183  0.3046
 9042SOL    HW138759   2.871   1.300  16.272 -1.8313  1.1547  0.3241
 9042SOL    HW238760   2.784   1.340  16.154  0.9485  0.7863  0.5479
 9043SOL     OW38761   1.588   2.738  14.856  0.4396  0.2698 -0.2758
 9043SOL    HW138762   1.628   2.669  14.803 -1.2320 -0.7431 -0.2009
 9043SOL    HW238763   1.545   2.779  14.780 -0.0660 -1.1142 -0.7318
 9044SOL     OW38764   2.703   4.713   5.821  0.0985 -0.0379  0.3009
 9044SOL    HW138765   2.672   4.624   5.803 -2.7808  1.3736 -1.7197
 9044SOL    HW238766   2.736   4.708   5.911  3.4366 -1.7475 -1.0035
 9045SOL     OW38767   2.997   2.585   9.200 -0.0794  0.6590  0.4628
 9045SOL    HW138768   2.919   2.577   9.145  0.5318  1.5029 -0.5457
 9045SOL    HW238769   3.055   2.513   9.172 -0.1318  1.2001 -1.0552
 9046SOL     OW38770   1.741   4.360  11.052 -0.3354 -0.1848  0.4972
 9046SOL    HW138771   1.769   4.268  11.058 -0.6898 -0.3684 -0.4600
 9046SOL    HW238772   1.701   4.368  11.138  0.9390 -1.8631  1.2539
 9047SOL     OW38773   1.479   3.385   5.137  0.4744  0.1688 -0.6525
 9047SOL    HW138774   1.462   3.479   5.141  2.1445  0.4225  0.3857
 9047SOL    HW238775   1.487   3.364   5.230 -1.6787  0.6423 -0.3751
 9048SOL     OW38776   2.251   0.438   9.252 -0.2035 -0.6588  0.0192
 9048SOL    HW138777   2.278   0.355   9.290  1.0217 -0.6011 -0.7231
 9048SOL    HW238778   2.189   0.472   9.317  2.0124  1.5655  0.9782
 9049SOL     OW38779   0.073   4.420   6.235  0.2597  0.2716 -0.5965
 9049SOL    HW138780   0.088   4.470   6.156 -0.1851  1.5199  0.1118
 9049SOL    HW238781   4.714   4.415   6.228  0.2992 -0.7958 -0.5099
 9050SOL     OW38782   2.127   1.100  15.084 -0.1768  0.0756  0.0297
 9050SOL    HW138783   2.198   1.102  15.148  1.3397  2.5917 -1.7546
 9050SOL    HW238784   2.173   1.065  15.008  2.5929  0.6125  1.4820
 9051SOL     OW38785   3.084   1.353   5.491 -0.1679 -0.3005 -0.0373
 9051SOL    HW138786   3.076   1.363   5.586  1.7304 -0.7653  0.1616
 9051SOL    HW238787   3.086   1.257   5.485  0.9544 -0.2839  0.1379
 9052SOL     OW38788   3.341   2.839   3.332  0.2134 -0.3386  0.0579
 9052SOL    HW138789   3.419   2.807   3.285  0.1628 -0.4147  0.0264
 9052SOL    HW238790   3.289   2.889   3.269 -0.3978 -2.1674 -0.8854
 9053SOL     OW38791   4.727   2.280   7.133 -0.1977  0.0833  0.5714
 9053SOL    HW138792   4.653   2.337   7.112  0.7497  1.1146  0.0146
 9053SOL    HW238793   0.062   2.344   7.131  0.1371 -0.3812 -2.5338
 9054SOL     OW38794   3.728   1.875  14.348 -0.0225 -0.1144 -0.2009
 9054SOL    HW138795   3.778   1.814  14.402 -0.0734 -0.6973 -0.8136
 9054SOL    HW238796   3.738   1.838  14.260  0.6848 -2.7925  0.9901
 9055SOL     OW38797   1.952   0.968  16.681 -0.2796  0.3217 -0.2038
 9055SOL    HW138798   1.867   0.924  16.679 -1.3657  2.5475 -3.1935
 9055SOL    HW238799   2.017   0.918  16.731 -2.2625 -1.5856  0.4507
 9056SOL     OW38800   3.931   2.050   4.210  0.3357  0.6982  0.8886
 9056SOL    HW138801   3.858   2.099   4.173  0.1236  1.1738  1.9392
 9056SOL    HW238802   3.995   2.049   4.138 -0.5031 -0.8881  0.1493
 9057SOL     OW38803   0.481   1.798   2.448 -0.0419 -0.1012 -0.4944
 9057SOL    HW138804   0.480   1.845   2.364 -3.7481 -1.4699 -1.1931
 9057SOL    HW238805   0.467   1.708   2.420  2.7732 -1.5166  2.6685
 9058SOL     OW38806   1.532   4.122  12.716  0.4444  0.1304  0.0746
 9058SOL    HW138807   1.484   4.040  12.726 -1.2980  1.1821  0.4191
 9058SOL    HW238808   1.527   4.172  12.798  0.2462  0.0526  0.1099
 9059SOL     OW38809   1.335   3.655  16.932 -0.4135 -0.1084  0.3093
 9059SOL    HW138810   1.318   3.748  16.915  0.0107  0.0846  0.8925
 9059SOL    HW238811   1.271   3.641  17.002 -0.9308  0.3935 -0.0708
 9060SOL     OW38812   2.928   3.148   3.825 -0.3775 -0.4249 -0.3068
 9060SOL    HW138813   2.989   3.211   3.863 -1.3947 -0.3470  1.2304
 9060SOL    HW238814   2.865   3.206   3.783 -0.9603  0.9308  2.4333
 9061SOL     OW38815   4.012   0.810   2.223  0.6226 -0.1553 -0.6394
 9061SOL    HW138816   4.075   0.741   2.244  1.0990  0.3065 -0.5412
 9061SOL    HW238817   4.076   0.878   2.202  1.3351 -0.6018  0.0710
 9062SOL     OW38818   3.491   3.956   1.264 -0.5588  0.5366  0.1844
 9062SOL    HW138819   3.567   4.012   1.280 -1.5682  2.2975 -1.1877
 9062SOL    HW238820   3.451   3.993   1.185 -0.8795  0.6255  0.3892
 9063SOL     OW38821   3.924   4.032  12.089  0.2945  0.1957 -0.3387
 9063SOL    HW138822   3.954   3.944  12.066  3.3217  0.7912  1.3931
 9063SOL    HW238823   3.996   4.086  12.057  1.8201 -0.1373  2.4573
 9064SOL     OW38824   2.396   0.716  10.476 -0.1513 -0.2046 -0.0540
 9064SOL    HW138825   2.385   0.727  10.381 -1.1409 -1.5919 -0.1091
 9064SOL    HW238826   2.481   0.753  10.501 -0.5195  0.0008  0.8903
 9065SOL     OW38827   4.127   0.815   7.169 -0.2330  0.5834  0.1025
 9065SOL    HW138828   4.044   0.857   7.193 -0.1195 -0.4419  2.2775
 9065SOL    HW238829   4.092   0.762   7.097  0.7684 -0.6355  0.5159
 9066SOL     OW38830   4.219   4.123   5.571  0.7802 -0.4591  0.3528
 9066SOL    HW138831   4.272   4.149   5.646 -1.8130  1.4844  1.5206
 9066SOL    HW238832   4.224   4.028   5.579 -0.2646 -0.4108  1.6102
 9067SOL     OW38833   1.416   1.445   4.047  0.6738  0.5265  0.2030
 9067SOL    HW138834   1.496   1.477   4.004  0.9951 -1.9607 -1.0505
 9067SOL    HW238835   1.374   1.528   4.071 -2.3805 -1.1245  0.5210
 9068SOL     OW38836   4.474   4.294   2.681 -0.5230 -0.3728  0.7731
 9068SOL    HW138837   4.557   4.339   2.696 -1.1909  0.3460  2.2479
 9068SOL    HW238838   4.421   4.373   2.681 -0.2809 -0.2114 -0.0235
 9069SOL     OW38839   0.447   4.379   2.975  0.0738 -0.0057  0.2565
 9069SOL    HW138840   0.444   4.283   2.977  0.9430 -0.0145  1.1995
 9069SOL    HW238841   0.484   4.392   3.063  0.2601  2.3435 -0.1638
 9070SOL     OW38842   4.649   2.120   0.007  0.1404 -0.0474  0.1035
 9070SOL    HW138843   4.654   2.125  17.657  1.8267  1.3524  0.2673
 9070SOL    HW238844   4.572   2.174   0.027 -1.1181 -1.8732  0.2068
 9071SOL     OW38845   4.095   1.098   5.468  0.1511 -0.5433  0.4157
 9071SOL    HW138846   4.174   1.149   5.483 -0.8438  1.0369  0.3363
 9071SOL    HW238847   4.105   1.028   5.532  2.5468  0.5984  1.2603
 9072SOL     OW38848   4.575   0.438   5.925  0.1037 -0.3299  0.2851
 9072SOL    HW138849   4.635   0.472   5.858  0.8271  0.6331  1.4117
 9072SOL    HW238850   4.497   0.480   5.889  1.6349  0.8214 -1.6602
 9073SOL     OW38851   3.340   3.649   0.080  0.5415 -0.0641 -0.3242
 9073SOL    HW138852   3.379   3.670   0.165 -0.2045  0.2958 -0.0730
 9073SOL    HW238853   3.323   3.737   0.047  0.3097 -0.5113 -1.4113
 9074SOL     OW38854   3.767   2.022  12.096  0.2710 -0.2059 -0.4568
 9074SOL    HW138855   3.708   2.023  12.020  1.7785 -0.8687 -1.6514
 9074SOL    HW238856   3.705   2.038  12.167 -0.2212 -1.1891 -0.6561
 9075SOL     OW38857   1.584   2.677  16.615 -0.6127 -0.2057 -0.0524
 9075SOL    HW138858   1.584   2.767  16.582 -1.8755 -0.2008 -0.0368
 9075SOL    HW238859   1.491   2.656  16.610 -0.3772 -1.2549  0.1162
 9076SOL     OW38860   1.587   0.465   9.909 -0.2702 -0.1425 -0.1149
 9076SOL    HW138861   1.600   0.433   9.819  0.8889 -2.2071  0.7984
 9076SOL    HW238862   1.653   0.534   9.911  0.6309 -0.9455 -2.6216
 9077SOL     OW38863   1.250   2.694  14.034 -0.4809 -0.0615 -0.3507
 9077SOL    HW138864   1.261   2.642  14.114  1.6110 -0.5650 -0.9755
 9077SOL    HW238865   1.253   2.626  13.966  1.6017 -0.0223 -0.3002
 9078SOL     OW38866   3.398   1.520   6.233 -0.7131 -0.4542  0.0168
 9078SOL    HW138867   3.472   1.574   6.203 -1.9152  0.7162 -0.8533
 9078SOL    HW238868   3.365   1.489   6.149 -0.5368 -0.8641  0.1002
 9079SOL     OW38869   1.674   2.318  12.727 -0.0467 -0.0752  0.8001
 9079SOL    HW138870   1.619   2.370  12.668  2.0561  1.5763  0.3153
 9079SOL    HW238871   1.610   2.290  12.794 -2.1333 -2.2630 -2.0912
 9080SOL     OW38872   0.061   4.599  17.160 -0.0023  0.0915  0.1617
 9080SOL    HW138873   0.099   4.649  17.233  0.1928 -0.0923  0.1830
 9080SOL    HW238874   4.727   4.660  17.138 -2.9360 -3.6488 -0.7023
 9081SOL     OW38875   1.276   2.687   6.311 -0.3143  0.2767 -0.0301
 9081SOL    HW138876   1.264   2.661   6.220  1.1710  0.8771 -0.3975
 9081SOL    HW238877   1.186   2.671   6.339 -1.2442  0.7066 -2.7867
 9082SOL     OW38878   4.443   4.005   9.692  0.2858 -0.1846  0.0270
 9082SOL    HW138879   4.404   4.011   9.780  0.1245  3.4095 -0.2839
 9082SOL    HW238880   4.480   3.917   9.692  1.5491  0.3362 -2.5358
 9083SOL     OW38881   0.017   4.503   2.482  0.0953 -0.2699 -0.4886
 9083SOL    HW138882   0.090   4.459   2.439 -0.1824  1.9967 -3.3118
 9083SOL    HW238883   0.020   4.585   2.432  0.4705  0.1652  0.2388
 9084SOL     OW38884   2.493   0.285  15.742 -0.0049 -0.0498  0.3232
 9084SOL    HW138885   2.555   0.311  15.674  0.2881  1.5906  1.2255
 9084SOL    HW238886   2.480   0.368  15.788  0.1929 -0.0306  0.3438
 9085SOL     OW38887   1.680   2.851  13.848  0.0654  0.3301 -0.7386
 9085SOL    HW138888   1.592   2.814  13.845 -0.1814  0.7322  1.5012
 9085SOL    HW238889   1.728   2.791  13.905  1.4544  2.7648  0.6565
 9086SOL     OW38890   1.865   1.053   3.456  0.3950 -0.4347  0.1359
 9086SOL    HW138891   1.876   1.036   3.363 -3.3542  1.4930 -0.6777
 9086SOL    HW238892   1.928   1.125   3.465  0.7501 -0.6809 -0.3858
 9087SOL     OW38893   1.937   0.248   2.047  0.1530 -0.2454  0.4719
 9087SOL    HW138894   1.969   0.212   1.964  1.6193  1.8563  0.1234
 9087SOL    HW238895   1.953   0.339   2.022  0.3023  0.0524  1.6584
 9088SOL     OW38896   3.226   2.715   3.538 -0.7375 -0.1480  0.2466
 9088SOL    HW138897   3.151   2.708   3.479 -0.0025 -0.9553 -0.5892
 9088SOL    HW238898   3.286   2.757   3.476 -0.6062  1.0027  1.1623
 9089SOL     OW38899   3.012   0.533  10.768 -0.3125 -0.2263 -0.1260
 9089SOL    HW138900   2.989   0.506  10.857 -0.6341 -3.1447 -1.0895
 9089SOL    HW238901   3.071   0.464  10.739 -0.5600 -0.2091 -0.6593
 9090SOL     OW38902   1.971   2.826   6.166 -0.1063 -0.3305  0.4591
 9090SOL    HW138903   1.960   2.835   6.261  1.0626 -3.6892  0.9546
 9090SOL    HW238904   1.905   2.882   6.127  0.4818  0.2856  0.3469
 9091SOL     OW38905   1.681   0.545   8.268  0.6303  0.0914 -0.3643
 9091SOL    HW138906   1.759   0.601   8.263  0.9450 -0.1898  1.4922
 9091SOL    HW238907   1.694   0.496   8.349 -0.5737  0.5050  0.0686
 9092SOL     OW38908   4.465   0.873   8.950 -0.0295  0.1273 -0.1461
 9092SOL    HW138909   4.508   0.897   9.032 -1.4350 -2.4995  1.3267
 9092SOL    HW238910   4.480   0.779   8.957  0.5800  0.1458 -1.2395
 9093SOL     OW38911   2.747   0.930   4.235  0.1165 -0.6347  0.0957
 9093SOL    HW138912   2.680   0.864   4.218 -0.1913 -0.9107  2.2738
 9093SOL    HW238913   2.684   1.002   4.240  0.5326 -0.3055  0.6567
 9094SOL     OW38914   0.925   0.353   7.479  0.0372 -0.5124 -0.0268
 9094SOL    HW138915   0.976   0.288   7.430 -0.6095 -0.3364 -0.9459
 9094SOL    HW238916   0.922   0.316   7.567  0.6427  0.3547  0.3587
 9095SOL     OW38917   3.620   3.962  16.432  0.5719  0.0537 -0.2157
 9095SOL    HW138918   3.570   4.017  16.493  1.4450 -1.3606  1.7961
 9095SOL    HW238919   3.575   3.988  16.352 -0.6102 -0.5747  0.2415
 9096SOL     OW38920   2.536   4.620   6.596  0.0332  0.1559  0.3897
 9096SOL    HW138921   2.623   4.580   6.607 -0.4509 -1.1733 -0.6157
 9096SOL    HW238922   2.530   4.666   6.680 -0.6935  1.8284 -0.5828
 9097SOL     OW38923   1.374   2.913   2.499 -0.0164  0.3568 -0.7908
 9097SOL    HW138924   1.335   2.846   2.443 -1.5518 -0.0167  0.7344
 9097SOL    HW238925   1.438   2.951   2.439  1.2051 -1.0673 -0.4072
 9098SOL     OW38926   2.956   0.223  10.729  0.3133  0.1910  0.1027
 9098SOL    HW138927   2.958   0.238  10.634 -1.2296  1.3832  0.2606
 9098SOL    HW238928   2.926   0.132  10.722  0.7655 -0.0568  1.4943
 9099SOL     OW38929   1.490   2.533   4.863  0.3240  0.6352 -0.2617
 9099SOL    HW138930   1.550   2.608   4.867 -0.7188  1.3986  0.8760
 9099SOL    HW238931   1.531   2.473   4.926  0.1803  0.0924 -0.6870
 9100SOL     OW38932   2.798   4.417   4.009  0.5106  0.2869  0.0631
 9100SOL    HW138933   2.773   4.361   3.935 -0.7898  0.2259  0.5569
 9100SOL    HW238934   2.754   4.498   3.984  0.5216 -0.1831 -1.4630
 9101SOL     OW38935   1.571   2.682   7.748 -0.1603  0.1156  0.0976
 9101SOL    HW138936   1.665   2.677   7.728 -0.3869  0.1929 -0.9932
 9101SOL    HW238937   1.573   2.662   7.842  0.8405  0.1850  0.0938
 9102SOL     OW38938   3.180   1.948   2.276  0.5798 -0.2168 -0.0086
 9102SOL    HW138939   3.255   2.002   2.248  0.7156  0.9276  2.5186
 9102SOL    HW238940   3.218   1.861   2.264  1.2180  0.0570  0.0231
 9103SOL     OW38941   2.010   0.321   4.686  0.3790  0.1004  0.0434
 9103SOL    HW138942   2.021   0.292   4.777  1.4320  1.0599  0.2288
 9103SOL    HW238943   1.926   0.280   4.665 -0.5438  0.3862  3.0801
 9104SOL     OW38944   3.692   4.061   7.298  0.5434 -0.2679 -0.1100
 9104SOL    HW138945   3.630   4.054   7.226 -1.6518 -1.4753  1.8809
 9104SOL    HW238946   3.763   4.098   7.245 -1.6631  1.0335 -2.1590
 9105SOL     OW38947   3.765   2.948   7.701 -0.0032 -0.5995  0.6526
 9105SOL    HW138948   3.808   2.862   7.696  0.0146 -0.6575  1.7841
 9105SOL    HW238949   3.803   2.971   7.786  0.9470 -2.2887  0.7072
 9106SOL     OW38950   0.287   3.137   2.982 -0.3126 -0.4422  0.5934
 9106SOL    HW138951   0.231   3.119   3.057 -1.4052  0.6393  0.0383
 9106SOL    HW238952   0.257   3.227   2.971  3.8688  0.8269 -0.5158
 9107SOL     OW38953   3.552   1.212   1.514  0.6467  0.2915 -1.0100
 9107SOL    HW138954   3.535   1.275   1.445  1.6989  0.6741 -0.9182
 9107SOL    HW238955   3.527   1.261   1.592 -1.2007  1.0175 -2.0550
 9108SOL     OW38956   2.486   4.122   7.373  0.5013 -0.8737 -0.4105
 9108SOL    HW138957   2.513   4.052   7.314 -0.2323 -0.0735 -1.6826
 9108SOL    HW238958   2.571   4.166   7.370 -1.5799  3.1371 -1.1867
 9109SOL     OW38959   4.297   1.263   7.082 -0.2433  0.1718 -0.3521
 9109SOL    HW138960   4.237   1.288   7.152  0.6298  0.8726  0.1467
 9109SOL    HW238961   4.248   1.279   7.001 -0.1297  1.8987 -0.0744
 9110SOL     OW38962   2.855   0.594   5.499 -0.2731 -0.4071  0.4720
 9110SOL    HW138963   2.773   0.642   5.486  0.1822  0.0802 -0.6275
 9110SOL    HW238964   2.833   0.503   5.480  1.5367 -0.9393  0.8999
 9111SOL     OW38965   1.936   0.993   1.976 -0.3298  0.2390  0.2397
 9111SOL    HW138966   1.981   0.958   2.053 -0.2816  0.0182  0.1097
 9111SOL    HW238967   1.853   0.946   1.964  0.0635 -1.1479  2.8976
 9112SOL     OW38968   2.864   1.975   2.859  0.6027 -0.8415 -0.1244
 9112SOL    HW138969   2.908   2.001   2.940 -2.6426 -2.0307  2.0048
 9112SOL    HW238970   2.923   1.907   2.828 -0.0417  0.1975 -3.6874
 9113SOL     OW38971   0.805   0.536   8.485  0.2083  0.2102 -0.6414
 9113SOL    HW138972   0.735   0.507   8.544 -0.0474  1.2241 -0.4532
 9113SOL    HW238973   0.771   0.612   8.439 -2.0626 -0.5619 -0.2759
 9114SOL     OW38974   4.115   2.989   2.930 -0.2810  0.0470  0.1062
 9114SOL    HW138975   4.144   2.937   3.005  0.7244  0.4184 -0.0238
 9114SOL    HW238976   4.019   2.981   2.931 -0.2867  0.1775  2.1218
 9115SOL     OW38977   4.494   4.442  12.091  0.2005 -0.1152  0.1983
 9115SOL    HW138978   4.459   4.453  12.180 -0.1909  1.1407 -0.1116
 9115SOL    HW238979   4.543   4.360  12.093  2.9252  1.4890 -0.9094
 9116SOL     OW38980   3.868   2.586   6.508  0.3484 -0.0258 -0.0196
 9116SOL    HW138981   3.880   2.530   6.585  2.9889 -1.6874 -1.6238
 9116SOL    HW238982   3.870   2.670   6.554 -0.1302 -1.4466  2.6287
 9117SOL     OW38983   1.042   3.911   8.360  0.0241 -0.3667  0.2521
 9117SOL    HW138984   1.077   3.893   8.448 -1.0736 -1.9449  0.3630
 9117SOL    HW238985   1.129   3.911   8.319 -0.2036  1.5445 -0.2531
 9118SOL     OW38986   3.351   2.936   5.764 -0.3288  0.5943 -0.4567
 9118SOL    HW138987   3.371   2.990   5.687  1.4687 -1.1954 -1.2523
 9118SOL    HW238988   3.341   3.000   5.834  0.4259  0.8967 -0.6257
 9119SOL     OW38989   3.489   1.809  12.107  0.2934 -1.0726 -0.3008
 9119SOL    HW138990   3.431   1.794  12.182  0.4403 -2.6734 -0.5178
 9119SOL    HW238991   3.512   1.717  12.094  1.8241 -0.5031 -1.6454
 9120SOL     OW38992   4.073   0.970  11.337  0.4140 -0.5717 -0.0022
 9120SOL    HW138993   4.108   1.058  11.347  0.3646 -0.2837 -2.2664
 9120SOL    HW238994   4.061   0.968  11.242  2.2579  1.6308 -0.2645
 9121SOL     OW38995   1.982   2.420  13.871  0.2478 -0.2344 -0.0132
 9121SOL    HW138996   2.027   2.461  13.945  1.4748  2.5856 -2.2873
 9121SOL    HW238997   2.045   2.348  13.870 -0.0581 -0.4795 -1.5231
 9122SOL     OW38998   4.693   2.716  10.134 -0.4365 -0.1596 -0.8456
 9122SOL    HW138999   0.052   2.710  10.125 -0.6187 -2.4313 -1.1397
 9122SOL    HW239000   4.664   2.636  10.091 -1.4931 -0.3649  0.2506
 9123SOL     OW39001   3.364   2.502   7.985  0.3674  0.6949  0.0277
 9123SOL    HW139002   3.444   2.547   8.013 -1.8252  3.8642  1.1682
 9123SOL    HW239003   3.338   2.449   8.061 -1.9113 -0.4840 -1.5811
 9124SOL     OW39004   0.986   4.526   6.214 -0.2004 -0.0155  0.0463
 9124SOL    HW139005   0.919   4.459   6.202  1.1918 -1.2659 -0.7838
 9124SOL    HW239006   0.976   4.576   6.134 -0.8947 -2.8420 -1.6325
 9125SOL     OW39007   2.119   1.454   6.674 -0.4001 -0.1070 -0.5862
 9125SOL    HW139008   2.168   1.454   6.591  0.2402 -0.2524 -0.2086
 9125SOL    HW239009   2.164   1.527   6.717  0.3702  0.1300 -1.7794
 9126SOL     OW39010   0.281   2.068   8.642 -0.4608  0.5200 -0.3253
 9126SOL    HW139011   0.295   2.069   8.548  1.2310 -1.1705 -0.1038
 9126SOL    HW239012   0.200   2.117   8.655 -0.9282 -0.1240 -0.7996
 9127SOL     OW39013   4.533   0.555   3.989  0.8524  0.6768  0.3142
 9127SOL    HW139014   4.546   0.519   3.901 -1.2685  2.4313 -0.7159
 9127SOL    HW239015   4.624   0.568   4.017  0.7319  3.3505 -0.6211
 9128SOL     OW39016   1.980   2.368   2.830 -0.3742  0.2073  0.4005
 9128SOL    HW139017   1.891   2.337   2.816 -0.2107 -0.1117  0.0874
 9128SOL    HW239018   2.026   2.285   2.823 -0.9048 -0.0160 -0.4255
 9129SOL     OW39019   0.511   3.355   5.453  0.0050 -0.1333  0.4624
 9129SOL    HW139020   0.476   3.287   5.395  0.3138  0.0664  0.0417
 9129SOL    HW239021   0.555   3.301   5.518  2.3378 -0.9673 -1.8187
 9130SOL     OW39022   3.610   1.015   9.300 -0.2350  0.0370 -0.2689
 9130SOL    HW139023   3.624   0.921   9.288  0.0311  0.1960 -1.1783
 9130SOL    HW239024   3.552   0.994   9.374  0.7715 -0.1690  0.4666
 9131SOL     OW39025   1.650   3.068   8.300  0.3025  0.0570 -0.2004
 9131SOL    HW139026   1.678   3.115   8.378 -2.9124  1.4994  0.0771
 9131SOL    HW239027   1.726   3.027   8.259 -0.9470 -0.9214 -1.5950
 9132SOL     OW39028   3.400   0.190   8.541  0.0807 -0.0289  0.1894
 9132SOL    HW139029   3.392   0.279   8.574  0.3044  1.0791 -2.7734
 9132SOL    HW239030   3.316   0.154   8.570  1.5906 -0.9059  3.5472
 9133SOL     OW39031   0.704   3.136   4.730  0.8342  0.2062 -0.3082
 9133SOL    HW139032   0.692   3.146   4.635 -1.2458 -1.3069 -0.2160
 9133SOL    HW239033   0.618   3.158   4.766  0.9569 -0.6185  0.5021
 9134SOL     OW39034   0.036   4.154  13.412 -0.0306  0.3855 -0.0977
 9134SOL    HW139035   0.093   4.078  13.427 -0.8248  0.1029  1.4451
 9134SOL    HW239036   0.046   4.151  13.316  0.4026  1.2459 -0.0816
 9135SOL     OW39037   2.229   2.627   7.832 -0.0122 -0.3739  0.9601
 9135SOL    HW139038   2.204   2.647   7.922 -0.8476  0.1663  0.6045
 9135SOL    HW239039   2.262   2.712   7.804  3.4722 -2.4741 -1.3854
 9136SOL     OW39040   3.383   3.622  14.162  0.3502 -0.5759 -0.0305
 9136SOL    HW139041   3.383   3.713  14.135 -1.3482 -0.7696 -0.6571
 9136SOL    HW239042   3.350   3.577  14.083  1.6851 -0.1738 -0.8173
 9137SOL     OW39043   4.182   4.509   5.514 -0.3759 -0.2677 -0.3529
 9137SOL    HW139044   4.277   4.513   5.526 -0.4704  1.5865 -0.2725
 9137SOL    HW239045   4.169   4.416   5.494 -1.0286 -0.7982  2.5243
 9138SOL     OW39046   4.369   4.361   2.072 -0.1704 -0.2069  0.1911
 9138SOL    HW139047   4.444   4.420   2.066  1.3702 -1.9711  2.5420
 9138SOL    HW239048   4.363   4.369   2.167  2.1577 -0.3647  0.3339
 9139SOL     OW39049   3.632   3.305   2.663  0.0181  0.2139  0.0952
 9139SOL    HW139050   3.623   3.219   2.704  1.1614 -0.1350 -0.3830
 9139SOL    HW239051   3.572   3.353   2.719  0.5825  0.1130  0.7782
 9140SOL     OW39052   2.444   0.005  17.414  0.2472  0.5216  0.0095
 9140SOL    HW139053   2.430   4.689  17.336  2.9611 -0.6877  0.3436
 9140SOL    HW239054   2.414   0.094  17.396  0.6953  0.8310  0.7895
 9141SOL     OW39055   2.983   3.673  17.718 -0.2035  0.3497 -0.0396
 9141SOL    HW139056   2.927   3.646  17.645 -0.0145 -0.4585  0.1121
 9141SOL    HW239057   2.993   3.765  17.696  3.3877 -0.5909 -2.2563
 9142SOL     OW39058   3.363   0.842   5.647  0.0484 -0.1296 -0.1933
 9142SOL    HW139059   3.316   0.925   5.640 -1.0108 -0.7215 -0.0124
 9142SOL    HW239060   3.449   0.873   5.616  1.5216 -0.5579  3.4100
 9143SOL     OW39061   0.230   1.049  14.355 -0.3130  0.4094  0.1186
 9143SOL    HW139062   0.169   1.032  14.284  1.0681 -1.3281 -0.6676
 9143SOL    HW239063   0.317   1.046  14.314  0.2032 -1.8765  1.3556
 9144SOL     OW39064   0.284   2.533   0.827 -0.2726 -0.7152 -0.3342
 9144SOL    HW139065   0.377   2.552   0.841 -0.0438 -1.2275 -1.1764
 9144SOL    HW239066   0.262   2.602   0.765  1.0148  0.2196  0.2333
 9145SOL     OW39067   2.792   0.077   4.199 -0.5340  0.1271  0.0186
 9145SOL    HW139068   2.789   0.116   4.111  1.7910 -0.8200 -0.4725
 9145SOL    HW239069   2.770   4.721   4.189 -0.7614  0.1221  0.5775
 9146SOL     OW39070   1.609   1.314  17.598 -0.5958  0.3248 -0.0889
 9146SOL    HW139071   1.643   1.260  17.526 -0.7248 -2.2716  1.7987
 9146SOL    HW239072   1.670   1.294  17.669  0.6150  1.6925 -0.7473
 9147SOL     OW39073   2.065   4.712   9.511 -0.1756  0.0451  0.1235
 9147SOL    HW139074   2.027   0.029   9.442  2.3763  2.9620  1.0042
 9147SOL    HW239075   2.030   0.017   9.589  0.1532 -0.0992  0.3493
 9148SOL     OW39076   0.047   0.059   6.694 -0.3399 -0.1363  0.4889
 9148SOL    HW139077   0.026   0.106   6.614 -0.7185 -1.1867 -0.0311
 9148SOL    HW239078   4.723   4.723   6.682 -0.9403  0.3892  0.3221
 9149SOL     OW39079   1.276   3.826  17.268  0.3424 -0.1673  0.4067
 9149SOL    HW139080   1.368   3.851  17.258  0.4513 -1.1103 -0.9268
 9149SOL    HW239081   1.235   3.910  17.287  0.7526  0.2941 -0.8065
 9150SOL     OW39082   2.150   0.047   8.864 -0.2642  0.1138  0.0362
 9150SOL    HW139083   2.188   4.697   8.853  0.0595 -0.0706  2.7261
 9150SOL    HW239084   2.166   0.065   8.956 -1.7932 -0.6973  0.4674
 9151SOL     OW39085   0.363   1.806   9.806  0.2176 -0.4503 -0.0941
 9151SOL    HW139086   0.271   1.800   9.779 -0.2426  0.9122  1.1614
 9151SOL    HW239087   0.338   1.856   9.884  1.7969  0.1133  0.0476
 9152SOL     OW39088   0.458   3.787   6.899 -0.0839  0.4731 -0.3598
 9152SOL    HW139089   0.540   3.832   6.877 -1.1031  1.7776 -1.4721
 9152SOL    HW239090   0.461   3.803   6.993  0.6944  0.4687 -0.3842
 9153SOL     OW39091   3.217   1.564  10.321  0.5463  0.3753 -0.8351
 9153SOL    HW139092   3.134   1.545  10.277  1.1398 -1.5724 -1.1322
 9153SOL    HW239093   3.178   1.618  10.389 -0.2907 -1.0840 -0.1598
 9154SOL     OW39094   2.656   2.455   1.362 -0.2172  0.1026  0.3233
 9154SOL    HW139095   2.660   2.548   1.387  2.1028 -0.1975  1.0891
 9154SOL    HW239096   2.630   2.444   1.271  2.3198  2.2058 -0.6440
 9155SOL     OW39097   4.359   4.110   8.072  0.2757  0.0784  0.2839
 9155SOL    HW139098   4.382   4.055   7.996  0.1877 -0.2389  0.4855
 9155SOL    HW239099   4.297   4.054   8.119  2.7331 -1.8562  1.2574
 9156SOL     OW39100   0.328   2.075   8.377 -0.0745 -0.3864  0.1172
 9156SOL    HW139101   0.399   2.131   8.346  0.0579  0.2461  1.5775
 9156SOL    HW239102   0.291   2.042   8.296 -0.8777  0.0303  0.3185
 9157SOL     OW39103   0.379   3.979   4.103  0.2143  0.1393 -0.0996
 9157SOL    HW139104   0.446   4.015   4.161 -0.8018 -1.0248  1.8164
 9157SOL    HW239105   0.422   3.959   4.020 -2.3173  0.1277 -1.4018
 9158SOL     OW39106   0.137   4.139   6.095  0.5742 -0.5709 -0.0665
 9158SOL    HW139107   0.182   4.190   6.162  2.6687  0.8524 -2.5447
 9158SOL    HW239108   0.153   4.195   6.019 -1.1668  0.1636  0.0928
 9159SOL     OW39109   3.442   1.015   7.199  0.8114 -0.0008  0.0235
 9159SOL    HW139110   3.399   1.001   7.283  2.2639 -1.1633  0.5698
 9159SOL    HW239111   3.498   0.938   7.202  1.1345  0.1474 -2.2252
 9160SOL     OW39112   4.088   4.568   6.313  0.1695 -0.2731 -0.3697
 9160SOL    HW139113   4.008   4.620   6.308 -0.7103 -1.5478  0.3169
 9160SOL    HW239114   4.155   4.622   6.270  0.0388  0.0983 -0.1096
 9161SOL     OW39115   3.930   0.590   6.710  0.0332  0.2558 -0.0664
 9161SOL    HW139116   3.990   0.637   6.652  1.8364 -0.9284  0.8432
 9161SOL    HW239117   3.859   0.653   6.703 -0.7621 -0.7954 -1.5811
 9162SOL     OW39118   4.209   2.606  14.025  0.2095 -0.5075 -0.2045
 9162SOL    HW139119   4.160   2.530  13.994  1.6536 -1.5465  0.0765
 9162SOL    HW239120   4.186   2.609  14.118  0.4145 -0.4951 -0.1549
 9163SOL     OW39121   1.256   0.159   2.436 -0.1339  0.0906 -0.4088
 9163SOL    HW139122   1.239   0.211   2.514  3.2559  1.1145 -0.3846
 9163SOL    HW239123   1.268   0.228   2.371  2.3118 -0.5540 -0.6475
 9164SOL     OW39124   3.908   0.173   2.651 -0.2701 -0.4207 -0.3292
 9164SOL    HW139125   3.827   0.218   2.629 -0.3906 -1.4152 -1.8794
 9164SOL    HW239126   3.873   0.083   2.652  1.3124 -1.0342  0.5152
 9165SOL     OW39127   1.958   2.151   9.104 -0.3668 -0.1395 -0.1672
 9165SOL    HW139128   2.036   2.140   9.158  1.7058  0.4432 -3.0565
 9165SOL    HW239129   1.952   2.067   9.059  0.1434 -1.2347  1.8288
 9166SOL     OW39130   2.272   1.698   6.764  0.1935  0.1730  0.1175
 9166SOL    HW139131   2.307   1.662   6.845 -0.5948  0.6037  0.6551
 9166SOL    HW239132   2.228   1.770   6.809 -0.6507  1.4622 -2.7521
 9167SOL     OW39133   2.951   1.966  11.667  0.0029  0.4744  0.5927
 9167SOL    HW139134   2.873   2.022  11.663 -0.8772 -0.7982  0.1713
 9167SOL    HW239135   2.969   1.973  11.761  0.7041 -2.2894  0.6540
 9168SOL     OW39136   4.202   1.611   6.810  0.5319 -0.5250 -0.4847
 9168SOL    HW139137   4.194   1.653   6.724  1.7638  0.0416 -0.3155
 9168SOL    HW239138   4.277   1.553   6.794  2.0747  1.3326 -0.0174
 9169SOL     OW39139   1.177   2.418  16.973 -0.5508  0.6253  0.2146
 9169SOL    HW139140   1.212   2.506  16.960 -0.0826  0.3099 -0.7208
 9169SOL    HW239141   1.258   2.373  16.999 -1.5097 -0.0926  1.9734
 9170SOL     OW39142   1.092   2.301  14.569 -0.5842 -0.7727 -0.1198
 9170SOL    HW139143   1.052   2.261  14.492 -0.8747 -0.9411  0.1140
 9170SOL    HW239144   1.138   2.376  14.534 -1.1837 -2.0998 -3.7247
 9171SOL     OW39145   3.151   4.487   7.640  0.5979 -0.1405  0.1378
 9171SOL    HW139146   3.224   4.480   7.702 -0.6457  2.8227  1.9168
 9171SOL    HW239147   3.078   4.502   7.700  0.2595 -1.1958 -0.0020
 9172SOL     OW39148   2.566   1.588   2.378  0.3673  0.2065 -0.3433
 9172SOL    HW139149   2.537   1.677   2.356 -1.3015 -0.0695  0.7649
 9172SOL    HW239150   2.485   1.538   2.374  0.7282 -0.6013  2.7303
 9173SOL     OW39151   0.627   4.195   5.609 -0.4169 -0.0939  0.0934
 9173SOL    HW139152   0.537   4.169   5.590 -1.0527  2.8343 -0.8794
 9173SOL    HW239153   0.659   4.110   5.640  0.4706  0.0028 -0.5630
 9174SOL     OW39154   0.658   4.536   8.307 -0.3201  0.1319 -0.0475
 9174SOL    HW139155   0.752   4.546   8.296 -0.4436  1.2614 -0.0778
 9174SOL    HW239156   0.622   4.620   8.337  1.9673  1.0924 -0.0158
 9175SOL     OW39157   0.720   3.350   5.727 -0.2120 -0.0275  0.6691
 9175SOL    HW139158   0.721   3.393   5.812  0.3868 -0.1559  0.7235
 9175SOL    HW239159   0.727   3.260   5.760  0.0712 -0.0039  0.6696
 9176SOL     OW39160   3.859   4.694   6.674  0.1746 -0.2067 -0.2970
 9176SOL    HW139161   3.790   0.020   6.698  2.7096  2.6549 -0.5736
 9176SOL    HW239162   3.801   4.618   6.665 -2.5697  1.7236  0.7473
 9177SOL     OW39163   4.567   0.262   3.325 -0.1220 -0.1077  0.2522
 9177SOL    HW139164   4.644   0.218   3.362 -0.6298 -2.0182 -0.9774
 9177SOL    HW239165   4.536   0.195   3.265  0.8765 -0.9751  0.7065
 9178SOL     OW39166   2.343   3.223   6.983 -0.0304  0.1102  0.1953
 9178SOL    HW139167   2.351   3.281   7.059 -0.2001  0.7974 -0.3050
 9178SOL    HW239168   2.337   3.144   7.036  0.2440 -0.0258  0.0199
 9179SOL     OW39169   2.565   3.679   4.872  0.0207  0.3706 -0.1129
 9179SOL    HW139170   2.641   3.650   4.821 -0.5735  1.2430 -1.5140
 9179SOL    HW239171   2.504   3.639   4.809  1.6565 -2.0342 -0.1646
 9180SOL     OW39172   1.984   4.291   0.590  0.2421  0.3141 -0.3810
 9180SOL    HW139173   2.022   4.375   0.617 -1.9281  0.6348  1.6922
 9180SOL    HW239174   1.923   4.337   0.532 -0.4050 -0.0564 -0.0043
 9181SOL     OW39175   2.293   0.970  11.598  0.0221  0.8611 -0.4838
 9181SOL    HW139176   2.375   1.020  11.597 -0.4775  1.6715 -2.4736
 9181SOL    HW239177   2.281   0.956  11.692  2.7009  2.5473  0.1069
 9182SOL     OW39178   0.333   3.384  11.713 -0.5657 -0.1340  0.0619
 9182SOL    HW139179   0.326   3.350  11.803 -2.3156 -1.9043 -0.7404
 9182SOL    HW239180   0.344   3.305  11.660 -0.1550  0.0869 -0.1774
 9183SOL     OW39181   1.490   0.286   7.407  0.1544 -0.2789 -0.5564
 9183SOL    HW139182   1.411   0.271   7.458  0.1418 -0.7635 -0.7202
 9183SOL    HW239183   1.534   0.359   7.450  0.8901 -2.1304  1.7926
 9184SOL     OW39184   3.376   3.087  16.452  0.8416 -0.3169  0.4666
 9184SOL    HW139185   3.370   3.088  16.357  1.0182  3.9687  0.5289
 9184SOL    HW239186   3.323   3.008  16.463  0.1318  0.2370  1.0478
 9185SOL     OW39187   2.883   2.110   4.682  0.3955 -0.3206  0.2270
 9185SOL    HW139188   2.903   2.155   4.600 -2.0752  0.4469  0.0390
 9185SOL    HW239189   2.955   2.048   4.686  0.5176 -0.2820 -1.5893
 9186SOL     OW39190   3.228   3.160  17.501  0.6205 -0.1084  0.2737
 9186SOL    HW139191   3.295   3.212  17.545  1.7785 -1.4131  0.0728
 9186SOL    HW239192   3.249   3.180  17.410  3.7766  0.3567  1.0900
 9187SOL     OW39193   1.910   3.536   5.415  0.1175  0.3069  0.0466
 9187SOL    HW139194   1.927   3.469   5.480 -2.2857  0.8421  1.2042
 9187SOL    HW239195   1.911   3.474   5.342  0.8129  0.0994  0.2288
 9188SOL     OW39196   3.925   1.203  16.087 -0.4703 -0.2059  0.5398
 9188SOL    HW139197   3.882   1.289  16.097  1.1391  0.6684 -0.0627
 9188SOL    HW239198   3.860   1.140  16.117 -1.6860 -0.0485 -1.7490
 9189SOL     OW39199   2.639   3.602  13.340 -0.8277 -0.1827  0.4449
 9189SOL    HW139200   2.572   3.670  13.350 -0.7131 -0.0963  0.6224
 9189SOL    HW239201   2.715   3.645  13.302 -1.9392  0.9451 -0.4787
 9190SOL     OW39202   4.035   0.465   7.353 -0.2551  0.3148  0.3471
 9190SOL    HW139203   4.123   0.451   7.319 -1.1114 -0.4110 -1.5731
 9190SOL    HW239204   4.037   0.424   7.440  0.8154  0.3657  0.3409
 9191SOL     OW39205   3.073   1.746  10.002 -0.2587  0.2491  0.4290
 9191SOL    HW139206   3.054   1.653  10.012 -1.3593  0.5360  0.9629
 9191SOL    HW239207   2.988   1.783  10.025 -0.0135  1.2198 -0.2178
 9192SOL     OW39208   3.951   4.295   3.475 -0.1782  0.3806  0.2962
 9192SOL    HW139209   3.964   4.360   3.406  0.8111  1.1918  1.2421
 9192SOL    HW239210   4.042   4.280   3.501  0.2934 -0.4142 -1.7924
 9193SOL     OW39211   3.397   4.235   7.756 -0.1634  0.0499  0.4800
 9193SOL    HW139212   3.412   4.321   7.796 -0.4929  0.2548  0.1693
 9193SOL    HW239213   3.321   4.263   7.705  0.0305  0.7744  0.5930
 9194SOL     OW39214   1.699   4.449  13.337  1.1046 -0.0528  0.3033
 9194SOL    HW139215   1.673   4.533  13.299 -0.0204 -0.4917  0.1233
 9194SOL    HW239216   1.795   4.454  13.335  1.0225  0.5101 -1.6064
 9195SOL     OW39217   0.741   1.361   2.530  0.1049  0.9899 -0.5056
 9195SOL    HW139218   0.742   1.271   2.564 -0.0120  0.9046 -0.7269
 9195SOL    HW239219   0.656   1.388   2.562 -0.3533 -1.2830  0.2116
 9196SOL     OW39220   2.477   2.364   1.857 -0.7766 -0.1469  0.0632
 9196SOL    HW139221   2.460   2.358   1.763 -1.5775 -0.7895  0.2501
 9196SOL    HW239222   2.423   2.439   1.882 -0.0576  0.7688 -1.1691
 9197SOL     OW39223   3.647   1.323   7.543 -0.1655 -0.2347 -0.0800
 9197SOL    HW139224   3.553   1.302   7.548  0.4177 -2.7540  0.5318
 9197SOL    HW239225   3.678   1.307   7.632 -0.7421 -0.3347  0.1033
 9198SOL     OW39226   2.943   2.380   3.589  0.4456  0.0595  0.2761
 9198SOL    HW139227   2.868   2.433   3.561  1.8660  0.1638 -3.3460
 9198SOL    HW239228   2.948   2.400   3.682 -1.3571 -0.4653  0.4920
 9199SOL     OW39229   3.584   1.718   1.680  0.3915  0.4299 -0.3267
 9199SOL    HW139230   3.627   1.692   1.599  0.2657 -0.7836 -0.0020
 9199SOL    HW239231   3.638   1.678   1.748  0.6528 -1.2389 -1.5233
 9200SOL     OW39232   0.055   0.752   2.712  0.2608 -0.5071 -0.5094
 9200SOL    HW139233   0.020   0.813   2.777 -1.3688  0.0610 -1.9565
 9200SOL    HW239234   0.065   0.679   2.774  0.8753  0.0738  0.0809
 9201SOL     OW39235   1.066   0.192  16.396 -0.1490 -0.1198  0.0166
 9201SOL    HW139236   0.989   0.136  16.385 -0.4057  0.1879  0.2664
 9201SOL    HW239237   1.122   0.138  16.452 -0.2277 -1.4418 -1.1709
 9202SOL     OW39238   2.146   1.435   7.242 -0.0392 -0.2897 -0.0314
 9202SOL    HW139239   2.238   1.461   7.240 -0.8375  2.5453 -0.2368
 9202SOL    HW239240   2.153   1.341   7.255 -1.0322 -0.7060 -2.4406
 9203SOL     OW39241   0.670   2.154   1.303  0.0355  0.1901  0.0687
 9203SOL    HW139242   0.753   2.185   1.337 -0.6807  2.4933 -0.3111
 9203SOL    HW239243   0.690   2.126   1.214  2.4654  0.0479  0.6681
 9204SOL     OW39244   2.374   3.385   7.185 -0.0985 -0.1355 -0.4520
 9204SOL    HW139245   2.466   3.387   7.212 -0.5887  0.3614  1.1789
 9204SOL    HW239246   2.365   3.468   7.136 -1.6133  0.0114  0.0710
 9205SOL     OW39247   2.227   1.531  12.510  0.0699  0.1462  0.1390
 9205SOL    HW139248   2.229   1.611  12.563 -1.1553 -0.6204  1.3533
 9205SOL    HW239249   2.134   1.515  12.528  0.2406 -2.2736 -1.2027
 9206SOL     OW39250   0.264   3.244   8.107  0.2023 -0.3389 -0.4219
 9206SOL    HW139251   0.169   3.255   8.114 -0.0336 -2.3206 -0.4370
 9206SOL    HW239252   0.275   3.166   8.051  2.7926  0.1365 -0.5263
 9207SOL     OW39253   0.759   1.796  13.371 -0.2551  0.4634 -0.3745
 9207SOL    HW139254   0.812   1.718  13.389  0.8442  0.9225 -1.6700
 9207SOL    HW239255   0.693   1.786  13.440  0.8832  0.0797  0.6517
 9208SOL     OW39256   0.628   4.138   6.836  0.4925 -0.2117  0.0236
 9208SOL    HW139257   0.670   4.116   6.919 -0.0349  2.8311  1.1080
 9208SOL    HW239258   0.704   4.117   6.783 -0.3555 -1.9307 -0.5260
 9209SOL     OW39259   2.038   3.125   3.616 -0.2442  0.0611  0.0885
 9209SOL    HW139260   2.064   3.205   3.570 -0.9754  0.4267  0.3082
 9209SOL    HW239261   2.120   3.076   3.608 -0.2493 -0.1743  1.5256
 9210SOL     OW39262   4.138   3.954   8.745 -0.3655 -0.1944  0.2053
 9210SOL    HW139263   4.133   4.021   8.813  0.8852 -1.6020  1.6920
 9210SOL    HW239264   4.209   3.982   8.687  0.5608 -3.0438 -0.0755
 9211SOL     OW39265   2.929   1.234   2.509  0.0039 -0.1596 -0.2514
 9211SOL    HW139266   2.881   1.273   2.436 -0.3859  1.0903  0.6640
 9211SOL    HW239267   2.855   1.217   2.568 -0.7099  0.2782 -1.0089
 9212SOL     OW39268   1.297   2.744  17.555 -0.3135 -0.2565 -0.5565
 9212SOL    HW139269   1.215   2.788  17.576  0.1084 -0.2393  1.1122
 9212SOL    HW239270   1.353   2.816  17.586  2.3082 -2.8030  0.6189
 9213SOL     OW39271   3.390   2.015   4.630  0.6067  0.3912  0.0433
 9213SOL    HW139272   3.358   1.951   4.694  0.6320  2.4437  2.0876
 9213SOL    HW239273   3.325   2.078   4.660  1.1218 -0.6097  3.2947
 9214SOL     OW39274   0.079   1.538   8.114 -0.6188  0.2830 -0.1161
 9214SOL    HW139275   0.105   1.616   8.065  1.6202  0.1760  0.8995
 9214SOL    HW239276   0.020   1.578   8.178 -0.3145  0.5473 -0.0016
 9215SOL     OW39277   2.622   3.268   8.559 -0.3759  0.2710 -0.0122
 9215SOL    HW139278   2.667   3.223   8.487  2.5983  0.5883  1.6684
 9215SOL    HW239279   2.680   3.339   8.587 -0.9150 -0.2567  2.4440
 9216SOL     OW39280   0.793   2.852  10.495  0.4399  0.5324 -0.0508
 9216SOL    HW139281   0.756   2.915  10.433  2.2714 -1.0953 -2.7659
 9216SOL    HW239282   0.863   2.817  10.441  0.4154  1.1151 -0.4606
 9217SOL     OW39283   2.086   3.139   5.551 -0.0792  0.9391 -0.3034
 9217SOL    HW139284   2.071   3.061   5.498 -0.3974 -0.3344  1.6772
 9217SOL    HW239285   2.174   3.162   5.520  1.8282 -2.3182  2.6719
 9218SOL     OW39286   0.069   3.095   3.159 -0.0229 -0.0822  0.0563
 9218SOL    HW139287   0.080   3.005   3.189 -1.3279 -1.1749 -2.7879
 9218SOL    HW239288   0.054   3.137   3.244 -2.7789  1.9998 -1.4501
 9219SOL     OW39289   0.223   1.520   5.976  0.4207  0.2724 -0.2476
 9219SOL    HW139290   0.174   1.438   5.978  0.8283  0.0192 -0.6821
 9219SOL    HW239291   0.203   1.552   5.888 -2.1653  0.8163  0.5396
 9220SOL     OW39292   2.987   0.972   0.049 -0.2512 -0.0320 -0.3553
 9220SOL    HW139293   2.957   1.035  17.728 -2.1615 -4.1875 -3.4047
 9220SOL    HW239294   2.904   0.924   0.054 -0.5734  0.4031 -1.4749
 9221SOL     OW39295   4.397   2.965   7.296  0.8411  0.4770 -0.0862
 9221SOL    HW139296   4.392   2.870   7.307 -0.4239  0.5721  0.1927
 9221SOL    HW239297   4.342   2.989   7.222  0.1965 -2.2192 -0.4842
 9222SOL     OW39298   3.680   3.470   3.598 -0.0759  0.1889  0.3801
 9222SOL    HW139299   3.626   3.465   3.519  0.5631  0.0436 -0.0501
 9222SOL    HW239300   3.699   3.563   3.602 -0.9493  0.2574  2.6370
 9223SOL     OW39301   1.199   4.048  17.435  0.2752  0.0351  0.7218
 9223SOL    HW139302   1.128   4.018  17.492  1.1428 -2.1669  0.6339
 9223SOL    HW239303   1.234   4.121  17.486  1.6898  0.6637 -1.1571
 9224SOL     OW39304   4.298   4.547   4.930 -0.2814 -0.1582  0.0060
 9224SOL    HW139305   4.315   4.624   4.985  0.5624 -1.3411  1.4203
 9224SOL    HW239306   4.313   4.582   4.843 -0.1357  0.1570  0.1602
 9225SOL     OW39307   2.754   0.969  10.675 -0.1161 -0.0421  0.3535
 9225SOL    HW139308   2.729   0.889  10.629 -1.8977  1.7726 -1.8065
 9225SOL    HW239309   2.672   0.980  10.723  0.5370 -2.9391  2.1265
 9226SOL     OW39310   3.443   1.625   7.980  0.3280 -0.0593 -0.1407
 9226SOL    HW139311   3.535   1.640   8.004  0.0814  0.3940  0.5094
 9226SOL    HW239312   3.453   1.548   7.923  0.9480 -0.8733  1.0679
 9227SOL     OW39313   2.337   2.932   2.998 -0.0732  0.0015  0.0788
 9227SOL    HW139314   2.396   2.996   2.959 -0.5716  0.2040 -0.3398
 9227SOL    HW239315   2.290   2.897   2.922 -0.8646 -1.4776  1.2480
 9228SOL     OW39316   1.341   3.896   8.239 -0.1200  0.1246 -0.2008
 9228SOL    HW139317   1.333   3.969   8.177 -0.4796  0.3637  0.1286
 9228SOL    HW239318   1.319   3.829   8.174  0.3330  0.1322 -0.3574
 9229SOL     OW39319   3.913   2.403   6.983 -0.2543  0.1193 -0.1806
 9229SOL    HW139320   3.947   2.315   6.967  0.6308  0.3456  0.5274
 9229SOL    HW239321   3.989   2.448   6.946 -2.1361  2.8358 -0.7251
 9230SOL     OW39322   1.775   2.874   6.742  0.6269 -0.2751 -0.1263
 9230SOL    HW139323   1.772   2.864   6.837 -0.8994 -3.1986 -0.4978
 9230SOL    HW239324   1.839   2.943   6.724 -1.3549  2.0786  1.8337
 9231SOL     OW39325   2.498   2.696   7.159  0.1365 -0.2032 -0.1963
 9231SOL    HW139326   2.503   2.625   7.095 -2.9628  0.4858 -1.2092
 9231SOL    HW239327   2.403   2.706   7.158  0.0433 -1.2457 -1.6835
 9232SOL     OW39328   1.346   2.403   5.913 -0.4583 -0.0493 -0.3195
 9232SOL    HW139329   1.277   2.437   5.856  0.8500  1.4295 -1.0163
 9232SOL    HW239330   1.416   2.458   5.878  0.5243  0.0850  1.8462
 9233SOL     OW39331   0.451   1.831   6.866  0.6022 -0.7359  0.1565
 9233SOL    HW139332   0.528   1.870   6.825 -0.2699  1.6608  0.7794
 9233SOL    HW239333   0.484   1.742   6.856  0.8365 -0.3315 -2.4922
 9234SOL     OW39334   0.345   2.570   9.714  0.1322  0.2665  0.6780
 9234SOL    HW139335   0.320   2.663   9.713 -0.9061 -0.0065  0.9453
 9234SOL    HW239336   0.436   2.572   9.744  0.3542 -0.3520  0.0324
 9235SOL     OW39337   3.957   2.919   3.704  0.0771 -0.4579  0.2026
 9235SOL    HW139338   3.962   2.993   3.764  0.4554 -0.8654  0.6742
 9235SOL    HW239339   4.052   2.916   3.687  0.1389  1.1548  0.2723
 9236SOL     OW39340   4.516   1.526   6.676 -0.2268  0.1171 -0.1056
 9236SOL    HW139341   4.556   1.454   6.628  0.7197 -0.6392  1.8146
 9236SOL    HW239342   4.515   1.482   6.761  3.4694 -1.4002 -0.8590
 9237SOL     OW39343   0.337   0.423   1.899 -0.2116  0.0513  0.2314
 9237SOL    HW139344   0.293   0.460   1.976  2.4187  1.4396  1.0790
 9237SOL    HW239345   0.384   0.502   1.872  1.4364 -0.5470  1.3027
 9238SOL     OW39346   3.570   1.190   8.345 -0.3814  0.4493  0.1569
 9238SOL    HW139347   3.588   1.227   8.259 -1.7178  0.6603 -0.0222
 9238SOL    HW239348   3.489   1.142   8.328 -0.2731 -0.1498  1.3000
 9239SOL     OW39349   3.473   2.032   1.798  0.1279 -0.5939  0.4912
 9239SOL    HW139350   3.426   2.101   1.846  2.3440  0.3327  1.3381
 9239SOL    HW239351   3.506   1.994   1.880  0.3835  1.0139  1.1403
 9240SOL     OW39352   2.684   3.265   3.113 -0.6491  0.3870 -0.2785
 9240SOL    HW139353   2.756   3.318   3.078  1.0549 -1.6198  0.1754
 9240SOL    HW239354   2.616   3.329   3.133 -0.5365  0.7047 -0.8907
 9241SOL     OW39355   3.379   2.142   2.863  0.1698 -0.2267 -0.2438
 9241SOL    HW139356   3.433   2.104   2.932  2.2320 -0.6547 -2.1190
 9241SOL    HW239357   3.385   2.232   2.897  1.8123 -0.2240 -0.5452
 9242SOL     OW39358   0.473   4.175  14.143 -0.1857 -0.0443  0.5330
 9242SOL    HW139359   0.381   4.148  14.141 -0.4028  0.8085 -1.1383
 9242SOL    HW239360   0.484   4.215  14.057  1.3187  0.3904  0.9380
 9243SOL     OW39361   3.143   2.239   7.219  0.3057  0.3336  0.5925
 9243SOL    HW139362   3.052   2.222   7.244  0.0434  0.9703  0.0971
 9243SOL    HW239363   3.146   2.197   7.133 -2.1197  0.0767  0.6265
 9244SOL     OW39364   3.929   3.968   0.830 -0.3900 -0.4208 -0.0204
 9244SOL    HW139365   3.873   4.025   0.882 -0.6826 -0.6550 -0.0822
 9244SOL    HW239366   4.014   4.007   0.851 -1.2972  1.7575 -0.3960
 9245SOL     OW39367   3.903   0.339  17.379 -0.5849  0.1249  0.3291
 9245SOL    HW139368   3.821   0.386  17.395  0.2588  1.1051  1.8202
 9245SOL    HW239369   3.963   0.374  17.445 -0.5053  1.6532 -0.5504
 9246SOL     OW39370   1.741   3.240   6.771  0.4207  0.2150 -0.9396
 9246SOL    HW139371   1.650   3.248   6.744 -0.0048  1.8969  0.9860
 9246SOL    HW239372   1.723   3.204   6.858 -2.0491 -2.3400 -2.5342
 9247SOL     OW39373   4.197   1.287   6.821  0.0444 -0.0498  0.1733
 9247SOL    HW139374   4.128   1.340   6.780  0.4104 -0.2612 -0.7268
 9247SOL    HW239375   4.185   1.203   6.778 -0.0181 -0.3712  0.8201
 9248SOL     OW39376   2.340   2.432   5.345 -0.7497 -0.3382  0.4981
 9248SOL    HW139377   2.245   2.427   5.341 -0.8106  0.6127  0.9000
 9248SOL    HW239378   2.372   2.488   5.275  0.3134  0.5717  1.6991
 9249SOL     OW39379   4.401   0.825   6.103 -0.4417  0.4351 -0.2620
 9249SOL    HW139380   4.379   0.739   6.069 -0.0069  1.9616 -4.3664
 9249SOL    HW239381   4.459   0.870   6.042 -2.8790  0.6082 -2.4532
 9250SOL     OW39382   0.911   3.912  13.977 -0.0143  0.9586  0.1385
 9250SOL    HW139383   0.854   3.974  14.023  0.1416  0.6352  0.7692
 9250SOL    HW239384   0.849   3.874  13.915  0.2546  0.7581 -0.0093
 9251SOL     OW39385   3.607   0.304   9.276 -0.7655  0.6208 -0.6190
 9251SOL    HW139386   3.626   0.235   9.340 -1.5405  0.6129 -0.4052
 9251SOL    HW239387   3.679   0.367   9.278  0.0874 -0.2772 -2.5791
 9252SOL     OW39388   2.117   3.699   0.585 -0.2229 -1.1465  0.7016
 9252SOL    HW139389   2.044   3.752   0.552 -1.2586 -1.8220  1.9253
 9252SOL    HW239390   2.072   3.615   0.591  1.9496 -2.1978  2.1728
 9253SOL     OW39391   1.311   4.301   9.789  0.2091  0.4599  0.0156
 9253SOL    HW139392   1.252   4.287   9.863  0.6832  1.3123  0.5526
 9253SOL    HW239393   1.254   4.278   9.716  2.3524 -2.7244 -0.6488
 9254SOL     OW39394   3.221   0.227   5.662 -0.0518 -0.5631 -0.0208
 9254SOL    HW139395   3.268   0.188   5.589 -1.2933  0.4095 -1.3545
 9254SOL    HW239396   3.253   0.165   5.728  0.6004  1.6370  1.7521
 9255SOL     OW39397   4.668   4.478   8.090  0.0432 -0.6111 -0.2948
 9255SOL    HW139398   4.646   4.393   8.128  0.4432 -1.1183 -1.1808
 9255SOL    HW239399   4.636   4.474   7.999  3.3008 -1.5761 -1.4180
 9256SOL     OW39400   4.524   3.372   5.653 -0.1749 -0.1543  0.0480
 9256SOL    HW139401   4.567   3.306   5.707 -1.9338 -1.2757  0.0760
 9256SOL    HW239402   4.557   3.453   5.693 -0.6614 -0.3390  0.8211
 9257SOL     OW39403   4.229   1.255   4.828  0.3574  0.0546  0.3006
 9257SOL    HW139404   4.247   1.187   4.762  0.0586 -0.6443  0.9419
 9257SOL    HW239405   4.178   1.306   4.765  0.2326  1.7553  1.7918
 9258SOL     OW39406   3.094   3.738  13.392  0.2832 -0.3132 -0.0221
 9258SOL    HW139407   3.151   3.693  13.455  1.0458 -1.0879 -1.2649
 9258SOL    HW239408   3.158   3.737  13.321 -1.5622  1.1358 -1.7049
 9259SOL     OW39409   1.269   1.523  16.150 -0.4110 -0.1082 -0.2386
 9259SOL    HW139410   1.238   1.613  16.143  0.0186  0.0856  0.2986
 9259SOL    HW239411   1.364   1.531  16.147 -0.5208  0.9470 -0.5590
 9260SOL     OW39412   0.234   4.049  14.119  0.3128  0.1809 -0.2179
 9260SOL    HW139413   0.188   4.086  14.043 -1.4518  0.5336  1.0082
 9260SOL    HW239414   0.160   4.063  14.179 -1.1099 -0.6965 -1.7577
 9261SOL     OW39415   0.131   2.150   3.726  0.2778  0.0259 -0.4910
 9261SOL    HW139416   0.185   2.221   3.691  3.2458 -1.3633  1.3077
 9261SOL    HW239417   0.193   2.096   3.775  1.4555  1.1246 -0.7551
 9262SOL     OW39418   4.139   2.970   5.897 -0.3771 -0.0618  0.3030
 9262SOL    HW139419   4.218   2.939   5.941 -0.2742 -2.3868 -1.5336
 9262SOL    HW239420   4.113   2.882   5.869 -0.0895  1.5061 -4.8351
 9263SOL     OW39421   4.498   0.357   7.971  0.6125  0.0738 -0.7140
 9263SOL    HW139422   4.588   0.389   7.960  0.4652  0.0114 -2.0433
 9263SOL    HW239423   4.498   0.274   7.923 -0.2565 -1.5629  2.0628
 9264SOL     OW39424   3.553   4.130   9.655  0.1347  0.4242  0.5626
 9264SOL    HW139425   3.510   4.205   9.612  1.6075  0.8985 -0.0787
 9264SOL    HW239426   3.520   4.149   9.742 -2.0937  2.2244 -0.6642
 9265SOL     OW39427   2.956   4.253   6.815 -0.8070 -0.2718  0.6915
 9265SOL    HW139428   2.899   4.189   6.772 -1.8463  0.8923  0.3362
 9265SOL    HW239429   3.037   4.202   6.819  1.5166  3.4359  0.8589
 9266SOL     OW39430   0.018   3.107   8.270  0.5997  0.6326  0.0479
 9266SOL    HW139431   0.039   3.025   8.224  2.1404  1.8646 -1.4377
 9266SOL    HW239432   0.068   3.105   8.351 -0.9697 -3.1334  0.9605
 9267SOL     OW39433   0.346   3.620   3.567  0.6232 -0.0439  0.7187
 9267SOL    HW139434   0.417   3.557   3.569 -0.1524 -0.9314  0.2181
 9267SOL    HW239435   0.287   3.552   3.536  1.0767  0.6328 -1.6016
 9268SOL     OW39436   4.450   3.252  12.908  0.3303 -0.0860 -0.1310
 9268SOL    HW139437   4.413   3.253  12.820  1.6126  1.1540 -0.6473
 9268SOL    HW239438   4.483   3.162  12.909 -0.3181 -0.3264 -0.4790
 9269SOL     OW39439   1.162   1.654  14.462 -0.2669  0.3108  0.2318
 9269SOL    HW139440   1.179   1.736  14.416  3.4373 -2.1547 -2.8018
 9269SOL    HW239441   1.244   1.607  14.446 -0.0294 -0.0353  2.4902
 9270SOL     OW39442   3.307   4.707  10.317  0.0986  0.1528 -0.2392
 9270SOL    HW139443   3.319   4.632  10.258  0.0140 -0.2122  0.2063
 9270SOL    HW239444   3.388   4.708  10.368 -0.5851  1.5467  0.8039
 9271SOL     OW39445   3.067   1.485   9.999  0.0189 -0.7230  0.1790
 9271SOL    HW139446   3.067   1.455   9.909  2.8786  0.2341 -0.1263
 9271SOL    HW239447   2.993   1.443  10.043  0.1343 -0.7413  0.3578
 9272SOL     OW39448   4.034   1.477  15.611  0.0704  0.2266  0.4683
 9272SOL    HW139449   4.015   1.400  15.558 -1.9687 -0.4399  2.1600
 9272SOL    HW239450   4.115   1.449  15.654 -0.2905 -0.0122  0.9991
 9273SOL     OW39451   3.447   1.679   2.738 -0.1486  0.1214  0.3285
 9273SOL    HW139452   3.422   1.641   2.822  0.2589 -0.8688  0.0072
 9273SOL    HW239453   3.390   1.756   2.740  0.2250  0.4164 -0.3725
 9274SOL     OW39454   0.668   0.396   5.933  0.1720 -0.2842  0.6245
 9274SOL    HW139455   0.742   0.352   5.975  0.9885  1.0713  0.5882
 9274SOL    HW239456   0.659   0.342   5.855  0.1353  2.2147 -1.1013
 9275SOL     OW39457   3.641   0.946   5.635 -0.0889  0.5934  0.5153
 9275SOL    HW139458   3.709   0.879   5.630  1.5080  1.9626  4.4228
 9275SOL    HW239459   3.677   1.014   5.692 -2.1272  1.3680  0.8808
 9276SOL     OW39460   0.876   2.852  14.525 -0.3751 -0.0732 -0.1797
 9276SOL    HW139461   0.781   2.844  14.512 -0.4338 -1.7341  1.2575
 9276SOL    HW239462   0.875   2.906  14.604 -1.9889  0.0646 -0.2862
 9277SOL     OW39463   2.634   0.658   9.894 -0.4940  0.1626 -0.8293
 9277SOL    HW139464   2.651   0.630   9.804  0.0414 -0.1548 -0.6288
 9277SOL    HW239465   2.726   0.674   9.916 -0.5004  0.4413 -1.0038
 9278SOL     OW39466   3.506   3.350   9.936 -0.4206 -0.0096 -0.8514
 9278SOL    HW139467   3.505   3.267   9.983  2.8216  1.1118  1.1899
 9278SOL    HW239468   3.537   3.323   9.849 -2.2383 -0.2903 -1.4207
 9279SOL     OW39469   4.303   3.404   0.987 -0.7174 -0.3613  0.6659
 9279SOL    HW139470   4.285   3.319   0.947  3.2943 -0.4133 -1.0350
 9279SOL    HW239471   4.277   3.465   0.918 -0.4915 -0.1920  0.7281
 9280SOL     OW39472   4.473   0.798  14.503 -0.1492 -0.2809  0.2076
 9280SOL    HW139473   4.480   0.712  14.544  0.9441 -0.4710 -0.3769
 9280SOL    HW239474   4.378   0.800  14.493  0.1143 -1.0460 -2.4464
 9281SOL     OW39475   2.770   0.839  17.721  0.0626 -0.2759 -0.2970
 9281SOL    HW139476   2.702   0.890  17.676  0.0150  0.4942  0.6425
 9281SOL    HW239477   2.725   0.756  17.734  0.4665 -0.4923 -0.2965
 9282SOL     OW39478   3.619   0.408  15.330  0.4646 -0.3767  0.3596
 9282SOL    HW139479   3.638   0.470  15.259 -2.0602 -0.0131  0.0067
 9282SOL    HW239480   3.684   0.432  15.396  0.9585  0.6558 -0.4845
 9283SOL     OW39481   2.026   1.123   5.384  0.0075 -0.0765  0.2747
 9283SOL    HW139482   2.106   1.100   5.335 -0.0487  0.2000  0.0520
 9283SOL    HW239483   1.982   1.179   5.320  1.1259 -0.2724 -0.6712
 9284SOL     OW39484   3.570   4.379  13.975 -0.0761 -0.3909  0.2531
 9284SOL    HW139485   3.526   4.298  13.948  1.6460 -0.8383 -1.2183
 9284SOL    HW239486   3.523   4.399  14.056  1.7025 -0.4303  1.2900
 9285SOL     OW39487   2.936   2.009  17.556  0.1031 -0.4029 -1.1042
 9285SOL    HW139488   2.872   1.990  17.488 -1.0057  0.3761 -0.2750
 9285SOL    HW239489   2.992   2.079  17.523 -1.0231  0.1712 -1.7732
 9286SOL     OW39490   3.051   2.885  12.572 -0.2310 -0.8155  0.2279
 9286SOL    HW139491   3.077   2.900  12.663  1.8082 -1.3372 -0.2692
 9286SOL    HW239492   3.076   2.967  12.530 -0.8864 -0.8163 -0.1677
 9287SOL     OW39493   3.848   0.026   7.206 -0.5578  0.4811 -0.1872
 9287SOL    HW139494   3.889   0.107   7.176  0.6581 -0.3126 -0.6595
 9287SOL    HW239495   3.788   0.016   7.133  1.3452 -0.2807 -1.6427
 9288SOL     OW39496   4.501   3.369   1.967  0.2672  0.0700 -0.1622
 9288SOL    HW139497   4.457   3.319   1.899  0.3529  0.6107 -0.6154
 9288SOL    HW239498   4.586   3.326   1.968  0.3576  0.2542  0.2786
 9289SOL     OW39499   0.617   0.659  14.767  0.1614 -0.5431  0.0406
 9289SOL    HW139500   0.681   0.588  14.770 -1.2311 -1.8636 -1.7793
 9289SOL    HW239501   0.544   0.607  14.800  0.2198 -0.2469  0.6410
 9290SOL     OW39502   2.910   3.579   9.295  0.3161 -0.3392 -0.4989
 9290SOL    HW139503   2.979   3.536   9.243 -1.5298 -3.1169 -0.6494
 9290SOL    HW239504   2.903   3.657   9.239  1.5418 -0.0620 -0.2788
 9291SOL     OW39505   2.903   0.350   8.797 -0.1219 -0.2392 -0.3843
 9291SOL    HW139506   2.950   0.297   8.862  0.5122  0.0932 -0.5775
 9291SOL    HW239507   2.974   0.400   8.759  0.3895  0.8611  1.9913
 9292SOL     OW39508   1.988   1.408  12.113 -0.3689 -0.1204 -0.3418
 9292SOL    HW139509   1.995   1.359  12.195 -0.7432  0.4397  0.0205
 9292SOL    HW239510   2.076   1.445  12.110  0.1108 -1.2758 -0.8488
 9293SOL     OW39511   1.806   1.668   5.439 -0.1529 -0.4982  0.3641
 9293SOL    HW139512   1.776   1.701   5.354  0.7176  1.1368  0.6979
 9293SOL    HW239513   1.898   1.648   5.419 -0.3578  0.9580 -2.0604
 9294SOL     OW39514   0.265   1.875   6.635  0.3968  0.8312  0.0199
 9294SOL    HW139515   0.237   1.838   6.719 -0.6920  1.6129 -0.0032
 9294SOL    HW239516   0.352   1.911   6.654  0.9895 -1.8164  2.4163
 9295SOL     OW39517   0.212   1.944   4.243 -0.3587 -0.0252  0.0110
 9295SOL    HW139518   0.248   1.899   4.166 -4.3454 -2.0231 -0.7195
 9295SOL    HW239519   0.290   1.990   4.272  0.0248 -1.2672  0.9311
 9296SOL     OW39520   0.528   3.771   4.849  0.5518 -0.1011 -0.4117
 9296SOL    HW139521   0.588   3.780   4.923 -0.5864 -2.1927  0.7477
 9296SOL    HW239522   0.563   3.691   4.809 -0.3970 -0.3066 -0.8411
 9297SOL     OW39523   1.488   1.145   8.353 -0.0879  0.0721 -0.1378
 9297SOL    HW139524   1.547   1.163   8.280  0.5502  2.7790  1.0380
 9297SOL    HW239525   1.543   1.087   8.405  0.1739 -0.4192 -0.9777
 9298SOL     OW39526   0.858   0.222  10.619 -0.5238  0.2414 -0.4737
 9298SOL    HW139527   0.838   0.179  10.703  0.1760 -1.0788 -0.9748
 9298SOL    HW239528   0.949   0.194  10.607 -0.2116  0.8633  0.4611
 9299SOL     OW39529   1.803   0.368   4.100  0.4532  0.7218 -0.0099
 9299SOL    HW139530   1.717   0.406   4.118  0.1511  0.0239  0.0065
 9299SOL    HW239531   1.862   0.443   4.094  2.2528 -0.6672  0.3907
 9300SOL     OW39532   2.434   4.487  10.403 -0.3894 -0.2611 -0.7819
 9300SOL    HW139533   2.490   4.561  10.425 -0.9593 -0.4816  1.4719
 9300SOL    HW239534   2.485   4.453  10.330 -1.5357 -2.9158 -0.3551
 9301SOL     OW39535   1.713   3.704   2.333  0.0989  0.0648  0.2168
 9301SOL    HW139536   1.655   3.642   2.378  0.9185  1.0139  2.5272
 9301SOL    HW239537   1.682   3.793   2.349  1.2263  0.5458 -0.2539
 9302SOL     OW39538   4.532   2.771   0.764 -0.1469 -0.1931 -0.2040
 9302SOL    HW139539   4.498   2.810   0.844  0.1933  0.9810 -0.6262
 9302SOL    HW239540   4.598   2.838   0.745 -2.2672  1.7630 -0.6196
 9303SOL     OW39541   4.227   2.257  10.091 -0.2525 -0.1207  1.1641
 9303SOL    HW139542   4.175   2.333  10.117 -0.4023 -0.3645  1.5953
 9303SOL    HW239543   4.186   2.182  10.135  1.1061 -1.8720 -0.5432
 9304SOL     OW39544   3.067   3.325   7.477  0.0351  0.3089  0.0648
 9304SOL    HW139545   3.152   3.289   7.504 -0.3874 -0.8880 -0.2192
 9304SOL    HW239546   3.004   3.310   7.548  0.8608  0.8633  0.9231
 9305SOL     OW39547   1.240   3.520   7.476  0.2971 -0.5453 -0.0349
 9305SOL    HW139548   1.227   3.611   7.452  0.1845 -0.7890 -0.9169
 9305SOL    HW239549   1.322   3.527   7.525  0.6845 -0.1361 -0.7381
 9306SOL     OW39550   4.130   2.333  15.398 -0.1801 -0.6769  0.2569
 9306SOL    HW139551   4.079   2.375  15.468  2.5892  2.1061  0.6052
 9306SOL    HW239552   4.159   2.408  15.346  2.2857 -0.2711  2.1874
 9307SOL     OW39553   2.447   0.625   5.560 -0.1984 -0.1034  0.1138
 9307SOL    HW139554   2.473   0.542   5.600 -1.0495 -1.7626 -2.7797
 9307SOL    HW239555   2.530   0.653   5.522 -0.5108 -1.7259 -1.7245
 9308SOL     OW39556   3.849   0.640   9.428  0.3452 -0.4165 -0.3614
 9308SOL    HW139557   3.911   0.600   9.488 -0.6009 -0.7489  0.3888
 9308SOL    HW239558   3.875   0.730   9.448  0.0840  0.7620 -5.2300
 9309SOL     OW39559   2.260   2.359  10.987  0.0191 -0.0091  0.2278
 9309SOL    HW139560   2.231   2.327  10.901 -1.6594 -0.1773  0.8712
 9309SOL    HW239561   2.304   2.440  10.958  0.6751 -0.7929 -0.9683
 9310SOL     OW39562   1.743   1.319   5.006  0.1676 -0.1451 -0.0798
 9310SOL    HW139563   1.677   1.264   4.963  0.6293 -1.3492  0.7563
 9310SOL    HW239564   1.704   1.407   5.009 -0.0012 -0.2144 -0.2946
 9311SOL     OW39565   4.718   2.061   8.432 -0.0236 -0.4091  0.1818
 9311SOL    HW139566   4.735   2.119   8.507 -3.6487  0.4417  0.3535
 9311SOL    HW239567   4.720   2.127   8.363 -1.3398 -1.0439 -0.4700
 9312SOL     OW39568   2.696   1.211   3.021  0.1899  0.4091 -0.0550
 9312SOL    HW139569   2.726   1.197   2.931  3.1177 -1.7423  1.2428
 9312SOL    HW239570   2.687   1.306   3.011 -1.9630  0.1474 -0.4164
 9313SOL     OW39571   0.922   2.985   5.621 -0.0218  0.1508  0.3656
 9313SOL    HW139572   0.831   3.013   5.624 -0.0034  0.5886 -3.3586
 9313SOL    HW239573   0.912   2.891   5.607 -0.4478  0.3907 -0.9064
 9314SOL     OW39574   0.400   2.418   5.575  0.1068  0.1817  0.4445
 9314SOL    HW139575   0.373   2.463   5.655 -0.7413  2.5598 -1.1934
 9314SOL    HW239576   0.317   2.422   5.527  1.1109  2.0500 -1.1351
 9315SOL     OW39577   2.370   4.026   0.668  0.2544  0.0199 -0.1671
 9315SOL    HW139578   2.275   4.029   0.655  0.3461 -0.3203 -0.8968
 9315SOL    HW239579   2.376   3.996   0.759  0.6029  2.5836  0.6694
 9316SOL     OW39580   2.547   0.315   8.263  0.4816 -0.2496  0.3853
 9316SOL    HW139581   2.622   0.255   8.265 -0.2419 -1.2747 -2.6345
 9316SOL    HW239582   2.586   0.402   8.269  0.2670 -0.2491  1.6214
 9317SOL     OW39583   2.154   3.731   2.132 -0.1796  0.3086  0.1726
 9317SOL    HW139584   2.184   3.812   2.092  0.6491 -0.1096 -0.0722
 9317SOL    HW239585   2.197   3.665   2.076 -0.5514  0.6724 -0.5329
 9318SOL     OW39586   4.511   1.078  11.922 -0.3472 -0.1855  0.7949
 9318SOL    HW139587   4.416   1.091  11.930 -0.5548 -1.1596 -0.1346
 9318SOL    HW239588   4.519   0.984  11.936 -1.4161 -0.7150 -2.0299
 9319SOL     OW39589   1.074   1.420   0.191 -0.0621 -0.4218 -0.4194
 9319SOL    HW139590   1.053   1.435   0.099  3.7460  0.6734 -1.1122
 9319SOL    HW239591   1.103   1.329   0.188 -0.8611 -0.7164  1.0338
 9320SOL     OW39592   3.920   1.720  14.476  0.9979 -0.3217 -0.1785
 9320SOL    HW139593   4.002   1.763  14.503  0.4949  0.1424  0.6274
 9320SOL    HW239594   3.954   1.664  14.407  3.4715  1.3323 -0.3074
 9321SOL     OW39595   2.321   2.006  13.997  0.0832  0.0826 -0.5033
 9321SOL    HW139596   2.269   2.083  13.973 -0.3217 -0.2086 -0.5399
 9321SOL    HW239597   2.321   2.005  14.093 -1.0682  2.2743 -0.4694
 9322SOL     OW39598   2.554   2.206   3.653 -0.6604 -0.0625  0.3835
 9322SOL    HW139599   2.536   2.173   3.565 -1.6398  1.4232  0.0140
 9322SOL    HW239600   2.618   2.273   3.626  1.0741 -2.1181 -0.6012
 9323SOL     OW39601   3.095   3.594   2.458  0.3201 -0.5084 -0.5487
 9323SOL    HW139602   3.176   3.544   2.451 -0.1415 -1.2143 -0.8490
 9323SOL    HW239603   3.025   3.543   2.418  2.0632 -1.4703 -2.3696
 9324SOL     OW39604   1.711   1.236   1.584 -0.4325  0.0454  0.5791
 9324SOL    HW139605   1.656   1.165   1.618  0.7286 -2.1527 -2.1175
 9324SOL    HW239606   1.797   1.206   1.612 -0.8472 -2.3635 -0.6568
 9325SOL     OW39607   2.471   3.348   9.432  0.2049 -0.5462  0.1386
 9325SOL    HW139608   2.501   3.419   9.489  0.5726  0.6570 -1.5546
 9325SOL    HW239609   2.487   3.273   9.489  2.8730 -0.5432 -0.5902
 9326SOL     OW39610   3.105   1.804   3.917  0.0766  0.1650 -0.2504
 9326SOL    HW139611   3.076   1.717   3.887  1.4037 -0.5789  0.6001
 9326SOL    HW239612   3.070   1.804   4.006 -1.8770 -1.1128 -0.9988
 9327SOL     OW39613   1.806   2.377   5.438 -0.0592 -0.2250  0.0444
 9327SOL    HW139614   1.840   2.454   5.484 -0.7545 -0.5871  1.1458
 9327SOL    HW239615   1.761   2.333   5.510 -3.2193  0.4964 -1.4836
 9328SOL     OW39616   4.729   1.106   1.566  0.3565  0.1648  0.0876
 9328SOL    HW139617   4.654   1.166   1.557  0.3693  0.3317  1.0487
 9328SOL    HW239618   4.695   1.032   1.617  0.1921  0.6081  0.6264
 9329SOL     OW39619   0.527   2.682   5.129 -0.2708 -0.1095 -0.3528
 9329SOL    HW139620   0.605   2.732   5.108 -0.1323 -0.0565  0.2859
 9329SOL    HW239621   0.540   2.602   5.077  1.4639  1.5187 -2.4019
 9330SOL     OW39622   3.969   2.207   8.383 -0.3058 -0.2005  0.7268
 9330SOL    HW139623   3.902   2.179   8.446 -0.3307  0.1376  0.8470
 9330SOL    HW239624   3.944   2.151   8.310  1.6661  1.0415 -0.8771
 9331SOL     OW39625   1.642   2.880   3.355  0.0372 -0.2612  0.6470
 9331SOL    HW139626   1.691   2.956   3.385  0.9830 -0.1087 -1.3263
 9331SOL    HW239627   1.697   2.858   3.281  0.1905 -0.0278  0.6944
 9332SOL     OW39628   4.486   4.042   7.584 -0.4210  0.5711  0.1440
 9332SOL    HW139629   4.451   3.988   7.514  1.5114  0.4862 -0.7466
 9332SOL    HW239630   4.412   4.024   7.642 -0.9007  0.5270 -0.4847
 9333SOL     OW39631   0.585   3.580   4.175  0.5091  0.5657  0.5795
 9333SOL    HW139632   0.605   3.491   4.147  2.1515  0.5552  1.7228
 9333SOL    HW239633   0.651   3.630   4.127  0.6371 -1.5550 -1.4633
 9334SOL     OW39634   0.911   3.895   5.009 -0.0706  0.2329  0.3985
 9334SOL    HW139635   0.815   3.890   5.014 -0.0007 -1.8104 -0.1067
 9334SOL    HW239636   0.922   3.946   4.929  1.8796  0.3112  0.7145
 9335SOL     OW39637   1.033   1.759   5.561 -0.0854  0.3961 -0.3482
 9335SOL    HW139638   1.087   1.748   5.640 -0.8991  0.3047  0.2010
 9335SOL    HW239639   0.986   1.841   5.577 -0.5738  0.1160 -0.3313
 9336SOL     OW39640   4.116   1.588  17.473 -0.5410  0.1941  1.3882
 9336SOL    HW139641   4.174   1.601  17.548  2.1585 -0.8841 -0.5175
 9336SOL    HW239642   4.143   1.501  17.446  1.2148  0.5953  1.8450
 9337SOL     OW39643   1.784   0.812  16.936 -0.4702  0.2981 -0.6389
 9337SOL    HW139644   1.690   0.817  16.955 -0.0450 -1.2880  1.8202
 9337SOL    HW239645   1.795   0.756  16.858 -0.6889  2.0150 -1.8937
 9338SOL     OW39646   1.252   2.799  15.098  0.4363 -0.6199 -0.4070
 9338SOL    HW139647   1.267   2.891  15.119  0.7860 -0.4589 -1.3602
 9338SOL    HW239648   1.238   2.798  15.003  0.8069  1.9524 -0.4764
 9339SOL     OW39649   0.830   3.455  13.275 -0.1068  0.0648 -0.0725
 9339SOL    HW139650   0.841   3.498  13.190  0.4461  0.5523  0.2463
 9339SOL    HW239651   0.811   3.528  13.334  1.6720  0.7774 -0.3792
 9340SOL     OW39652   0.272   1.662  10.047 -0.2046 -0.1869 -0.4487
 9340SOL    HW139653   0.331   1.689   9.977 -0.2411 -1.1069 -0.8334
 9340SOL    HW239654   0.331   1.618  10.108 -0.1780  0.4843  0.0078
 9341SOL     OW39655   4.023   4.059   5.943 -0.0012  1.0296 -0.1460
 9341SOL    HW139656   3.953   4.008   5.986  0.2210  0.0098 -1.0000
 9341SOL    HW239657   4.037   4.018   5.858  2.4600 -0.4447  0.9681
 9342SOL     OW39658   0.652   4.283   8.467  0.0737 -0.0401 -0.7311
 9342SOL    HW139659   0.648   4.358   8.407  0.6878  0.4453 -0.1667
 9342SOL    HW239660   0.705   4.221   8.418 -0.8875 -1.6714  0.2776
 9343SOL     OW39661   3.629   1.856   2.614  0.0468  0.0106  0.1854
 9343SOL    HW139662   3.697   1.849   2.682 -0.1818  0.6658  0.4776
 9343SOL    HW239663   3.558   1.801   2.646 -1.0271  0.0611 -2.1133
 9344SOL     OW39664   0.787   4.030   8.383  0.3471  0.0807 -0.1793
 9344SOL    HW139665   0.726   3.973   8.337 -1.7896  2.4298 -0.2251
 9344SOL    HW239666   0.872   3.997   8.353  1.0523  1.3046  0.4745
 9345SOL     OW39667   4.601   3.591   7.875  0.4700 -0.1789  0.0601
 9345SOL    HW139668   4.561   3.644   7.807  0.0593  2.4130  2.3084
 9345SOL    HW239669   4.582   3.649   7.949  2.1165 -0.3870  0.6430
 9346SOL     OW39670   2.101   1.682  16.325 -0.4833  0.2115 -0.4467
 9346SOL    HW139671   2.114   1.615  16.258  0.9918 -0.2406  0.2965
 9346SOL    HW239672   2.189   1.716  16.344 -0.3255 -0.1932 -0.4600
 9347SOL     OW39673   2.398   4.280   3.362 -0.1243  0.3676  0.1936
 9347SOL    HW139674   2.449   4.306   3.286 -0.0696 -0.1292  0.0605
 9347SOL    HW239675   2.363   4.366   3.385 -2.4451 -0.5938  0.2504
 9348SOL     OW39676   4.475   2.885   3.121 -0.4875 -0.0700 -0.2433
 9348SOL    HW139677   4.408   2.943   3.085  1.0986  0.1733 -2.7827
 9348SOL    HW239678   4.446   2.892   3.212 -3.0504 -1.1501 -0.9686
 9349SOL     OW39679   1.565   0.035   4.978  0.5260  0.1258 -0.0690
 9349SOL    HW139680   1.476   0.052   4.948  1.0101 -0.6310 -1.9329
 9349SOL    HW239681   1.600   0.116   5.015  2.4295 -0.3637 -0.8075
 9350SOL     OW39682   2.657   4.446   6.416  0.4874  0.1138 -0.0988
 9350SOL    HW139683   2.645   4.372   6.476 -2.8393  0.2763 -0.5623
 9350SOL    HW239684   2.593   4.430   6.346  0.1765 -1.1016  0.4682
 9351SOL     OW39685   3.715   0.070   4.872  0.2222  0.2064 -0.3312
 9351SOL    HW139686   3.725   0.060   4.967 -1.6603  0.5404 -0.1007
 9351SOL    HW239687   3.785   0.009   4.848  0.2968  0.3497 -0.4764
 9352SOL     OW39688   3.674   3.023   9.233 -0.3192  0.5268 -0.4893
 9352SOL    HW139689   3.739   2.969   9.278  0.7269  2.5025  0.3801
 9352SOL    HW239690   3.740   3.075   9.186  1.3352 -0.1120  1.1546
 9353SOL     OW39691   0.576   3.954   2.430  0.2126  0.1831 -0.3068
 9353SOL    HW139692   0.540   4.041   2.448 -2.0852 -0.7331 -0.4158
 9353SOL    HW239693   0.666   3.968   2.401  1.0912 -3.1010  0.7526
 9354SOL     OW39694   3.410   1.747   1.859  0.6527  0.3589  0.1273
 9354SOL    HW139695   3.467   1.731   1.783 -0.8060  0.1555 -0.9346
 9354SOL    HW239696   3.397   1.842   1.866 -1.7224  0.0625 -0.2614
 9355SOL     OW39697   3.451   3.676   9.099  0.1108 -0.2348 -0.0155
 9355SOL    HW139698   3.442   3.672   9.195  0.8436 -0.3748  0.0468
 9355SOL    HW239699   3.363   3.666   9.063 -1.7281  1.1775  4.0628
 9356SOL     OW39700   4.495   3.759   7.042  0.2420 -0.1857  0.1181
 9356SOL    HW139701   4.495   3.825   6.974 -2.8145 -0.2327  0.0796
 9356SOL    HW239702   4.445   3.692   6.994 -1.1038  1.3530 -0.6151
 9357SOL     OW39703   0.541   2.330   8.479  0.1681 -0.7734  0.1567
 9357SOL    HW139704   0.517   2.288   8.397  2.6964 -1.1386 -0.3844
 9357SOL    HW239705   0.532   2.254   8.536 -0.2516  0.4704  1.7511
 9358SOL     OW39706   0.482   4.051   3.516 -0.4764  0.2962  0.2263
 9358SOL    HW139707   0.565   4.092   3.540 -0.9438  0.9836  0.6618
 9358SOL    HW239708   0.477   3.977   3.576 -0.9291  0.0605 -0.1037
 9359SOL     OW39709   4.461   1.283   9.058 -0.3067  0.5550  0.1447
 9359SOL    HW139710   4.543   1.236   9.042  0.5706  2.6229 -1.4676
 9359SOL    HW239711   4.453   1.273   9.153  2.6630  0.2858  0.3653
 9360SOL     OW39712   1.649   3.492   1.121 -0.2505  0.0814  0.3566
 9360SOL    HW139713   1.599   3.433   1.065 -0.6823 -0.4828  1.3296
 9360SOL    HW239714   1.659   3.561   1.055  2.1862 -0.0917  0.5150
 9361SOL     OW39715   2.146   1.894   6.897 -0.0009  0.3225 -0.1983
 9361SOL    HW139716   2.071   1.839   6.919 -1.1683  1.3644 -1.5322
 9361SOL    HW239717   2.157   1.936   6.983 -3.1293 -0.1397  0.4316
 9362SOL     OW39718   0.319   1.903   3.057 -0.5847  0.4141 -0.2762
 9362SOL    HW139719   0.394   1.963   3.064  0.1498 -0.4751 -0.5359
 9362SOL    HW239720   0.248   1.965   3.040 -1.7248 -1.3934 -2.1325
 9363SOL     OW39721   2.406   0.670   8.669  0.1621 -0.1395  0.3783
 9363SOL    HW139722   2.478   0.625   8.712  0.5888 -1.0023 -1.2326
 9363SOL    HW239723   2.446   0.757   8.664  1.1908 -0.7327 -1.8046
 9364SOL     OW39724   4.149   2.974   4.366  0.9723 -0.9151  0.2064
 9364SOL    HW139725   4.055   2.969   4.383  0.8267  0.7667 -0.1724
 9364SOL    HW239726   4.152   2.943   4.276 -1.8271 -1.6277  0.3478
 9365SOL     OW39727   3.597   4.049   7.539 -0.6163  0.6814  0.4709
 9365SOL    HW139728   3.630   4.058   7.449  3.6410 -0.1545  1.9372
 9365SOL    HW239729   3.686   4.046   7.575 -1.0583 -2.0445  1.2780
 9366SOL     OW39730   0.108   2.615   5.152 -0.0609  0.3511  0.8133
 9366SOL    HW139731   0.029   2.562   5.146  1.5847 -2.0347 -0.1445
 9366SOL    HW239732   0.137   2.601   5.062 -1.0003 -0.1593  0.5977
 9367SOL     OW39733   2.698   0.817   2.502  0.4403 -1.0265 -0.9654
 9367SOL    HW139734   2.707   0.791   2.594 -0.2531 -1.2694 -0.9688
 9367SOL    HW239735   2.766   0.761   2.467  0.1906 -1.6005 -0.5295
 9368SOL     OW39736   0.339   2.026   1.212  0.2398 -0.0824 -0.0982
 9368SOL    HW139737   0.348   1.969   1.135  1.2682  0.8643 -0.6736
 9368SOL    HW239738   0.404   2.095   1.198  0.7688 -0.3686  0.8953
 9369SOL     OW39739   0.892   0.170   2.181 -0.8127  0.4961 -0.1032
 9369SOL    HW139740   0.918   0.143   2.092 -0.0035  1.1112 -0.0542
 9369SOL    HW239741   0.899   0.088   2.230  1.2298  1.5289  1.3117
 9370SOL     OW39742   3.141   0.074   1.799  0.1188  0.0139  0.2637
 9370SOL    HW139743   3.111   0.092   1.709  0.9939  0.3161  0.0361
 9370SOL    HW239744   3.217   0.019   1.783  0.9258  0.8844  1.1520
 9371SOL     OW39745   0.641   1.127   5.374  0.0497  0.1874 -0.7402
 9371SOL    HW139746   0.576   1.177   5.424  0.1805 -2.9817  2.5856
 9371SOL    HW239747   0.673   1.201   5.323 -3.2896  2.5261  0.5110
 9372SOL     OW39748   1.996   3.132  11.758 -0.2056 -0.0824  0.0679
 9372SOL    HW139749   1.975   3.184  11.836 -0.5039  1.6908 -1.2048
 9372SOL    HW239750   2.085   3.100  11.775  1.1297  1.6710 -3.5495
 9373SOL     OW39751   0.440   2.883   5.450 -0.2939  0.1930 -0.1915
 9373SOL    HW139752   0.421   2.800   5.407  2.2252 -0.3839 -0.1733
 9373SOL    HW239753   0.352   2.919   5.464 -0.3749  0.0234 -0.2614
 9374SOL     OW39754   3.110   3.543   1.165  0.3523 -0.6298 -0.5274
 9374SOL    HW139755   3.148   3.456   1.167 -0.1979 -0.8291  1.0177
 9374SOL    HW239756   3.124   3.547   1.071  2.0723 -0.6818 -0.2760
 9375SOL     OW39757   4.004   1.637   8.291  0.1559 -0.2546 -0.0849
 9375SOL    HW139758   4.081   1.672   8.335 -1.1230 -0.7966  2.5459
 9375SOL    HW239759   4.006   1.543   8.309  0.3550 -0.4942 -1.3067
 9376SOL     OW39760   3.561   0.713   2.606 -0.1874  0.6513  0.2822
 9376SOL    HW139761   3.500   0.765   2.553  1.2249  0.0567 -1.9502
 9376SOL    HW239762   3.632   0.702   2.543 -0.8604 -1.7245 -0.0918
 9377SOL     OW39763   2.422   2.051   7.006 -0.4079 -0.4253 -0.1865
 9377SOL    HW139764   2.438   2.004   7.088  0.5274  0.3867  0.1071
 9377SOL    HW239765   2.452   1.989   6.940  1.4957 -0.2130  0.4666
 9378SOL     OW39766   4.531   2.077   2.605 -0.2509  0.0435  0.0122
 9378SOL    HW139767   4.575   1.992   2.603  1.2584  0.7868  1.1041
 9378SOL    HW239768   4.457   2.064   2.664 -0.4404 -2.2355 -0.7312
 9379SOL     OW39769   3.045   1.877  16.762  0.4615 -0.1501 -0.7442
 9379SOL    HW139770   3.112   1.936  16.728 -1.6898  1.7373 -1.7113
 9379SOL    HW239771   3.047   1.807  16.697 -2.1793 -0.4567 -0.5179
 9380SOL     OW39772   2.068   0.254   3.783  0.0779 -0.4212  1.2526
 9380SOL    HW139773   1.992   0.304   3.753 -0.1156 -0.8657  1.0107
 9380SOL    HW239774   2.053   0.169   3.743  0.0329  0.2078 -0.0685
 9381SOL     OW39775   3.877   2.287   1.186 -0.5482 -0.4336  0.0663
 9381SOL    HW139776   3.880   2.223   1.115 -2.2105 -1.0597  0.5496
 9381SOL    HW239777   3.875   2.225   1.259 -0.6072 -1.0118 -0.4227
 9382SOL     OW39778   3.252   3.463   7.689  0.0236  0.3258  0.5005
 9382SOL    HW139779   3.293   3.536   7.641  0.3737  0.5334  1.1181
 9382SOL    HW239780   3.331   3.410   7.705 -1.0738 -1.7903 -1.1349
 9383SOL     OW39781   2.772   1.003   6.652  0.2584 -0.6463 -0.7642
 9383SOL    HW139782   2.831   0.970   6.720 -1.6574  1.4139  1.9119
 9383SOL    HW239783   2.832   1.070   6.621  0.5520 -0.3840  0.3677
 9384SOL     OW39784   0.008   2.666  12.003  0.1301 -0.1398 -0.0360
 9384SOL    HW139785   4.703   2.694  12.085  1.5524  0.4144  0.5139
 9384SOL    HW239786   0.060   2.746  11.999 -0.8354  0.4844 -0.0337
 9385SOL     OW39787   0.109   2.807   8.357 -0.2692  0.7618 -0.1992
 9385SOL    HW139788   0.162   2.866   8.410 -0.6553 -1.2169  2.3610
 9385SOL    HW239789   0.064   2.750   8.420 -0.8280  0.5480 -0.7855
 9386SOL     OW39790   2.051   4.260  14.378 -0.3040  0.1869 -0.7910
 9386SOL    HW139791   1.981   4.259  14.444  1.1019 -0.8377  0.6729
 9386SOL    HW239792   2.121   4.295  14.433  0.4972  1.7355 -2.8196
 9387SOL     OW39793   3.979   2.177   7.772 -0.0256 -0.2657 -0.2632
 9387SOL    HW139794   4.002   2.230   7.848  0.4232  2.3824 -2.2227
 9387SOL    HW239795   4.014   2.240   7.708 -0.1741  0.3395  0.2526
 9388SOL     OW39796   4.195   2.066  11.967  0.4433 -0.2942 -0.0221
 9388SOL    HW139797   4.120   2.090  11.913  0.4863 -0.3153 -0.0908
 9388SOL    HW239798   4.150   2.042  12.048 -2.6968  2.4046 -0.9447
 9389SOL     OW39799   4.200   2.124   2.495 -0.1304  0.1509 -0.3728
 9389SOL    HW139800   4.265   2.135   2.565  0.8467 -0.0116 -1.2638
 9389SOL    HW239801   4.123   2.100   2.546  1.0201 -0.6967  0.9603
 9390SOL     OW39802   4.626   0.477   2.415 -0.3709  0.0172 -0.3207
 9390SOL    HW139803   4.674   0.541   2.362  0.2168 -0.0267  0.1707
 9390SOL    HW239804   4.688   0.467   2.487 -0.1220 -2.7548 -0.9472
 9391SOL     OW39805   0.579   3.069  11.736  0.0116 -0.2913  0.5874
 9391SOL    HW139806   0.596   2.975  11.739  1.6606  0.0371  1.6559
 9391SOL    HW239807   0.495   3.087  11.694  0.5014  1.2483  0.2593
 9392SOL     OW39808   0.797   2.313   7.358  0.7041 -0.0742 -0.2739
 9392SOL    HW139809   0.849   2.251   7.410 -1.4148 -0.7884  0.9829
 9392SOL    HW239810   0.765   2.262   7.284 -1.3863 -2.6987  2.4054
 9393SOL     OW39811   2.348   3.618   0.747  0.7393 -0.1403 -0.1629
 9393SOL    HW139812   2.278   3.567   0.708  1.1027 -0.0059 -0.9811
 9393SOL    HW239813   2.404   3.625   0.670  1.9064  1.3719  0.8166
 9394SOL     OW39814   3.525   4.535   5.773 -0.0282 -0.4243  0.6706
 9394SOL    HW139815   3.435   4.523   5.742 -1.0379  4.9900  1.5889
 9394SOL    HW239816   3.572   4.472   5.718 -0.3936  0.3412 -0.5079
 9395SOL     OW39817   1.001   4.434   3.194 -0.4849  0.1601 -0.1892
 9395SOL    HW139818   1.002   4.348   3.153  1.6974 -0.5092  1.3082
 9395SOL    HW239819   0.943   4.477   3.131  0.5931  0.1884 -1.1565
 9396SOL     OW39820   4.482   2.855   2.203  0.0708 -0.6361  0.2296
 9396SOL    HW139821   4.521   2.772   2.231  0.7430 -0.5727 -0.5102
 9396SOL    HW239822   4.391   2.857   2.231 -0.2227  2.3877 -0.9702
 9397SOL     OW39823   0.123   2.934   6.045 -0.7571  0.0032 -0.3999
 9397SOL    HW139824   0.048   2.879   6.020 -0.5748  0.0960 -1.1461
 9397SOL    HW239825   0.129   2.989   5.966  0.4590  0.4847  0.0267
 9398SOL     OW39826   1.208   1.454   5.453 -0.1715  0.4236 -0.1250
 9398SOL    HW139827   1.240   1.387   5.514  0.1964  1.9019  1.3209
 9398SOL    HW239828   1.245   1.532   5.495  0.3520 -1.0968  2.2513
 9399SOL     OW39829   2.852   4.140  14.668 -0.6917  0.5657 -0.0320
 9399SOL    HW139830   2.834   4.106  14.580  1.3180 -0.9094  0.1359
 9399SOL    HW239831   2.762   4.149  14.699 -1.3748 -2.3147 -1.1353
 9400SOL     OW39832   2.957   1.139   0.947 -0.5403 -0.3355  0.3292
 9400SOL    HW139833   2.873   1.094   0.959  0.9263 -2.8988  0.8728
 9400SOL    HW239834   2.984   1.137   1.039  0.3284 -0.4079  0.0701
 9401SOL     OW39835   4.385   4.118   8.759 -0.5235  0.4704  0.0337
 9401SOL    HW139836   4.453   4.171   8.800  0.7628 -1.2216  0.1092
 9401SOL    HW239837   4.303   4.152   8.793  0.4335  1.3576  1.4530
 9402SOL     OW39838   1.982   3.365   1.219  0.0096 -0.5807  0.5015
 9402SOL    HW139839   1.988   3.405   1.305  2.2527  1.2707 -0.5371
 9402SOL    HW239840   1.975   3.272   1.240  0.5050 -0.2806  1.9890
 9403SOL     OW39841   2.737   3.717   9.446 -0.3880  0.5146  0.5898
 9403SOL    HW139842   2.810   3.775   9.464 -0.5718  0.9452 -0.0414
 9403SOL    HW239843   2.788   3.648   9.402  2.7965  2.2422  1.5422
 9404SOL     OW39844   4.070   3.406   6.585  0.8364  0.3515 -0.3033
 9404SOL    HW139845   4.009   3.382   6.515 -2.0517 -1.3741  2.8416
 9404SOL    HW239846   4.023   3.357   6.652  0.6682  0.0159 -0.6682
 9405SOL     OW39847   3.747   1.997   6.030 -0.1746  0.3776  0.5194
 9405SOL    HW139848   3.788   1.915   6.001 -0.8186  0.1802  0.1600
 9405SOL    HW239849   3.656   1.969   6.039  0.0753 -0.8921 -0.8455
 9406SOL     OW39850   2.478   1.925   5.362 -0.0152 -0.2983  0.4133
 9406SOL    HW139851   2.513   1.943   5.275 -2.0286 -1.2596 -0.5878
 9406SOL    HW239852   2.451   2.012   5.391  0.6549  0.2437 -0.5949
 9407SOL     OW39853   0.012   3.926   8.585  0.0202  0.9889 -0.1071
 9407SOL    HW139854   4.696   3.947   8.507 -0.8448  0.3261  0.3086
 9407SOL    HW239855   0.068   4.003   8.594  1.2626  0.0083  0.5537
 9408SOL     OW39856   4.468   3.937   2.505 -0.3312  0.4679 -0.0053
 9408SOL    HW139857   4.514   3.998   2.447  2.5056 -1.5179  0.1186
 9408SOL    HW239858   4.378   3.940   2.473 -1.3993 -0.0688  2.9767
 9409SOL     OW39859   2.011   4.426   6.890 -0.4499  0.0533 -0.4683
 9409SOL    HW139860   2.097   4.465   6.874  0.2952 -2.7089 -3.3530
 9409SOL    HW239861   1.991   4.453   6.979  1.5127 -0.3446  0.0870
 9410SOL     OW39862   0.448   4.102  16.108 -0.0444  0.3811  0.5473
 9410SOL    HW139863   0.398   4.024  16.087 -2.4926  2.2853 -0.7489
 9410SOL    HW239864   0.453   4.097  16.204 -0.2702  5.7869  0.8847
 9411SOL     OW39865   1.575   2.708   4.266  0.9116  0.0846  0.4353
 9411SOL    HW139866   1.617   2.732   4.184  0.7994 -1.7776 -0.1624
 9411SOL    HW239867   1.595   2.788   4.314 -0.3942 -0.2339  1.5144
 9412SOL     OW39868   3.211   1.457  15.676  0.3480  0.5526 -0.6623
 9412SOL    HW139869   3.266   1.384  15.647  2.8849  0.6639  3.8236
 9412SOL    HW239870   3.157   1.417  15.745 -1.4418  1.7489 -1.3912
 9413SOL     OW39871   0.312   4.210   4.827 -0.7393 -0.3825  0.6673
 9413SOL    HW139872   0.384   4.187   4.885  0.1939 -0.6408 -0.5987
 9413SOL    HW239873   0.292   4.119   4.807  0.6864 -0.7564  1.0026
 9414SOL     OW39874   4.150   1.300   2.101  0.7474  0.1400  0.4657
 9414SOL    HW139875   4.223   1.354   2.072 -0.7287  0.7494 -2.1374
 9414SOL    HW239876   4.159   1.309   2.196  1.9073  2.6739  0.1237
 9415SOL     OW39877   0.486   2.232   8.239 -0.3251  0.0777  0.0871
 9415SOL    HW139878   0.507   2.157   8.183 -0.2159  0.1334  0.0519
 9415SOL    HW239879   0.417   2.268   8.184  0.6248  0.2210 -1.0042
 9416SOL     OW39880   2.327   3.818   3.972 -0.0355  0.0323  0.2124
 9416SOL    HW139881   2.328   3.808   3.877 -1.2368 -0.1361  0.2219
 9416SOL    HW239882   2.253   3.877   3.983 -0.9232 -1.0313 -0.0934
 9417SOL     OW39883   4.475   1.125   8.424  0.3072 -0.6532  0.0374
 9417SOL    HW139884   4.382   1.109   8.440 -0.0122  0.5566 -0.6702
 9417SOL    HW239885   4.473   1.136   8.329  0.1163  1.2313  0.2611
 9418SOL     OW39886   3.434   4.446   8.103 -0.4876  0.0770  0.1978
 9418SOL    HW139887   3.522   4.483   8.097 -1.6136  2.7630  0.3968
 9418SOL    HW239888   3.422   4.449   8.198 -1.1494 -2.3612  0.2063
 9419SOL     OW39889   0.038   4.163   8.046 -0.4174  0.2987  0.5455
 9419SOL    HW139890   4.702   4.217   8.014 -1.4620 -0.7831  1.0989
 9419SOL    HW239891   4.728   4.083   8.067 -1.5287  1.1002  1.1016
 9420SOL     OW39892   3.991   0.175  11.372 -0.3641 -0.3871 -0.0096
 9420SOL    HW139893   3.983   0.084  11.343  4.1150 -0.6525 -0.3830
 9420SOL    HW239894   4.079   0.168  11.408 -1.6494 -0.4924  3.1423
 9421SOL     OW39895   2.815   1.398   9.888 -0.6454 -0.0685 -0.1712
 9421SOL    HW139896   2.841   1.312   9.922 -2.0738 -0.3838  0.1499
 9421SOL    HW239897   2.735   1.366   9.845 -0.4921 -0.3359 -0.2585
 9422SOL     OW39898   4.187   1.285   5.132 -0.7999  0.1767 -0.1129
 9422SOL    HW139899   4.119   1.337   5.088  0.2159  2.0011  0.4658
 9422SOL    HW239900   4.210   1.218   5.068 -2.1020 -0.7659  0.4048
 9423SOL     OW39901   1.749   0.797  13.020 -0.1542  0.0736 -0.2508
 9423SOL    HW139902   1.822   0.741  13.048 -1.4628 -1.1321  0.7645
 9423SOL    HW239903   1.707   0.746  12.951 -0.0011  0.3676 -0.5632
 9424SOL     OW39904   0.641   3.690   8.837 -0.3837  0.0263  0.4656
 9424SOL    HW139905   0.569   3.670   8.776  0.2189 -0.4694 -0.0836
 9424SOL    HW239906   0.628   3.785   8.837 -0.4150  0.0237  1.2889
 9425SOL     OW39907   4.609   3.458   8.649 -0.0579  0.4753  0.4629
 9425SOL    HW139908   4.648   3.389   8.702 -1.2327 -0.8466 -0.3789
 9425SOL    HW239909   4.659   3.535   8.675  0.1366  0.1666  0.9869
 9426SOL     OW39910   4.657   3.351   6.129  0.2080 -0.2773  0.2954
 9426SOL    HW139911   4.583   3.338   6.188  0.3744  1.4893  0.8999
 9426SOL    HW239912   4.698   3.430   6.164  1.3387 -0.7237 -0.0028
 9427SOL     OW39913   3.350   4.234  15.213 -0.0795 -0.4520  0.1087
 9427SOL    HW139914   3.325   4.144  15.191 -0.2527 -0.2206 -0.6301
 9427SOL    HW239915   3.443   4.217  15.226  0.2546  0.6050 -0.9355
 9428SOL     OW39916   4.149   3.707   3.363 -0.9797  0.0890  0.8711
 9428SOL    HW139917   4.164   3.615   3.383  0.3360 -0.2716 -1.7232
 9428SOL    HW239918   4.226   3.719   3.307 -1.5046 -3.7968 -0.6855
 9429SOL     OW39919   1.951   3.568   7.238  0.0966 -0.0720  0.1599
 9429SOL    HW139920   1.982   3.498   7.296 -2.0293 -1.7547 -0.7444
 9429SOL    HW239921   1.886   3.531   7.178  0.8837 -0.4057 -0.4924
 9430SOL     OW39922   3.757   3.521   0.387 -0.5708 -0.7040  0.2214
 9430SOL    HW139923   3.739   3.427   0.380 -0.5601 -0.4496 -2.9940
 9430SOL    HW239924   3.848   3.519   0.417  0.4358  1.6588 -2.7050
 9431SOL     OW39925   3.081   2.300   5.456 -0.0817 -0.1966 -0.1153
 9431SOL    HW139926   3.058   2.387   5.491  1.0678  0.1197 -0.1387
 9431SOL    HW239927   3.087   2.248   5.537  2.2185  0.0596 -0.1391
 9432SOL     OW39928   0.839   2.936   9.779 -0.5476 -0.1062  0.3955
 9432SOL    HW139929   0.901   2.878   9.824 -1.0351  0.5851  1.9560
 9432SOL    HW239930   0.795   2.874   9.720 -1.8850  0.7181  0.5349
 9433SOL     OW39931   1.499   0.223  14.857  0.2172 -0.0217  0.3630
 9433SOL    HW139932   1.557   0.254  14.786 -0.6318  1.9774  0.5536
 9433SOL    HW239933   1.559   0.204  14.930 -0.1467  1.4938  1.0539
 9434SOL     OW39934   4.347   2.727   5.752  0.4059 -0.5653  0.2843
 9434SOL    HW139935   4.373   2.678   5.830  1.6109 -0.6371 -0.1549
 9434SOL    HW239936   4.293   2.664   5.704 -0.3034  1.2153 -1.2513
 9435SOL     OW39937   2.419   1.441   8.398  0.2021 -0.1519 -0.3665
 9435SOL    HW139938   2.347   1.501   8.414 -0.9702 -1.7792  0.4596
 9435SOL    HW239939   2.434   1.418   8.490 -2.4356 -3.0084 -0.6449
 9436SOL     OW39940   2.732   1.448   5.802 -0.1092  0.4521  0.3644
 9436SOL    HW139941   2.724   1.364   5.757 -0.4072 -1.0711  3.2779
 9436SOL    HW239942   2.766   1.501   5.730 -2.6079 -0.4876 -1.4724
 9437SOL     OW39943   0.322   2.434   1.116 -0.3525 -0.4593 -0.3202
 9437SOL    HW139944   0.229   2.413   1.102 -0.5368  1.0503 -1.3649
 9437SOL    HW239945   0.321   2.528   1.134 -1.9938 -1.2077  3.4955
 9438SOL     OW39946   4.061   1.450  12.022  0.1155 -0.3417  0.2482
 9438SOL    HW139947   4.119   1.518  12.056  2.5904 -2.7224  0.7407
 9438SOL    HW239948   4.043   1.502  11.943 -2.0452 -2.9493 -1.0038
 9439SOL     OW39949   2.665   1.389   4.759 -0.2120 -0.5028 -0.6860
 9439SOL    HW139950   2.728   1.338   4.810 -0.4416  0.9193  0.9972
 9439SOL    HW239951   2.631   1.422   4.842  1.5013  1.0167 -0.5880
 9440SOL     OW39952   0.395   2.748   4.895  0.1602  0.3473 -0.3943
 9440SOL    HW139953   0.311   2.704   4.909 -0.2390  0.9912 -0.7720
 9440SOL    HW239954   0.440   2.722   4.976  1.5541  1.3500 -0.8562
 9441SOL     OW39955   1.959   4.539  12.928 -0.0051  0.0520  0.1473
 9441SOL    HW139956   1.911   4.620  12.910  0.3291  0.6034  1.7919
 9441SOL    HW239957   2.018   4.531  12.853 -1.6898 -0.0969 -1.1591
 9442SOL     OW39958   4.505   1.691  11.361 -0.5853 -0.1870 -0.1853
 9442SOL    HW139959   4.465   1.770  11.325 -1.1559 -0.1224  0.5900
 9442SOL    HW239960   4.447   1.674  11.435  0.2724  1.3120  0.8395
 9443SOL     OW39961   1.106   3.839   7.634 -0.1398  0.2615  0.0401
 9443SOL    HW139962   1.124   3.767   7.694  1.5160 -0.7543 -1.6617
 9443SOL    HW239963   1.118   3.804   7.546 -0.5438 -0.7027  0.3765
 9444SOL     OW39964   2.642   2.411   9.107  1.4329 -0.2562  0.1563
 9444SOL    HW139965   2.590   2.451   9.177  1.9062  0.1780  0.2668
 9444SOL    HW239966   2.605   2.324   9.121  0.0617  0.2158 -0.5100
 9445SOL     OW39967   4.155   0.290   8.705 -0.8590 -0.2768  0.4519
 9445SOL    HW139968   4.178   0.286   8.612 -2.5972  1.8074 -0.0620
 9445SOL    HW239969   4.176   0.200   8.730 -4.3027 -1.6998 -1.7753
 9446SOL     OW39970   0.106   1.044   6.952 -0.1419 -0.2088 -0.3612
 9446SOL    HW139971   0.055   1.116   6.914 -0.5873  1.5244  3.5048
 9446SOL    HW239972   0.138   1.090   7.030 -0.0883 -0.6663 -0.1155
 9447SOL     OW39973   0.671   1.894   3.236 -0.2760  0.2555 -0.1423
 9447SOL    HW139974   0.683   1.975   3.286 -0.6647  0.8099 -0.9510
 9447SOL    HW239975   0.712   1.827   3.291 -1.5297 -0.3018  0.1089
 9448SOL     OW39976   3.848   4.290   5.007 -0.2061 -0.2100 -0.4535
 9448SOL    HW139977   3.850   4.201   5.042  0.5934 -0.4876 -1.2015
 9448SOL    HW239978   3.906   4.331   5.071  1.2275 -1.0407 -1.2353
 9449SOL     OW39979   1.762   2.448   3.976 -0.6125  0.0754 -0.4158
 9449SOL    HW139980   1.815   2.426   4.053 -1.2121  4.3247  1.2327
 9449SOL    HW239981   1.751   2.362   3.937  0.7567 -0.2668 -0.0144
 9450SOL     OW39982   0.222   0.346   1.383  0.5851 -0.1259 -0.1489
 9450SOL    HW139983   0.233   0.439   1.360  0.2847 -0.3725 -1.3016
 9450SOL    HW239984   0.211   0.350   1.478  0.3553  0.2101 -0.1906
 9451SOL     OW39985   2.528   2.621   9.294 -0.1251 -0.0831  0.3133
 9451SOL    HW139986   2.595   2.689   9.303  0.5638 -0.8647  1.0457
 9451SOL    HW239987   2.444   2.664   9.278  1.0662  2.6768  1.5325
 9452SOL     OW39988   1.862   4.484  14.417 -0.4250  0.1218  0.1481
 9452SOL    HW139989   1.880   4.452  14.329 -1.8252 -2.1438  0.6894
 9452SOL    HW239990   1.883   4.577  14.408 -1.2269  0.3413  0.4714
 9453SOL     OW39991   0.082   1.855   3.611 -0.3592 -0.2036  0.1769
 9453SOL    HW139992   0.051   1.871   3.522  0.6583 -1.5476 -0.4170
 9453SOL    HW239993   0.006   1.878   3.665 -0.3639 -2.9328  1.3231
 9454SOL     OW39994   3.673   4.505   2.065  0.0267  0.7598  0.3854
 9454SOL    HW139995   3.638   4.579   2.016  0.4078  0.9296  0.3715
 9454SOL    HW239996   3.593   4.452   2.069  1.5476 -1.4719  1.1396
 9455SOL     OW39997   2.264   3.989   9.490 -0.0267 -0.0833  0.0516
 9455SOL    HW139998   2.249   4.083   9.503  0.7050  0.1817 -1.0095
 9455SOL    HW239999   2.232   3.966   9.403 -1.0982  1.7715 -0.0539
 9456SOL     OW40000   3.036   0.812  11.802 -0.2653 -0.0826  0.5043
 9456SOL    HW140001   2.948   0.819  11.840 -0.3797 -0.1786  0.2596
 9456SOL    HW240002   3.078   0.897  11.815 -0.2298  0.0889 -0.7124
 9457SOL     OW40003   0.639   1.773   4.111  0.2013  0.3794  0.5122
 9457SOL    HW140004   0.723   1.760   4.155 -0.6163 -2.3580  1.3074
 9457SOL    HW240005   0.657   1.751   4.020 -1.5435 -1.8497  0.6916
 9458SOL     OW40006   1.781   4.665   2.655 -0.0668 -0.6134 -0.5269
 9458SOL    HW140007   1.730   0.000   2.694 -0.9818 -1.7938  0.4585
 9458SOL    HW240008   1.813   4.710   2.577  1.2063 -1.0115 -0.2263
 9459SOL     OW40009   1.415   1.405   4.461 -0.0662  0.2660  0.1791
 9459SOL    HW140010   1.328   1.416   4.423 -0.0532  1.3340  0.4574
 9459SOL    HW240011   1.440   1.496   4.479  2.4582  0.1802 -2.9797
 9460SOL     OW40012   0.050   2.836   8.098  0.0206 -0.7847 -0.4690
 9460SOL    HW140013   4.700   2.816   8.063 -0.4456  1.9072 -0.8990
 9460SOL    HW240014   0.046   2.798   8.186  0.1669  1.3839  0.4838
 9461SOL     OW40015   0.144   2.100   3.050 -0.3069  0.0898  0.2220
 9461SOL    HW140016   0.199   2.179   3.056 -0.6725  0.4467 -0.9434
 9461SOL    HW240017   0.057   2.140   3.048 -0.5917 -0.4709  1.9544
 9462SOL     OW40018   3.041   3.214   8.059 -0.4733 -0.4034  0.3852
 9462SOL    HW140019   3.083   3.288   8.015  0.9507 -1.6457 -0.3488
 9462SOL    HW240020   3.004   3.163   7.987  2.0597 -1.3635 -0.2375
 9463SOL     OW40021   1.590   1.952   2.193 -0.3087  0.5173 -0.7567
 9463SOL    HW140022   1.636   1.915   2.269  0.5223 -0.6604 -1.8447
 9463SOL    HW240023   1.579   1.872   2.143 -0.5073  0.7104 -1.0171
 9464SOL     OW40024   3.937   0.458   8.693 -0.2927  0.1523 -0.1984
 9464SOL    HW140025   4.027   0.425   8.696 -0.5634 -0.7206 -1.6362
 9464SOL    HW240026   3.915   0.436   8.784 -0.5931  1.6999  0.1045
 9465SOL     OW40027   2.508   1.944  11.477 -0.1237  0.0874  0.2537
 9465SOL    HW140028   2.575   1.988  11.529  0.9443 -2.5335  1.0855
 9465SOL    HW240029   2.559   1.868  11.448 -0.9107  0.1733 -1.3605
 9466SOL     OW40030   3.682   2.183   3.823 -0.3547  0.3064 -0.5253
 9466SOL    HW140031   3.730   2.232   3.755 -0.5286 -0.5472 -1.2627
 9466SOL    HW240032   3.598   2.229   3.823 -1.0855 -1.0148 -4.0000
 9467SOL     OW40033   3.366   0.393   1.383 -0.1282 -0.3081  0.3326
 9467SOL    HW140034   3.317   0.311   1.378 -0.2645 -0.2800  1.2153
 9467SOL    HW240035   3.416   0.386   1.301 -0.2605  1.0855  0.1296
 9468SOL     OW40036   2.141   0.926   3.509  0.5671 -0.4623  0.7300
 9468SOL    HW140037   2.190   1.000   3.545  0.4820 -0.5570  1.0435
 9468SOL    HW240038   2.085   0.979   3.452 -0.1043  0.8763  2.6088
 9469SOL     OW40039   4.517   3.271  13.375 -0.0996 -0.4708  0.3625
 9469SOL    HW140040   4.559   3.309  13.452 -0.8047  1.7693 -0.3439
 9469SOL    HW240041   4.494   3.349  13.325  0.1638  0.1634  1.2308
 9470SOL     OW40042   1.670   3.983   4.038 -0.4138  0.3701  0.5614
 9470SOL    HW140043   1.694   3.949   3.952  1.3613  2.3975  0.2883
 9470SOL    HW240044   1.620   4.059   4.009 -0.9673  0.5217  1.8917
 9471SOL     OW40045   0.403   0.425   5.963 -0.0281  0.4032 -0.2670
 9471SOL    HW140046   0.498   0.422   5.949 -0.0062  0.3916 -0.1063
 9471SOL    HW240047   0.380   0.486   5.892  0.9145  1.2541  0.1536
 9472SOL     OW40048   2.486   0.096   3.068 -0.1586  0.0716  0.4502
 9472SOL    HW140049   2.545   0.059   3.003 -0.0826 -1.5838  1.4780
 9472SOL    HW240050   2.402   0.079   3.026  0.0921  2.0554 -0.8712
 9473SOL     OW40051   3.410   0.252  15.977  0.5214  0.2290 -0.1065
 9473SOL    HW140052   3.429   0.198  16.053  1.0036  1.0364  0.3539
 9473SOL    HW240053   3.375   0.332  16.017  1.3946 -0.1734  1.4479
 9474SOL     OW40054   2.585   0.992   8.160  0.4407  0.3284  0.4057
 9474SOL    HW140055   2.500   0.949   8.154 -1.3241  3.8341  0.2172
 9474SOL    HW240056   2.554   1.082   8.164 -1.0425 -0.0912 -1.4874
 9475SOL     OW40057   4.565   4.064   2.124  0.0830 -0.4347 -0.1130
 9475SOL    HW140058   4.526   4.112   2.051  1.6044 -1.8189 -1.8521
 9475SOL    HW240059   4.594   4.140   2.175 -1.1450 -0.5673  0.7845
 9476SOL     OW40060   4.366   0.276   3.661 -0.3471  0.1237 -0.3330
 9476SOL    HW140061   4.280   0.312   3.639 -0.8586 -1.0659 -0.2307
 9476SOL    HW240062   4.420   0.355   3.652  0.0273 -0.1632 -0.5626
 9477SOL     OW40063   0.133   1.690   2.069  0.3845  0.4911 -0.1118
 9477SOL    HW140064   0.205   1.725   2.016  0.3137  1.7743  0.6370
 9477SOL    HW240065   0.156   1.597   2.075 -1.5399 -0.0259 -0.9605
 9478SOL     OW40066   1.755   1.969   4.421  0.2590  0.3217 -0.3254
 9478SOL    HW140067   1.740   1.995   4.512 -0.1064  0.4578 -0.4231
 9478SOL    HW240068   1.726   2.046   4.372  0.6058  1.1700  0.7986
 9479SOL     OW40069   3.971   4.340   3.069  0.1245  0.1375  0.1322
 9479SOL    HW140070   3.971   4.367   2.977  0.2909  1.6158  0.5702
 9479SOL    HW240071   3.909   4.267   3.067  0.4590 -0.1798  1.2313
 9480SOL     OW40072   4.732   1.986   2.836 -0.5131 -0.5794 -0.3199
 9480SOL    HW140073   0.053   2.033   2.896 -1.3726  0.7038 -0.4974
 9480SOL    HW240074   0.018   2.021   2.750  1.1686  1.0210  0.7985
 9481SOL     OW40075   1.441   1.109   3.879 -0.2589  0.1087 -0.0265
 9481SOL    HW140076   1.383   1.101   3.803 -0.0947  1.2504 -0.2679
 9481SOL    HW240077   1.513   1.159   3.841 -1.1144  1.9896  0.8099
 9482SOL     OW40078   4.671   1.223   6.759  0.0782 -0.3882 -0.2350
 9482SOL    HW140079   4.651   1.316   6.763  0.1335 -0.4247  1.0335
 9482SOL    HW240080   4.611   1.185   6.823  1.9994 -2.0988  0.6032
 9483SOL     OW40081   1.963   0.262   0.459 -0.3381  0.2507  0.1209
 9483SOL    HW140082   1.973   0.173   0.495 -0.5987  0.9062  1.8166
 9483SOL    HW240083   1.867   0.266   0.466 -0.5495 -2.2125 -1.2148
 9484SOL     OW40084   4.279   1.997   3.874  0.7330 -0.2685  0.0936
 9484SOL    HW140085   4.290   1.984   3.968  3.8135 -2.0603 -0.5147
 9484SOL    HW240086   4.341   2.069   3.863 -0.9002  1.0015 -0.8276
 9485SOL     OW40087   1.922   4.409   1.977  0.5860  0.0039  0.2880
 9485SOL    HW140088   1.880   4.362   1.905  1.6182 -2.0716  1.0618
 9485SOL    HW240089   1.848   4.440   2.030  0.9926  0.1573  0.7577
 9486SOL     OW40090   0.864   3.834   4.507 -0.3381  0.5828  0.1636
 9486SOL    HW140091   0.769   3.833   4.502 -0.1417 -1.5797 -3.3858
 9486SOL    HW240092   0.885   3.793   4.423  1.1370 -0.4153  1.0322
 9487SOL     OW40093   2.633   3.895   7.619  0.0595 -0.1392  0.3347
 9487SOL    HW140094   2.705   3.952   7.648 -0.0737 -0.0932  0.5759
 9487SOL    HW240095   2.671   3.836   7.553 -0.0984  1.0536 -0.8200
 9488SOL     OW40096   0.757   1.391  14.911  0.3214  0.7267 -0.0077
 9488SOL    HW140097   0.818   1.416  14.980  0.7988  0.2650 -0.2667
 9488SOL    HW240098   0.810   1.337  14.852  0.1588  0.9637 -0.3722
 9489SOL     OW40099   3.907   1.914   1.732 -0.5325  0.0419  0.4543
 9489SOL    HW140100   3.982   1.970   1.749 -1.9884  1.5056  2.0781
 9489SOL    HW240101   3.838   1.980   1.718 -1.3944 -0.7024  1.1835
 9490SOL     OW40102   1.754   3.119  10.651  0.1278 -0.0992  0.1826
 9490SOL    HW140103   1.787   3.183  10.714  0.6962 -0.9142  0.7088
 9490SOL    HW240104   1.784   3.158  10.569 -1.3115 -0.1621 -0.3858
 9491SOL     OW40105   3.501   3.263   7.020  0.0781 -0.0688 -0.4708
 9491SOL    HW140106   3.532   3.229   7.104  0.4992  0.1697 -0.5287
 9491SOL    HW240107   3.558   3.213   6.962  2.0601  0.3095  1.1416
 9492SOL     OW40108   4.481   0.089   6.669 -0.3316  0.0916 -0.3426
 9492SOL    HW140109   4.410   0.069   6.609 -0.5295  0.5504 -0.2581
 9492SOL    HW240110   4.543   0.132   6.611 -0.1568  0.1018 -0.1503
 9493SOL     OW40111   3.607   4.369   4.101 -0.1590  0.0062  0.0218
 9493SOL    HW140112   3.621   4.358   4.195  0.9453  2.4510  0.1334
 9493SOL    HW240113   3.570   4.283   4.081 -1.0262  0.3009  0.3876
 9494SOL     OW40114   0.076   0.565  11.364 -0.7562 -0.1439  0.0299
 9494SOL    HW140115   0.037   0.582  11.450  1.3660  1.6138  0.6354
 9494SOL    HW240116   0.142   0.499  11.386  0.4739  0.7028 -1.1407
 9495SOL     OW40117   2.479   1.721   4.523 -0.4511 -0.3606  0.1295
 9495SOL    HW140118   2.442   1.785   4.584  1.2500  1.6147 -0.9203
 9495SOL    HW240119   2.548   1.681   4.575 -2.5938 -0.4854  2.9430
 9496SOL     OW40120   2.582   4.036   4.056 -0.6131  0.4951 -0.3100
 9496SOL    HW140121   2.514   4.104   4.062  0.3006  1.1875  2.1291
 9496SOL    HW240122   2.548   3.970   4.116  2.4499  0.9834  1.9535
 9497SOL     OW40123   2.808   2.682   7.597 -0.2042  0.2144  0.3515
 9497SOL    HW140124   2.874   2.615   7.581 -0.4762  0.2859 -0.9969
 9497SOL    HW240125   2.765   2.668   7.513  0.7783 -2.1366  0.2523
 9498SOL     OW40126   3.789   2.972   5.715  0.2614  0.2750  0.2136
 9498SOL    HW140127   3.811   2.999   5.804 -1.5574  0.3232  0.6654
 9498SOL    HW240128   3.874   2.969   5.672  0.4842  0.4083  0.6531
 9499SOL     OW40129   3.412   1.684   3.099  0.0975  0.4773  0.3195
 9499SOL    HW140130   3.410   1.662   3.192 -0.5334 -0.3611  0.1072
 9499SOL    HW240131   3.485   1.629   3.070 -0.0034  0.3711  0.2652
 9500SOL     OW40132   0.570   4.455  10.422 -0.3773 -0.1648 -0.2309
 9500SOL    HW140133   0.483   4.416  10.420 -0.3785 -0.2195  0.8935
 9500SOL    HW240134   0.573   4.498  10.507  0.4689 -3.1848  1.2360
 9501SOL     OW40135   0.929   0.203   6.656 -0.0368 -0.1102 -0.0803
 9501SOL    HW140136   0.998   0.267   6.640  0.5919 -0.5813  0.7662
 9501SOL    HW240137   0.846   0.238   6.622  0.7572  0.4014 -1.4851
 9502SOL     OW40138   3.651   0.062  15.661 -0.1569 -0.0554 -0.6667
 9502SOL    HW140139   3.565   0.093  15.690  1.9256  3.1376  2.0943
 9502SOL    HW240140   3.651   0.085  15.568 -2.4952  0.8657 -0.4380
 9503SOL     OW40141   0.466   0.307  11.715  0.1256  0.1156  0.2330
 9503SOL    HW140142   0.498   0.217  11.725  0.5619  0.3002  0.5183
 9503SOL    HW240143   0.530   0.362  11.761  0.2324  0.8557 -0.8049
 9504SOL     OW40144   4.384   0.647   4.949 -0.1783  0.0120  0.5466
 9504SOL    HW140145   4.371   0.680   5.038  2.6504 -0.4703  1.1420
 9504SOL    HW240146   4.299   0.607   4.930  0.3706 -0.6947 -0.4355
 9505SOL     OW40147   0.560   2.431   1.973  0.2101 -0.4457 -0.0272
 9505SOL    HW140148   0.597   2.365   1.915  0.2357 -0.8477  0.4536
 9505SOL    HW240149   0.629   2.494   1.990 -0.2448 -0.1649  0.7702
 9506SOL     OW40150   0.927   2.286   6.665  0.1677  0.1120  0.3860
 9506SOL    HW140151   0.899   2.302   6.755 -0.8950 -0.7601  0.2062
 9506SOL    HW240152   1.022   2.291   6.673  0.2925  0.1745 -1.2330
 9507SOL     OW40153   3.548   3.100   4.115  0.2720  0.2909 -0.1189
 9507SOL    HW140154   3.538   3.010   4.083  2.0181 -0.3689  1.1577
 9507SOL    HW240155   3.461   3.109   4.154 -0.0295  0.9289 -0.9383
 9508SOL     OW40156   0.488   1.597  13.838  0.2163  0.0016 -0.3236
 9508SOL    HW140157   0.515   1.637  13.755  2.2893 -2.4692 -0.8514
 9508SOL    HW240158   0.534   1.513  13.833  1.3478  0.5241  1.7274
 9509SOL     OW40159   3.874   4.190   8.331 -0.1341  0.0464  0.4702
 9509SOL    HW140160   3.910   4.228   8.251  1.2106 -4.2944 -1.0084
 9509SOL    HW240161   3.814   4.260   8.356  1.0133  1.2128 -0.0465
 9510SOL     OW40162   3.809   0.979  14.840 -0.8159  0.0354 -0.4844
 9510SOL    HW140163   3.899   0.985  14.809 -1.5116 -3.2675 -3.0661
 9510SOL    HW240164   3.778   1.069  14.826  2.2689  0.9596 -1.3736
 9511SOL     OW40165   2.936   4.421   8.666 -0.2520  0.0521  0.5493
 9511SOL    HW140166   2.911   4.328   8.668 -1.7499  0.4462  0.0182
 9511SOL    HW240167   2.909   4.460   8.749  1.0102 -1.2305  1.5612
 9512SOL     OW40168   4.309   0.791  12.186  0.4456  0.2606 -0.3934
 9512SOL    HW140169   4.233   0.735  12.207  2.0489 -2.7365 -2.6388
 9512SOL    HW240170   4.327   0.785  12.092  1.5828  0.4935 -0.1905
 9513SOL     OW40171   4.189   3.423  13.859  0.7046 -0.2721  0.1552
 9513SOL    HW140172   4.215   3.505  13.901  0.3983  0.1232 -0.4242
 9513SOL    HW240173   4.096   3.438  13.844  0.5750 -1.6641 -0.3918
 9514SOL     OW40174   3.703   3.967   8.298  0.0120 -0.0837 -0.4371
 9514SOL    HW140175   3.748   3.884   8.283 -1.1686 -0.7958 -0.0781
 9514SOL    HW240176   3.776   4.028   8.285 -1.6174  2.1434  0.8253
 9515SOL     OW40177   2.932   0.636   7.771  0.1539 -0.7427  0.9594
 9515SOL    HW140178   2.892   0.703   7.826 -0.3516  0.6918 -1.1326
 9515SOL    HW240179   2.999   0.602   7.830 -0.0775 -3.0553 -0.1100
 9516SOL     OW40180   0.830   1.601   1.817  0.5546  0.6402 -0.0875
 9516SOL    HW140181   0.914   1.558   1.833  0.0263  0.1597  1.3711
 9516SOL    HW240182   0.773   1.530   1.843  1.1018  0.4429  0.5739
 9517SOL     OW40183   4.091   1.167   3.206  0.8143 -0.2863  0.1087
 9517SOL    HW140184   4.102   1.114   3.127 -1.5036 -0.8282  0.1509
 9517SOL    HW240185   4.172   1.154   3.254  0.7851  1.5736  0.6634
 9518SOL     OW40186   1.616   3.702  16.691  0.2961  0.3538  0.1063
 9518SOL    HW140187   1.591   3.792  16.715  0.1458  0.1904  0.5616
 9518SOL    HW240188   1.703   3.708  16.731  0.6477 -0.8468 -0.4973
 9519SOL     OW40189   3.151   3.013   4.580 -0.3652 -0.1633 -0.5102
 9519SOL    HW140190   3.124   3.102   4.557 -2.4044 -0.0726  2.2528
 9519SOL    HW240191   3.123   3.004   4.671  0.1030  0.1509 -0.3352
 9520SOL     OW40192   3.567   0.424   8.896  0.2985 -0.1861  0.0177
 9520SOL    HW140193   3.650   0.384   8.871 -0.0832 -0.8271 -0.2297
 9520SOL    HW240194   3.539   0.359   8.960 -0.2381 -2.3970 -2.4425
 9521SOL     OW40195   2.314   4.017   7.864  0.6090  0.6467 -0.4269
 9521SOL    HW140196   2.330   3.986   7.775 -0.0638 -1.4632  0.1685
 9521SOL    HW240197   2.387   4.077   7.879  1.1373  0.0908 -0.7921
 9522SOL     OW40198   1.178   2.081   0.912  0.4977 -0.3936  0.0976
 9522SOL    HW140199   1.087   2.113   0.915  0.5561 -0.3910  2.1878
 9522SOL    HW240200   1.177   2.028   0.833 -1.0933  0.7060 -0.6284
 9523SOL     OW40201   4.520   0.083   3.827 -0.1488  0.3281 -0.2411
 9523SOL    HW140202   4.483   0.122   3.747 -0.3865  1.1331  0.2621
 9523SOL    HW240203   4.606   0.122   3.811  0.2225  0.3728  1.9796
 9524SOL     OW40204   1.352   4.557   8.024  0.1781  0.1621 -0.4139
 9524SOL    HW140205   1.389   4.633   7.979 -0.4539  1.1329  0.7098
 9524SOL    HW240206   1.429   4.504   8.047  1.5558  2.3926  0.1788
 9525SOL     OW40207   4.582   2.305   0.327 -0.3638  0.1180  0.1939
 9525SOL    HW140208   4.637   2.343   0.258  1.2232 -2.5212  0.0266
 9525SOL    HW240209   4.498   2.345   0.305 -0.6302 -0.1542  0.7212
 9526SOL     OW40210   0.500   1.467  14.855 -0.2260  0.3481  0.0673
 9526SOL    HW140211   0.498   1.482  14.761 -0.8877 -0.8874 -0.1117
 9526SOL    HW240212   0.590   1.443  14.878  0.2251 -1.3869 -3.5573
 9527SOL     OW40213   3.563   1.842   4.438 -0.4750 -0.3530  0.3041
 9527SOL    HW140214   3.538   1.855   4.347  0.1730  1.7919  0.4111
 9527SOL    HW240215   3.576   1.933   4.468 -0.1687 -0.6067  0.9551
 9528SOL     OW40216   3.575   1.027  16.401  0.2985  0.6144 -0.5410
 9528SOL    HW140217   3.636   1.008  16.472  2.4939  0.0917 -2.5623
 9528SOL    HW240218   3.521   1.096  16.440 -2.6873 -2.3186  0.4409
 9529SOL     OW40219   4.483   2.637   6.409  0.3875 -0.0169  0.1836
 9529SOL    HW140220   4.421   2.672   6.472  0.1568  0.4485 -0.3053
 9529SOL    HW240221   4.523   2.569   6.465  1.6802  1.7864  1.4417
 9530SOL     OW40222   3.235   4.271   1.624 -0.3672 -0.5084  0.0516
 9530SOL    HW140223   3.189   4.207   1.676 -0.7681  0.7123  1.1976
 9530SOL    HW240224   3.234   4.241   1.533 -0.7524 -1.2565  0.3072
 9531SOL     OW40225   3.214   1.903   7.881  0.3954  0.2740  0.8444
 9531SOL    HW140226   3.306   1.908   7.856 -0.4165  0.1003 -2.0959
 9531SOL    HW240227   3.191   1.994   7.900 -0.6869  0.3918 -1.1108
 9532SOL     OW40228   0.448   3.931   6.532  0.1340  0.1941  0.8362
 9532SOL    HW140229   0.426   3.866   6.599 -0.2104  0.4159  0.9363
 9532SOL    HW240230   0.543   3.924   6.521  0.1741  1.1518  0.6359
 9533SOL     OW40231   0.643   2.705   9.347  0.5620 -0.4305  0.0481
 9533SOL    HW140232   0.630   2.710   9.252 -3.5338  0.3019  0.6172
 9533SOL    HW240233   0.551   2.698   9.373  0.5565  4.2442  1.2403
 9534SOL     OW40234   3.162   1.212  10.139  0.3084  0.5527 -0.1780
 9534SOL    HW140235   3.096   1.245  10.200 -0.4449  0.0486 -0.7149
 9534SOL    HW240236   3.227   1.282  10.141  1.5076 -0.5735 -0.0128
 9535SOL     OW40237   0.861   4.731   8.039 -0.1522 -0.1060 -0.2843
 9535SOL    HW140238   0.936   0.027   7.989 -0.9052  0.2812 -1.1682
 9535SOL    HW240239   0.890   4.650   8.078 -1.5618 -1.3779 -1.8640
 9536SOL     OW40240   2.971   2.469  16.936 -0.1294 -0.0752 -0.5124
 9536SOL    HW140241   3.043   2.531  16.926 -0.7547  0.5497 -1.1033
 9536SOL    HW240242   2.894   2.513  16.972 -1.2718 -1.5309 -1.1921
 9537SOL     OW40243   4.591   2.742  13.137 -0.1962 -0.5481 -0.7802
 9537SOL    HW140244   4.593   2.825  13.089 -0.0044 -0.2412 -0.2336
 9537SOL    HW240245   4.612   2.680  13.066  0.8887 -2.8076  1.5164
 9538SOL     OW40246   1.891   0.914  10.962  0.2802  0.6111  0.2607
 9538SOL    HW140247   1.819   0.940  10.905  0.8290 -2.0029 -1.6283
 9538SOL    HW240248   1.850   0.856  11.027 -0.2079 -1.1568 -1.6069
 9539SOL     OW40249   2.882   3.637   3.670  0.0467  0.0531  0.0849
 9539SOL    HW140250   2.858   3.664   3.759  0.1391  1.2418 -0.2452
 9539SOL    HW240251   2.925   3.712   3.628  2.2978 -1.1012  0.3677
 9540SOL     OW40252   3.271   2.552   3.763  0.0326 -0.0113  0.0935
 9540SOL    HW140253   3.265   2.635   3.717  0.8743 -1.5541 -2.8058
 9540SOL    HW240254   3.229   2.499   3.696  0.1892 -0.7420  0.5751
 9541SOL     OW40255   2.232   3.316   6.592 -0.0139 -0.1585 -0.3124
 9541SOL    HW140256   2.243   3.352   6.680  1.6560 -1.0499 -0.1397
 9541SOL    HW240257   2.150   3.351   6.559 -0.0681 -1.1737 -1.2695
 9542SOL     OW40258   4.415   3.450  13.169 -0.2438 -0.0216  0.3803
 9542SOL    HW140259   4.443   3.397  13.095 -1.2190 -0.5093  0.3662
 9542SOL    HW240260   4.360   3.518  13.130 -3.0118 -1.5938  1.5518
 9543SOL     OW40261   0.228   2.534   6.818 -0.2181 -0.4334 -0.4112
 9543SOL    HW140262   0.238   2.520   6.912 -1.3971  0.2351 -0.1912
 9543SOL    HW240263   0.133   2.532   6.809 -0.2418 -0.5237 -0.1311
 9544SOL     OW40264   2.065   0.467   6.645  0.1345  0.1256  0.4843
 9544SOL    HW140265   2.017   0.386   6.659 -0.4291  0.0820 -1.6966
 9544SOL    HW240266   2.128   0.438   6.579  0.4241  1.5229  0.1354
 9545SOL     OW40267   3.212   2.993  12.028  0.3995 -0.1389  0.0287
 9545SOL    HW140268   3.305   2.983  12.008  0.8194  2.5542  0.6654
 9545SOL    HW240269   3.192   2.906  12.064 -2.6483 -0.2697 -2.0349
 9546SOL     OW40270   3.870   4.051   9.884  0.2768  0.1433 -0.1442
 9546SOL    HW140271   3.911   4.005   9.957  2.5734  0.3869 -1.2852
 9546SOL    HW240272   3.815   4.123   9.916 -2.7124 -1.8320 -0.8201
 9547SOL     OW40273   0.972   3.991   1.929  0.1525  0.2898 -0.0216
 9547SOL    HW140274   0.948   3.909   1.885 -0.0629 -0.4008  1.3834
 9547SOL    HW240275   1.004   3.952   2.011  0.1542 -0.8364 -0.5501
 9548SOL     OW40276   4.083   2.360   7.950  0.2617  0.3923 -0.0978
 9548SOL    HW140277   4.107   2.389   8.038  1.8589  2.2284 -1.1323
 9548SOL    HW240278   4.170   2.342   7.913  0.5619  2.3879 -0.3485
 9549SOL     OW40279   1.862   3.129   2.204  0.0595 -0.3307 -0.1355
 9549SOL    HW140280   1.955   3.122   2.223  0.5347  1.4500 -1.8284
 9549SOL    HW240281   1.842   3.036   2.192  0.3668 -0.0636 -2.7116
 9550SOL     OW40282   2.342   0.378  15.103  0.0849 -0.4538  0.2197
 9550SOL    HW140283   2.388   0.360  15.021 -0.7176  2.4493 -0.8670
 9550SOL    HW240284   2.253   0.357  15.074 -0.2206  0.3070  0.6197
 9551SOL     OW40285   2.356   4.310  14.498  0.6835 -0.3192 -0.0901
 9551SOL    HW140286   2.377   4.276  14.585 -2.7490 -1.3395  0.3635
 9551SOL    HW240287   2.378   4.403  14.504 -0.9270  0.0932 -0.6261
 9552SOL     OW40288   0.015   3.261   5.115 -0.3607  0.1567 -0.5969
 9552SOL    HW140289   4.673   3.244   5.063  0.6664 -1.0357 -1.7800
 9552SOL    HW240290   0.042   3.353   5.115 -0.4579  0.1886 -1.3368
 9553SOL     OW40291   4.361   1.505   5.468  0.0848 -0.2062 -0.2257
 9553SOL    HW140292   4.294   1.437   5.464  1.0141 -1.1501  0.5094
 9553SOL    HW240293   4.433   1.472   5.414  1.0235  1.7336 -0.1948
 9554SOL     OW40294   3.914   2.071   6.289 -0.1077  0.4000  0.0273
 9554SOL    HW140295   4.009   2.078   6.298 -0.0634  0.1509 -0.2580
 9554SOL    HW240296   3.874   2.108   6.368  0.3713  2.8856 -0.8929
 9555SOL     OW40297   3.078   2.823  11.345 -0.2506  0.0880 -0.5076
 9555SOL    HW140298   3.035   2.774  11.275 -2.0903 -0.6517  1.1602
 9555SOL    HW240299   3.107   2.756  11.406  1.2554  1.4284  0.2316
 9556SOL     OW40300   4.143   4.024   2.203 -0.3825  0.7576  0.2599
 9556SOL    HW140301   4.128   4.006   2.296  1.5081  1.9366  0.7716
 9556SOL    HW240302   4.228   3.980   2.202 -0.2749  0.9488  0.8826
 9557SOL     OW40303   1.059   0.139   7.352  0.3004  0.0693 -0.6880
 9557SOL    HW140304   1.100   0.106   7.272 -0.2154 -1.9684 -0.0975
 9557SOL    HW240305   1.104   0.081   7.414 -2.1580  1.3008  2.2847
 9558SOL     OW40306   0.814   4.370   5.872  0.3602  0.3601  0.1268
 9558SOL    HW140307   0.761   4.382   5.793  1.5699 -0.0143 -0.7288
 9558SOL    HW240308   0.888   4.420   5.837  0.1517  2.1333  2.1776
 9559SOL     OW40309   2.650   2.276   6.237 -0.3055 -1.1738  0.1505
 9559SOL    HW140310   2.579   2.337   6.260  0.3552  0.1706 -1.3603
 9559SOL    HW240311   2.698   2.258   6.317  0.0182 -1.0638 -0.0188
 9560SOL     OW40312   0.690   0.934   7.891 -0.3326 -0.1265  0.4372
 9560SOL    HW140313   0.755   0.873   7.924  0.6037  0.2798 -0.6674
 9560SOL    HW240314   0.709   1.017   7.936 -4.2101 -0.3310  2.4575
 9561SOL     OW40315   3.190   0.743   2.762  0.1037  0.3919  0.0383
 9561SOL    HW140316   3.214   0.833   2.780  2.2426 -0.4968  1.5946
 9561SOL    HW240317   3.197   0.703   2.849  0.1223 -0.1330 -0.1992
 9562SOL     OW40318   1.430   2.464   3.625  0.2054  0.6125  0.3884
 9562SOL    HW140319   1.433   2.545   3.574  1.1627  0.0294 -0.4588
 9562SOL    HW240320   1.384   2.498   3.703 -0.3497  0.6072  0.0615
 9563SOL     OW40321   1.755   3.019   2.918 -0.4714 -0.2948 -0.0333
 9563SOL    HW140322   1.826   3.065   2.874 -0.1764 -1.3054 -0.6252
 9563SOL    HW240323   1.700   3.086   2.958  0.1563  0.3612 -0.2618
 9564SOL     OW40324   1.032   2.073  13.133 -0.1744  0.2986 -0.5188
 9564SOL    HW140325   1.052   2.085  13.040 -0.2579  0.5861 -0.5013
 9564SOL    HW240326   1.045   1.980  13.148 -0.5184  0.5189  1.1166
 9565SOL     OW40327   0.862   2.113   4.313 -1.1916 -0.0467  0.6616
 9565SOL    HW140328   0.787   2.149   4.266  0.3170  2.3582  0.1421
 9565SOL    HW240329   0.897   2.194   4.348 -0.2449  1.3084 -3.4015
 9566SOL     OW40330   1.597   2.784   0.051  0.1322 -0.9761  0.5057
 9566SOL    HW140331   1.632   2.731  17.725  0.5505  0.3587 -0.2942
 9566SOL    HW240332   1.530   2.839   0.010 -0.6495  0.7414  4.0750
 9567SOL     OW40333   2.832   1.115  17.634  0.4761  0.3201 -0.0411
 9567SOL    HW140334   2.785   1.090  17.554 -3.7726 -1.3072  2.9279
 9567SOL    HW240335   2.763   1.134  17.697  2.7407  2.2545  1.8483
 9568SOL     OW40336   2.331   1.180   5.876  0.2956  0.5162 -0.5922
 9568SOL    HW140337   2.237   1.198   5.889  0.7923  0.2888  3.4752
 9568SOL    HW240338   2.340   1.086   5.862  1.0466  0.6263 -0.8221
 9569SOL     OW40339   0.402   4.165   2.052 -0.5266 -0.3025 -0.2625
 9569SOL    HW140340   0.468   4.132   1.991 -0.1940 -0.6889  0.3085
 9569SOL    HW240341   0.344   4.187   1.980  0.2875  0.1445 -0.7868
 9570SOL     OW40342   1.717   3.335   6.128 -0.4188  0.0396 -0.3045
 9570SOL    HW140343   1.713   3.407   6.191 -1.1813  0.0549 -0.3638
 9570SOL    HW240344   1.783   3.370   6.070 -1.0198  1.2013 -0.2830
 9571SOL     OW40345   4.087   1.814  15.850 -0.1566 -0.6977  0.0290
 9571SOL    HW140346   4.098   1.795  15.757 -0.9269 -0.2362 -0.1557
 9571SOL    HW240347   4.177   1.801  15.880 -0.3771 -1.3543  0.4003
   4.73670   4.73670  17.74523
